 Entering Gaussian System, Link 0=g16
 Initial command:
 /apps/gaussian/g16a03/g16/l1.exe "/jobfs/local/2011897.r-man2/Gau-30391.inp" -scrdir="/jobfs/local/2011897.r-man2/"
 Entering Link 1 = /apps/gaussian/g16a03/g16/l1.exe PID=     30392.
  
 Copyright (c) 1988,1990,1992,1993,1995,1998,2003,2009,2016,
            Gaussian, Inc.  All Rights Reserved.
  
 This is part of the Gaussian(R) 16 program.  It is based on
 the Gaussian(R) 09 system (copyright 2009, Gaussian, Inc.),
 the Gaussian(R) 03 system (copyright 2003, Gaussian, Inc.),
 the Gaussian(R) 98 system (copyright 1998, Gaussian, Inc.),
 the Gaussian(R) 94 system (copyright 1995, Gaussian, Inc.),
 the Gaussian 92(TM) system (copyright 1992, Gaussian, Inc.),
 the Gaussian 90(TM) system (copyright 1990, Gaussian, Inc.),
 the Gaussian 88(TM) system (copyright 1988, Gaussian, Inc.),
 the Gaussian 86(TM) system (copyright 1986, Carnegie Mellon
 University), and the Gaussian 82(TM) system (copyright 1983,
 Carnegie Mellon University). Gaussian is a federally registered
 trademark of Gaussian, Inc.
  
 This software contains proprietary and confidential information,
 including trade secrets, belonging to Gaussian, Inc.
  
 This software is provided under written license and may be
 used, copied, transmitted, or stored only in accord with that
 written license.
  
 The following legend is applicable only to US Government
 contracts under FAR:
  
                    RESTRICTED RIGHTS LEGEND
  
 Use, reproduction and disclosure by the US Government is
 subject to restrictions as set forth in subparagraphs (a)
 and (c) of the Commercial Computer Software - Restricted
 Rights clause in FAR 52.227-19.
  
 Gaussian, Inc.
 340 Quinnipiac St., Bldg. 40, Wallingford CT 06492
  
  
 ---------------------------------------------------------------
 Warning -- This program may not be used in any manner that
 competes with the business of Gaussian, Inc. or will provide
 assistance to any competitor of Gaussian, Inc.  The licensee
 of this program is prohibited from giving any competitor of
 Gaussian, Inc. access to this program.  By using this program,
 the user acknowledges that Gaussian, Inc. is engaged in the
 business of creating and licensing software in the field of
 computational chemistry and represents and warrants to the
 licensee that it is not a competitor of Gaussian, Inc. and that
 it will not use this program in any manner prohibited above.
 ---------------------------------------------------------------
  

 Cite this work as:
 Gaussian 16, Revision A.03,
 M. J. Frisch, G. W. Trucks, H. B. Schlegel, G. E. Scuseria, 
 M. A. Robb, J. R. Cheeseman, G. Scalmani, V. Barone, 
 G. A. Petersson, H. Nakatsuji, X. Li, M. Caricato, A. V. Marenich, 
 J. Bloino, B. G. Janesko, R. Gomperts, B. Mennucci, H. P. Hratchian, 
 J. V. Ortiz, A. F. Izmaylov, J. L. Sonnenberg, D. Williams-Young, 
 F. Ding, F. Lipparini, F. Egidi, J. Goings, B. Peng, A. Petrone, 
 T. Henderson, D. Ranasinghe, V. G. Zakrzewski, J. Gao, N. Rega, 
 G. Zheng, W. Liang, M. Hada, M. Ehara, K. Toyota, R. Fukuda, 
 J. Hasegawa, M. Ishida, T. Nakajima, Y. Honda, O. Kitao, H. Nakai, 
 T. Vreven, K. Throssell, J. A. Montgomery, Jr., J. E. Peralta, 
 F. Ogliaro, M. J. Bearpark, J. J. Heyd, E. N. Brothers, K. N. Kudin, 
 V. N. Staroverov, T. A. Keith, R. Kobayashi, J. Normand, 
 K. Raghavachari, A. P. Rendell, J. C. Burant, S. S. Iyengar, 
 J. Tomasi, M. Cossi, J. M. Millam, M. Klene, C. Adamo, R. Cammi, 
 J. W. Ochterski, R. L. Martin, K. Morokuma, O. Farkas, 
 J. B. Foresman, and D. J. Fox, Gaussian, Inc., Wallingford CT, 2016.
 
 ******************************************
 Gaussian 16:  ES64L-G16RevA.03 25-Dec-2016
                 5-Nov-2018 
 ******************************************
 %mem=6000mb
 %nproc=24
 Will use up to   24 processors via shared memory.
 %chk=D_1a_4a_L_PHI.inp_extract_8.chk
 ----------------------------------------------------------------------
 #M062X/6-311++G(2d,2p) opt=ModRedundant freq=noraman SCRF=(Solvent=Wat
 er)
 ----------------------------------------------------------------------
 1/18=120,19=15,26=3,38=1/1,3;
 2/9=110,12=2,17=6,18=5,40=1/2;
 3/5=4,6=6,7=1212,11=2,25=1,30=1,70=2201,71=1,72=1,74=-55/1,2,3;
 4//1;
 5/5=2,38=5,53=1/2;
 6/7=2,8=2,9=2,10=2,28=1/1;
 7//1,2,3,16;
 1/18=20,19=15,26=3/3(2);
 2/9=110/2;
 99//99;
 2/9=110/2;
 3/5=4,6=6,7=1212,11=2,25=1,30=1,70=2205,71=1,72=1,74=-55/1,2,3;
 4/5=5,16=3,69=1/1;
 5/5=2,38=5,53=1/2;
 7//1,2,3,16;
 1/18=20,19=15,26=3/3(-5);
 2/9=110/2;
 6/7=2,8=2,9=2,10=2,19=2,28=1/1;
 99/9=1/99;
 ---------------------------
 D_1a_4a_L_PHI.inp_extract_8
 ---------------------------
 Symbolic Z-matrix:
 Charge =  0 Multiplicity = 1
 C                     3.45243   0.62863   0.3354 
 C                     1.09295  -0.87056  -0.40283 
 C                    -1.68718   1.48303  -0.14308 
 C                     2.72274  -0.18712   1.40284 
 C                    -3.49521  -0.06658   0.62699 
 O                    -2.75812  -1.15509   0.10068 
 C                     2.48525   1.04586  -0.75977 
 C                    -0.99504   0.27643  -0.77014 
 C                    -2.57094   1.06932   1.03575 
 C                    -2.01239  -0.82187  -1.05086 
 O                     1.81022  -0.07745  -1.31146 
 O                     0.00145  -0.18054   0.13466 
 C                     1.97209  -1.34506   0.7433 
 H                     4.251     0.03321  -0.10119 
 H                     3.90597   1.51737   0.76498 
 H                    -2.3032    1.94831  -0.90865 
 H                     3.42583  -0.57447   2.13382 
 H                     2.02714   0.45216   1.93965 
 H                     1.75616   1.75272  -0.37835 
 H                     3.00145   1.50943  -1.58905 
 H                    -1.95896   0.74853   1.87356 
 H                    -3.16676   1.91185   1.37489 
 H                    -2.68501  -0.48851  -1.8379 
 H                    -1.53022  -1.73152  -1.37934 
 H                     2.68658  -2.05282   0.33207 
 H                     1.35801  -1.88113   1.45886 
 H                     0.74395  -1.70818  -0.99035 
 H                    -4.20858   0.27157  -0.12182 
 H                    -4.04711  -0.45287   1.47305 
 H                    -0.94481   2.21277   0.16212 
 H                    -0.52809   0.56372  -1.70289 
 
 The following ModRedundant input section has been read:
 D      11       2      12       8 F                                           
 

 GradGradGradGradGradGradGradGradGradGradGradGradGradGradGradGradGradGrad
 Berny optimization.
 Initialization pass.
                           ----------------------------
                           !    Initial Parameters    !
                           ! (Angstroms and Degrees)  !
 --------------------------                            --------------------------
 ! Name  Definition              Value          Derivative Info.                !
 --------------------------------------------------------------------------------
 ! R1    R(1,4)                  1.5288         estimate D2E/DX2                !
 ! R2    R(1,7)                  1.5195         estimate D2E/DX2                !
 ! R3    R(1,14)                 1.0876         estimate D2E/DX2                !
 ! R4    R(1,15)                 1.0863         estimate D2E/DX2                !
 ! R5    R(2,11)                 1.4033         estimate D2E/DX2                !
 ! R6    R(2,12)                 1.3987         estimate D2E/DX2                !
 ! R7    R(2,13)                 1.5204         estimate D2E/DX2                !
 ! R8    R(2,27)                 1.081          estimate D2E/DX2                !
 ! R9    R(3,8)                  1.5258         estimate D2E/DX2                !
 ! R10   R(3,9)                  1.5303         estimate D2E/DX2                !
 ! R11   R(3,16)                 1.0872         estimate D2E/DX2                !
 ! R12   R(3,30)                 1.0848         estimate D2E/DX2                !
 ! R13   R(4,13)                 1.5295         estimate D2E/DX2                !
 ! R14   R(4,17)                 1.0857         estimate D2E/DX2                !
 ! R15   R(4,18)                 1.0866         estimate D2E/DX2                !
 ! R16   R(5,6)                  1.416          estimate D2E/DX2                !
 ! R17   R(5,9)                  1.5204         estimate D2E/DX2                !
 ! R18   R(5,28)                 1.0881         estimate D2E/DX2                !
 ! R19   R(5,29)                 1.0815         estimate D2E/DX2                !
 ! R20   R(6,10)                 1.4118         estimate D2E/DX2                !
 ! R21   R(7,11)                 1.4219         estimate D2E/DX2                !
 ! R22   R(7,19)                 1.0848         estimate D2E/DX2                !
 ! R23   R(7,20)                 1.0812         estimate D2E/DX2                !
 ! R24   R(8,10)                 1.5232         estimate D2E/DX2                !
 ! R25   R(8,12)                 1.4214         estimate D2E/DX2                !
 ! R26   R(8,31)                 1.0819         estimate D2E/DX2                !
 ! R27   R(9,21)                 1.086          estimate D2E/DX2                !
 ! R28   R(9,22)                 1.0862         estimate D2E/DX2                !
 ! R29   R(10,23)                1.0876         estimate D2E/DX2                !
 ! R30   R(10,24)                1.0807         estimate D2E/DX2                !
 ! R31   R(13,25)                1.0865         estimate D2E/DX2                !
 ! R32   R(13,26)                1.0847         estimate D2E/DX2                !
 ! A1    A(4,1,7)              110.2389         estimate D2E/DX2                !
 ! A2    A(4,1,14)             109.7927         estimate D2E/DX2                !
 ! A3    A(4,1,15)             111.0819         estimate D2E/DX2                !
 ! A4    A(7,1,14)             109.169          estimate D2E/DX2                !
 ! A5    A(7,1,15)             109.033          estimate D2E/DX2                !
 ! A6    A(14,1,15)            107.4625         estimate D2E/DX2                !
 ! A7    A(11,2,12)            111.6461         estimate D2E/DX2                !
 ! A8    A(11,2,13)            111.651          estimate D2E/DX2                !
 ! A9    A(11,2,27)            104.5389         estimate D2E/DX2                !
 ! A10   A(12,2,13)            108.3917         estimate D2E/DX2                !
 ! A11   A(12,2,27)            109.8259         estimate D2E/DX2                !
 ! A12   A(13,2,27)            110.7667         estimate D2E/DX2                !
 ! A13   A(8,3,9)              111.3928         estimate D2E/DX2                !
 ! A14   A(8,3,16)             107.8217         estimate D2E/DX2                !
 ! A15   A(8,3,30)             109.7033         estimate D2E/DX2                !
 ! A16   A(9,3,16)             109.3238         estimate D2E/DX2                !
 ! A17   A(9,3,30)             111.1216         estimate D2E/DX2                !
 ! A18   A(16,3,30)            107.3355         estimate D2E/DX2                !
 ! A19   A(1,4,13)             109.702          estimate D2E/DX2                !
 ! A20   A(1,4,17)             110.5711         estimate D2E/DX2                !
 ! A21   A(1,4,18)             109.6666         estimate D2E/DX2                !
 ! A22   A(13,4,17)            109.7594         estimate D2E/DX2                !
 ! A23   A(13,4,18)            110.1372         estimate D2E/DX2                !
 ! A24   A(17,4,18)            106.9686         estimate D2E/DX2                !
 ! A25   A(6,5,9)              110.9646         estimate D2E/DX2                !
 ! A26   A(6,5,28)             108.9281         estimate D2E/DX2                !
 ! A27   A(6,5,29)             106.3699         estimate D2E/DX2                !
 ! A28   A(9,5,28)             110.5727         estimate D2E/DX2                !
 ! A29   A(9,5,29)             111.5151         estimate D2E/DX2                !
 ! A30   A(28,5,29)            108.3486         estimate D2E/DX2                !
 ! A31   A(5,6,10)             113.3707         estimate D2E/DX2                !
 ! A32   A(1,7,11)             111.4012         estimate D2E/DX2                !
 ! A33   A(1,7,19)             110.6894         estimate D2E/DX2                !
 ! A34   A(1,7,20)             111.5081         estimate D2E/DX2                !
 ! A35   A(11,7,19)            109.3982         estimate D2E/DX2                !
 ! A36   A(11,7,20)            105.5319         estimate D2E/DX2                !
 ! A37   A(19,7,20)            108.1306         estimate D2E/DX2                !
 ! A38   A(3,8,10)             110.0578         estimate D2E/DX2                !
 ! A39   A(3,8,12)             108.0976         estimate D2E/DX2                !
 ! A40   A(3,8,31)             109.8827         estimate D2E/DX2                !
 ! A41   A(10,8,12)            110.7162         estimate D2E/DX2                !
 ! A42   A(10,8,31)            108.7139         estimate D2E/DX2                !
 ! A43   A(12,8,31)            109.3635         estimate D2E/DX2                !
 ! A44   A(3,9,5)              110.2392         estimate D2E/DX2                !
 ! A45   A(3,9,21)             110.4085         estimate D2E/DX2                !
 ! A46   A(3,9,22)             110.3404         estimate D2E/DX2                !
 ! A47   A(5,9,21)             109.2263         estimate D2E/DX2                !
 ! A48   A(5,9,22)             109.2672         estimate D2E/DX2                !
 ! A49   A(21,9,22)            107.2993         estimate D2E/DX2                !
 ! A50   A(6,10,8)             111.8795         estimate D2E/DX2                !
 ! A51   A(6,10,23)            109.6277         estimate D2E/DX2                !
 ! A52   A(6,10,24)            106.5547         estimate D2E/DX2                !
 ! A53   A(8,10,23)            108.9902         estimate D2E/DX2                !
 ! A54   A(8,10,24)            111.4049         estimate D2E/DX2                !
 ! A55   A(23,10,24)           108.2988         estimate D2E/DX2                !
 ! A56   A(2,11,7)             115.9717         estimate D2E/DX2                !
 ! A57   A(2,12,8)             117.4558         estimate D2E/DX2                !
 ! A58   A(2,13,4)             111.8751         estimate D2E/DX2                !
 ! A59   A(2,13,25)            107.3506         estimate D2E/DX2                !
 ! A60   A(2,13,26)            108.9162         estimate D2E/DX2                !
 ! A61   A(4,13,25)            109.4895         estimate D2E/DX2                !
 ! A62   A(4,13,26)            111.5645         estimate D2E/DX2                !
 ! A63   A(25,13,26)           107.4602         estimate D2E/DX2                !
 ! D1    D(7,1,4,13)            52.9729         estimate D2E/DX2                !
 ! D2    D(7,1,4,17)           174.167          estimate D2E/DX2                !
 ! D3    D(7,1,4,18)           -68.1121         estimate D2E/DX2                !
 ! D4    D(14,1,4,13)          -67.3334         estimate D2E/DX2                !
 ! D5    D(14,1,4,17)           53.8607         estimate D2E/DX2                !
 ! D6    D(14,1,4,18)          171.5816         estimate D2E/DX2                !
 ! D7    D(15,1,4,13)          173.9462         estimate D2E/DX2                !
 ! D8    D(15,1,4,17)          -64.8596         estimate D2E/DX2                !
 ! D9    D(15,1,4,18)           52.8612         estimate D2E/DX2                !
 ! D10   D(4,1,7,11)           -54.8086         estimate D2E/DX2                !
 ! D11   D(4,1,7,19)            67.1518         estimate D2E/DX2                !
 ! D12   D(4,1,7,20)          -172.4268         estimate D2E/DX2                !
 ! D13   D(14,1,7,11)           65.8724         estimate D2E/DX2                !
 ! D14   D(14,1,7,19)         -172.1672         estimate D2E/DX2                !
 ! D15   D(14,1,7,20)          -51.7458         estimate D2E/DX2                !
 ! D16   D(15,1,7,11)         -176.9989         estimate D2E/DX2                !
 ! D17   D(15,1,7,19)          -55.0385         estimate D2E/DX2                !
 ! D18   D(15,1,7,20)           65.383          estimate D2E/DX2                !
 ! D19   D(12,2,11,7)           66.747          estimate D2E/DX2                !
 ! D20   D(13,2,11,7)          -54.77           estimate D2E/DX2                !
 ! D21   D(27,2,11,7)         -174.5748         estimate D2E/DX2                !
 ! D22   D(11,2,12,8)           60.5424         Frozen                          !
 ! D23   D(13,2,12,8)         -176.0724         estimate D2E/DX2                !
 ! D24   D(27,2,12,8)          -54.9367         estimate D2E/DX2                !
 ! D25   D(11,2,13,4)           51.4943         estimate D2E/DX2                !
 ! D26   D(11,2,13,25)         -68.6447         estimate D2E/DX2                !
 ! D27   D(11,2,13,26)         175.2922         estimate D2E/DX2                !
 ! D28   D(12,2,13,4)          -71.888          estimate D2E/DX2                !
 ! D29   D(12,2,13,25)         167.9731         estimate D2E/DX2                !
 ! D30   D(12,2,13,26)          51.9099         estimate D2E/DX2                !
 ! D31   D(27,2,13,4)          167.559          estimate D2E/DX2                !
 ! D32   D(27,2,13,25)          47.42           estimate D2E/DX2                !
 ! D33   D(27,2,13,26)         -68.6431         estimate D2E/DX2                !
 ! D34   D(9,3,8,10)            49.8642         estimate D2E/DX2                !
 ! D35   D(9,3,8,12)           -71.1667         estimate D2E/DX2                !
 ! D36   D(9,3,8,31)           169.5508         estimate D2E/DX2                !
 ! D37   D(16,3,8,10)          -70.086          estimate D2E/DX2                !
 ! D38   D(16,3,8,12)          168.8831         estimate D2E/DX2                !
 ! D39   D(16,3,8,31)           49.6005         estimate D2E/DX2                !
 ! D40   D(30,3,8,10)          173.3255         estimate D2E/DX2                !
 ! D41   D(30,3,8,12)           52.2947         estimate D2E/DX2                !
 ! D42   D(30,3,8,31)          -66.9879         estimate D2E/DX2                !
 ! D43   D(8,3,9,5)            -50.8367         estimate D2E/DX2                !
 ! D44   D(8,3,9,21)            69.9377         estimate D2E/DX2                !
 ! D45   D(8,3,9,22)          -171.6178         estimate D2E/DX2                !
 ! D46   D(16,3,9,5)            68.2216         estimate D2E/DX2                !
 ! D47   D(16,3,9,21)         -171.004          estimate D2E/DX2                !
 ! D48   D(16,3,9,22)          -52.5595         estimate D2E/DX2                !
 ! D49   D(30,3,9,5)          -173.487          estimate D2E/DX2                !
 ! D50   D(30,3,9,21)          -52.7126         estimate D2E/DX2                !
 ! D51   D(30,3,9,22)           65.7319         estimate D2E/DX2                !
 ! D52   D(1,4,13,2)           -51.6172         estimate D2E/DX2                !
 ! D53   D(1,4,13,25)           67.2631         estimate D2E/DX2                !
 ! D54   D(1,4,13,26)         -173.914          estimate D2E/DX2                !
 ! D55   D(17,4,13,2)         -173.299          estimate D2E/DX2                !
 ! D56   D(17,4,13,25)         -54.4187         estimate D2E/DX2                !
 ! D57   D(17,4,13,26)          64.4042         estimate D2E/DX2                !
 ! D58   D(18,4,13,2)           69.1837         estimate D2E/DX2                !
 ! D59   D(18,4,13,25)        -171.936          estimate D2E/DX2                !
 ! D60   D(18,4,13,26)         -53.1131         estimate D2E/DX2                !
 ! D61   D(9,5,6,10)           -60.6559         estimate D2E/DX2                !
 ! D62   D(28,5,6,10)           61.2962         estimate D2E/DX2                !
 ! D63   D(29,5,6,10)          177.8851         estimate D2E/DX2                !
 ! D64   D(6,5,9,3)             54.9724         estimate D2E/DX2                !
 ! D65   D(6,5,9,21)           -66.5074         estimate D2E/DX2                !
 ! D66   D(6,5,9,22)           176.3942         estimate D2E/DX2                !
 ! D67   D(28,5,9,3)           -66.0149         estimate D2E/DX2                !
 ! D68   D(28,5,9,21)          172.5053         estimate D2E/DX2                !
 ! D69   D(28,5,9,22)           55.4068         estimate D2E/DX2                !
 ! D70   D(29,5,9,3)           173.3622         estimate D2E/DX2                !
 ! D71   D(29,5,9,21)           51.8824         estimate D2E/DX2                !
 ! D72   D(29,5,9,22)          -65.2161         estimate D2E/DX2                !
 ! D73   D(5,6,10,8)            60.2315         estimate D2E/DX2                !
 ! D74   D(5,6,10,23)          -60.8003         estimate D2E/DX2                !
 ! D75   D(5,6,10,24)         -177.7858         estimate D2E/DX2                !
 ! D76   D(1,7,11,2)            56.9621         estimate D2E/DX2                !
 ! D77   D(19,7,11,2)          -65.7425         estimate D2E/DX2                !
 ! D78   D(20,7,11,2)          178.1358         estimate D2E/DX2                !
 ! D79   D(3,8,10,6)           -53.7059         estimate D2E/DX2                !
 ! D80   D(3,8,10,23)           67.6944         estimate D2E/DX2                !
 ! D81   D(3,8,10,24)         -172.8635         estimate D2E/DX2                !
 ! D82   D(12,8,10,6)           65.7422         estimate D2E/DX2                !
 ! D83   D(12,8,10,23)        -172.8575         estimate D2E/DX2                !
 ! D84   D(12,8,10,24)         -53.4154         estimate D2E/DX2                !
 ! D85   D(31,8,10,6)         -174.1002         estimate D2E/DX2                !
 ! D86   D(31,8,10,23)         -52.6999         estimate D2E/DX2                !
 ! D87   D(31,8,10,24)          66.7422         estimate D2E/DX2                !
 ! D88   D(3,8,12,2)          -154.108          estimate D2E/DX2                !
 ! D89   D(10,8,12,2)           85.2712         estimate D2E/DX2                !
 ! D90   D(31,8,12,2)          -34.4975         estimate D2E/DX2                !
 --------------------------------------------------------------------------------
 Trust Radius=3.00D-01 FncErr=1.00D-07 GrdErr=1.00D-06 EigMax=2.50D+02 EigMin=1.00D-04
 Number of steps in this run=    186 maximum allowed number of steps=    186.
 GradGradGradGradGradGradGradGradGradGradGradGradGradGradGradGradGradGrad

                          Input orientation:                          
 ---------------------------------------------------------------------
 Center     Atomic      Atomic             Coordinates (Angstroms)
 Number     Number       Type             X           Y           Z
 ---------------------------------------------------------------------
      1          6           0        3.452434    0.628627    0.335404
      2          6           0        1.092953   -0.870563   -0.402827
      3          6           0       -1.687183    1.483029   -0.143080
      4          6           0        2.722739   -0.187124    1.402840
      5          6           0       -3.495205   -0.066580    0.626985
      6          8           0       -2.758115   -1.155086    0.100679
      7          6           0        2.485251    1.045856   -0.759773
      8          6           0       -0.995044    0.276433   -0.770142
      9          6           0       -2.570937    1.069322    1.035751
     10          6           0       -2.012394   -0.821872   -1.050863
     11          8           0        1.810216   -0.077448   -1.311464
     12          8           0        0.001450   -0.180539    0.134658
     13          6           0        1.972092   -1.345056    0.743297
     14          1           0        4.251003    0.033211   -0.101187
     15          1           0        3.905973    1.517367    0.764979
     16          1           0       -2.303203    1.948313   -0.908649
     17          1           0        3.425829   -0.574466    2.133823
     18          1           0        2.027143    0.452161    1.939646
     19          1           0        1.756162    1.752722   -0.378345
     20          1           0        3.001450    1.509426   -1.589045
     21          1           0       -1.958958    0.748534    1.873564
     22          1           0       -3.166762    1.911845    1.374886
     23          1           0       -2.685014   -0.488511   -1.837897
     24          1           0       -1.530220   -1.731515   -1.379339
     25          1           0        2.686583   -2.052819    0.332066
     26          1           0        1.358010   -1.881129    1.458861
     27          1           0        0.743951   -1.708181   -0.990351
     28          1           0       -4.208578    0.271569   -0.121817
     29          1           0       -4.047110   -0.452869    1.473054
     30          1           0       -0.944811    2.212769    0.162115
     31          1           0       -0.528085    0.563722   -1.702891
 ---------------------------------------------------------------------
                    Distance matrix (angstroms):
                    1          2          3          4          5
     1  C    0.000000
     2  C    2.891316   0.000000
     3  C    5.232075   3.651852   0.000000
     4  C    1.528831   2.526603   4.962529   0.000000
     5  C    6.988420   4.770545   2.502645   6.267321   0.000000
     6  O    6.465883   3.894252   2.857615   5.715972   1.416031
     7  C    1.519518   2.395530   4.240358   2.500707   6.239108
     8  C    4.596339   2.410446   1.525823   4.331125   2.884515
     9  C    6.079942   4.388251   1.530300   5.453111   1.520406
    10  C    5.821514   3.172617   2.498480   5.370759   2.363127
    11  O    2.430555   1.403253   4.003999   2.865689   5.648468
    12  O    3.550259   1.398714   2.386646   3.002290   3.532983
    13  C    2.500643   1.520404   4.708930   1.529469   5.615992
    14  H    1.087586   3.298647   6.112756   2.155513   7.780998
    15  H    1.086320   3.870279   5.666493   2.170760   7.570031
    16  H    6.034616   4.442499   1.087228   5.929854   2.799792
    17  H    2.163897   3.458985   5.963260   1.085682   7.101353
    18  H    2.153181   2.847717   4.381399   1.086600   5.699868
    19  H    2.156471   2.705932   3.461894   2.805333   5.647779
    20  H    2.163954   3.273197   4.906607   3.450701   7.042806
    21  H    5.627031   4.137341   2.163376   4.797429   2.139725
    22  H    6.822091   5.389548   2.162697   6.252413   2.140420
    23  H    6.606020   4.059363   2.784787   6.311656   2.628703
    24  H    5.773860   2.928455   3.447647   5.311622   3.264737
    25  H    2.788672   2.115999   5.644273   2.151437   6.499740
    26  H    3.456536   2.134802   4.812169   2.176069   5.247695
    27  H    3.814994   1.081014   4.100256   3.457829   4.825046
    28  H    7.682945   5.430439   2.797413   7.111831   1.088095
    29  H    7.662052   5.487590   3.453816   6.775427   1.081504
    30  H    4.677104   3.738794   1.084795   4.555196   3.451963
    31  H    4.472515   2.524897   2.149801   4.558200   3.824840
                    6          7          8          9         10
     6  O    0.000000
     7  C    5.751296   0.000000
     8  C    2.432282   3.564347   0.000000
     9  C    2.420204   5.365584   2.524552   0.000000
    10  C    1.411800   4.878724   1.523181   2.870983   0.000000
    11  O    4.901541   1.421917   2.878844   5.100882   3.903130
    12  O    2.926789   2.910897   1.421438   2.998549   2.423290
    13  C    4.777437   2.870368   3.704540   5.153044   4.401007
    14  H    7.111999   2.139408   5.294116   6.993212   6.392433
    15  H    7.210643   2.136736   5.283605   6.498032   6.617884
    16  H    3.294962   4.875027   2.127357   2.150581   2.789036
    17  H    6.535439   3.447177   5.357346   6.314191   6.306957
    18  H    5.372498   2.801642   4.062936   4.726548   5.184994
    19  H    5.391058   1.084766   3.146755   4.603313   4.613332
    20  H    6.567144   1.081226   4.261788   6.175333   5.555468
    21  H    2.721313   5.174346   2.853277   1.085981   3.319835
    22  H    3.346141   6.103438   3.462958   1.086216   3.832758
    23  H    2.051278   5.499843   2.140383   3.270735   1.087644
    24  H    2.007598   4.921550   2.165500   3.841932   1.080666
    25  H    5.523061   3.291570   4.493846   6.155035   5.050555
    26  H    4.394802   3.841907   3.893635   4.931613   4.333632
    27  H    3.709545   3.266498   2.647884   4.775782   2.895970
    28  H    2.046629   6.768593   3.278285   2.158296   2.623350
    29  H    2.009485   7.064236   3.857320   2.165037   3.262881
    30  H    3.825479   3.738568   2.149657   2.171404   3.438037
    31  H    3.343681   3.194076   1.081946   3.453844   2.132647
                   11         12         13         14         15
    11  O    0.000000
    12  O    2.318088   0.000000
    13  C    2.419727   2.368538   0.000000
    14  H    2.726620   4.261457   2.793959   0.000000
    15  H    3.353692   4.304125   3.454538   1.752715   0.000000
    16  H    4.602845   3.306346   5.643877   6.875844   6.445201
    17  H    3.837608   3.984747   2.154234   2.458750   2.545592
    18  H    3.301100   2.785987   2.159692   3.047306   2.458558
    19  H    2.055032   2.660768   3.301656   3.042658   2.446277
    20  H    2.003562   3.850602   3.827201   2.440146   2.521835
    21  H    5.003331   2.780318   4.594973   6.555528   6.018096
    22  H    5.995338   3.994221   6.116709   7.793029   7.109935
    23  H    4.544579   3.347075   5.393039   7.169148   7.364755
    24  H    3.728144   2.654002   4.113529   6.178225   6.686219
    25  H    2.715014   3.279381   1.086525   2.643225   3.797440
    26  H    3.336534   2.546718   1.084667   3.803663   4.303878
    27  H    1.974671   2.037313   2.155395   4.015280   4.846001
    28  H    6.145157   4.241994   6.446905   8.462963   8.257382
    29  H    6.496364   4.272740   6.128567   8.460094   8.224034
    30  H    3.873849   2.573730   4.637264   5.640593   4.937321
    31  H    2.456006   2.052052   3.984740   5.068193   5.163399
                   16         17         18         19         20
    16  H    0.000000
    17  H    6.960090   0.000000
    18  H    5.394734   1.745849   0.000000
    19  H    4.098527   3.809801   2.671698   0.000000
    20  H    5.366088   4.287476   3.810347   1.753776   0.000000
    21  H    3.049374   5.551035   3.997650   4.458879   6.097070
    22  H    2.441638   7.086606   5.424600   5.228223   6.855193
    23  H    2.635791   7.288645   6.112211   5.184348   6.032375
    24  H    3.789484   6.184132   5.332817   4.893077   5.575277
    25  H    6.515090   2.445065   3.048623   3.981521   4.059482
    26  H    5.802948   2.537482   2.474497   4.091299   4.846286
    27  H    4.760438   4.270626   3.859863   3.657454   3.975894
    28  H    2.657260   8.005489   6.570119   6.151239   7.461203
    29  H    3.805180   7.503081   6.159005   6.478447   7.931535
    30  H    1.749772   5.546062   3.884825   2.792668   4.374269
    31  H    2.387249   5.625769   4.450810   2.895847   3.655808
                   21         22         23         24         25
    21  H    0.000000
    22  H    1.749504   0.000000
    23  H    3.978992   4.039278   0.000000
    24  H    4.112887   4.851608   1.757522   0.000000
    25  H    5.639579   7.146166   6.000821   4.562189   0.000000
    26  H    4.253162   5.904851   5.399448   4.052115   1.750500
    27  H    4.641463   5.830318   3.736807   2.307317   2.375159
    28  H    3.044640   2.452755   2.417416   3.573137   7.290544
    29  H    2.442162   2.525178   3.580359   4.013205   7.014579
    30  H    2.470129   2.549203   3.784874   4.275063   5.604565
    31  H    3.856499   4.272325   2.403698   2.525287   4.617513
                   26         27         28         29         30
    26  H    0.000000
    27  H    2.530932   0.000000
    28  H    6.174103   5.403823   0.000000
    29  H    5.590657   5.531585   1.759118   0.000000
    30  H    4.872837   4.421984   3.808024   4.295165   0.000000
    31  H    4.419426   2.699506   4.016364   4.848053   2.524136
                   31
    31  H    0.000000
 Stoichiometry    C10H18O3
 Framework group  C1[X(C10H18O3)]
 Deg. of freedom    87
 Full point group                 C1      NOp   1
 Largest Abelian subgroup         C1      NOp   1
 Largest concise Abelian subgroup C1      NOp   1
                         Standard orientation:                         
 ---------------------------------------------------------------------
 Center     Atomic      Atomic             Coordinates (Angstroms)
 Number     Number       Type             X           Y           Z
 ---------------------------------------------------------------------
      1          6           0        3.452434    0.628627    0.335404
      2          6           0        1.092953   -0.870563   -0.402827
      3          6           0       -1.687183    1.483029   -0.143080
      4          6           0        2.722739   -0.187124    1.402840
      5          6           0       -3.495205   -0.066580    0.626985
      6          8           0       -2.758115   -1.155086    0.100679
      7          6           0        2.485251    1.045856   -0.759773
      8          6           0       -0.995044    0.276433   -0.770142
      9          6           0       -2.570937    1.069322    1.035751
     10          6           0       -2.012394   -0.821872   -1.050863
     11          8           0        1.810216   -0.077448   -1.311464
     12          8           0        0.001450   -0.180539    0.134658
     13          6           0        1.972092   -1.345056    0.743297
     14          1           0        4.251003    0.033211   -0.101187
     15          1           0        3.905973    1.517367    0.764979
     16          1           0       -2.303203    1.948313   -0.908649
     17          1           0        3.425829   -0.574466    2.133823
     18          1           0        2.027143    0.452161    1.939646
     19          1           0        1.756162    1.752722   -0.378345
     20          1           0        3.001450    1.509426   -1.589045
     21          1           0       -1.958958    0.748534    1.873564
     22          1           0       -3.166762    1.911845    1.374886
     23          1           0       -2.685014   -0.488511   -1.837897
     24          1           0       -1.530220   -1.731515   -1.379339
     25          1           0        2.686583   -2.052819    0.332066
     26          1           0        1.358010   -1.881129    1.458861
     27          1           0        0.743951   -1.708181   -0.990351
     28          1           0       -4.208578    0.271569   -0.121817
     29          1           0       -4.047110   -0.452869    1.473054
     30          1           0       -0.944811    2.212769    0.162115
     31          1           0       -0.528085    0.563722   -1.702891
 ---------------------------------------------------------------------
 Rotational constants (GHZ):           1.7178259           0.4448879           0.4380313
 Standard basis: 6-311++G(2d,2p) (5D, 7F)
 There are   557 symmetry adapted cartesian basis functions of A   symmetry.
 There are   531 symmetry adapted basis functions of A   symmetry.
   531 basis functions,   762 primitive gaussians,   557 cartesian basis functions
    51 alpha electrons       51 beta electrons
       nuclear repulsion energy       905.2454444529 Hartrees.
 NAtoms=   31 NActive=   31 NUniq=   31 SFac= 1.00D+00 NAtFMM=   60 NAOKFM=F Big=F
 Integral buffers will be    131072 words long.
 Raffenetti 2 integral format.
 Two-electron integral symmetry is turned on.
 ------------------------------------------------------------------------------
 Polarizable Continuum Model (PCM)
 =================================
 Model                : PCM.
 Atomic radii         : UFF (Universal Force Field).
 Polarization charges : Total charges.
 Charge compensation  : None.
 Solution method      : On-the-fly selection.
 Cavity type          : Scaled VdW (van der Waals Surface) (Alpha=1.100).
 Cavity algorithm     : GePol (No added spheres)
                        Default sphere list used, NSphG=   31.
                        Lebedev-Laikov grids with approx.  5.0 points / Ang**2.
                        Smoothing algorithm: York/Karplus (Gamma=1.0000).
                        Polarization charges: spherical gaussians, with
                                              point-specific exponents (IZeta= 3).
                        Self-potential: point-specific (ISelfS= 7).
                        Self-field    : sphere-specific E.n sum rule (ISelfD= 2).
 1st derivatives      : Analytical E(r).r(x)/FMM algorithm (CHGder, D1EAlg=3).
                        Cavity 1st derivative terms included.
 Solvent              : Water, Eps=  78.355300 Eps(inf)=   1.777849
 ------------------------------------------------------------------------------
 One-electron integrals computed using PRISM.
 NBasis=   531 RedAO= T EigKep=  4.82D-06  NBF=   531
 NBsUse=   531 1.00D-06 EigRej= -1.00D+00 NBFU=   531
 ExpMin= 3.60D-02 ExpMax= 8.59D+03 ExpMxC= 1.30D+03 IAcc=3 IRadAn=         5 AccDes= 0.00D+00
 Harris functional with IExCor= 1009 and IRadAn=       5 diagonalized for initial guess.
 HarFok:  IExCor= 1009 AccDes= 0.00D+00 IRadAn=         5 IDoV= 1 UseB2=F ITyADJ=14
 ICtDFT=  3500011 ScaDFX=  1.000000  1.000000  1.000000  1.000000
 FoFCou: FMM=F IPFlag=           0 FMFlag=      100000 FMFlg1=           0
         NFxFlg=           0 DoJE=T BraDBF=F KetDBF=T FulRan=T
         wScrn=  0.000000 ICntrl=       500 IOpCl=  0 I1Cent=   200000004 NGrid=           0
         NMat0=    1 NMatS0=      1 NMatT0=    0 NMatD0=    1 NMtDS0=    0 NMtDT0=    0
 Petite list used in FoFCou.
 Requested convergence on RMS density matrix=1.00D-08 within 128 cycles.
 Requested convergence on MAX density matrix=1.00D-06.
 Requested convergence on             energy=1.00D-06.
 No special actions if energy rises.
 Inv3:  Mode=1 IEnd=    12558348.
 Iteration    1 A*A^-1 deviation from unit magnitude is 5.11D-15 for   2023.
 Iteration    1 A*A^-1 deviation from orthogonality  is 1.99D-15 for   2023    885.
 Iteration    1 A^-1*A deviation from unit magnitude is 5.11D-15 for   2023.
 Iteration    1 A^-1*A deviation from orthogonality  is 1.69D-15 for   2039   2030.
 Error on total polarization charges =  0.01467
 SCF Done:  E(RM062X) =  -617.502670693     A.U. after   12 cycles
            NFock= 12  Conv=0.70D-08     -V/T= 2.0035

 **********************************************************************

            Population analysis using the SCF density.

 **********************************************************************

 Orbital symmetries:
       Occupied  (A) (A) (A) (A) (A) (A) (A) (A) (A) (A) (A) (A)
                 (A) (A) (A) (A) (A) (A) (A) (A) (A) (A) (A) (A)
                 (A) (A) (A) (A) (A) (A) (A) (A) (A) (A) (A) (A)
                 (A) (A) (A) (A) (A) (A) (A) (A) (A) (A) (A) (A)
                 (A) (A) (A)
       Virtual   (A) (A) (A) (A) (A) (A) (A) (A) (A) (A) (A) (A)
                 (A) (A) (A) (A) (A) (A) (A) (A) (A) (A) (A) (A)
                 (A) (A) (A) (A) (A) (A) (A) (A) (A) (A) (A) (A)
                 (A) (A) (A) (A) (A) (A) (A) (A) (A) (A) (A) (A)
                 (A) (A) (A) (A) (A) (A) (A) (A) (A) (A) (A) (A)
                 (A) (A) (A) (A) (A) (A) (A) (A) (A) (A) (A) (A)
                 (A) (A) (A) (A) (A) (A) (A) (A) (A) (A) (A) (A)
                 (A) (A) (A) (A) (A) (A) (A) (A) (A) (A) (A) (A)
                 (A) (A) (A) (A) (A) (A) (A) (A) (A) (A) (A) (A)
                 (A) (A) (A) (A) (A) (A) (A) (A) (A) (A) (A) (A)
                 (A) (A) (A) (A) (A) (A) (A) (A) (A) (A) (A) (A)
                 (A) (A) (A) (A) (A) (A) (A) (A) (A) (A) (A) (A)
                 (A) (A) (A) (A) (A) (A) (A) (A) (A) (A) (A) (A)
                 (A) (A) (A) (A) (A) (A) (A) (A) (A) (A) (A) (A)
                 (A) (A) (A) (A) (A) (A) (A) (A) (A) (A) (A) (A)
                 (A) (A) (A) (A) (A) (A) (A) (A) (A) (A) (A) (A)
                 (A) (A) (A) (A) (A) (A) (A) (A) (A) (A) (A) (A)
                 (A) (A) (A) (A) (A) (A) (A) (A) (A) (A) (A) (A)
                 (A) (A) (A) (A) (A) (A) (A) (A) (A) (A) (A) (A)
                 (A) (A) (A) (A) (A) (A) (A) (A) (A) (A) (A) (A)
                 (A) (A) (A) (A) (A) (A) (A) (A) (A) (A) (A) (A)
                 (A) (A) (A) (A) (A) (A) (A) (A) (A) (A) (A) (A)
                 (A) (A) (A) (A) (A) (A) (A) (A) (A) (A) (A) (A)
                 (A) (A) (A) (A) (A) (A) (A) (A) (A) (A) (A) (A)
                 (A) (A) (A) (A) (A) (A) (A) (A) (A) (A) (A) (A)
                 (A) (A) (A) (A) (A) (A) (A) (A) (A) (A) (A) (A)
                 (A) (A) (A) (A) (A) (A) (A) (A) (A) (A) (A) (A)
                 (A) (A) (A) (A) (A) (A) (A) (A) (A) (A) (A) (A)
                 (A) (A) (A) (A) (A) (A) (A) (A) (A) (A) (A) (A)
                 (A) (A) (A) (A) (A) (A) (A) (A) (A) (A) (A) (A)
                 (A) (A) (A) (A) (A) (A) (A) (A) (A) (A) (A) (A)
                 (A) (A) (A) (A) (A) (A) (A) (A) (A) (A) (A) (A)
                 (A) (A) (A) (A) (A) (A) (A) (A) (A) (A) (A) (A)
                 (A) (A) (A) (A) (A) (A) (A) (A) (A) (A) (A) (A)
                 (A) (A) (A) (A) (A) (A) (A) (A) (A) (A) (A) (A)
                 (A) (A) (A) (A) (A) (A) (A) (A) (A) (A) (A) (A)
                 (A) (A) (A) (A) (A) (A) (A) (A) (A) (A) (A) (A)
                 (A) (A) (A) (A) (A) (A) (A) (A) (A) (A) (A) (A)
                 (A) (A) (A) (A) (A) (A) (A) (A) (A) (A) (A) (A)
                 (A) (A) (A) (A) (A) (A) (A) (A) (A) (A) (A) (A)
 The electronic state is 1-A.
 Alpha  occ. eigenvalues --  -19.62770 -19.62757 -19.62606 -10.63314 -10.58488
 Alpha  occ. eigenvalues --  -10.57807 -10.57684 -10.57652 -10.53174 -10.52966
 Alpha  occ. eigenvalues --  -10.52927 -10.52782 -10.52761  -1.20184  -1.16503
 Alpha  occ. eigenvalues --   -1.13288  -0.90975  -0.89688  -0.87219  -0.84799
 Alpha  occ. eigenvalues --   -0.74781  -0.74164  -0.73139  -0.71489  -0.66243
 Alpha  occ. eigenvalues --   -0.62711  -0.59537  -0.58593  -0.58074  -0.55923
 Alpha  occ. eigenvalues --   -0.54269  -0.53124  -0.52213  -0.50996  -0.50107
 Alpha  occ. eigenvalues --   -0.48308  -0.46706  -0.46309  -0.45615  -0.45159
 Alpha  occ. eigenvalues --   -0.43794  -0.43123  -0.40938  -0.39955  -0.38835
 Alpha  occ. eigenvalues --   -0.38539  -0.37593  -0.35968  -0.35215  -0.33362
 Alpha  occ. eigenvalues --   -0.31628
 Alpha virt. eigenvalues --   -0.00158   0.00827   0.00893   0.01028   0.02234
 Alpha virt. eigenvalues --    0.02520   0.02715   0.03182   0.03451   0.04568
 Alpha virt. eigenvalues --    0.04805   0.04880   0.05325   0.05808   0.07236
 Alpha virt. eigenvalues --    0.07798   0.08077   0.08156   0.08886   0.09054
 Alpha virt. eigenvalues --    0.09950   0.10696   0.10954   0.11481   0.12195
 Alpha virt. eigenvalues --    0.12368   0.12658   0.13155   0.13248   0.13497
 Alpha virt. eigenvalues --    0.13899   0.14115   0.14330   0.14661   0.14824
 Alpha virt. eigenvalues --    0.15127   0.15375   0.15721   0.15938   0.16287
 Alpha virt. eigenvalues --    0.16528   0.16920   0.17310   0.17504   0.17737
 Alpha virt. eigenvalues --    0.18039   0.18340   0.18540   0.18982   0.19639
 Alpha virt. eigenvalues --    0.19862   0.20052   0.20621   0.21111   0.21390
 Alpha virt. eigenvalues --    0.21697   0.22581   0.22906   0.23679   0.24105
 Alpha virt. eigenvalues --    0.24665   0.25169   0.26358   0.26631   0.27379
 Alpha virt. eigenvalues --    0.27493   0.27896   0.28346   0.28511   0.29380
 Alpha virt. eigenvalues --    0.29699   0.30386   0.31034   0.31543   0.32325
 Alpha virt. eigenvalues --    0.32656   0.33376   0.33559   0.34147   0.34398
 Alpha virt. eigenvalues --    0.34814   0.35297   0.35491   0.36129   0.36542
 Alpha virt. eigenvalues --    0.36896   0.37163   0.37311   0.38061   0.38575
 Alpha virt. eigenvalues --    0.38668   0.38830   0.39380   0.40270   0.40773
 Alpha virt. eigenvalues --    0.41566   0.42206   0.43564   0.44588   0.44750
 Alpha virt. eigenvalues --    0.47118   0.48471   0.49108   0.50379   0.51161
 Alpha virt. eigenvalues --    0.51556   0.52426   0.52672   0.54476   0.54934
 Alpha virt. eigenvalues --    0.56428   0.57790   0.58292   0.59555   0.59883
 Alpha virt. eigenvalues --    0.60630   0.60739   0.60873   0.61815   0.62090
 Alpha virt. eigenvalues --    0.62406   0.63078   0.63903   0.64504   0.64760
 Alpha virt. eigenvalues --    0.65415   0.65691   0.66042   0.66320   0.66776
 Alpha virt. eigenvalues --    0.67980   0.68104   0.68626   0.69172   0.70136
 Alpha virt. eigenvalues --    0.70404   0.70909   0.71728   0.72755   0.72947
 Alpha virt. eigenvalues --    0.73619   0.74243   0.74762   0.75420   0.75616
 Alpha virt. eigenvalues --    0.77021   0.77752   0.78228   0.78560   0.78910
 Alpha virt. eigenvalues --    0.80129   0.82420   0.83206   0.84496   0.86056
 Alpha virt. eigenvalues --    0.86608   0.86781   0.88077   0.88247   0.89632
 Alpha virt. eigenvalues --    0.91356   0.91765   0.93349   0.94400   0.97018
 Alpha virt. eigenvalues --    0.97786   0.98955   0.99619   1.00287   1.02004
 Alpha virt. eigenvalues --    1.03195   1.03921   1.04285   1.05459   1.06801
 Alpha virt. eigenvalues --    1.07566   1.09138   1.09633   1.11209   1.12615
 Alpha virt. eigenvalues --    1.13329   1.13910   1.14745   1.15953   1.17315
 Alpha virt. eigenvalues --    1.17870   1.18066   1.19579   1.21044   1.21360
 Alpha virt. eigenvalues --    1.21436   1.22788   1.23449   1.23864   1.24632
 Alpha virt. eigenvalues --    1.25382   1.25959   1.26542   1.27088   1.28062
 Alpha virt. eigenvalues --    1.28462   1.29407   1.30459   1.31281   1.31937
 Alpha virt. eigenvalues --    1.32560   1.33331   1.33660   1.34328   1.34921
 Alpha virt. eigenvalues --    1.35793   1.36379   1.36997   1.37492   1.37966
 Alpha virt. eigenvalues --    1.38141   1.39712   1.40003   1.40291   1.41466
 Alpha virt. eigenvalues --    1.42131   1.42971   1.43536   1.44755   1.45638
 Alpha virt. eigenvalues --    1.46058   1.46683   1.47432   1.48021   1.48675
 Alpha virt. eigenvalues --    1.49077   1.49849   1.50751   1.51324   1.52180
 Alpha virt. eigenvalues --    1.52556   1.53279   1.54204   1.55048   1.55791
 Alpha virt. eigenvalues --    1.56577   1.57142   1.57349   1.57405   1.58529
 Alpha virt. eigenvalues --    1.59146   1.60203   1.61351   1.61911   1.62733
 Alpha virt. eigenvalues --    1.63600   1.64458   1.65335   1.65358   1.66702
 Alpha virt. eigenvalues --    1.67037   1.68108   1.69297   1.70291   1.73442
 Alpha virt. eigenvalues --    1.73589   1.74270   1.75283   1.76954   1.77717
 Alpha virt. eigenvalues --    1.79111   1.80137   1.81809   1.82063   1.82841
 Alpha virt. eigenvalues --    1.84681   1.86463   1.93433   1.97731   2.02956
 Alpha virt. eigenvalues --    2.03582   2.08029   2.13496   2.18621   2.21395
 Alpha virt. eigenvalues --    2.24108   2.27290   2.30351   2.34573   2.40258
 Alpha virt. eigenvalues --    2.41677   2.42535   2.44882   2.46886   2.51574
 Alpha virt. eigenvalues --    2.60515   2.75507   2.77223   2.80189   2.81516
 Alpha virt. eigenvalues --    2.83569   2.85240   2.92432   2.93018   2.93564
 Alpha virt. eigenvalues --    2.95531   2.97747   2.98921   3.00607   3.03367
 Alpha virt. eigenvalues --    3.06091   3.06827   3.09431   3.09887   3.11586
 Alpha virt. eigenvalues --    3.14103   3.15014   3.16224   3.18192   3.21184
 Alpha virt. eigenvalues --    3.23157   3.29702   3.31408   3.32874   3.34114
 Alpha virt. eigenvalues --    3.34909   3.36147   3.37660   3.39109   3.41004
 Alpha virt. eigenvalues --    3.41743   3.44671   3.45452   3.46291   3.46962
 Alpha virt. eigenvalues --    3.48142   3.48943   3.50309   3.52300   3.52471
 Alpha virt. eigenvalues --    3.52898   3.53903   3.55010   3.55898   3.56393
 Alpha virt. eigenvalues --    3.56775   3.57853   3.58267   3.59531   3.60484
 Alpha virt. eigenvalues --    3.62032   3.62304   3.62886   3.63462   3.64580
 Alpha virt. eigenvalues --    3.65913   3.67337   3.67575   3.68807   3.69296
 Alpha virt. eigenvalues --    3.70566   3.71561   3.72087   3.72943   3.73684
 Alpha virt. eigenvalues --    3.74910   3.75233   3.76141   3.76656   3.77529
 Alpha virt. eigenvalues --    3.78210   3.79560   3.81056   3.82907   3.84308
 Alpha virt. eigenvalues --    3.85756   3.89738   3.90692   3.91377   3.92263
 Alpha virt. eigenvalues --    3.93210   3.93867   3.95025   3.95879   3.97952
 Alpha virt. eigenvalues --    3.99077   4.01590   4.02363   4.03362   4.03811
 Alpha virt. eigenvalues --    4.04575   4.05668   4.06829   4.07113   4.07458
 Alpha virt. eigenvalues --    4.08321   4.08970   4.09373   4.09891   4.10342
 Alpha virt. eigenvalues --    4.12048   4.12272   4.13382   4.14469   4.15293
 Alpha virt. eigenvalues --    4.16955   4.17453   4.17998   4.19240   4.20640
 Alpha virt. eigenvalues --    4.21179   4.21520   4.24320   4.26529   4.27082
 Alpha virt. eigenvalues --    4.28216   4.29996   4.30796   4.30871   4.31887
 Alpha virt. eigenvalues --    4.32774   4.33557   4.34829   4.36837   4.38043
 Alpha virt. eigenvalues --    4.40245   4.43469   4.46040   4.46085   4.46805
 Alpha virt. eigenvalues --    4.57362   4.62742   4.74110   4.75429   4.82138
 Alpha virt. eigenvalues --    4.85123   4.93715   4.95744   5.01076   5.03847
 Alpha virt. eigenvalues --    5.06641   5.07490   5.07975   5.08818   5.11081
 Alpha virt. eigenvalues --    5.12213   5.13928   5.14109   5.32310   5.37562
 Alpha virt. eigenvalues --    5.44724   5.58329   5.59382   5.64406   5.86546
 Alpha virt. eigenvalues --    5.87297   6.06983   7.03744   7.06325   7.07215
 Alpha virt. eigenvalues --    7.08783   7.10159   7.12326   7.13250   7.20119
 Alpha virt. eigenvalues --    7.26528   7.36154   7.38183   7.46455   7.52960
 Alpha virt. eigenvalues --    7.55687   7.67178  23.95411  23.97987  24.06178
 Alpha virt. eigenvalues --   24.07739  24.10607  24.11755  24.14083  24.15958
 Alpha virt. eigenvalues --   24.16067  24.21869  50.16599  50.18352  50.26215
          Condensed to atoms (all electrons):
               1          2          3          4          5          6
     1  C    5.716408   0.235260   0.019754  -0.028710  -0.003286  -0.000637
     2  C    0.235260   7.204570   0.029782  -0.046848  -0.021653  -0.017859
     3  C    0.019754   0.029782   6.448223  -0.040568  -0.168011  -0.003896
     4  C   -0.028710  -0.046848  -0.040568   5.739169  -0.004470  -0.000096
     5  C   -0.003286  -0.021653  -0.168011  -0.004470   5.489312   0.102274
     6  O   -0.000637  -0.017859  -0.003896  -0.000096   0.102274   8.275041
     7  C   -0.059731  -0.455274  -0.017884  -0.052614   0.004544   0.002973
     8  C    0.039676  -1.001871  -0.686583  -0.035872   0.339507   0.040182
     9  C   -0.008623   0.182290  -0.043693   0.021928   0.014024  -0.001224
    10  C   -0.007014   0.113095   0.160668   0.036922  -0.278291   0.119248
    11  O   -0.066818   0.295342  -0.026661  -0.010699   0.001254  -0.000538
    12  O   -0.022145   0.218268  -0.064759  -0.000734  -0.006093   0.027043
    13  C   -0.165080  -0.897864  -0.085735  -0.100719   0.018243   0.000433
    14  H    0.493204   0.011821  -0.001013  -0.014439  -0.000065  -0.000015
    15  H    0.443448  -0.000013   0.003012  -0.046903  -0.000264   0.000020
    16  H    0.000012   0.003432   0.515996  -0.000672  -0.011926   0.001181
    17  H   -0.021771   0.015490  -0.000046   0.431610   0.000013  -0.000080
    18  H   -0.074371  -0.007701  -0.009831   0.522322   0.002419   0.000330
    19  H   -0.120996   0.015404  -0.017938   0.022007   0.003526  -0.000872
    20  H   -0.015936  -0.015090  -0.001543   0.003219   0.000302   0.000047
    21  H    0.002305  -0.005210   0.019004   0.001440  -0.105864  -0.012731
    22  H   -0.000000   0.008282  -0.058071  -0.000199  -0.023846   0.010620
    23  H   -0.000654  -0.012184  -0.034279   0.002202  -0.005756  -0.052383
    24  H    0.002399   0.033977   0.002130  -0.002615   0.008788  -0.081090
    25  H   -0.020227  -0.144833  -0.002155  -0.003296   0.000504   0.000154
    26  H   -0.006065  -0.025876   0.001129  -0.050740   0.000284  -0.001307
    27  H    0.012916   0.476180   0.016476  -0.002510   0.002352   0.000673
    28  H    0.000112  -0.002155  -0.023233  -0.000059   0.445285  -0.061483
    29  H   -0.000315   0.002504   0.009752  -0.000038   0.446173  -0.064585
    30  H    0.011623  -0.014423   0.385168  -0.000330  -0.016044  -0.001469
    31  H   -0.003325  -0.075213   0.007501  -0.009446  -0.012149   0.011244
               7          8          9         10         11         12
     1  C   -0.059731   0.039676  -0.008623  -0.007014  -0.066818  -0.022145
     2  C   -0.455274  -1.001871   0.182290   0.113095   0.295342   0.218268
     3  C   -0.017884  -0.686583  -0.043693   0.160668  -0.026661  -0.064759
     4  C   -0.052614  -0.035872   0.021928   0.036922  -0.010699  -0.000734
     5  C    0.004544   0.339507   0.014024  -0.278291   0.001254  -0.006093
     6  O    0.002973   0.040182  -0.001224   0.119248  -0.000538   0.027043
     7  C    5.506474   0.089954   0.020828  -0.045094   0.108420   0.000397
     8  C    0.089954   7.787727  -0.513830  -0.612821   0.053098   0.008568
     9  C    0.020828  -0.513830   5.709286   0.144649  -0.010600  -0.001251
    10  C   -0.045094  -0.612821   0.144649   6.102104  -0.009636  -0.099574
    11  O    0.108420   0.053098  -0.010600  -0.009636   8.188160  -0.046737
    12  O    0.000397   0.008568  -0.001251  -0.099574  -0.046737   8.299955
    13  C    0.234853   0.307411  -0.053959  -0.048311  -0.024725  -0.088886
    14  H   -0.093207  -0.003964   0.000026   0.000400  -0.003500  -0.001374
    15  H   -0.039438  -0.000680   0.000548   0.000327   0.009755   0.001282
    16  H   -0.001736  -0.084489  -0.034807  -0.012681  -0.000432   0.005820
    17  H    0.004250   0.005355  -0.001331   0.001497  -0.003334   0.001686
    18  H    0.007695  -0.002343   0.002487  -0.001750   0.001820  -0.006788
    19  H    0.481157  -0.025358  -0.000018   0.012725  -0.034381   0.016531
    20  H    0.438676   0.013698   0.000176  -0.001967  -0.069953   0.001017
    21  H   -0.003068  -0.045239   0.505257   0.018697  -0.000143  -0.000952
    22  H    0.000749  -0.010715   0.450203  -0.003653  -0.000317   0.002141
    23  H    0.001599  -0.060864   0.027516   0.459280   0.001723   0.016311
    24  H    0.003027  -0.043831   0.010628   0.417087  -0.002267  -0.014002
    25  H    0.016993   0.007570   0.000030  -0.004686  -0.008939   0.008789
    26  H    0.007773  -0.006101   0.000811  -0.002929   0.008108  -0.002387
    27  H   -0.024593   0.026179  -0.006449  -0.005698  -0.056921  -0.030331
    28  H    0.000199   0.013032  -0.009709  -0.019522   0.000012   0.002098
    29  H    0.000303   0.006344  -0.060839  -0.000026  -0.000020   0.001452
    30  H   -0.003637   0.008102  -0.004125  -0.005194   0.002484   0.004187
    31  H    0.009062   0.458523  -0.035959  -0.014778  -0.009564  -0.018061
              13         14         15         16         17         18
     1  C   -0.165080   0.493204   0.443448   0.000012  -0.021771  -0.074371
     2  C   -0.897864   0.011821  -0.000013   0.003432   0.015490  -0.007701
     3  C   -0.085735  -0.001013   0.003012   0.515996  -0.000046  -0.009831
     4  C   -0.100719  -0.014439  -0.046903  -0.000672   0.431610   0.522322
     5  C    0.018243  -0.000065  -0.000264  -0.011926   0.000013   0.002419
     6  O    0.000433  -0.000015   0.000020   0.001181  -0.000080   0.000330
     7  C    0.234853  -0.093207  -0.039438  -0.001736   0.004250   0.007695
     8  C    0.307411  -0.003964  -0.000680  -0.084489   0.005355  -0.002343
     9  C   -0.053959   0.000026   0.000548  -0.034807  -0.001331   0.002487
    10  C   -0.048311   0.000400   0.000327  -0.012681   0.001497  -0.001750
    11  O   -0.024725  -0.003500   0.009755  -0.000432  -0.003334   0.001820
    12  O   -0.088886  -0.001374   0.001282   0.005820   0.001686  -0.006788
    13  C    6.458071  -0.019154  -0.000253   0.001271  -0.059837  -0.051936
    14  H   -0.019154   0.484307  -0.012794  -0.000019  -0.003617   0.001970
    15  H   -0.000253  -0.012794   0.489520  -0.000091  -0.005372  -0.005682
    16  H    0.001271  -0.000019  -0.000091   0.429697  -0.000009  -0.000086
    17  H   -0.059837  -0.003617  -0.005372  -0.000009   0.472356  -0.009660
    18  H   -0.051936   0.001970  -0.005682  -0.000086  -0.009660   0.464425
    19  H    0.014917   0.003552  -0.000949   0.001392  -0.001440   0.000843
    20  H    0.004187  -0.006268  -0.009318  -0.000163   0.001278  -0.002195
    21  H   -0.004345  -0.000005   0.000218   0.001848   0.000360  -0.003242
    22  H   -0.001632   0.000003  -0.000017  -0.005931  -0.000096   0.000185
    23  H    0.003687  -0.000037   0.000021  -0.006462   0.000117   0.000008
    24  H   -0.000876  -0.000139   0.000004  -0.000003  -0.000482   0.000001
    25  H    0.535471  -0.002059  -0.002584   0.000069  -0.004445   0.002034
    26  H    0.446604  -0.001935   0.000950   0.000121  -0.008408  -0.000639
    27  H   -0.087968   0.000230   0.001681  -0.000446   0.003968  -0.003633
    28  H   -0.001674   0.000003   0.000015  -0.006288  -0.000015  -0.000046
    29  H    0.000907  -0.000003  -0.000010  -0.001471  -0.000002   0.000234
    30  H    0.000396   0.000207   0.000426  -0.000175   0.000170  -0.001529
    31  H    0.008485  -0.000385   0.000219  -0.006733   0.000415  -0.000875
              19         20         21         22         23         24
     1  C   -0.120996  -0.015936   0.002305  -0.000000  -0.000654   0.002399
     2  C    0.015404  -0.015090  -0.005210   0.008282  -0.012184   0.033977
     3  C   -0.017938  -0.001543   0.019004  -0.058071  -0.034279   0.002130
     4  C    0.022007   0.003219   0.001440  -0.000199   0.002202  -0.002615
     5  C    0.003526   0.000302  -0.105864  -0.023846  -0.005756   0.008788
     6  O   -0.000872   0.000047  -0.012731   0.010620  -0.052383  -0.081090
     7  C    0.481157   0.438676  -0.003068   0.000749   0.001599   0.003027
     8  C   -0.025358   0.013698  -0.045239  -0.010715  -0.060864  -0.043831
     9  C   -0.000018   0.000176   0.505257   0.450203   0.027516   0.010628
    10  C    0.012725  -0.001967   0.018697  -0.003653   0.459280   0.417087
    11  O   -0.034381  -0.069953  -0.000143  -0.000317   0.001723  -0.002267
    12  O    0.016531   0.001017  -0.000952   0.002141   0.016311  -0.014002
    13  C    0.014917   0.004187  -0.004345  -0.001632   0.003687  -0.000876
    14  H    0.003552  -0.006268  -0.000005   0.000003  -0.000037  -0.000139
    15  H   -0.000949  -0.009318   0.000218  -0.000017   0.000021   0.000004
    16  H    0.001392  -0.000163   0.001848  -0.005931  -0.006462  -0.000003
    17  H   -0.001440   0.001278   0.000360  -0.000096   0.000117  -0.000482
    18  H    0.000843  -0.002195  -0.003242   0.000185   0.000008   0.000001
    19  H    0.556331  -0.021695  -0.001484   0.000220  -0.001170  -0.000039
    20  H   -0.021695   0.477243  -0.000052   0.000001   0.000087   0.000480
    21  H   -0.001484  -0.000052   0.482043  -0.014092  -0.001074  -0.001726
    22  H    0.000220   0.000001  -0.014092   0.483223   0.000476   0.002108
    23  H   -0.001170   0.000087  -0.001074   0.000476   0.484350  -0.008739
    24  H   -0.000039   0.000480  -0.001726   0.002108  -0.008739   0.493647
    25  H   -0.001897   0.000738  -0.000292   0.000047  -0.000062   0.001652
    26  H    0.001419   0.000984  -0.000704   0.000149  -0.000325   0.001169
    27  H   -0.001445  -0.000805   0.000888  -0.000285   0.000889  -0.012730
    28  H   -0.000372   0.000010   0.000569   0.004735   0.008216  -0.003330
    29  H    0.000122   0.000005  -0.004968  -0.008596  -0.001456   0.001308
    30  H   -0.012707   0.001932   0.002749  -0.009830   0.000713  -0.000232
    31  H   -0.004434  -0.001064   0.001527  -0.001275  -0.004166  -0.012767
              25         26         27         28         29         30
     1  C   -0.020227  -0.006065   0.012916   0.000112  -0.000315   0.011623
     2  C   -0.144833  -0.025876   0.476180  -0.002155   0.002504  -0.014423
     3  C   -0.002155   0.001129   0.016476  -0.023233   0.009752   0.385168
     4  C   -0.003296  -0.050740  -0.002510  -0.000059  -0.000038  -0.000330
     5  C    0.000504   0.000284   0.002352   0.445285   0.446173  -0.016044
     6  O    0.000154  -0.001307   0.000673  -0.061483  -0.064585  -0.001469
     7  C    0.016993   0.007773  -0.024593   0.000199   0.000303  -0.003637
     8  C    0.007570  -0.006101   0.026179   0.013032   0.006344   0.008102
     9  C    0.000030   0.000811  -0.006449  -0.009709  -0.060839  -0.004125
    10  C   -0.004686  -0.002929  -0.005698  -0.019522  -0.000026  -0.005194
    11  O   -0.008939   0.008108  -0.056921   0.000012  -0.000020   0.002484
    12  O    0.008789  -0.002387  -0.030331   0.002098   0.001452   0.004187
    13  C    0.535471   0.446604  -0.087968  -0.001674   0.000907   0.000396
    14  H   -0.002059  -0.001935   0.000230   0.000003  -0.000003   0.000207
    15  H   -0.002584   0.000950   0.001681   0.000015  -0.000010   0.000426
    16  H    0.000069   0.000121  -0.000446  -0.006288  -0.001471  -0.000175
    17  H   -0.004445  -0.008408   0.003968  -0.000015  -0.000002   0.000170
    18  H    0.002034  -0.000639  -0.003633  -0.000046   0.000234  -0.001529
    19  H   -0.001897   0.001419  -0.001445  -0.000372   0.000122  -0.012707
    20  H    0.000738   0.000984  -0.000805   0.000010   0.000005   0.001932
    21  H   -0.000292  -0.000704   0.000888   0.000569  -0.004968   0.002749
    22  H    0.000047   0.000149  -0.000285   0.004735  -0.008596  -0.009830
    23  H   -0.000062  -0.000325   0.000889   0.008216  -0.001456   0.000713
    24  H    0.001652   0.001169  -0.012730  -0.003330   0.001308  -0.000232
    25  H    0.449940  -0.003454  -0.015998  -0.000039   0.000012   0.000287
    26  H   -0.003454   0.469937  -0.009062  -0.000040   0.000190  -0.000872
    27  H   -0.015998  -0.009062   0.459213   0.000142   0.000186   0.000489
    28  H   -0.000039  -0.000040   0.000142   0.499790  -0.005198   0.002023
    29  H    0.000012   0.000190   0.000186  -0.005198   0.479528  -0.000119
    30  H    0.000287  -0.000872   0.000489   0.002023  -0.000119   0.496727
    31  H   -0.000303  -0.000852   0.001792   0.001736   0.000042  -0.007560
              31
     1  C   -0.003325
     2  C   -0.075213
     3  C    0.007501
     4  C   -0.009446
     5  C   -0.012149
     6  O    0.011244
     7  C    0.009062
     8  C    0.458523
     9  C   -0.035959
    10  C   -0.014778
    11  O   -0.009564
    12  O   -0.018061
    13  C    0.008485
    14  H   -0.000385
    15  H    0.000219
    16  H   -0.006733
    17  H    0.000415
    18  H   -0.000875
    19  H   -0.004434
    20  H   -0.001064
    21  H    0.001527
    22  H   -0.001275
    23  H   -0.004166
    24  H   -0.012767
    25  H   -0.000303
    26  H   -0.000852
    27  H    0.001792
    28  H    0.001736
    29  H    0.000042
    30  H   -0.007560
    31  H    0.428769
 Mulliken charges:
               1
     1  C   -0.351413
     2  C   -0.101629
     3  C   -0.332696
     4  C   -0.328242
     5  C   -0.221086
     6  O   -0.291198
     7  C   -0.143652
     8  C   -0.070364
     9  C   -0.304267
    10  C   -0.413075
    11  O   -0.283994
    12  O   -0.211473
    13  C   -0.341982
    14  H    0.168271
    15  H    0.172921
    16  H    0.213783
    17  H    0.181380
    18  H    0.175533
    19  H    0.117047
    20  H    0.201968
    21  H    0.168286
    22  H    0.175412
    23  H    0.182418
    24  H    0.206463
    25  H    0.190980
    26  H    0.182066
    27  H    0.254619
    28  H    0.155185
    29  H    0.198584
    30  H    0.160562
    31  H    0.289593
 Sum of Mulliken charges =  -0.00000
 Mulliken charges with hydrogens summed into heavy atoms:
               1
     1  C   -0.010221
     2  C    0.152990
     3  C    0.041649
     4  C    0.028671
     5  C    0.132683
     6  O   -0.291198
     7  C    0.175362
     8  C    0.219229
     9  C    0.039431
    10  C   -0.024193
    11  O   -0.283994
    12  O   -0.211473
    13  C    0.031064
 Electronic spatial extent (au):  <R**2>=           2838.4366
 Charge=              0.0000 electrons
 Dipole moment (field-independent basis, Debye):
    X=              0.4119    Y=              2.2088    Z=             -0.1665  Tot=              2.2530
 Quadrupole moment (field-independent basis, Debye-Ang):
   XX=            -73.9565   YY=            -78.8759   ZZ=            -80.6492
   XY=             -5.0876   XZ=              4.1800   YZ=              0.5168
 Traceless Quadrupole moment (field-independent basis, Debye-Ang):
   XX=              3.8707   YY=             -1.0487   ZZ=             -2.8220
   XY=             -5.0876   XZ=              4.1800   YZ=              0.5168
 Octapole moment (field-independent basis, Debye-Ang**2):
  XXX=             -0.3595  YYY=             -0.1303  ZZZ=              0.6911  XYY=             11.8167
  XXY=             21.8273  XXZ=              6.6418  XZZ=            -11.5605  YZZ=             -1.3090
  YYZ=             -4.7619  XYZ=             -5.5298
 Hexadecapole moment (field-independent basis, Debye-Ang**3):
 XXXX=          -2681.0514 YYYY=           -535.6550 ZZZZ=           -489.3985 XXXY=            -31.4654
 XXXZ=            -18.0052 YYYX=             -6.2175 YYYZ=              7.1233 ZZZX=              1.1808
 ZZZY=             -6.2460 XXYY=           -560.9583 XXZZ=           -527.9831 YYZZ=           -164.1745
 XXYZ=             -8.0239 YYXZ=             -2.6213 ZZXY=             10.2936
 N-N= 9.052454444529D+02 E-N=-3.252568871762D+03  KE= 6.153394449349D+02
 D1PCM: PCM CHGder 1st derivatives, ID1Alg=3 FixD1E=F DoIter=F DoCFld=F I1PDM=0.
 Calling FoFJK, ICntrl=      2127 FMM=F ISym2X=0 I1Cent= 0 IOpClX= 0 NMat=1 NMatS=1 NMatT=0.
 ***** Axes restored to original set *****
 -------------------------------------------------------------------
 Center     Atomic                   Forces (Hartrees/Bohr)
 Number     Number              X              Y              Z
 -------------------------------------------------------------------
      1        6          -0.002667445    0.000480782    0.000889802
      2        6           0.001467571    0.004523287    0.002099226
      3        6          -0.001194429   -0.004054243    0.001227625
      4        6          -0.000389572   -0.000486503   -0.003916843
      5        6           0.006564002    0.002020083   -0.001450640
      6        8           0.000446503   -0.008049486    0.003142175
      7        6           0.000840814   -0.004893289    0.004678960
      8        6          -0.001050725   -0.002752302    0.001292359
      9        6          -0.000602737    0.000074877   -0.002440290
     10        6          -0.001002343    0.005115392    0.005476839
     11        8           0.001456749   -0.002342381   -0.009826323
     12        8          -0.000463417    0.005113379    0.012669058
     13        6          -0.000747739    0.002474275    0.000836187
     14        1           0.001895531   -0.002162751   -0.001668596
     15        1           0.001307802    0.002117560    0.001375383
     16        1          -0.002251206    0.001249739   -0.002554853
     17        1           0.001714242   -0.000984222    0.001638726
     18        1          -0.002888279    0.001987837    0.000820525
     19        1          -0.004339128    0.003824432    0.003334610
     20        1           0.002189687    0.001802798   -0.003370145
     21        1           0.002432895   -0.001723996    0.001743030
     22        1          -0.001319513    0.002456732    0.000828482
     23        1          -0.003228032    0.002362717   -0.005035777
     24        1           0.003094034   -0.004316923   -0.001395550
     25        1           0.002302476   -0.001773279   -0.001720742
     26        1          -0.002034646   -0.001233625    0.002123238
     27        1          -0.001794529   -0.006184878   -0.005073378
     28        1          -0.003730102    0.002995446   -0.004110534
     29        1          -0.002160171   -0.001522447    0.003459788
     30        1           0.002799499    0.001628750    0.000776556
     31        1           0.003352208    0.002252239   -0.005848898
 -------------------------------------------------------------------
 Cartesian Forces:  Max     0.012669058 RMS     0.003328078

 GradGradGradGradGradGradGradGradGradGradGradGradGradGradGradGradGradGrad
 Berny optimization.
 FormGI is forming the generalized inverse of G from B-inverse, IUseBI=4.
 Internal  Forces:  Max     0.012756257 RMS     0.002037554
 Search for a local minimum.
 Step number   1 out of a maximum of  186
 All quantities printed in internal units (Hartrees-Bohrs-Radians)
 Mixed Optimization -- RFO/linear search
 Second derivative matrix not updated -- first step.
 ITU=  0
     Eigenvalues ---    0.00616   0.00624   0.00724   0.00730   0.01408
     Eigenvalues ---    0.01413   0.01436   0.02699   0.02821   0.03073
     Eigenvalues ---    0.03105   0.04091   0.04347   0.04736   0.04746
     Eigenvalues ---    0.04864   0.04884   0.05063   0.05114   0.05230
     Eigenvalues ---    0.05298   0.05680   0.05843   0.06167   0.06215
     Eigenvalues ---    0.06613   0.06775   0.06807   0.07362   0.07860
     Eigenvalues ---    0.07951   0.07964   0.07967   0.08114   0.08159
     Eigenvalues ---    0.08231   0.08871   0.09446   0.10824   0.11583
     Eigenvalues ---    0.11710   0.11726   0.11758   0.12404   0.12543
     Eigenvalues ---    0.14502   0.14618   0.16094   0.16255   0.17565
     Eigenvalues ---    0.19026   0.21639   0.21816   0.25000   0.28540
     Eigenvalues ---    0.28600   0.28780   0.28848   0.28944   0.29123
     Eigenvalues ---    0.30202   0.30369   0.35034   0.35086   0.35093
     Eigenvalues ---    0.35135   0.35209   0.35217   0.35241   0.35254
     Eigenvalues ---    0.35281   0.35316   0.35421   0.35425   0.35436
     Eigenvalues ---    0.35760   0.35813   0.35847   0.35872   0.35914
     Eigenvalues ---    0.40809   0.41510   0.42213   0.42244   0.43495
     Eigenvalues ---    0.458341000.000001000.000001000.000001000.00000
     Eigenvalues --- 1000.000001000.000001000.000001000.000001000.00000
     Eigenvalues --- 1000.000001000.000001000.000001000.000001000.00000
     Eigenvalues --- 1000.000001000.000001000.000001000.000001000.00000
     Eigenvalues --- 1000.000001000.000001000.000001000.000001000.00000
     Eigenvalues --- 1000.000001000.000001000.000001000.000001000.00000
     Eigenvalues --- 1000.000001000.000001000.000001000.000001000.00000
     Eigenvalues --- 1000.000001000.000001000.000001000.000001000.00000
     Eigenvalues --- 1000.000001000.000001000.000001000.000001000.00000
     Eigenvalues --- 1000.000001000.000001000.000001000.000001000.00000
     Eigenvalues --- 1000.000001000.000001000.000001000.000001000.00000
     Eigenvalues --- 1000.000001000.000001000.000001000.000001000.00000
     Eigenvalues --- 1000.000001000.000001000.000001000.000001000.00000
     Eigenvalues --- 1000.000001000.000001000.000001000.000001000.00000
     Eigenvalues --- 1000.000001000.000001000.000001000.000001000.00000
     Eigenvalues --- 1000.000001000.000001000.000001000.000001000.00000
     Eigenvalues --- 1000.000001000.000001000.000001000.000001000.00000
     Eigenvalues --- 1000.000001000.000001000.000001000.000001000.00000
     Eigenvalues --- 1000.000001000.000001000.000001000.000001000.00000
     Eigenvalues --- 1000.000001000.000001000.000001000.000001000.00000
 RFO step:  Lambda=-3.22753563D-03 EMin= 6.16405389D-03
 Linear search not attempted -- first point.
 Iteration  1 RMS(Cart)=  0.03588319 RMS(Int)=  0.00032588
 Iteration  2 RMS(Cart)=  0.00073316 RMS(Int)=  0.00004750
 Iteration  3 RMS(Cart)=  0.00000026 RMS(Int)=  0.00004750
 Iteration  1 RMS(Cart)=  0.00000013 RMS(Int)=  0.00000003
 Variable       Old X    -DE/DX   Delta X   Delta X   Delta X     New X
                                 (Linear)    (Quad)   (Total)
    R1        2.88907  -0.00100   0.00000  -0.00270  -0.00270   2.88637
    R2        2.87147  -0.00001   0.00000   0.00015   0.00016   2.87164
    R3        2.05524   0.00324   0.00000   0.00916   0.00916   2.06440
    R4        2.05285   0.00283   0.00000   0.00795   0.00795   2.06079
    R5        2.65176   0.00366   0.00000   0.00763   0.00763   2.65939
    R6        2.64319   0.00306   0.00000   0.00664   0.00664   2.64982
    R7        2.87315  -0.00063   0.00000  -0.00227  -0.00228   2.87086
    R8        2.04282   0.00813   0.00000   0.02246   0.02246   2.06528
    R9        2.88339  -0.00191   0.00000  -0.00668  -0.00671   2.87668
   R10        2.89185  -0.00118   0.00000  -0.00469  -0.00471   2.88714
   R11        2.05456   0.00361   0.00000   0.01018   0.01018   2.06474
   R12        2.04997   0.00323   0.00000   0.00903   0.00903   2.05900
   R13        2.89028  -0.00139   0.00000  -0.00432  -0.00432   2.88596
   R14        2.05164   0.00256   0.00000   0.00719   0.00719   2.05884
   R15        2.05338   0.00342   0.00000   0.00964   0.00964   2.06301
   R16        2.67591   0.00305   0.00000   0.00728   0.00731   2.68323
   R17        2.87315   0.00045   0.00000   0.00102   0.00100   2.87415
   R18        2.05620   0.00620   0.00000   0.01755   0.01755   2.07375
   R19        2.04375   0.00435   0.00000   0.01205   0.01205   2.05580
   R20        2.66792   0.00214   0.00000   0.00532   0.00534   2.67326
   R21        2.68703   0.00306   0.00000   0.00693   0.00693   2.69396
   R22        2.04991   0.00659   0.00000   0.01842   0.01842   2.06833
   R23        2.04322   0.00440   0.00000   0.01217   0.01217   2.05540
   R24        2.87839   0.00070   0.00000   0.00284   0.00287   2.88126
   R25        2.68613   0.00086   0.00000   0.00203   0.00203   2.68816
   R26        2.04458   0.00709   0.00000   0.01964   0.01964   2.06422
   R27        2.05221   0.00323   0.00000   0.00906   0.00906   2.06127
   R28        2.05265   0.00289   0.00000   0.00811   0.00811   2.06076
   R29        2.05535   0.00636   0.00000   0.01797   0.01797   2.07332
   R30        2.04216   0.00544   0.00000   0.01501   0.01501   2.05718
   R31        2.05323   0.00332   0.00000   0.00935   0.00935   2.06258
   R32        2.04972   0.00316   0.00000   0.00883   0.00883   2.05856
    A1        1.92403  -0.00107   0.00000  -0.00599  -0.00618   1.91785
    A2        1.91624   0.00094   0.00000   0.00169   0.00177   1.91802
    A3        1.93874  -0.00048   0.00000  -0.00136  -0.00133   1.93741
    A4        1.90536   0.00002   0.00000  -0.00179  -0.00175   1.90361
    A5        1.90298   0.00064   0.00000   0.00400   0.00407   1.90705
    A6        1.87557  -0.00001   0.00000   0.00368   0.00365   1.87923
    A7        1.94859   0.00019   0.00000  -0.00566  -0.00555   1.94304
    A8        1.94868   0.00300   0.00000   0.00942   0.00916   1.95784
    A9        1.82455  -0.00170   0.00000  -0.00526  -0.00526   1.81929
   A10        1.89179  -0.00351   0.00000  -0.01861  -0.01855   1.87324
   A11        1.91682   0.00231   0.00000   0.01816   0.01817   1.93500
   A12        1.93324  -0.00010   0.00000   0.00328   0.00337   1.93661
   A13        1.94417   0.00051   0.00000  -0.00897  -0.00906   1.93511
   A14        1.88184  -0.00013   0.00000   0.00502   0.00503   1.88687
   A15        1.91468  -0.00065   0.00000  -0.00719  -0.00716   1.90752
   A16        1.90806  -0.00026   0.00000   0.00456   0.00460   1.91266
   A17        1.93944   0.00020   0.00000   0.00174   0.00166   1.94109
   A18        1.87336   0.00031   0.00000   0.00559   0.00558   1.87894
   A19        1.91466   0.00195   0.00000  -0.00090  -0.00089   1.91378
   A20        1.92983  -0.00027   0.00000   0.00201   0.00205   1.93188
   A21        1.91404  -0.00088   0.00000  -0.00230  -0.00238   1.91167
   A22        1.91566  -0.00054   0.00000   0.00170   0.00170   1.91737
   A23        1.92226  -0.00096   0.00000  -0.00616  -0.00618   1.91608
   A24        1.86695   0.00064   0.00000   0.00571   0.00572   1.87268
   A25        1.93670   0.00138   0.00000   0.00697   0.00690   1.94359
   A26        1.90115   0.00097   0.00000   0.00815   0.00821   1.90936
   A27        1.85650  -0.00119   0.00000  -0.00459  -0.00456   1.85194
   A28        1.92986  -0.00133   0.00000  -0.00819  -0.00820   1.92166
   A29        1.94631  -0.00030   0.00000  -0.00320  -0.00319   1.94311
   A30        1.89104   0.00049   0.00000   0.00122   0.00119   1.89223
   A31        1.97869  -0.00384   0.00000  -0.02455  -0.02449   1.95420
   A32        1.94432   0.00227   0.00000   0.00532   0.00522   1.94954
   A33        1.93190  -0.00151   0.00000  -0.00684  -0.00687   1.92503
   A34        1.94618  -0.00032   0.00000  -0.00188  -0.00180   1.94438
   A35        1.90936   0.00014   0.00000   0.00157   0.00165   1.91101
   A36        1.84188  -0.00130   0.00000  -0.00207  -0.00206   1.83981
   A37        1.88723   0.00072   0.00000   0.00422   0.00420   1.89144
   A38        1.92087   0.00026   0.00000  -0.00016  -0.00024   1.92063
   A39        1.88666  -0.00026   0.00000  -0.00726  -0.00724   1.87942
   A40        1.91782  -0.00045   0.00000   0.00066   0.00067   1.91849
   A41        1.93236  -0.00005   0.00000  -0.00121  -0.00119   1.93117
   A42        1.89742   0.00022   0.00000   0.00500   0.00500   1.90242
   A43        1.90875   0.00026   0.00000   0.00295   0.00294   1.91169
   A44        1.92404  -0.00036   0.00000  -0.00695  -0.00702   1.91702
   A45        1.92699   0.00037   0.00000  -0.00290  -0.00290   1.92409
   A46        1.92580  -0.00061   0.00000  -0.00020  -0.00018   1.92562
   A47        1.90636  -0.00025   0.00000  -0.00159  -0.00164   1.90472
   A48        1.90707   0.00062   0.00000   0.00549   0.00554   1.91261
   A49        1.87273   0.00027   0.00000   0.00658   0.00657   1.87930
   A50        1.95267   0.00117   0.00000   0.00610   0.00613   1.95880
   A51        1.91336   0.00102   0.00000   0.00997   0.00995   1.92331
   A52        1.85973  -0.00081   0.00000  -0.00347  -0.00346   1.85627
   A53        1.90224  -0.00112   0.00000  -0.00393  -0.00400   1.89824
   A54        1.94438  -0.00070   0.00000  -0.00944  -0.00945   1.93493
   A55        1.89017   0.00049   0.00000   0.00100   0.00097   1.89114
   A56        2.02409  -0.00545   0.00000  -0.03627  -0.03621   1.98787
   A57        2.04999  -0.01276   0.00000  -0.05037  -0.05037   1.99962
   A58        1.95259  -0.00144   0.00000  -0.01351  -0.01367   1.93892
   A59        1.87362  -0.00001   0.00000   0.00342   0.00343   1.87706
   A60        1.90095   0.00068   0.00000  -0.00124  -0.00123   1.89972
   A61        1.91095   0.00121   0.00000   0.00789   0.00798   1.91894
   A62        1.94717  -0.00040   0.00000  -0.00245  -0.00254   1.94463
   A63        1.87553   0.00004   0.00000   0.00692   0.00690   1.88243
    D1        0.92455  -0.00016   0.00000   0.00650   0.00647   0.93102
    D2        3.03979   0.00027   0.00000   0.00933   0.00935   3.04914
    D3       -1.18878   0.00035   0.00000   0.01614   0.01615  -1.17264
    D4       -1.17519  -0.00011   0.00000   0.01143   0.01141  -1.16378
    D5        0.94005   0.00032   0.00000   0.01426   0.01428   0.95433
    D6        2.99466   0.00040   0.00000   0.02106   0.02108   3.01574
    D7        3.03593  -0.00039   0.00000   0.00663   0.00658   3.04251
    D8       -1.13201   0.00004   0.00000   0.00946   0.00945  -1.12256
    D9        0.92260   0.00012   0.00000   0.01627   0.01625   0.93885
   D10       -0.95659  -0.00134   0.00000  -0.02013  -0.02020  -0.97679
   D11        1.17202  -0.00065   0.00000  -0.01923  -0.01930   1.15272
   D12       -3.00941  -0.00098   0.00000  -0.01978  -0.01982  -3.02924
[...]
 4417,0.00267564,-0.00384081,0.07079972,-0.06267821,-0.08698760,-0.0001
 9460,-0.00005265,0.00044838,-0.00016920,0.00013381,-0.00004176,-0.0001
 1000,0.00013156,0.00005534,0.00028529,0.00050801,0.00025990,-0.0020925
 5,-0.00259339,-0.00029260,-0.00000026,-0.00005300,-0.00003849,0.000054
 81,-0.00000640,0.00005331,-0.00000028,-0.00000856,-0.00000211,-0.00002
 128,0.00000247,0.00002438,-0.00007647,-0.00005065,-0.00002192,0.000003
 66,-0.00003157,0.00000548,-0.07121004,0.07041873,0.09303918,-0.0004617
 4,-0.00271927,-0.00261373,0.01065082,0.00995655,-0.01119545,0.00003545
 ,-0.00000204,0.00005217,-0.00818425,-0.00583247,0.01038525,-0.00000467
 ,0.00000416,0.00000246,0.00002565,-0.00000951,0.00000610,-0.00083706,-
 0.00059737,-0.00072503,0.00034349,-0.00016261,0.00005534,-0.00000228,-
 0.00000297,-0.00000478,-0.00000717,-0.00003712,0.00001584,-0.00057158,
 0.00343436,-0.00494183,0.00051239,0.00001999,-0.00024850,-0.13264318,-
 0.07487575,0.10183695,0.00023936,0.00027282,-0.00033315,-0.00019770,-0
 .00085069,0.00089493,0.00001326,-0.00001964,-0.00000817,0.00002052,0.0
 0054356,0.00012856,0.00080014,0.00022473,-0.00027564,0.00006903,0.0000
 6209,0.00007830,0.00013828,0.00008848,0.00016485,0.00000567,-0.0000025
 2,0.00000705,0.00000292,0.00000073,-0.00000221,0.00000832,0.00000806,-
 0.00000105,-0.00000608,-0.00000082,0.00000211,-0.01145531,-0.01103140,
 0.01388399,0.14098019,-0.00190756,-0.00319759,-0.00404547,-0.00623213,
 -0.00667287,0.00604729,-0.00002103,-0.00000436,-0.00002707,-0.01338808
 ,-0.01284911,0.01765811,0.00000878,0.00000004,-0.00000023,-0.00000515,
 -0.00001038,-0.00000722,-0.00010738,0.00081580,-0.00042591,0.00013656,
 0.00013929,-0.00008483,0.00000671,0.00000048,0.00000728,0.00000810,0.0
 0000944,0.00001121,0.00102727,-0.00002628,0.00236424,-0.00021079,0.000
 62090,-0.00047911,-0.07226556,-0.11268141,0.08826458,-0.00018894,0.000
 09350,0.00015942,-0.00072303,-0.00076707,0.00119278,-0.00000994,0.0000
 1059,0.00000401,0.00029731,0.00097540,-0.00016646,0.00073973,0.0008085
 6,0.00041008,0.00006930,-0.00005478,-0.00000522,0.00002957,0.00002161,
 0.00007574,0.00000062,-0.00000401,-0.00000796,-0.00000287,0.00000165,-
 0.00000024,-0.00000488,-0.00000704,-0.00000204,-0.00000662,-0.00001698
 ,-0.00000396,0.01032634,0.01119141,-0.01412528,0.08216110,0.12146576,-
 0.00150577,-0.00278761,-0.00114540,0.01759171,0.01060836,-0.01448960,0
 .00000214,-0.00002787,0.00003491,-0.00922170,-0.00814309,0.01238549,0.
 00000305,-0.00000016,0.00000207,-0.00001670,-0.00000868,0.00001061,-0.
 00095017,-0.00174947,-0.00078507,-0.00025574,-0.00026825,0.00009785,-0
 .00000413,0.00001402,0.00000338,-0.00001897,0.00001620,-0.00003928,-0.
 00262837,0.00464213,-0.00591173,0.00077444,-0.00103789,0.00156060,0.09
 826253,0.08984075,-0.16892099,-0.00005468,0.00002056,0.,-0.00045361,-0
 .00069861,0.00062734,0.00000253,-0.00000266,-0.00001185,0.00039624,0.0
 0090503,0.00053258,0.00055205,0.00068432,0.00060073,0.00006265,0.00021
 554,0.00014323,0.00016866,0.00018791,0.00011894,-0.00000285,0.00000674
 ,-0.00000815,-0.00000512,-0.00000085,0.00000335,-0.00000794,-0.0000004
 8,0.00000026,-0.00000691,0.00001971,0.00000266,0.00516629,0.00509754,-
 0.00776323,-0.10785696,-0.09680297,0.18232781,0.00038252,0.00012604,0.
 00010227,-0.08522297,-0.07073140,-0.05529998,-0.00020444,0.00003033,-0
 .00034075,-0.00092562,0.00262253,-0.00253676,-0.00000087,0.00014858,0.
 00007814,0.00007151,-0.00006965,-0.00010409,0.00069567,0.00011021,0.00
 329363,0.00304105,-0.00007148,0.00172844,0.00005603,-0.00002812,-0.000
 03471,-0.00067866,-0.00013008,0.00032626,-0.01026900,-0.02195230,-0.00
 361363,0.00077104,0.02927909,0.02095476,-0.00599479,-0.01412894,-0.010
 79402,-0.00009472,0.00005642,0.00005671,-0.00005666,0.00000063,-0.0000
 2934,-0.00018994,0.00004509,-0.00000037,-0.00054915,-0.00088486,-0.000
 50211,0.00001665,-0.00016252,-0.00014340,-0.00016314,-0.00041852,-0.00
 013300,-0.00038647,-0.00078619,-0.00025972,0.00003044,0.00000864,-0.00
 006397,-0.00002510,0.00000533,-0.00001037,0.00032193,-0.00019343,-0.00
 008170,-0.00249143,-0.00003108,-0.00032190,0.00025001,-0.00025912,0.00
 047672,0.00046357,0.00036640,-0.00013609,0.10136466,-0.00007189,-0.000
 47179,0.00009469,-0.06807524,-0.19551042,-0.09830403,0.00026938,-0.000
 08944,0.00037318,0.00128762,-0.00060493,0.00201722,-0.00004875,-0.0001
 4723,0.00003242,-0.00011554,0.00029252,0.00023966,-0.00050612,0.001991
 22,0.00449205,-0.00287688,0.00081985,-0.00234912,-0.00008226,0.0000039
 0,0.00002946,0.00030285,-0.00058081,-0.00015912,-0.01836080,-0.0249585
 9,-0.00412169,0.00755271,-0.01809739,-0.01677193,0.00454893,0.01062199
 ,0.00524238,-0.00001533,0.00004075,-0.00005126,-0.00006268,0.00008820,
 -0.00025660,0.00018619,-0.00011387,-0.00003438,0.00043480,0.00052023,0
 .00033556,-0.00002278,0.00008665,0.00011951,0.00017508,-0.00004699,-0.
 00014129,-0.00060946,-0.00100016,-0.00047031,-0.00001922,-0.00000698,0
 .00007529,0.00004730,-0.00000361,0.00000558,0.00009866,0.00029744,0.00
 010334,-0.00008970,0.00075155,0.00022366,-0.00048060,0.00055409,-0.000
 51104,-0.00066545,0.00010134,-0.00065710,0.07708757,0.22553676,0.00035
 754,0.00059535,-0.00017408,-0.05881199,-0.10775912,-0.12395942,0.00021
 104,0.00001918,0.00022008,-0.00208937,0.00337885,-0.00253923,-0.000106
 18,-0.00002121,0.00003481,0.00003919,0.00020630,-0.00001930,0.00150746
 ,0.00167373,-0.00291608,-0.00149281,0.00196862,-0.00160505,-0.00006817
 ,-0.00003208,0.00004612,0.00012823,-0.00069458,0.00041073,0.01571983,0
 .02665451,0.00946987,0.00596355,-0.01824604,-0.00805723,-0.01018640,-0
 .01845784,-0.01081426,-0.00003187,-0.00005991,0.00008902,0.00008224,-0
 .00020295,0.00026662,0.00015790,-0.00010222,-0.00002508,-0.00073918,-0
 .00126274,-0.00060202,0.00022149,0.00000189,0.00005159,0.00001932,0.00
 032922,0.00007207,0.00054639,0.00094085,0.00038015,-0.00001685,0.00000
 110,0.00004453,0.00004700,-0.00000740,-0.00002563,0.00017210,0.0003026
 6,0.00013352,-0.00045315,0.00038163,0.00030890,0.00011285,0.00035458,0
 .00095386,0.00075458,0.00005791,0.00050942,0.04774712,0.10997739,0.137
 31379,0.00000188,-0.00000428,-0.00000262,0.00020353,-0.00008940,-0.000
 04205,0.00066831,0.00134768,-0.00055711,0.00000075,0.00000617,-0.00000
 154,-0.14275435,0.04195371,-0.10496383,-0.01720344,0.01926275,-0.00480
 350,0.00002766,0.00002810,0.00001381,-0.00036388,0.00000650,0.00036809
 ,-0.01273932,0.00474123,-0.01705102,0.00104242,0.00089384,-0.00378521,
 -0.00010349,-0.00001969,0.00004010,-0.00011564,-0.00002867,0.00009835,
 -0.00000501,-0.00000331,0.00000945,-0.00000186,0.00000160,0.00000045,-
 0.00000327,-0.00000212,-0.00000182,-0.00023888,-0.00036983,0.00049009,
 -0.00000524,-0.00000170,-0.00000310,0.00000133,0.00000119,0.00000339,0
 .00000252,0.00000301,-0.00000191,-0.00000564,-0.00000358,0.00000137,-0
 .00154485,-0.00311219,-0.00112434,0.00057092,-0.00020556,0.00007032,-0
 .00010059,-0.00046297,0.00080952,0.00019393,-0.00013920,0.00038362,-0.
 00000959,0.00000359,-0.00000423,0.00000125,-0.00000193,0.00000008,0.00
 000037,0.00001071,0.00001438,0.16009856,-0.00000019,0.00000287,0.00000
 184,-0.00017165,0.00009540,0.00013805,0.00077064,0.00110768,-0.0008779
 0,0.00000222,-0.00000749,0.00000206,0.04308837,-0.07028684,0.05475033,
 0.02963897,-0.02303429,0.01115599,-0.00002753,-0.00002667,-0.00001513,
 -0.00000421,-0.00010069,-0.00051198,-0.01702287,0.00804765,-0.01816246
 ,-0.00281278,-0.00030230,0.00409872,0.00008836,0.00002169,-0.00002088,
 0.00020253,0.00011699,0.00004563,0.00001798,0.00000008,-0.00001663,0.0
 0000197,-0.00000179,0.00000066,0.00000383,0.00000213,0.00000211,0.0003
 0050,-0.00020772,0.00037164,0.00000503,0.00000251,0.00000424,0.0000022
 5,-0.00000110,-0.00000358,-0.00000507,-0.00000448,-0.00000128,0.000006
 43,0.00000303,-0.00000191,-0.00379654,-0.00325098,-0.00118746,0.001061
 74,0.00089925,0.00049352,-0.00026513,0.00064964,-0.00099934,-0.0002074
 4,0.00004824,-0.00035394,0.00001024,-0.00000468,0.00000716,-0.00000184
 ,0.00000021,-0.00000012,-0.00003394,0.00000684,-0.00000073,-0.05801227
 ,0.08856480,0.00000370,-0.00000350,-0.00000283,0.00022375,-0.00012418,
 -0.00009830,0.00101685,0.00013431,0.00066880,-0.00000106,0.00000866,-0
 .00000337,-0.10760922,0.05749988,-0.18216291,0.01109667,-0.00604106,0.
 01064258,0.00003204,0.00002331,0.00000940,0.00004416,0.00013029,-0.000
 17497,-0.00663616,0.00354525,-0.00842504,0.00172208,-0.00191076,0.0040
 2914,-0.00010310,-0.00002293,0.00004119,-0.00040018,0.00011849,-0.0000
 7386,-0.00001189,0.00000051,0.00002000,-0.00000294,0.00000191,0.000000
 68,-0.00000380,-0.00000224,-0.00000241,-0.00033388,-0.00012204,0.00056
 164,-0.00000661,-0.00000229,-0.00000378,0.00000241,0.00000219,0.000005
 52,0.00000457,0.00000466,-0.00000139,-0.00000731,-0.00000291,0.0000027
 4,-0.00118952,-0.00215969,0.00066294,0.00005172,-0.00020380,0.00013351
 ,-0.00157919,0.00036025,0.00038025,-0.00014242,0.00000693,0.00021987,-
 0.00001442,0.00000600,-0.00000806,0.00000001,-0.00000198,-0.00000080,-
 0.00000386,0.00001277,0.00002263,0.11882627,-0.05800317,0.18958454,0.0
 0000138,-0.00000362,0.00000097,0.00030051,-0.00010450,-0.00014860,-0.0
 0119407,-0.00291349,-0.00257910,-0.00000354,0.00001647,-0.00000715,-0.
 12198609,-0.05035550,0.10225377,-0.01373863,-0.00090516,0.01990804,0.0
 0005536,0.00003139,0.00001816,0.00049997,0.00000872,0.00015189,-0.0102
 9881,-0.00865541,0.01537744,-0.00019060,0.00336282,-0.00143932,-0.0001
 6485,-0.00003466,0.00004648,-0.00036870,0.00019924,-0.00000307,-0.0000
 3133,-0.00000910,0.00003288,-0.00000514,0.00000414,-0.00000178,-0.0000
 0608,-0.00000369,-0.00000413,0.00004324,-0.00013248,0.00025707,-0.0000
 1045,-0.00000447,-0.00000787,0.00000141,0.00000115,0.00000703,0.000016
 17,0.00001184,0.00000107,-0.00001459,-0.00000454,0.00000384,0.00058129
 ,0.00092923,0.00028910,0.00052356,0.00000205,-0.00015775,0.00008827,-0
 .00018821,0.00041865,-0.00041107,-0.00025683,0.00085230,-0.00002161,0.
 00000790,-0.00001338,0.00000189,0.00000033,-0.00000264,0.00000056,-0.0
 0000573,0.00001301,0.01216587,0.00670036,-0.01499645,0.13479108,-0.000
 00417,0.00000406,0.00000853,0.00006230,-0.00010116,-0.00009047,-0.0032
 5805,-0.00341352,-0.00337321,0.00000428,-0.00000367,0.00000376,-0.0572
 9298,-0.08832956,0.08606874,0.02132067,0.00692381,-0.02952706,0.000016
 05,-0.00003008,-0.00001912,0.00048170,-0.00059778,-0.00071473,-0.01169
 582,-0.00741881,0.02004831,0.00230688,-0.00427111,-0.00072136,-0.00001
 687,0.00001892,0.00001819,-0.00010737,0.00024333,0.00012194,-0.0000130
 3,0.00003141,0.00001880,-0.00000389,0.00000262,-0.00000367,-0.00000052
 ,-0.00000077,-0.00000113,0.00032353,0.00013607,-0.00027521,-0.00000069
 ,0.00000242,-0.00000058,0.00000073,-0.00000032,0.00000330,0.00001531,0
 .00001469,0.00000458,-0.00000760,0.00000522,0.00000388,0.00047045,0.00
 108554,-0.00046589,0.00078557,0.00048116,-0.00002806,-0.00015245,0.000
 06495,-0.00022116,0.00091327,0.00028594,-0.00116193,-0.00000802,0.0000
 0270,-0.00000669,0.00000071,-0.00000059,-0.00000050,-0.00001752,0.0000
 4894,0.00002780,-0.00558499,-0.00249184,0.00681024,0.05268090,0.097335
 04,-0.00000355,0.00000487,0.00000400,-0.00018115,0.00001432,0.00006183
 ,-0.00136742,-0.00171125,-0.00012590,0.00000378,-0.00001387,0.00000712
 ,0.10669629,0.07712880,-0.20989371,0.01043525,-0.00034773,-0.01313916,
 -0.00002701,-0.00003513,-0.00002184,-0.00031854,-0.00023086,-0.0003326
 5,-0.00727013,-0.00378464,0.01016522,0.00025354,-0.00315747,0.00183628
 ,0.00009442,0.00004366,-0.00002621,0.00028160,0.00001303,0.00006307,0.
 00001267,0.00001977,-0.00001312,0.00000170,-0.00000117,-0.00000052,0.0
 0000395,0.00000222,0.00000219,-0.00005254,-0.00016359,0.00017641,0.000
 00743,0.00000435,0.00000475,-0.00000075,-0.00000087,-0.00000336,0.0000
 0086,-0.00000140,0.00000278,0.00000609,0.00000542,-0.00000081,0.000485
 10,0.00050088,0.00069556,0.00076360,0.00074533,0.00018017,-0.00013640,
 0.00000021,0.00030414,0.00080609,0.00017553,-0.00052968,0.00001067,-0.
 00000418,0.00000610,-0.00000068,0.00000020,0.00000201,-0.00000456,0.00
 002931,0.00000759,0.01102477,0.00896604,-0.01615149,-0.12121556,-0.078
 03344,0.22622694,0.00002672,-0.00003424,-0.00004231,-0.00001652,0.0001
 0499,0.00029869,-0.17473477,-0.12424072,-0.05349274,-0.00000670,0.0000
 0651,0.00001189,-0.00141850,0.00036206,0.00493973,0.00054288,-0.000440
 16,-0.00080408,-0.00014789,0.00017010,0.00012423,0.01021237,0.01246085
 ,0.00427538,-0.01236084,-0.01130554,-0.00634519,-0.00162733,0.00263846
 ,0.00140115,0.00007298,-0.00003266,-0.00007728,0.00163122,-0.00086203,
 0.00053848,0.00004807,-0.00004131,-0.00007678,0.00001314,-0.00001410,0
 .00001865,0.00000278,0.00000443,0.00000198,-0.01236380,-0.01197030,-0.
 00487765,0.00000623,-0.00000200,0.00000612,0.00003515,-0.00003394,-0.0
 0000783,-0.00022830,-0.00001288,0.00000939,0.00003296,-0.00002259,-0.0
 0000679,0.00087944,0.00022190,0.00008377,0.00012456,0.00044947,-0.0003
 7392,0.00000079,0.00008725,0.00003715,0.00055375,0.00070344,0.00020104
 ,0.00002762,-0.00001391,0.00002042,-0.00000461,-0.00000286,0.00000175,
 0.00001286,-0.00000066,-0.00002803,0.00033505,0.00034240,0.00007072,-0
 .00055114,-0.00130183,-0.00035009,0.18823091,-0.00003605,0.00005484,0.
 00007385,0.00020027,0.00011733,-0.00007800,-0.12166524,-0.16568130,-0.
 05034232,0.00000402,-0.00001254,0.00001152,-0.00025025,0.00105047,0.00
 209755,-0.00022148,0.00060567,0.00033609,0.00008369,-0.00033074,-0.000
 13488,-0.01853494,-0.02097319,-0.00908413,-0.00567481,-0.00585070,-0.0
 0162672,0.00523659,-0.00270314,-0.00237637,0.00011984,0.00011545,0.000
 04133,-0.00127714,0.00273282,0.00049790,0.00001183,0.00001317,0.000011
 40,-0.00003353,0.00001946,-0.00003195,0.00000006,-0.00000487,-0.000002
 89,0.00975248,0.01045352,0.00357889,-0.00000422,0.00001230,-0.00000864
 ,0.00002382,-0.00001482,0.00001512,0.00022415,0.00016780,0.00004388,-0
 .00007766,0.00004965,0.00003580,0.00017894,0.00012928,-0.00014274,0.00
 008569,0.00037542,0.00026573,-0.00010863,0.00022057,-0.00008775,-0.001
 18377,-0.00117422,-0.00015027,-0.00001092,0.00000116,-0.00000958,-0.00
 000046,0.00000273,-0.00000571,-0.00014917,0.00015443,0.00009515,-0.000
 16123,-0.00004788,-0.00018467,-0.00031184,-0.00032588,-0.00032209,0.13
 367694,0.17984512,-0.00002664,0.00003802,0.00005948,-0.00006930,0.0000
 8297,0.00014907,-0.05293509,-0.05222660,-0.07020182,-0.00002032,-0.000
 00327,0.00002399,0.00332441,-0.00007496,-0.00545687,-0.00113940,0.0001
 5093,0.00098282,0.00004317,-0.00021269,-0.00012952,-0.01169071,-0.0091
 0806,-0.00546299,0.01932282,0.01941537,0.00876121,0.00305230,-0.002163
 72,-0.00147741,0.00013087,0.00014837,-0.00004537,0.00005718,0.00153238
 ,0.00064180,0.00004400,-0.00000813,-0.00004253,-0.00001909,0.00001347,
 -0.00002508,0.00000199,0.00000064,-0.00000079,-0.01384164,-0.01510481,
 -0.00654080,0.00001039,0.00000523,-0.00000503,0.00002392,-0.00002972,-
 0.00000956,0.00016518,0.00005096,0.00005270,-0.00003058,0.00002722,0.0
 0001376,-0.00097370,-0.00023174,0.00111791,-0.00068945,-0.00073053,0.0
 0092840,0.00030080,0.00026700,0.00022677,-0.00067858,-0.00093370,0.000
 17868,0.00001497,-0.00001188,0.00000814,-0.00000215,0.00000426,-0.0000
 0463,-0.00005746,0.00005986,0.00001427,0.00017226,0.00004848,0.0000966
 8,0.00101576,0.00134242,0.00047992,0.05487967,0.05716834,0.07553045,0.
 00003123,0.00006915,-0.00008284,0.00253514,0.00056739,-0.00194786,-0.0
 0706416,-0.00335163,0.01101007,0.00008049,0.00000094,-0.00001790,0.001
 20720,-0.00070713,-0.00064173,-0.00376467,-0.00419810,0.00011435,-0.00
 042698,-0.00026969,-0.00008490,-0.10814634,-0.03657524,0.10753096,0.00
 011236,0.00297927,0.00038366,-0.00769700,-0.00250781,0.01840633,-0.002
 65378,0.00027046,0.00008471,0.00467313,0.01105568,-0.02978021,-0.00011
 668,-0.00009568,0.00027538,0.00002433,-0.00004546,0.00003030,0.0000280
 5,-0.00000576,0.00004142,0.00004594,-0.00010809,-0.00001082,-0.0000298
 6,-0.00000210,0.00002484,0.00001221,0.00004741,0.00005000,0.00010933,-
 0.00009380,-0.00008651,0.00001624,0.00002328,0.00004320,-0.00002233,-0
 .00004868,0.00014119,-0.00039227,-0.00024949,0.00059337,0.00000958,0.0
 0053027,-0.00019063,0.00071298,-0.00015715,-0.00039326,-0.00011809,-0.
 00001288,0.00001239,0.00006345,-0.00009937,0.00014422,-0.00022592,0.00
 010731,0.00020878,-0.00011928,0.00011763,-0.00005295,-0.00007386,0.000
 08348,0.00004055,0.00067093,0.00010301,-0.00038559,0.12051862,-0.00001
 393,-0.00013637,-0.00005301,-0.00159130,0.00042571,0.00289217,0.014533
 65,0.00816739,-0.02393603,-0.00005979,0.00001579,-0.00001524,0.0005551
 4,-0.00170904,-0.00073685,-0.00591046,-0.00381050,0.00087241,0.0000350
 7,0.00051975,0.00009032,-0.03514164,-0.07044258,0.05497131,0.00198549,
 -0.00489162,-0.00150515,-0.01095486,-0.00380746,0.02125754,-0.00009294
 ,0.00036117,-0.00089160,0.00300011,-0.00426902,0.01373810,0.00001867,-
 0.00019019,-0.00013382,0.00001393,-0.00000319,0.00001249,-0.00002186,0
 .00000740,-0.00003568,-0.00045394,0.00109990,0.00066283,0.00000861,-0.
 00001539,-0.00001038,-0.00000816,-0.00002876,-0.00002831,0.00003680,-0
 .00017945,-0.00014237,0.00000197,-0.00004191,0.00001614,-0.00014838,0.
 00002032,-0.00007940,0.00107284,0.00045127,-0.00125716,0.00016572,0.00
 080687,-0.00062924,0.00113723,0.00038734,0.00005846,0.00008479,0.00000
 534,0.00001090,0.00003459,0.00003377,-0.00006679,0.00016145,-0.0002844
 8,-0.00011993,-0.00005718,0.00019975,0.00011957,-0.00006730,0.00029828
 ,0.00015375,-0.00089708,0.00099809,0.00048388,0.03257277,0.07601180,0.
 00008238,0.00002631,-0.00002878,0.00473594,-0.00157897,-0.00322584,0.0
 0700844,0.00267141,-0.00968774,0.00008639,0.00006193,-0.00002508,-0.00
 009430,-0.00058456,-0.00028193,-0.00201596,-0.00205839,0.00145504,-0.0
 0052911,-0.00038705,-0.00009850,0.10017952,0.05701963,-0.23128278,0.00
 070777,-0.00246102,0.00068294,-0.00151026,-0.00085396,0.00638835,0.001
 67030,-0.00169337,0.00248373,-0.00445335,0.01324927,-0.02725838,-0.000
 16697,0.00017823,0.00012382,0.00000286,-0.00001059,0.00004133,0.000003
 12,-0.00001345,0.00004783,0.00000164,-0.00010833,0.00074742,-0.0000587
 7,-0.00001213,0.00000441,0.00001078,0.00004661,0.00006851,-0.00031252,
 -0.00008595,-0.00023773,0.00001066,-0.00001300,-0.00004289,-0.00017119
 ,-0.00000888,0.00013675,0.00042675,0.00037787,-0.00050994,0.00045244,0
 .00084750,0.00035872,0.00043474,0.00021336,0.00001370,-0.00019711,0.00
 003317,-0.00005018,-0.00005916,-0.00007118,0.00011748,-0.00029229,0.00
 036454,0.00038781,0.00001598,0.00007002,0.00002710,-0.00007066,0.00016
 372,0.00001238,-0.00043754,0.00031616,0.00013634,-0.10546052,-0.065698
 90,0.25949613\\0.00000004,0.00000735,-0.00000612,0.00040227,0.00031208
 ,0.00034676,0.00002882,0.00000719,0.00000481,0.00000040,0.00000805,0.0
 0001338,-0.00001738,0.00000986,-0.00000266,0.00000760,-0.00000926,-0.0
 0000647,0.00001285,0.00006934,0.00002216,0.00016357,0.00034679,-0.0001
 0255,-0.00001478,0.00000516,0.00000734,0.00000081,0.00001701,-0.000007
 16,-0.00023822,-0.00015838,-0.00028572,-0.00035978,-0.00055090,-0.0000
 0044,-0.00003434,-0.00000500,-0.00000922,-0.00000523,0.00000384,0.0000
 0057,0.00000472,-0.00001311,0.00000850,0.00000134,0.00000061,0.0000049
 8,-0.00000761,-0.00000976,-0.00001005,0.00000560,-0.00000943,-0.000001
 91,0.00001303,-0.00001941,-0.00000830,-0.00000919,-0.00000993,0.000007
 79,-0.00000248,-0.00000798,-0.00000046,0.00001281,-0.00000789,0.000005
 38,0.00000936,-0.00000391,0.00000631,-0.00000095,0.00001520,0.00000423
 ,-0.00000098,0.00000104,-0.00000998,0.00001770,-0.00000183,-0.00000143
 ,0.00001326,0.00002575,0.00000913,0.00000685,-0.00000744,0.00001081,0.
 00000532,-0.00000361,-0.00001547,-0.00001142,-0.00001187,0.00000061,-0
 .00000396,0.00000047,0.00001519\\\@


 HE WHO LOVES TO READ, AND KNOWS HOW TO REFLECT,
 HAS LAID BY A PERPETUAL FEAST FOR HIS OLD AGE.
 -- UNCLE ESEK, "SCRIBNER'S MONTHLY", SEPT. 1880
 Job cpu time:       0 days 15 hours 45 minutes 59.1 seconds.
 Elapsed time:       0 days  0 hours 59 minutes  9.8 seconds.
 File lengths (MBytes):  RWF=    687 Int=      0 D2E=      0 Chk=     33 Scr=      1
 Normal termination of Gaussian 16 at Mon Nov  5 05:18:14 2018.
