 Entering Gaussian System, Link 0=g16
 Initial command:
 /apps/gaussian/g16a03/g16/l1.exe "/jobfs/local/2011881.r-man2/Gau-17648.inp" -scrdir="/jobfs/local/2011881.r-man2/"
 Entering Link 1 = /apps/gaussian/g16a03/g16/l1.exe PID=     17649.
  
 Copyright (c) 1988,1990,1992,1993,1995,1998,2003,2009,2016,
            Gaussian, Inc.  All Rights Reserved.
  
 This is part of the Gaussian(R) 16 program.  It is based on
 the Gaussian(R) 09 system (copyright 2009, Gaussian, Inc.),
 the Gaussian(R) 03 system (copyright 2003, Gaussian, Inc.),
 the Gaussian(R) 98 system (copyright 1998, Gaussian, Inc.),
 the Gaussian(R) 94 system (copyright 1995, Gaussian, Inc.),
 the Gaussian 92(TM) system (copyright 1992, Gaussian, Inc.),
 the Gaussian 90(TM) system (copyright 1990, Gaussian, Inc.),
 the Gaussian 88(TM) system (copyright 1988, Gaussian, Inc.),
 the Gaussian 86(TM) system (copyright 1986, Carnegie Mellon
 University), and the Gaussian 82(TM) system (copyright 1983,
 Carnegie Mellon University). Gaussian is a federally registered
 trademark of Gaussian, Inc.
  
 This software contains proprietary and confidential information,
 including trade secrets, belonging to Gaussian, Inc.
  
 This software is provided under written license and may be
 used, copied, transmitted, or stored only in accord with that
 written license.
  
 The following legend is applicable only to US Government
 contracts under FAR:
  
                    RESTRICTED RIGHTS LEGEND
  
 Use, reproduction and disclosure by the US Government is
 subject to restrictions as set forth in subparagraphs (a)
 and (c) of the Commercial Computer Software - Restricted
 Rights clause in FAR 52.227-19.
  
 Gaussian, Inc.
 340 Quinnipiac St., Bldg. 40, Wallingford CT 06492
  
  
 ---------------------------------------------------------------
 Warning -- This program may not be used in any manner that
 competes with the business of Gaussian, Inc. or will provide
 assistance to any competitor of Gaussian, Inc.  The licensee
 of this program is prohibited from giving any competitor of
 Gaussian, Inc. access to this program.  By using this program,
 the user acknowledges that Gaussian, Inc. is engaged in the
 business of creating and licensing software in the field of
 computational chemistry and represents and warrants to the
 licensee that it is not a competitor of Gaussian, Inc. and that
 it will not use this program in any manner prohibited above.
 ---------------------------------------------------------------
  

 Cite this work as:
 Gaussian 16, Revision A.03,
 M. J. Frisch, G. W. Trucks, H. B. Schlegel, G. E. Scuseria, 
 M. A. Robb, J. R. Cheeseman, G. Scalmani, V. Barone, 
 G. A. Petersson, H. Nakatsuji, X. Li, M. Caricato, A. V. Marenich, 
 J. Bloino, B. G. Janesko, R. Gomperts, B. Mennucci, H. P. Hratchian, 
 J. V. Ortiz, A. F. Izmaylov, J. L. Sonnenberg, D. Williams-Young, 
 F. Ding, F. Lipparini, F. Egidi, J. Goings, B. Peng, A. Petrone, 
 T. Henderson, D. Ranasinghe, V. G. Zakrzewski, J. Gao, N. Rega, 
 G. Zheng, W. Liang, M. Hada, M. Ehara, K. Toyota, R. Fukuda, 
 J. Hasegawa, M. Ishida, T. Nakajima, Y. Honda, O. Kitao, H. Nakai, 
 T. Vreven, K. Throssell, J. A. Montgomery, Jr., J. E. Peralta, 
 F. Ogliaro, M. J. Bearpark, J. J. Heyd, E. N. Brothers, K. N. Kudin, 
 V. N. Staroverov, T. A. Keith, R. Kobayashi, J. Normand, 
 K. Raghavachari, A. P. Rendell, J. C. Burant, S. S. Iyengar, 
 J. Tomasi, M. Cossi, J. M. Millam, M. Klene, C. Adamo, R. Cammi, 
 J. W. Ochterski, R. L. Martin, K. Morokuma, O. Farkas, 
 J. B. Foresman, and D. J. Fox, Gaussian, Inc., Wallingford CT, 2016.
 
 ******************************************
 Gaussian 16:  ES64L-G16RevA.03 25-Dec-2016
                 5-Nov-2018 
 ******************************************
 %mem=6000mb
 %nproc=24
 Will use up to   24 processors via shared memory.
 %chk=D_1a_4a_L_PHI.inp_extract_17.chk
 ----------------------------------------------------------------------
 #M062X/6-311++G(2d,2p) opt=ModRedundant freq=noraman SCRF=(Solvent=Wat
 er)
 ----------------------------------------------------------------------
 1/18=120,19=15,26=3,38=1/1,3;
 2/9=110,12=2,17=6,18=5,40=1/2;
 3/5=4,6=6,7=1212,11=2,25=1,30=1,70=2201,71=1,72=1,74=-55/1,2,3;
 4//1;
 5/5=2,38=5,53=1/2;
 6/7=2,8=2,9=2,10=2,28=1/1;
 7//1,2,3,16;
 1/18=20,19=15,26=3/3(2);
 2/9=110/2;
 99//99;
 2/9=110/2;
 3/5=4,6=6,7=1212,11=2,25=1,30=1,70=2205,71=1,72=1,74=-55/1,2,3;
 4/5=5,16=3,69=1/1;
 5/5=2,38=5,53=1/2;
 7//1,2,3,16;
 1/18=20,19=15,26=3/3(-5);
 2/9=110/2;
 6/7=2,8=2,9=2,10=2,19=2,28=1/1;
 99/9=1/99;
 ----------------------------
 D_1a_4a_L_PHI.inp_extract_17
 ----------------------------
 Symbolic Z-matrix:
 Charge =  0 Multiplicity = 1
 C                     3.49059  -0.43963  -0.3996 
 C                     1.02504   0.51196   0.8079 
 C                    -1.79811   1.36461  -0.13789 
 C                     2.60498   0.53305  -1.17725 
 C                    -3.53828  -0.39069   0.2656 
 O                    -2.62777  -1.37304  -0.19377 
 C                     2.65043  -1.23815   0.58149 
 C                    -0.89971   0.26258  -0.70342 
 C                    -2.80223   0.79619   0.86719 
 C                    -1.75068  -0.89779  -1.19166 
 O                     1.89809  -0.38474   1.43576 
 O                    -0.01626  -0.26813   0.27059 
 C                     1.78308   1.37293  -0.19864 
 H                     4.25213   0.11212   0.14646 
 H                     4.00134  -1.12584  -1.06916 
 H                    -2.33333   1.81207  -0.9721 
 H                     3.20909   1.1843   -1.80144 
 H                     1.94796  -0.02286  -1.84095 
 H                     1.97755  -1.90623   0.05617 
 H                     3.26767  -1.83135   1.24174 
 H                    -2.29205   0.47948   1.77221 
 H                    -3.52318   1.55701   1.15217 
 H                    -2.32429  -0.57524  -2.0572 
 H                    -1.12577  -1.73106  -1.4811 
 H                     2.4515    1.99784   0.38753 
 H                     1.10734   2.04313  -0.71533 
 H                     0.6297    1.12767   1.6034 
 H                    -4.16213  -0.07106  -0.56662 
 H                    -4.1689   -0.87815   0.99653 
 H                    -1.20299   2.15124   0.31296 
 H                    -0.33484   0.634    -1.54818 
 
 The following ModRedundant input section has been read:
 D      11       2      12       8 F                                           
 

 GradGradGradGradGradGradGradGradGradGradGradGradGradGradGradGradGradGrad
 Berny optimization.
 Initialization pass.
                           ----------------------------
                           !    Initial Parameters    !
                           ! (Angstroms and Degrees)  !
 --------------------------                            --------------------------
 ! Name  Definition              Value          Derivative Info.                !
 --------------------------------------------------------------------------------
 ! R1    R(1,4)                  1.5281         estimate D2E/DX2                !
 ! R2    R(1,7)                  1.5186         estimate D2E/DX2                !
 ! R3    R(1,14)                 1.0875         estimate D2E/DX2                !
 ! R4    R(1,15)                 1.0863         estimate D2E/DX2                !
 ! R5    R(2,11)                 1.4002         estimate D2E/DX2                !
 ! R6    R(2,12)                 1.4077         estimate D2E/DX2                !
 ! R7    R(2,13)                 1.5261         estimate D2E/DX2                !
 ! R8    R(2,27)                 1.0808         estimate D2E/DX2                !
 ! R9    R(3,8)                  1.5302         estimate D2E/DX2                !
 ! R10   R(3,9)                  1.5302         estimate D2E/DX2                !
 ! R11   R(3,16)                 1.0875         estimate D2E/DX2                !
 ! R12   R(3,30)                 1.0845         estimate D2E/DX2                !
 ! R13   R(4,13)                 1.5292         estimate D2E/DX2                !
 ! R14   R(4,17)                 1.0857         estimate D2E/DX2                !
 ! R15   R(4,18)                 1.0868         estimate D2E/DX2                !
 ! R16   R(5,6)                  1.416          estimate D2E/DX2                !
 ! R17   R(5,9)                  1.5206         estimate D2E/DX2                !
 ! R18   R(5,28)                 1.0881         estimate D2E/DX2                !
 ! R19   R(5,29)                 1.0815         estimate D2E/DX2                !
 ! R20   R(6,10)                 1.411          estimate D2E/DX2                !
 ! R21   R(7,11)                 1.4227         estimate D2E/DX2                !
 ! R22   R(7,19)                 1.084          estimate D2E/DX2                !
 ! R23   R(7,20)                 1.0811         estimate D2E/DX2                !
 ! R24   R(8,10)                 1.5195         estimate D2E/DX2                !
 ! R25   R(8,12)                 1.418          estimate D2E/DX2                !
 ! R26   R(8,31)                 1.082          estimate D2E/DX2                !
 ! R27   R(9,21)                 1.0861         estimate D2E/DX2                !
 ! R28   R(9,22)                 1.0862         estimate D2E/DX2                !
 ! R29   R(10,23)                1.0873         estimate D2E/DX2                !
 ! R30   R(10,24)                1.081          estimate D2E/DX2                !
 ! R31   R(13,25)                1.0867         estimate D2E/DX2                !
 ! R32   R(13,26)                1.0829         estimate D2E/DX2                !
 ! A1    A(4,1,7)              110.0507         estimate D2E/DX2                !
 ! A2    A(4,1,14)             109.7816         estimate D2E/DX2                !
 ! A3    A(4,1,15)             111.1559         estimate D2E/DX2                !
 ! A4    A(7,1,14)             109.2579         estimate D2E/DX2                !
 ! A5    A(7,1,15)             109.0364         estimate D2E/DX2                !
 ! A6    A(14,1,15)            107.5026         estimate D2E/DX2                !
 ! A7    A(11,2,12)            106.1114         estimate D2E/DX2                !
 ! A8    A(11,2,13)            110.3246         estimate D2E/DX2                !
 ! A9    A(11,2,27)            105.2399         estimate D2E/DX2                !
 ! A10   A(12,2,13)            115.3609         estimate D2E/DX2                !
 ! A11   A(12,2,27)            109.0289         estimate D2E/DX2                !
 ! A12   A(13,2,27)            110.2263         estimate D2E/DX2                !
 ! A13   A(8,3,9)              111.1309         estimate D2E/DX2                !
 ! A14   A(8,3,16)             107.5653         estimate D2E/DX2                !
 ! A15   A(8,3,30)             110.7221         estimate D2E/DX2                !
 ! A16   A(9,3,16)             109.4965         estimate D2E/DX2                !
 ! A17   A(9,3,30)             110.8831         estimate D2E/DX2                !
 ! A18   A(16,3,30)            106.8882         estimate D2E/DX2                !
 ! A19   A(1,4,13)             109.5974         estimate D2E/DX2                !
 ! A20   A(1,4,17)             110.6051         estimate D2E/DX2                !
 ! A21   A(1,4,18)             109.6052         estimate D2E/DX2                !
 ! A22   A(13,4,17)            109.7264         estimate D2E/DX2                !
 ! A23   A(13,4,18)            110.2915         estimate D2E/DX2                !
 ! A24   A(17,4,18)            106.9842         estimate D2E/DX2                !
 ! A25   A(6,5,9)              111.0133         estimate D2E/DX2                !
 ! A26   A(6,5,28)             108.9257         estimate D2E/DX2                !
 ! A27   A(6,5,29)             106.3507         estimate D2E/DX2                !
 ! A28   A(9,5,28)             110.5377         estimate D2E/DX2                !
 ! A29   A(9,5,29)             111.5104         estimate D2E/DX2                !
 ! A30   A(28,5,29)            108.3612         estimate D2E/DX2                !
 ! A31   A(5,6,10)             113.2951         estimate D2E/DX2                !
 ! A32   A(1,7,11)             111.4122         estimate D2E/DX2                !
 ! A33   A(1,7,19)             110.7578         estimate D2E/DX2                !
 ! A34   A(1,7,20)             111.5443         estimate D2E/DX2                !
 ! A35   A(11,7,19)            109.4161         estimate D2E/DX2                !
 ! A36   A(11,7,20)            105.3276         estimate D2E/DX2                !
 ! A37   A(19,7,20)            108.1912         estimate D2E/DX2                !
 ! A38   A(3,8,10)             109.8718         estimate D2E/DX2                !
 ! A39   A(3,8,12)             112.4243         estimate D2E/DX2                !
 ! A40   A(3,8,31)             110.3559         estimate D2E/DX2                !
 ! A41   A(10,8,12)            106.4875         estimate D2E/DX2                !
 ! A42   A(10,8,31)            107.6767         estimate D2E/DX2                !
 ! A43   A(12,8,31)            109.8469         estimate D2E/DX2                !
 ! A44   A(3,9,5)              110.3467         estimate D2E/DX2                !
 ! A45   A(3,9,21)             110.3274         estimate D2E/DX2                !
 ! A46   A(3,9,22)             110.3453         estimate D2E/DX2                !
 ! A47   A(5,9,21)             109.2335         estimate D2E/DX2                !
 ! A48   A(5,9,22)             109.2223         estimate D2E/DX2                !
 ! A49   A(21,9,22)            107.3024         estimate D2E/DX2                !
 ! A50   A(6,10,8)             112.2146         estimate D2E/DX2                !
 ! A51   A(6,10,23)            109.5705         estimate D2E/DX2                !
 ! A52   A(6,10,24)            106.8018         estimate D2E/DX2                !
 ! A53   A(8,10,23)            108.9461         estimate D2E/DX2                !
 ! A54   A(8,10,24)            110.5432         estimate D2E/DX2                !
 ! A55   A(23,10,24)           108.6932         estimate D2E/DX2                !
 ! A56   A(2,11,7)             116.3996         estimate D2E/DX2                !
 ! A57   A(2,12,8)             121.0404         estimate D2E/DX2                !
 ! A58   A(2,13,4)             112.2829         estimate D2E/DX2                !
 ! A59   A(2,13,25)            105.9134         estimate D2E/DX2                !
 ! A60   A(2,13,26)            110.7248         estimate D2E/DX2                !
 ! A61   A(4,13,25)            109.2945         estimate D2E/DX2                !
 ! A62   A(4,13,26)            111.712          estimate D2E/DX2                !
 ! A63   A(25,13,26)           106.5758         estimate D2E/DX2                !
 ! D1    D(7,1,4,13)            52.6429         estimate D2E/DX2                !
 ! D2    D(7,1,4,17)           173.7494         estimate D2E/DX2                !
 ! D3    D(7,1,4,18)           -68.5277         estimate D2E/DX2                !
 ! D4    D(14,1,4,13)          -67.6476         estimate D2E/DX2                !
 ! D5    D(14,1,4,17)           53.4589         estimate D2E/DX2                !
 ! D6    D(14,1,4,18)          171.1817         estimate D2E/DX2                !
 ! D7    D(15,1,4,13)          173.5434         estimate D2E/DX2                !
 ! D8    D(15,1,4,17)          -65.3502         estimate D2E/DX2                !
 ! D9    D(15,1,4,18)           52.3727         estimate D2E/DX2                !
 ! D10   D(4,1,7,11)           -54.4978         estimate D2E/DX2                !
 ! D11   D(4,1,7,19)            67.5408         estimate D2E/DX2                !
 ! D12   D(4,1,7,20)          -171.8901         estimate D2E/DX2                !
 ! D13   D(14,1,7,11)           66.1086         estimate D2E/DX2                !
 ! D14   D(14,1,7,19)         -171.8529         estimate D2E/DX2                !
 ! D15   D(14,1,7,20)          -51.2838         estimate D2E/DX2                !
 ! D16   D(15,1,7,11)         -176.6621         estimate D2E/DX2                !
 ! D17   D(15,1,7,19)          -54.6236         estimate D2E/DX2                !
 ! D18   D(15,1,7,20)           65.9455         estimate D2E/DX2                !
 ! D19   D(12,2,11,7)           70.0356         estimate D2E/DX2                !
 ! D20   D(13,2,11,7)          -55.5854         estimate D2E/DX2                !
 ! D21   D(27,2,11,7)         -174.4691         estimate D2E/DX2                !
 ! D22   D(11,2,12,8)         -164.4578         Frozen                          !
 ! D23   D(13,2,12,8)          -41.9774         estimate D2E/DX2                !
 ! D24   D(27,2,12,8)           82.647          estimate D2E/DX2                !
 ! D25   D(11,2,13,4)           52.2193         estimate D2E/DX2                !
 ! D26   D(11,2,13,25)         -67.0            estimate D2E/DX2                !
 ! D27   D(11,2,13,26)         177.8461         estimate D2E/DX2                !
 ! D28   D(12,2,13,4)          -67.9834         estimate D2E/DX2                !
 ! D29   D(12,2,13,25)         172.7973         estimate D2E/DX2                !
 ! D30   D(12,2,13,26)          57.6434         estimate D2E/DX2                !
 ! D31   D(27,2,13,4)          168.0179         estimate D2E/DX2                !
 ! D32   D(27,2,13,25)          48.7986         estimate D2E/DX2                !
 ! D33   D(27,2,13,26)         -66.3553         estimate D2E/DX2                !
 ! D34   D(9,3,8,10)            50.1043         estimate D2E/DX2                !
 ! D35   D(9,3,8,12)           -68.2951         estimate D2E/DX2                !
 ! D36   D(9,3,8,31)           168.6904         estimate D2E/DX2                !
 ! D37   D(16,3,8,10)          -69.7404         estimate D2E/DX2                !
 ! D38   D(16,3,8,12)          171.8602         estimate D2E/DX2                !
 ! D39   D(16,3,8,31)           48.8457         estimate D2E/DX2                !
 ! D40   D(30,3,8,10)          173.8015         estimate D2E/DX2                !
 ! D41   D(30,3,8,12)           55.4021         estimate D2E/DX2                !
 ! D42   D(30,3,8,31)          -67.6125         estimate D2E/DX2                !
 ! D43   D(8,3,9,5)            -51.0743         estimate D2E/DX2                !
 ! D44   D(8,3,9,21)            69.7264         estimate D2E/DX2                !
 ! D45   D(8,3,9,22)          -171.8726         estimate D2E/DX2                !
 ! D46   D(16,3,9,5)            67.6154         estimate D2E/DX2                !
 ! D47   D(16,3,9,21)         -171.584          estimate D2E/DX2                !
 ! D48   D(16,3,9,22)          -53.183          estimate D2E/DX2                !
 ! D49   D(30,3,9,5)          -174.6796         estimate D2E/DX2                !
 ! D50   D(30,3,9,21)          -53.879          estimate D2E/DX2                !
 ! D51   D(30,3,9,22)           64.522          estimate D2E/DX2                !
 ! D52   D(1,4,13,2)           -52.2189         estimate D2E/DX2                !
 ! D53   D(1,4,13,25)           65.0008         estimate D2E/DX2                !
 ! D54   D(1,4,13,26)         -177.3055         estimate D2E/DX2                !
 ! D55   D(17,4,13,2)         -173.8547         estimate D2E/DX2                !
 ! D56   D(17,4,13,25)         -56.6349         estimate D2E/DX2                !
 ! D57   D(17,4,13,26)          61.0588         estimate D2E/DX2                !
 ! D58   D(18,4,13,2)           68.5366         estimate D2E/DX2                !
 ! D59   D(18,4,13,25)        -174.2436         estimate D2E/DX2                !
 ! D60   D(18,4,13,26)         -56.5499         estimate D2E/DX2                !
 ! D61   D(9,5,6,10)           -60.2248         estimate D2E/DX2                !
 ! D62   D(28,5,6,10)           61.7135         estimate D2E/DX2                !
 ! D63   D(29,5,6,10)          178.3058         estimate D2E/DX2                !
 ! D64   D(6,5,9,3)             55.0015         estimate D2E/DX2                !
 ! D65   D(6,5,9,21)           -66.4507         estimate D2E/DX2                !
 ! D66   D(6,5,9,22)           176.4686         estimate D2E/DX2                !
 ! D67   D(28,5,9,3)           -65.9919         estimate D2E/DX2                !
 ! D68   D(28,5,9,21)          172.5559         estimate D2E/DX2                !
 ! D69   D(28,5,9,22)           55.4752         estimate D2E/DX2                !
 ! D70   D(29,5,9,3)           173.3961         estimate D2E/DX2                !
 ! D71   D(29,5,9,21)           51.9439         estimate D2E/DX2                !
 ! D72   D(29,5,9,22)          -65.1368         estimate D2E/DX2                !
 ! D73   D(5,6,10,8)            60.1345         estimate D2E/DX2                !
 ! D74   D(5,6,10,23)          -61.0233         estimate D2E/DX2                !
 ! D75   D(5,6,10,24)         -178.5825         estimate D2E/DX2                !
 ! D76   D(1,7,11,2)            57.8443         estimate D2E/DX2                !
 ! D77   D(19,7,11,2)          -64.9667         estimate D2E/DX2                !
 ! D78   D(20,7,11,2)          178.9403         estimate D2E/DX2                !
 ! D79   D(3,8,10,6)           -53.9571         estimate D2E/DX2                !
 ! D80   D(3,8,10,23)           67.559          estimate D2E/DX2                !
 ! D81   D(3,8,10,24)         -173.0669         estimate D2E/DX2                !
 ! D82   D(12,8,10,6)           68.0473         estimate D2E/DX2                !
 ! D83   D(12,8,10,23)        -170.4366         estimate D2E/DX2                !
 ! D84   D(12,8,10,24)         -51.0624         estimate D2E/DX2                !
 ! D85   D(31,8,10,6)         -174.1817         estimate D2E/DX2                !
 ! D86   D(31,8,10,23)         -52.6656         estimate D2E/DX2                !
 ! D87   D(31,8,10,24)          66.7085         estimate D2E/DX2                !
 ! D88   D(3,8,12,2)           -67.5414         estimate D2E/DX2                !
 ! D89   D(10,8,12,2)          172.0854         estimate D2E/DX2                !
 ! D90   D(31,8,12,2)           55.7583         estimate D2E/DX2                !
 --------------------------------------------------------------------------------
 Trust Radius=3.00D-01 FncErr=1.00D-07 GrdErr=1.00D-06 EigMax=2.50D+02 EigMin=1.00D-04
 Number of steps in this run=    186 maximum allowed number of steps=    186.
 GradGradGradGradGradGradGradGradGradGradGradGradGradGradGradGradGradGrad

                          Input orientation:                          
 ---------------------------------------------------------------------
 Center     Atomic      Atomic             Coordinates (Angstroms)
 Number     Number       Type             X           Y           Z
 ---------------------------------------------------------------------
      1          6           0        3.490586   -0.439631   -0.399604
      2          6           0        1.025045    0.511955    0.807902
      3          6           0       -1.798111    1.364605   -0.137888
      4          6           0        2.604981    0.533048   -1.177250
      5          6           0       -3.538275   -0.390690    0.265598
      6          8           0       -2.627769   -1.373040   -0.193769
      7          6           0        2.650431   -1.238152    0.581487
      8          6           0       -0.899707    0.262576   -0.703420
      9          6           0       -2.802233    0.796192    0.867192
     10          6           0       -1.750682   -0.897794   -1.191663
     11          8           0        1.898091   -0.384744    1.435759
     12          8           0       -0.016257   -0.268128    0.270592
     13          6           0        1.783079    1.372927   -0.198644
     14          1           0        4.252132    0.112120    0.146464
     15          1           0        4.001335   -1.125836   -1.069159
     16          1           0       -2.333325    1.812074   -0.972100
     17          1           0        3.209090    1.184298   -1.801443
     18          1           0        1.947961   -0.022859   -1.840946
     19          1           0        1.977552   -1.906230    0.056171
     20          1           0        3.267666   -1.831353    1.241739
     21          1           0       -2.292048    0.479478    1.772205
     22          1           0       -3.523175    1.557014    1.152168
     23          1           0       -2.324293   -0.575235   -2.057200
     24          1           0       -1.125775   -1.731059   -1.481096
     25          1           0        2.451499    1.997839    0.387525
     26          1           0        1.107336    2.043127   -0.715326
     27          1           0        0.629704    1.127668    1.603396
     28          1           0       -4.162133   -0.071057   -0.566616
     29          1           0       -4.168898   -0.878147    0.996527
     30          1           0       -1.202986    2.151245    0.312959
     31          1           0       -0.334844    0.633997   -1.548183
 ---------------------------------------------------------------------
                    Distance matrix (angstroms):
                    1          2          3          4          5
     1  C    0.000000
     2  C    2.905594   0.000000
     3  C    5.594111   3.097054   0.000000
     4  C    1.528115   2.537217   4.599889   0.000000
     5  C    7.060437   4.683242   2.504403   6.377672   0.000000
     6  O    6.192567   4.230792   2.861146   5.655270   1.415998
     7  C    1.518564   2.399170   5.203976   2.496472   6.254443
     8  C    4.456464   2.459869   1.530171   3.546901   2.885792
     9  C    6.536941   3.838276   1.530209   5.786791   1.520645
    10  C    5.320541   3.700042   2.496225   4.584683   2.361409
    11  O    2.430558   1.400172   4.381609   2.858295   5.560880
    12  O    3.574426   1.407672   2.451056   3.099842   3.524153
    13  C    2.498266   1.526114   3.581715   1.529245   5.625182
    14  H    1.087461   3.318352   6.185064   2.154647   7.807525
    15  H    1.086299   3.881239   6.379901   2.171033   7.692057
    16  H    6.270237   4.017134   1.087471   5.105376   2.799280
    17  H    2.163686   3.468541   5.279393   1.085675   7.230503
    18  H    2.151943   2.855555   4.342640   1.086830   5.888261
    19  H    2.155902   2.705548   4.999165   2.804474   5.724078
    20  H    2.163467   3.272408   6.146512   3.446890   7.024898
    21  H    6.245028   3.454568   2.162378   5.716909   2.140126
    22  H    7.455698   4.679420   2.162663   6.635434   2.140043
    23  H    6.048044   4.539698   2.779138   5.128386   2.627394
    24  H    4.914082   3.859618   3.440840   4.374591   3.266142
    25  H    2.764152   2.102222   4.328537   2.148881   6.449599
    26  H    3.455958   2.161361   3.038988   2.176385   5.335483
    27  H    3.827934   1.080837   2.997081   3.462266   4.633267
    28  H    7.663410   5.397779   2.798845   6.821411   1.088092
    29  H    7.798024   5.380056   3.455064   7.252738   1.081461
    30  H    5.408327   2.810047   1.084546   4.397715   3.452137
    31  H    4.135919   2.723110   2.159600   2.964853   3.821224
                    6          7          8          9         10
     6  O    0.000000
     7  C    5.336536   0.000000
     8  C    2.433348   4.062838   0.000000
     9  C    2.421083   5.826811   2.524118   0.000000
    10  C    1.411004   4.757068   1.519539   2.866048   0.000000
    11  O    4.910753   1.422709   3.580891   4.879644   4.525496
    12  O    2.873405   2.854615   1.418037   3.041442   2.354336
    13  C    5.195762   2.859832   2.947036   4.742754   4.316217
    14  H    7.046595   2.139609   5.223637   7.124007   6.232518
    15  H    6.691221   2.135928   5.107021   7.330224   5.757839
    16  H    3.292028   6.046101   2.128002   2.152879   2.780479
    17  H    6.572177   3.443649   4.351717   6.588493   5.413527
    18  H    5.047126   2.799747   3.079716   5.528942   3.855780
    19  H    4.642816   1.083998   3.682298   5.550422   4.058788
    20  H    6.084972   1.081110   5.053235   6.624798   5.654803
    21  H    2.722055   5.366205   2.848575   1.086115   3.312774
    22  H    3.346418   6.800885   3.464298   1.086195   3.829015
    23  H    2.049626   5.670098   2.136374   3.265166   1.087303
    24  H    2.010317   4.330928   2.151852   3.835618   1.081023
    25  H    6.123699   3.247897   3.928343   5.410706   5.341989
    26  H    5.088539   3.850929   2.683044   4.398175   4.128460
    27  H    4.482686   3.274865   2.899807   3.525630   4.192981
    28  H    2.046570   7.006517   3.282293   2.158067   2.624743
    29  H    2.009179   6.841426   3.857289   2.165159   3.261339
    30  H    3.835018   5.138963   2.166120   2.168164   3.443907
    31  H    3.334687   4.117317   1.081965   3.456639   2.116149
                   11         12         13         14         15
    11  O    0.000000
    12  O    2.244090   0.000000
    13  C    2.402896   2.480092   0.000000
    14  H    2.729591   4.287090   2.793735   0.000000
    15  H    3.353724   4.321069   3.452864   1.753047   0.000000
    16  H    5.341224   3.352660   4.211397   6.892697   6.983456
    17  H    3.828849   4.099480   2.153614   2.455981   2.549630
    18  H    3.297005   2.894288   2.161611   3.045853   2.455312
    19  H    2.055358   2.589330   3.294787   3.042302   2.443579
    20  H    2.001514   3.764432   3.813937   2.438419   2.525129
    21  H    4.291543   2.827186   4.614017   6.753094   7.089221
    22  H    5.765499   4.050530   5.478587   7.972111   8.291576
    23  H    5.483209   3.292410   4.911219   6.969789   6.425960
    24  H    4.411845   2.537638   4.443067   5.913387   5.179116
    25  H    2.661157   3.352327   1.086690   2.618459   3.779056
    26  H    3.338715   2.752525   1.082939   3.789619   4.306130
    27  H    1.980984   2.035161   2.153549   4.034349   4.856823
    28  H    6.390166   4.234152   6.129114   8.446413   8.246655
    29  H    6.102846   4.259523   6.474704   8.521560   8.430962
    30  H    4.160360   2.695086   3.127955   5.826153   6.303528
    31  H    3.863644   2.055060   2.617799   4.917777   4.704139
                   16         17         18         19         20
    16  H    0.000000
    17  H    5.639173   0.000000
    18  H    4.738278   1.746206   0.000000
    19  H    5.785049   3.810352   2.673390   0.000000
    20  H    7.038945   4.284687   3.809884   1.753731   0.000000
    21  H    3.051020   6.597746   5.593289   5.183229   6.044150
    22  H    2.448124   7.361123   6.433355   6.591909   7.589768
    23  H    2.622359   5.812030   4.313240   4.974310   6.612929
    24  H    3.777704   5.233831   3.534868   3.467638   5.169740
    25  H    4.977713   2.455071   3.050058   3.946666   4.007309
    26  H    3.457957   2.516865   2.498393   4.117026   4.848580
    27  H    3.985114   4.271928   3.863289   3.662668   3.980634
    28  H    2.656151   7.578631   6.241754   6.438280   7.846700
    29  H    3.805537   8.155797   6.796965   6.302386   7.501414
    30  H    1.744729   4.987193   4.392551   5.161866   6.058915
    31  H    2.390327   3.595336   2.393401   3.791290   5.180704
                   21         22         23         24         25
    21  H    0.000000
    22  H    1.749630   0.000000
    23  H    3.972128   4.035325   0.000000
    24  H    4.102516   4.846961   1.761894   0.000000
    25  H    5.169526   6.039514   5.950259   5.494844   0.000000
    26  H    4.493175   5.016520   4.520235   4.451704   1.739283
    27  H    2.997546   4.199327   5.002593   4.557205   2.356794
    28  H    3.044732   2.452163   2.419440   3.579295   6.995059
    29  H    2.442824   2.524122   3.580443   4.015803   7.243745
    30  H    2.471894   2.537845   3.782681   4.277485   3.658463
    31  H    3.857396   4.278938   2.383117   2.494707   3.656602
                   26         27         28         29         30
    26  H    0.000000
    27  H    2.538241   0.000000
    28  H    5.679718   5.395146   0.000000
    29  H    6.269205   5.236236   1.759220   0.000000
    30  H    2.531136   2.464080   3.803791   4.294312   0.000000
    31  H    2.181555   3.332644   4.013566   4.843769   2.553343
                   31
    31  H    0.000000
 Stoichiometry    C10H18O3
 Framework group  C1[X(C10H18O3)]
 Deg. of freedom    87
 Full point group                 C1      NOp   1
 Largest Abelian subgroup         C1      NOp   1
 Largest concise Abelian subgroup C1      NOp   1
                         Standard orientation:                         
 ---------------------------------------------------------------------
 Center     Atomic      Atomic             Coordinates (Angstroms)
 Number     Number       Type             X           Y           Z
 ---------------------------------------------------------------------
      1          6           0       -3.490586   -0.439631    0.399604
      2          6           0       -1.025045    0.511955   -0.807902
      3          6           0        1.798111    1.364605    0.137888
      4          6           0       -2.604981    0.533048    1.177250
      5          6           0        3.538275   -0.390690   -0.265598
      6          8           0        2.627769   -1.373040    0.193769
      7          6           0       -2.650431   -1.238152   -0.581487
      8          6           0        0.899707    0.262576    0.703420
      9          6           0        2.802233    0.796192   -0.867192
     10          6           0        1.750682   -0.897794    1.191663
     11          8           0       -1.898091   -0.384744   -1.435759
     12          8           0        0.016257   -0.268128   -0.270592
     13          6           0       -1.783079    1.372927    0.198644
     14          1           0       -4.252132    0.112120   -0.146464
     15          1           0       -4.001335   -1.125836    1.069159
     16          1           0        2.333325    1.812074    0.972100
     17          1           0       -3.209090    1.184298    1.801443
     18          1           0       -1.947961   -0.022859    1.840946
     19          1           0       -1.977552   -1.906230   -0.056171
     20          1           0       -3.267666   -1.831353   -1.241739
     21          1           0        2.292048    0.479478   -1.772205
     22          1           0        3.523175    1.557014   -1.152168
     23          1           0        2.324293   -0.575235    2.057200
     24          1           0        1.125775   -1.731059    1.481096
     25          1           0       -2.451499    1.997839   -0.387525
     26          1           0       -1.107336    2.043127    0.715326
     27          1           0       -0.629704    1.127668   -1.603396
     28          1           0        4.162133   -0.071057    0.566616
     29          1           0        4.168898   -0.878147   -0.996527
     30          1           0        1.202986    2.151245   -0.312959
     31          1           0        0.334844    0.633997    1.548183
 ---------------------------------------------------------------------
 Rotational constants (GHZ):           1.7604858           0.4491681           0.4362966
 Standard basis: 6-311++G(2d,2p) (5D, 7F)
 There are   557 symmetry adapted cartesian basis functions of A   symmetry.
 There are   531 symmetry adapted basis functions of A   symmetry.
   531 basis functions,   762 primitive gaussians,   557 cartesian basis functions
    51 alpha electrons       51 beta electrons
       nuclear repulsion energy       906.8852556940 Hartrees.
 NAtoms=   31 NActive=   31 NUniq=   31 SFac= 1.00D+00 NAtFMM=   60 NAOKFM=F Big=F
 Integral buffers will be    131072 words long.
 Raffenetti 2 integral format.
 Two-electron integral symmetry is turned on.
 ------------------------------------------------------------------------------
 Polarizable Continuum Model (PCM)
 =================================
 Model                : PCM.
 Atomic radii         : UFF (Universal Force Field).
 Polarization charges : Total charges.
 Charge compensation  : None.
 Solution method      : On-the-fly selection.
 Cavity type          : Scaled VdW (van der Waals Surface) (Alpha=1.100).
 Cavity algorithm     : GePol (No added spheres)
                        Default sphere list used, NSphG=   31.
                        Lebedev-Laikov grids with approx.  5.0 points / Ang**2.
                        Smoothing algorithm: York/Karplus (Gamma=1.0000).
                        Polarization charges: spherical gaussians, with
                                              point-specific exponents (IZeta= 3).
                        Self-potential: point-specific (ISelfS= 7).
                        Self-field    : sphere-specific E.n sum rule (ISelfD= 2).
 1st derivatives      : Analytical E(r).r(x)/FMM algorithm (CHGder, D1EAlg=3).
                        Cavity 1st derivative terms included.
 Solvent              : Water, Eps=  78.355300 Eps(inf)=   1.777849
 ------------------------------------------------------------------------------
 One-electron integrals computed using PRISM.
 NBasis=   531 RedAO= T EigKep=  3.70D-06  NBF=   531
 NBsUse=   531 1.00D-06 EigRej= -1.00D+00 NBFU=   531
 ExpMin= 3.60D-02 ExpMax= 8.59D+03 ExpMxC= 1.30D+03 IAcc=3 IRadAn=         5 AccDes= 0.00D+00
 Harris functional with IExCor= 1009 and IRadAn=       5 diagonalized for initial guess.
 HarFok:  IExCor= 1009 AccDes= 0.00D+00 IRadAn=         5 IDoV= 1 UseB2=F ITyADJ=14
 ICtDFT=  3500011 ScaDFX=  1.000000  1.000000  1.000000  1.000000
 FoFCou: FMM=F IPFlag=           0 FMFlag=      100000 FMFlg1=           0
         NFxFlg=           0 DoJE=T BraDBF=F KetDBF=T FulRan=T
         wScrn=  0.000000 ICntrl=       500 IOpCl=  0 I1Cent=   200000004 NGrid=           0
         NMat0=    1 NMatS0=      1 NMatT0=    0 NMatD0=    1 NMtDS0=    0 NMtDT0=    0
 Petite list used in FoFCou.
 Requested convergence on RMS density matrix=1.00D-08 within 128 cycles.
 Requested convergence on MAX density matrix=1.00D-06.
 Requested convergence on             energy=1.00D-06.
 No special actions if energy rises.
 Inv3:  Mode=1 IEnd=    12277587.
 Iteration    1 A*A^-1 deviation from unit magnitude is 8.22D-15 for   2002.
 Iteration    1 A*A^-1 deviation from orthogonality  is 3.00D-15 for   2023    957.
 Iteration    1 A^-1*A deviation from unit magnitude is 7.99D-15 for   2002.
 Iteration    1 A^-1*A deviation from orthogonality  is 2.28D-15 for   1984    813.
 Error on total polarization charges =  0.01476
 SCF Done:  E(RM062X) =  -617.497300633     A.U. after   12 cycles
            NFock= 12  Conv=0.55D-08     -V/T= 2.0035

 **********************************************************************

            Population analysis using the SCF density.

 **********************************************************************

 Orbital symmetries:
       Occupied  (A) (A) (A) (A) (A) (A) (A) (A) (A) (A) (A) (A)
                 (A) (A) (A) (A) (A) (A) (A) (A) (A) (A) (A) (A)
                 (A) (A) (A) (A) (A) (A) (A) (A) (A) (A) (A) (A)
                 (A) (A) (A) (A) (A) (A) (A) (A) (A) (A) (A) (A)
                 (A) (A) (A)
       Virtual   (A) (A) (A) (A) (A) (A) (A) (A) (A) (A) (A) (A)
                 (A) (A) (A) (A) (A) (A) (A) (A) (A) (A) (A) (A)
                 (A) (A) (A) (A) (A) (A) (A) (A) (A) (A) (A) (A)
                 (A) (A) (A) (A) (A) (A) (A) (A) (A) (A) (A) (A)
                 (A) (A) (A) (A) (A) (A) (A) (A) (A) (A) (A) (A)
                 (A) (A) (A) (A) (A) (A) (A) (A) (A) (A) (A) (A)
                 (A) (A) (A) (A) (A) (A) (A) (A) (A) (A) (A) (A)
                 (A) (A) (A) (A) (A) (A) (A) (A) (A) (A) (A) (A)
                 (A) (A) (A) (A) (A) (A) (A) (A) (A) (A) (A) (A)
                 (A) (A) (A) (A) (A) (A) (A) (A) (A) (A) (A) (A)
                 (A) (A) (A) (A) (A) (A) (A) (A) (A) (A) (A) (A)
                 (A) (A) (A) (A) (A) (A) (A) (A) (A) (A) (A) (A)
                 (A) (A) (A) (A) (A) (A) (A) (A) (A) (A) (A) (A)
                 (A) (A) (A) (A) (A) (A) (A) (A) (A) (A) (A) (A)
                 (A) (A) (A) (A) (A) (A) (A) (A) (A) (A) (A) (A)
                 (A) (A) (A) (A) (A) (A) (A) (A) (A) (A) (A) (A)
                 (A) (A) (A) (A) (A) (A) (A) (A) (A) (A) (A) (A)
                 (A) (A) (A) (A) (A) (A) (A) (A) (A) (A) (A) (A)
                 (A) (A) (A) (A) (A) (A) (A) (A) (A) (A) (A) (A)
                 (A) (A) (A) (A) (A) (A) (A) (A) (A) (A) (A) (A)
                 (A) (A) (A) (A) (A) (A) (A) (A) (A) (A) (A) (A)
                 (A) (A) (A) (A) (A) (A) (A) (A) (A) (A) (A) (A)
                 (A) (A) (A) (A) (A) (A) (A) (A) (A) (A) (A) (A)
                 (A) (A) (A) (A) (A) (A) (A) (A) (A) (A) (A) (A)
                 (A) (A) (A) (A) (A) (A) (A) (A) (A) (A) (A) (A)
                 (A) (A) (A) (A) (A) (A) (A) (A) (A) (A) (A) (A)
                 (A) (A) (A) (A) (A) (A) (A) (A) (A) (A) (A) (A)
                 (A) (A) (A) (A) (A) (A) (A) (A) (A) (A) (A) (A)
                 (A) (A) (A) (A) (A) (A) (A) (A) (A) (A) (A) (A)
                 (A) (A) (A) (A) (A) (A) (A) (A) (A) (A) (A) (A)
                 (A) (A) (A) (A) (A) (A) (A) (A) (A) (A) (A) (A)
                 (A) (A) (A) (A) (A) (A) (A) (A) (A) (A) (A) (A)
                 (A) (A) (A) (A) (A) (A) (A) (A) (A) (A) (A) (A)
                 (A) (A) (A) (A) (A) (A) (A) (A) (A) (A) (A) (A)
                 (A) (A) (A) (A) (A) (A) (A) (A) (A) (A) (A) (A)
                 (A) (A) (A) (A) (A) (A) (A) (A) (A) (A) (A) (A)
                 (A) (A) (A) (A) (A) (A) (A) (A) (A) (A) (A) (A)
                 (A) (A) (A) (A) (A) (A) (A) (A) (A) (A) (A) (A)
                 (A) (A) (A) (A) (A) (A) (A) (A) (A) (A) (A) (A)
                 (A) (A) (A) (A) (A) (A) (A) (A) (A) (A) (A) (A)
 The electronic state is 1-A.
 Alpha  occ. eigenvalues --  -19.62869 -19.62665 -19.62632 -10.63596 -10.58908
 Alpha  occ. eigenvalues --  -10.57977 -10.57748 -10.57600 -10.53300 -10.53192
 Alpha  occ. eigenvalues --  -10.53128 -10.52917 -10.52810  -1.20072  -1.16626
 Alpha  occ. eigenvalues --   -1.13253  -0.90277  -0.90146  -0.87679  -0.85076
 Alpha  occ. eigenvalues --   -0.75225  -0.74259  -0.73227  -0.71463  -0.66708
 Alpha  occ. eigenvalues --   -0.61829  -0.60006  -0.58878  -0.57470  -0.56302
 Alpha  occ. eigenvalues --   -0.54820  -0.53152  -0.52363  -0.51634  -0.49904
 Alpha  occ. eigenvalues --   -0.48299  -0.46874  -0.46276  -0.45997  -0.45286
 Alpha  occ. eigenvalues --   -0.44298  -0.42758  -0.40848  -0.40248  -0.39194
 Alpha  occ. eigenvalues --   -0.38776  -0.37308  -0.36607  -0.34900  -0.32622
 Alpha  occ. eigenvalues --   -0.31854
 Alpha virt. eigenvalues --   -0.00187   0.00830   0.00886   0.01113   0.02284
 Alpha virt. eigenvalues --    0.02526   0.02660   0.03426   0.03521   0.04643
 Alpha virt. eigenvalues --    0.04680   0.04877   0.05393   0.05959   0.07278
 Alpha virt. eigenvalues --    0.07696   0.07724   0.08371   0.08950   0.09402
 Alpha virt. eigenvalues --    0.10200   0.10522   0.10790   0.11594   0.11959
 Alpha virt. eigenvalues --    0.12295   0.12496   0.13079   0.13183   0.13509
 Alpha virt. eigenvalues --    0.13901   0.14068   0.14262   0.14446   0.14759
 Alpha virt. eigenvalues --    0.15009   0.15272   0.15309   0.16085   0.16262
 Alpha virt. eigenvalues --    0.16372   0.17039   0.17344   0.17712   0.17939
 Alpha virt. eigenvalues --    0.18177   0.18435   0.19290   0.19681   0.19874
 Alpha virt. eigenvalues --    0.20168   0.20458   0.20658   0.21010   0.21373
 Alpha virt. eigenvalues --    0.22090   0.22398   0.22828   0.23396   0.24458
 Alpha virt. eigenvalues --    0.25140   0.25828   0.26357   0.26765   0.27352
 Alpha virt. eigenvalues --    0.27617   0.28373   0.28448   0.28820   0.29200
 Alpha virt. eigenvalues --    0.30152   0.30636   0.31404   0.31649   0.32127
 Alpha virt. eigenvalues --    0.32485   0.32763   0.33450   0.34063   0.34265
 Alpha virt. eigenvalues --    0.34694   0.34922   0.35640   0.35740   0.36181
 Alpha virt. eigenvalues --    0.36600   0.37173   0.37499   0.37742   0.38371
 Alpha virt. eigenvalues --    0.38888   0.39279   0.39644   0.40012   0.40745
 Alpha virt. eigenvalues --    0.40954   0.41792   0.42611   0.44048   0.45145
 Alpha virt. eigenvalues --    0.47655   0.48220   0.49497   0.50297   0.50650
 Alpha virt. eigenvalues --    0.51744   0.52611   0.53305   0.54361   0.55015
 Alpha virt. eigenvalues --    0.57301   0.57750   0.58388   0.59104   0.59346
 Alpha virt. eigenvalues --    0.60087   0.60648   0.60726   0.61522   0.61846
 Alpha virt. eigenvalues --    0.62740   0.63353   0.63700   0.63899   0.64533
 Alpha virt. eigenvalues --    0.65384   0.65714   0.66188   0.66984   0.67209
 Alpha virt. eigenvalues --    0.67944   0.68262   0.68555   0.69633   0.69759
 Alpha virt. eigenvalues --    0.70214   0.70746   0.71033   0.72602   0.72948
 Alpha virt. eigenvalues --    0.73245   0.74016   0.75289   0.75639   0.76299
 Alpha virt. eigenvalues --    0.76385   0.77294   0.78351   0.78545   0.80053
 Alpha virt. eigenvalues --    0.80549   0.82568   0.83210   0.85214   0.85871
 Alpha virt. eigenvalues --    0.86021   0.87597   0.88294   0.89536   0.90544
 Alpha virt. eigenvalues --    0.91925   0.92752   0.94100   0.95151   0.97200
 Alpha virt. eigenvalues --    0.98372   0.98825   0.99410   1.00602   1.01819
 Alpha virt. eigenvalues --    1.02299   1.04112   1.04769   1.06203   1.07016
 Alpha virt. eigenvalues --    1.07585   1.08009   1.08558   1.10671   1.11590
 Alpha virt. eigenvalues --    1.13243   1.14385   1.15799   1.16103   1.17226
 Alpha virt. eigenvalues --    1.17433   1.18632   1.19747   1.20046   1.20830
 Alpha virt. eigenvalues --    1.22423   1.22488   1.23523   1.24145   1.25087
 Alpha virt. eigenvalues --    1.25159   1.25726   1.26574   1.27532   1.27684
 Alpha virt. eigenvalues --    1.28683   1.29919   1.30981   1.31135   1.31880
 Alpha virt. eigenvalues --    1.32030   1.32994   1.33454   1.34471   1.35613
 Alpha virt. eigenvalues --    1.36007   1.36509   1.38013   1.38278   1.39042
 Alpha virt. eigenvalues --    1.39432   1.40247   1.40540   1.41421   1.42042
 Alpha virt. eigenvalues --    1.42500   1.43981   1.44295   1.44923   1.45194
 Alpha virt. eigenvalues --    1.46114   1.46297   1.46744   1.48407   1.49240
 Alpha virt. eigenvalues --    1.49410   1.50224   1.50596   1.51265   1.51951
 Alpha virt. eigenvalues --    1.52537   1.53741   1.54251   1.54866   1.55524
 Alpha virt. eigenvalues --    1.56651   1.57005   1.57643   1.58375   1.58716
 Alpha virt. eigenvalues --    1.59762   1.60728   1.61727   1.62281   1.63124
 Alpha virt. eigenvalues --    1.63467   1.64640   1.65240   1.66357   1.67041
 Alpha virt. eigenvalues --    1.68377   1.69040   1.70150   1.71319   1.71960
 Alpha virt. eigenvalues --    1.72852   1.74485   1.75515   1.76859   1.78169
 Alpha virt. eigenvalues --    1.79612   1.80823   1.81790   1.82708   1.84205
 Alpha virt. eigenvalues --    1.86129   1.88253   1.91811   1.97984   2.03867
 Alpha virt. eigenvalues --    2.05217   2.08229   2.15774   2.19958   2.21326
 Alpha virt. eigenvalues --    2.25233   2.25817   2.28222   2.32572   2.37260
 Alpha virt. eigenvalues --    2.40844   2.42130   2.44703   2.47755   2.52800
 Alpha virt. eigenvalues --    2.57651   2.75976   2.77164   2.79642   2.80836
 Alpha virt. eigenvalues --    2.82793   2.88055   2.92227   2.93229   2.94036
 Alpha virt. eigenvalues --    2.96465   2.98642   3.01047   3.01640   3.03016
 Alpha virt. eigenvalues --    3.05750   3.07538   3.09688   3.10523   3.11279
 Alpha virt. eigenvalues --    3.13462   3.14053   3.18393   3.22323   3.23317
 Alpha virt. eigenvalues --    3.25457   3.29265   3.31226   3.32278   3.34451
 Alpha virt. eigenvalues --    3.35979   3.36352   3.38946   3.39597   3.41031
 Alpha virt. eigenvalues --    3.43215   3.43937   3.44596   3.45696   3.47517
 Alpha virt. eigenvalues --    3.48505   3.49378   3.49782   3.50427   3.52253
 Alpha virt. eigenvalues --    3.52997   3.53993   3.54279   3.55532   3.56177
 Alpha virt. eigenvalues --    3.57570   3.58156   3.58575   3.59809   3.60499
 Alpha virt. eigenvalues --    3.61681   3.62110   3.64341   3.65492   3.66079
 Alpha virt. eigenvalues --    3.66302   3.66990   3.68375   3.69293   3.69435
 Alpha virt. eigenvalues --    3.70545   3.71725   3.71947   3.73795   3.74691
 Alpha virt. eigenvalues --    3.75051   3.75964   3.76960   3.77404   3.77896
 Alpha virt. eigenvalues --    3.78689   3.79793   3.81020   3.82000   3.85788
 Alpha virt. eigenvalues --    3.86679   3.88272   3.89265   3.90645   3.92251
 Alpha virt. eigenvalues --    3.93518   3.94884   3.95517   3.97217   3.98399
 Alpha virt. eigenvalues --    4.00155   4.00866   4.01157   4.03571   4.03887
 Alpha virt. eigenvalues --    4.04471   4.06403   4.06934   4.07335   4.07528
 Alpha virt. eigenvalues --    4.08290   4.09218   4.09873   4.10236   4.11447
 Alpha virt. eigenvalues --    4.11640   4.12953   4.13808   4.14420   4.16045
 Alpha virt. eigenvalues --    4.16687   4.17230   4.19258   4.19796   4.21190
 Alpha virt. eigenvalues --    4.22586   4.23430   4.24623   4.25961   4.27632
 Alpha virt. eigenvalues --    4.28700   4.29528   4.31049   4.31579   4.32818
 Alpha virt. eigenvalues --    4.33318   4.35281   4.35947   4.37339   4.37816
 Alpha virt. eigenvalues --    4.41494   4.43002   4.45492   4.47799   4.50214
 Alpha virt. eigenvalues --    4.58129   4.59538   4.73648   4.75535   4.82609
 Alpha virt. eigenvalues --    4.85698   4.94209   4.95722   4.99618   5.04348
 Alpha virt. eigenvalues --    5.06650   5.07427   5.08336   5.09072   5.11310
 Alpha virt. eigenvalues --    5.12595   5.13921   5.14354   5.31961   5.35015
 Alpha virt. eigenvalues --    5.44922   5.58207   5.59892   5.64187   5.86549
 Alpha virt. eigenvalues --    5.88143   6.01141   7.02381   7.06534   7.07321
 Alpha virt. eigenvalues --    7.10037   7.11417   7.13057   7.13275   7.16628
 Alpha virt. eigenvalues --    7.22241   7.36971   7.40351   7.48824   7.54710
 Alpha virt. eigenvalues --    7.57542   7.62946  23.96030  23.97293  24.05541
 Alpha virt. eigenvalues --   24.08819  24.10689  24.12867  24.14147  24.15699
 Alpha virt. eigenvalues --   24.18193  24.20173  50.16746  50.18742  50.25667
          Condensed to atoms (all electrons):
               1          2          3          4          5          6
     1  C    5.903036   0.109803   0.009086   0.014695  -0.002207   0.000320
     2  C    0.109803   7.995924  -0.002382  -0.055356   0.031210  -0.005889
     3  C    0.009086  -0.002382   6.677817  -0.021800  -0.156041   0.035641
     4  C    0.014695  -0.055356  -0.021800   5.713656   0.007295   0.003032
     5  C   -0.002207   0.031210  -0.156041   0.007295   5.521547   0.113540
     6  O    0.000320  -0.005889   0.035641   0.003032   0.113540   8.303429
     7  C   -0.106977  -0.406168  -0.017399   0.009590   0.003256  -0.000153
     8  C    0.058203  -0.852873  -0.844890   0.004478   0.221743  -0.047683
     9  C   -0.002125   0.110048  -0.158977  -0.025832   0.060007  -0.002986
    10  C    0.001798   0.242633   0.059647   0.014850  -0.273349   0.136292
    11  O   -0.074839   0.125935   0.009058   0.001045  -0.001410   0.000225
    12  O   -0.020490   0.225357   0.071034  -0.013130  -0.017047   0.030412
    13  C   -0.115682  -1.649356   0.018952  -0.249908  -0.000549  -0.002147
    14  H    0.467212   0.021737   0.001393  -0.002175   0.000054  -0.000007
    15  H    0.429990   0.011140  -0.001625  -0.051143  -0.000069  -0.000047
    16  H    0.000960  -0.008631   0.500454   0.000946  -0.014003   0.001281
    17  H   -0.004870   0.004915   0.000529   0.408539  -0.000107  -0.000057
    18  H   -0.110386   0.009950  -0.017155   0.509410   0.003680   0.000526
    19  H   -0.132966  -0.009347  -0.004094   0.012309   0.000924  -0.000146
    20  H   -0.019054   0.004567  -0.000579  -0.000823  -0.000048  -0.000046
    21  H    0.001588  -0.014444   0.007594   0.001269  -0.114099  -0.011108
    22  H   -0.000082  -0.001690  -0.044537  -0.000190  -0.019569   0.010110
    23  H   -0.001840  -0.012348  -0.064628   0.002336   0.006020  -0.059741
    24  H    0.010892   0.002999   0.018551  -0.009093   0.006330  -0.074031
    25  H   -0.028246  -0.110615  -0.008593   0.003198   0.000314   0.000219
    26  H   -0.017191  -0.060521   0.001183  -0.026641   0.006468   0.000071
    27  H    0.005022   0.565212  -0.057550  -0.033995   0.004994  -0.002452
    28  H    0.000176  -0.008047  -0.041342  -0.000027   0.439825  -0.065647
    29  H   -0.000260   0.004333   0.006356   0.000028   0.443802  -0.065371
    30  H   -0.001705  -0.012001   0.411246  -0.006006  -0.020804  -0.001715
    31  H    0.009328  -0.069316   0.047098   0.024728  -0.040660   0.008592
               7          8          9         10         11         12
     1  C   -0.106977   0.058203  -0.002125   0.001798  -0.074839  -0.020490
     2  C   -0.406168  -0.852873   0.110048   0.242633   0.125935   0.225357
     3  C   -0.017399  -0.844890  -0.158977   0.059647   0.009058   0.071034
     4  C    0.009590   0.004478  -0.025832   0.014850   0.001045  -0.013130
     5  C    0.003256   0.221743   0.060007  -0.273349  -0.001410  -0.017047
     6  O   -0.000153  -0.047683  -0.002986   0.136292   0.000225   0.030412
     7  C    5.495986   0.060919  -0.002259  -0.023281   0.162977  -0.002967
     8  C    0.060919   7.711262  -0.417263  -0.685093  -0.048184  -0.010656
     9  C   -0.002259  -0.417263   5.745776   0.191436   0.005047  -0.015954
    10  C   -0.023281  -0.685093   0.191436   6.194923   0.000101  -0.106274
    11  O    0.162977  -0.048184   0.005047   0.000101   8.192595   0.022309
    12  O   -0.002967  -0.010656  -0.015954  -0.106274   0.022309   8.247803
    13  C    0.225202   0.340741  -0.000427  -0.134791   0.043978   0.029727
    14  H   -0.066755  -0.005426  -0.000261  -0.000032  -0.009611   0.000208
    15  H   -0.037131   0.001785  -0.000284   0.001001   0.010390  -0.000723
    16  H    0.000480  -0.057869  -0.047156  -0.007954  -0.000244   0.001450
    17  H    0.008565   0.000642   0.000406   0.000169   0.000414   0.000114
    18  H    0.013867  -0.013901   0.002432   0.005404  -0.000536   0.005620
    19  H    0.503386   0.014386  -0.001399  -0.014983  -0.037154  -0.014584
    20  H    0.431647  -0.001630   0.001037   0.001149  -0.070486   0.000350
    21  H    0.000204   0.003051   0.485993   0.005000   0.001118   0.005432
    22  H   -0.000141  -0.015898   0.440283   0.002741   0.000326   0.001180
    23  H    0.001628  -0.042194   0.032809   0.457990   0.000542   0.015378
    24  H   -0.005433  -0.028028   0.002176   0.426191  -0.000772  -0.002582
    25  H    0.014643   0.003085   0.002526   0.002174  -0.006214   0.003166
    26  H    0.008364  -0.008106  -0.003065   0.001152   0.004332   0.005414
    27  H   -0.021232  -0.008578   0.028858   0.019743  -0.079603  -0.070341
    28  H   -0.000017   0.048059  -0.012279  -0.028398   0.000159   0.001574
    29  H    0.000077  -0.002567  -0.058806   0.014068  -0.000202   0.000779
    30  H    0.004461  -0.010752  -0.002973  -0.007311   0.005389  -0.002011
    31  H   -0.019465   0.419301  -0.054576   0.010123   0.001276  -0.037037
              13         14         15         16         17         18
     1  C   -0.115682   0.467212   0.429990   0.000960  -0.004870  -0.110386
     2  C   -1.649356   0.021737   0.011140  -0.008631   0.004915   0.009950
     3  C    0.018952   0.001393  -0.001625   0.500454   0.000529  -0.017155
     4  C   -0.249908  -0.002175  -0.051143   0.000946   0.408539   0.509410
     5  C   -0.000549   0.000054  -0.000069  -0.014003  -0.000107   0.003680
     6  O   -0.002147  -0.000007  -0.000047   0.001281  -0.000057   0.000526
     7  C    0.225202  -0.066755  -0.037131   0.000480   0.008565   0.013867
     8  C    0.340741  -0.005426   0.001785  -0.057869   0.000642  -0.013901
     9  C   -0.000427  -0.000261  -0.000284  -0.047156   0.000406   0.002432
    10  C   -0.134791  -0.000032   0.001001  -0.007954   0.000169   0.005404
    11  O    0.043978  -0.009611   0.010390  -0.000244   0.000414  -0.000536
    12  O    0.029727   0.000208  -0.000723   0.001450   0.000114   0.005620
    13  C    6.989893  -0.043634   0.005065  -0.000353  -0.044089  -0.039298
    14  H   -0.043634   0.472624  -0.004055   0.000005  -0.002588   0.001953
    15  H    0.005065  -0.004055   0.483334   0.000015  -0.007869  -0.005556
    16  H   -0.000353   0.000005   0.000015   0.428170  -0.000189   0.000496
    17  H   -0.044089  -0.002588  -0.007869  -0.000189   0.466684  -0.009031
    18  H   -0.039298   0.001953  -0.005556   0.000496  -0.009031   0.500207
    19  H    0.021625   0.001306   0.005157  -0.000212  -0.000520   0.000188
    20  H    0.007232  -0.003946  -0.012123  -0.000032   0.000993  -0.002553
    21  H   -0.006591  -0.000102   0.000066   0.005188  -0.000029  -0.000482
    22  H    0.002355   0.000016  -0.000018  -0.008601   0.000004  -0.000039
    23  H    0.009857  -0.000043  -0.000095  -0.003318   0.000154   0.002513
    24  H   -0.005387   0.000084  -0.000058  -0.001866  -0.000360  -0.007604
    25  H    0.486555  -0.000663  -0.002532   0.000063  -0.005138   0.006435
    26  H    0.441242  -0.000231   0.000123  -0.002183  -0.006917   0.002215
    27  H   -0.084861   0.001414   0.001632  -0.001996   0.000816   0.000837
    28  H    0.002685  -0.000006   0.000014  -0.003181   0.000041  -0.000481
    29  H   -0.001073  -0.000000  -0.000004  -0.001880  -0.000015   0.000322
    30  H    0.023509  -0.000356  -0.000087   0.000043   0.000086  -0.001925
    31  H    0.010728   0.000085   0.001824  -0.001319  -0.000427  -0.013365
              19         20         21         22         23         24
     1  C   -0.132966  -0.019054   0.001588  -0.000082  -0.001840   0.010892
     2  C   -0.009347   0.004567  -0.014444  -0.001690  -0.012348   0.002999
     3  C   -0.004094  -0.000579   0.007594  -0.044537  -0.064628   0.018551
     4  C    0.012309  -0.000823   0.001269  -0.000190   0.002336  -0.009093
     5  C    0.000924  -0.000048  -0.114099  -0.019569   0.006020   0.006330
     6  O   -0.000146  -0.000046  -0.011108   0.010110  -0.059741  -0.074031
     7  C    0.503386   0.431647   0.000204  -0.000141   0.001628  -0.005433
     8  C    0.014386  -0.001630   0.003051  -0.015898  -0.042194  -0.028028
     9  C   -0.001399   0.001037   0.485993   0.440283   0.032809   0.002176
    10  C   -0.014983   0.001149   0.005000   0.002741   0.457990   0.426191
    11  O   -0.037154  -0.070486   0.001118   0.000326   0.000542  -0.000772
    12  O   -0.014584   0.000350   0.005432   0.001180   0.015378  -0.002582
    13  C    0.021625   0.007232  -0.006591   0.002355   0.009857  -0.005387
    14  H    0.001306  -0.003946  -0.000102   0.000016  -0.000043   0.000084
    15  H    0.005157  -0.012123   0.000066  -0.000018  -0.000095  -0.000058
    16  H   -0.000212  -0.000032   0.005188  -0.008601  -0.003318  -0.001866
    17  H   -0.000520   0.000993  -0.000029   0.000004   0.000154  -0.000360
    18  H    0.000188  -0.002553  -0.000482  -0.000039   0.002513  -0.007604
    19  H    0.510630  -0.016214  -0.000329  -0.000024   0.000652  -0.007478
    20  H   -0.016214   0.468947  -0.000112   0.000010  -0.000033   0.000647
    21  H   -0.000329  -0.000112   0.492637  -0.014329  -0.001300  -0.001331
    22  H   -0.000024   0.000010  -0.014329   0.479101   0.000181   0.001606
    23  H    0.000652  -0.000033  -0.001300   0.000181   0.471651  -0.009879
    24  H   -0.007478   0.000647  -0.001331   0.001606  -0.009879   0.493213
    25  H   -0.000004  -0.000410  -0.000076   0.000011   0.000417  -0.000579
    26  H   -0.000265   0.000662  -0.002925   0.000644   0.000437  -0.000555
    27  H    0.000511   0.001195  -0.012842   0.000977  -0.001020   0.001605
    28  H   -0.000020  -0.000002   0.003563   0.003443   0.006117  -0.002017
    29  H    0.000209   0.000009  -0.005379  -0.009307  -0.000477   0.000962
    30  H    0.000087   0.000322   0.005708  -0.010096  -0.000168  -0.000328
    31  H    0.004515  -0.001082   0.005881  -0.000500  -0.011427  -0.009689
              25         26         27         28         29         30
     1  C   -0.028246  -0.017191   0.005022   0.000176  -0.000260  -0.001705
     2  C   -0.110615  -0.060521   0.565212  -0.008047   0.004333  -0.012001
     3  C   -0.008593   0.001183  -0.057550  -0.041342   0.006356   0.411246
     4  C    0.003198  -0.026641  -0.033995  -0.000027   0.000028  -0.006006
     5  C    0.000314   0.006468   0.004994   0.439825   0.443802  -0.020804
     6  O    0.000219   0.000071  -0.002452  -0.065647  -0.065371  -0.001715
     7  C    0.014643   0.008364  -0.021232  -0.000017   0.000077   0.004461
     8  C    0.003085  -0.008106  -0.008578   0.048059  -0.002567  -0.010752
     9  C    0.002526  -0.003065   0.028858  -0.012279  -0.058806  -0.002973
    10  C    0.002174   0.001152   0.019743  -0.028398   0.014068  -0.007311
    11  O   -0.006214   0.004332  -0.079603   0.000159  -0.000202   0.005389
    12  O    0.003166   0.005414  -0.070341   0.001574   0.000779  -0.002011
    13  C    0.486555   0.441242  -0.084861   0.002685  -0.001073   0.023509
    14  H   -0.000663  -0.000231   0.001414  -0.000006  -0.000000  -0.000356
    15  H   -0.002532   0.000123   0.001632   0.000014  -0.000004  -0.000087
    16  H    0.000063  -0.002183  -0.001996  -0.003181  -0.001880   0.000043
    17  H   -0.005138  -0.006917   0.000816   0.000041  -0.000015   0.000086
    18  H    0.006435   0.002215   0.000837  -0.000481   0.000322  -0.001925
    19  H   -0.000004  -0.000265   0.000511  -0.000020   0.000209   0.000087
    20  H   -0.000410   0.000662   0.001195  -0.000002   0.000009   0.000322
    21  H   -0.000076  -0.002925  -0.012842   0.003563  -0.005379   0.005708
    22  H    0.000011   0.000644   0.000977   0.003443  -0.009307  -0.010096
    23  H    0.000417   0.000437  -0.001020   0.006117  -0.000477  -0.000168
    24  H   -0.000579  -0.000555   0.001605  -0.002017   0.000962  -0.000328
    25  H    0.431936  -0.004361  -0.005856   0.000046   0.000021   0.000392
    26  H   -0.004361   0.497046  -0.008396  -0.000658   0.000147  -0.000382
    27  H   -0.005856  -0.008396   0.490771  -0.000853   0.001441  -0.022711
    28  H    0.000046  -0.000658  -0.000853   0.505063  -0.004238   0.002875
    29  H    0.000021   0.000147   0.001441  -0.004238   0.475518  -0.000825
    30  H    0.000392  -0.000382  -0.022711   0.002875  -0.000825   0.497732
    31  H   -0.000553  -0.028526  -0.004201   0.004751  -0.000761  -0.000509
              31
     1  C    0.009328
     2  C   -0.069316
     3  C    0.047098
     4  C    0.024728
     5  C   -0.040660
     6  O    0.008592
     7  C   -0.019465
     8  C    0.419301
     9  C   -0.054576
    10  C    0.010123
    11  O    0.001276
    12  O   -0.037037
    13  C    0.010728
    14  H    0.000085
    15  H    0.001824
    16  H   -0.001319
    17  H   -0.000427
    18  H   -0.013365
    19  H    0.004515
    20  H   -0.001082
    21  H    0.005881
    22  H   -0.000500
    23  H   -0.011427
    24  H   -0.009689
    25  H   -0.000553
    26  H   -0.028526
    27  H   -0.004201
    28  H    0.004751
    29  H   -0.000761
    30  H   -0.000509
    31  H    0.510308
 Mulliken charges:
               1
     1  C   -0.383188
     2  C   -0.186778
     3  C   -0.434046
     4  C   -0.235284
     5  C   -0.211049
     6  O   -0.304463
     7  C   -0.235875
     8  C    0.213937
     9  C   -0.302212
    10  C   -0.507122
    11  O   -0.257963
    12  O   -0.353510
    13  C   -0.281200
    14  H    0.171801
    15  H    0.171880
    16  H    0.221436
    17  H    0.189134
    18  H    0.156259
    19  H    0.163854
    20  H    0.210403
    21  H    0.161185
    22  H    0.182032
    23  H    0.199827
    24  H    0.201814
    25  H    0.218640
    26  H    0.201423
    27  H    0.291459
    28  H    0.148820
    29  H    0.203093
    30  H    0.150815
    31  H    0.234876
 Sum of Mulliken charges =  -0.00000
 Mulliken charges with hydrogens summed into heavy atoms:
               1
     1  C   -0.039506
     2  C    0.104681
     3  C   -0.061795
     4  C    0.110109
     5  C    0.140863
     6  O   -0.304463
     7  C    0.138383
     8  C    0.448813
     9  C    0.041005
    10  C   -0.105480
    11  O   -0.257963
    12  O   -0.353510
    13  C    0.138863
 Electronic spatial extent (au):  <R**2>=           2822.0778
 Charge=             -0.0000 electrons
 Dipole moment (field-independent basis, Debye):
    X=             -0.2650    Y=              3.5841    Z=              3.1600  Tot=              4.7855
 Quadrupole moment (field-independent basis, Debye-Ang):
   XX=            -72.4847   YY=            -80.9806   ZZ=            -81.0223
   XY=              6.5003   XZ=             -3.0983   YZ=             -2.0508
 Traceless Quadrupole moment (field-independent basis, Debye-Ang):
   XX=              5.6778   YY=             -2.8181   ZZ=             -2.8598
   XY=              6.5003   XZ=             -3.0983   YZ=             -2.0508
 Octapole moment (field-independent basis, Debye-Ang**2):
  XXX=              5.0347  YYY=              0.9670  ZZZ=              5.7910  XYY=            -14.9550
  XXY=              8.5903  XXZ=              1.8741  XZZ=             12.2569  YZZ=             -0.6203
  YYZ=             -1.3755  XYZ=              0.5117
 Hexadecapole moment (field-independent basis, Debye-Ang**3):
 XXXX=          -2643.4240 YYYY=           -547.9185 ZZZZ=           -455.9434 XXXY=             45.3672
 XXXZ=            -19.7971 YYYX=             19.6391 YYYZ=             -1.3366 ZZZX=             -1.2133
 ZZZY=             -3.9075 XXYY=           -560.0103 XXZZ=           -534.3160 YYZZ=           -158.3478
 XXYZ=             11.1438 YYXZ=              4.0465 ZZXY=             -5.5495
 N-N= 9.068852556940D+02 E-N=-3.255689501156D+03  KE= 6.153235496057D+02
 D1PCM: PCM CHGder 1st derivatives, ID1Alg=3 FixD1E=F DoIter=F DoCFld=F I1PDM=0.
 Calling FoFJK, ICntrl=      2127 FMM=F ISym2X=0 I1Cent= 0 IOpClX= 0 NMat=1 NMatS=1 NMatT=0.
 ***** Axes restored to original set *****
 -------------------------------------------------------------------
 Center     Atomic                   Forces (Hartrees/Bohr)
 Number     Number              X              Y              Z
 -------------------------------------------------------------------
      1        6          -0.002643504   -0.000897403   -0.000575973
      2        6           0.006459624   -0.001760637   -0.008702318
      3        6          -0.001354905   -0.004196541    0.000058253
      4        6          -0.000328726   -0.000059280    0.004090365
      5        6           0.006523490    0.002477558   -0.000377230
      6        8           0.000789414   -0.007963762    0.002748235
      7        6          -0.000584575    0.006122240   -0.003385413
      8        6          -0.001409764    0.001385483    0.006409558
      9        6          -0.000120873    0.000328322   -0.002428316
     10        6          -0.001958472    0.004127245    0.005097788
     11        8          -0.001191235    0.001895937    0.011241007
     12        8          -0.001251202   -0.010970337   -0.003074972
     13        6          -0.000294471   -0.002875290   -0.000892569
     14        1           0.001757025    0.001980919    0.001963120
     15        1           0.001392776   -0.001432485   -0.001990992
     16        1          -0.001923451    0.001589600   -0.002694031
     17        1           0.001301909    0.001501845   -0.001519566
     18        1          -0.003015710   -0.002507290   -0.001779632
     19        1          -0.003892889   -0.003051881   -0.003923132
     20        1           0.002683545   -0.002237815    0.002741787
     21        1           0.002366081   -0.001640917    0.002143573
     22        1          -0.001573571    0.002263734    0.000755368
     23        1          -0.002605058    0.002800643   -0.005105281
     24        1           0.003598057   -0.003342799   -0.000700572
     25        1           0.002175243    0.001803537    0.001924514
     26        1          -0.003305485    0.002657855   -0.002249038
     27        1          -0.002150579    0.004897482    0.006147338
     28        1          -0.003350880    0.002985234   -0.004424636
     29        1          -0.002473997   -0.001861016    0.003030465
     30        1           0.002839460    0.002704851    0.001507235
     31        1           0.003542723    0.003274967   -0.006034934
 -------------------------------------------------------------------
 Cartesian Forces:  Max     0.011241007 RMS     0.003508030

 GradGradGradGradGradGradGradGradGradGradGradGradGradGradGradGradGradGrad
 Berny optimization.
 FormGI is forming the generalized inverse of G from B-inverse, IUseBI=4.
 Internal  Forces:  Max     0.015222336 RMS     0.002257236
 Search for a local minimum.
 Step number   1 out of a maximum of  186
 All quantities printed in internal units (Hartrees-Bohrs-Radians)
 Mixed Optimization -- RFO/linear search
 Second derivative matrix not updated -- first step.
 ITU=  0
     Eigenvalues ---    0.00599   0.00618   0.00716   0.00735   0.01407
     Eigenvalues ---    0.01445   0.01453   0.02675   0.02802   0.03073
     Eigenvalues ---    0.03095   0.04011   0.04335   0.04744   0.04748
     Eigenvalues ---    0.04824   0.04886   0.05007   0.05051   0.05129
     Eigenvalues ---    0.05301   0.05640   0.05857   0.06134   0.06212
     Eigenvalues ---    0.06554   0.06563   0.06911   0.07411   0.07846
     Eigenvalues ---    0.07943   0.07950   0.07980   0.08143   0.08267
     Eigenvalues ---    0.08405   0.09134   0.09413   0.10806   0.11612
     Eigenvalues ---    0.11710   0.11727   0.11774   0.12408   0.12534
     Eigenvalues ---    0.14616   0.14625   0.16034   0.16360   0.17431
     Eigenvalues ---    0.19170   0.21542   0.21820   0.25000   0.28379
     Eigenvalues ---    0.28587   0.28791   0.28814   0.28902   0.28953
     Eigenvalues ---    0.30206   0.30358   0.35034   0.35107   0.35108
     Eigenvalues ---    0.35126   0.35182   0.35198   0.35244   0.35256
     Eigenvalues ---    0.35266   0.35317   0.35451   0.35516   0.35642
     Eigenvalues ---    0.35758   0.35818   0.35861   0.35871   0.35893
     Eigenvalues ---    0.40678   0.41519   0.42333   0.42757   0.43953
     Eigenvalues ---    0.443721000.000001000.000001000.000001000.00000
     Eigenvalues --- 1000.000001000.000001000.000001000.000001000.00000
     Eigenvalues --- 1000.000001000.000001000.000001000.000001000.00000
     Eigenvalues --- 1000.000001000.000001000.000001000.000001000.00000
     Eigenvalues --- 1000.000001000.000001000.000001000.000001000.00000
     Eigenvalues --- 1000.000001000.000001000.000001000.000001000.00000
     Eigenvalues --- 1000.000001000.000001000.000001000.000001000.00000
     Eigenvalues --- 1000.000001000.000001000.000001000.000001000.00000
     Eigenvalues --- 1000.000001000.000001000.000001000.000001000.00000
     Eigenvalues --- 1000.000001000.000001000.000001000.000001000.00000
     Eigenvalues --- 1000.000001000.000001000.000001000.000001000.00000
     Eigenvalues --- 1000.000001000.000001000.000001000.000001000.00000
     Eigenvalues --- 1000.000001000.000001000.000001000.000001000.00000
     Eigenvalues --- 1000.000001000.000001000.000001000.000001000.00000
     Eigenvalues --- 1000.000001000.000001000.000001000.000001000.00000
     Eigenvalues --- 1000.000001000.000001000.000001000.000001000.00000
     Eigenvalues --- 1000.000001000.000001000.000001000.000001000.00000
     Eigenvalues --- 1000.000001000.000001000.000001000.000001000.00000
     Eigenvalues --- 1000.000001000.000001000.000001000.000001000.00000
     Eigenvalues --- 1000.000001000.000001000.000001000.000001000.00000
 RFO step:  Lambda=-4.20127076D-03 EMin= 5.99310725D-03
 Linear search not attempted -- first point.
 Iteration  1 RMS(Cart)=  0.06772634 RMS(Int)=  0.00093213
 Iteration  2 RMS(Cart)=  0.00315952 RMS(Int)=  0.00007283
 Iteration  3 RMS(Cart)=  0.00000400 RMS(Int)=  0.00007280
 Iteration  4 RMS(Cart)=  0.00000000 RMS(Int)=  0.00007280
 Iteration  1 RMS(Cart)=  0.00001910 RMS(Int)=  0.00000417
 Iteration  2 RMS(Cart)=  0.00001022 RMS(Int)=  0.00000466
 Iteration  3 RMS(Cart)=  0.00000547 RMS(Int)=  0.00000525
 Iteration  4 RMS(Cart)=  0.00000293 RMS(Int)=  0.00000563
 Iteration  5 RMS(Cart)=  0.00000157 RMS(Int)=  0.00000585
 Iteration  6 RMS(Cart)=  0.00000084 RMS(Int)=  0.00000597
 Variable       Old X    -DE/DX   Delta X   Delta X   Delta X     New X
                                 (Linear)    (Quad)   (Total)
    R1        2.88772  -0.00069   0.00000  -0.00142  -0.00146   2.88626
    R2        2.86967   0.00031   0.00000   0.00180   0.00184   2.87151
    R3        2.05500   0.00322   0.00000   0.00907   0.00907   2.06407
    R4        2.05281   0.00279   0.00000   0.00781   0.00781   2.06062
    R5        2.64594   0.00035   0.00000   0.00021   0.00026   2.64620
    R6        2.66012   0.00333   0.00000   0.00743   0.00743   2.66754
    R7        2.88394  -0.00091   0.00000  -0.00386  -0.00390   2.88004
    R8        2.04249   0.00810   0.00000   0.02231   0.02231   2.06479
    R9        2.89160  -0.00132   0.00000  -0.00506  -0.00510   2.88650
   R10        2.89168  -0.00131   0.00000  -0.00541  -0.00543   2.88625
   R11        2.05502   0.00367   0.00000   0.01032   0.01032   2.06534
   R12        2.04949   0.00415   0.00000   0.01156   0.01156   2.06105
   R13        2.88985  -0.00168   0.00000  -0.00562  -0.00563   2.88423
   R14        2.05163   0.00250   0.00000   0.00700   0.00700   2.05863
   R15        2.05381   0.00419   0.00000   0.01177   0.01177   2.06558
   R16        2.67585   0.00317   0.00000   0.00772   0.00776   2.68361
   R17        2.87360   0.00053   0.00000   0.00149   0.00147   2.87508
   R18        2.05620   0.00618   0.00000   0.01743   0.01743   2.07363
   R19        2.04366   0.00433   0.00000   0.01195   0.01195   2.05562
   R20        2.66641   0.00210   0.00000   0.00543   0.00545   2.67187
   R21        2.68853   0.00282   0.00000   0.00661   0.00661   2.69514
   R22        2.04846   0.00620   0.00000   0.01725   0.01725   2.06571
   R23        2.04300   0.00443   0.00000   0.01222   0.01222   2.05522
   R24        2.87151  -0.00015   0.00000  -0.00015  -0.00013   2.87139
   R25        2.67970   0.00004   0.00000   0.00009   0.00009   2.67979
   R26        2.04462   0.00769   0.00000   0.02124   0.02124   2.06586
   R27        2.05246   0.00338   0.00000   0.00947   0.00947   2.06193
   R28        2.05261   0.00283   0.00000   0.00792   0.00792   2.06053
   R29        2.05471   0.00627   0.00000   0.01764   0.01764   2.07234
   R30        2.04284   0.00484   0.00000   0.01335   0.01335   2.05619
   R31        2.05355   0.00341   0.00000   0.00959   0.00959   2.06313
   R32        2.04646   0.00478   0.00000   0.01326   0.01326   2.05972
    A1        1.92075  -0.00133   0.00000  -0.00378  -0.00408   1.91666
    A2        1.91605   0.00099   0.00000   0.00022   0.00032   1.91637
    A3        1.94004  -0.00056   0.00000  -0.00277  -0.00270   1.93733
    A4        1.90691   0.00031   0.00000  -0.00027  -0.00014   1.90677
    A5        1.90304   0.00067   0.00000   0.00352   0.00356   1.90660
    A6        1.87627  -0.00005   0.00000   0.00331   0.00326   1.87953
    A7        1.85199   0.00117   0.00000   0.00426   0.00457   1.85657
    A8        1.92553   0.00499   0.00000   0.02012   0.01995   1.94547
    A9        1.83678  -0.00278   0.00000  -0.00520  -0.00528   1.83151
   A10        2.01343  -0.00582   0.00000  -0.03122  -0.03112   1.98231
   A11        1.90291   0.00296   0.00000   0.01626   0.01611   1.91903
   A12        1.92381  -0.00024   0.00000  -0.00176  -0.00175   1.92206
   A13        1.93960   0.00012   0.00000  -0.01127  -0.01139   1.92821
   A14        1.87737   0.00013   0.00000   0.00875   0.00877   1.88614
   A15        1.93247  -0.00049   0.00000  -0.00704  -0.00701   1.92546
   A16        1.91107  -0.00006   0.00000   0.00617   0.00624   1.91732
   A17        1.93527   0.00022   0.00000   0.00149   0.00139   1.93667
   A18        1.86555   0.00007   0.00000   0.00290   0.00289   1.86844
   A19        1.91284   0.00150   0.00000  -0.00444  -0.00445   1.90839
   A20        1.93042   0.00012   0.00000   0.00367   0.00379   1.93421
   A21        1.91297  -0.00102   0.00000  -0.00235  -0.00250   1.91047
   A22        1.91509  -0.00051   0.00000   0.00237   0.00232   1.91741
   A23        1.92495  -0.00061   0.00000  -0.00371  -0.00368   1.92127
   A24        1.86723   0.00048   0.00000   0.00465   0.00466   1.87189
   A25        1.93755   0.00140   0.00000   0.00820   0.00812   1.94567
   A26        1.90111   0.00108   0.00000   0.00860   0.00867   1.90978
   A27        1.85617  -0.00119   0.00000  -0.00451  -0.00449   1.85168
   A28        1.92925  -0.00143   0.00000  -0.00921  -0.00923   1.92002
   A29        1.94622  -0.00035   0.00000  -0.00380  -0.00380   1.94243
   A30        1.89126   0.00053   0.00000   0.00114   0.00110   1.89236
   A31        1.97737  -0.00361   0.00000  -0.02264  -0.02258   1.95479
   A32        1.94451   0.00286   0.00000   0.00858   0.00861   1.95312
   A33        1.93309  -0.00206   0.00000  -0.00888  -0.00897   1.92412
   A34        1.94681  -0.00013   0.00000  -0.00201  -0.00195   1.94487
   A35        1.90967   0.00009   0.00000   0.00053   0.00057   1.91024
   A36        1.83831  -0.00161   0.00000  -0.00251  -0.00254   1.83577
   A37        1.88829   0.00087   0.00000   0.00465   0.00464   1.89293
   A38        1.91762   0.00073   0.00000   0.00143   0.00133   1.91896
   A39        1.96217  -0.00074   0.00000  -0.00995  -0.00993   1.95224
   A40        1.92607  -0.00103   0.00000  -0.00730  -0.00727   1.91881
   A41        1.85856   0.00010   0.00000   0.00102   0.00106   1.85962
   A42        1.87931   0.00020   0.00000   0.00656   0.00656   1.88587
   A43        1.91719   0.00083   0.00000   0.00928   0.00921   1.92640
   A44        1.92591  -0.00045   0.00000  -0.00812  -0.00819   1.91772
   A45        1.92558   0.00044   0.00000  -0.00226  -0.00225   1.92333
   A46        1.92589  -0.00066   0.00000  -0.00046  -0.00044   1.92545
   A47        1.90648  -0.00029   0.00000  -0.00101  -0.00108   1.90541
   A48        1.90629   0.00075   0.00000   0.00599   0.00604   1.91233
   A49        1.87278   0.00024   0.00000   0.00635   0.00634   1.87912
   A50        1.95851   0.00088   0.00000   0.00363   0.00366   1.96218
   A51        1.91237   0.00124   0.00000   0.01074   0.01073   1.92310
   A52        1.86404  -0.00061   0.00000  -0.00223  -0.00224   1.86180
   A53        1.90147  -0.00146   0.00000  -0.00648  -0.00654   1.89493
   A54        1.92934  -0.00074   0.00000  -0.00987  -0.00989   1.91945
   A55        1.89705   0.00076   0.00000   0.00461   0.00457   1.90162
   A56        2.03156  -0.00652   0.00000  -0.04204  -0.04186   1.98970
   A57        2.11255  -0.01522   0.00000  -0.05988  -0.05988   2.05267
   A58        1.95971  -0.00232   0.00000  -0.01984  -0.01996   1.93974
   A59        1.84854   0.00033   0.00000   0.00881   0.00879   1.85733
   A60        1.93251   0.00092   0.00000  -0.00268  -0.00269   1.92982
   A61        1.90755   0.00154   0.00000   0.01130   0.01145   1.91900
   A62        1.94974  -0.00010   0.00000  -0.00130  -0.00153   1.94821
   A63        1.86010  -0.00021   0.00000   0.00601   0.00598   1.86608
    D1        0.91879   0.00007   0.00000   0.01005   0.01012   0.92892
    D2        3.03250   0.00049   0.00000   0.01245   0.01254   3.04504
    D3       -1.19603   0.00052   0.00000   0.01892   0.01900  -1.17703
    D4       -1.18067  -0.00010   0.00000   0.01263   0.01266  -1.16801
    D5        0.93303   0.00031   0.00000   0.01504   0.01508   0.94811
    D6        2.98769   0.00035   0.00000   0.02150   0.02154   3.00922
    D7        3.02890  -0.00033   0.00000   0.01012   0.01010   3.03901
[...]
 9884,0.00083118,0.00397718,0.00492458,-0.00173178,-0.08972130,-0.08053
 397,-0.12045482,0.00041542,-0.00019591,0.00048240,0.00019829,0.0003056
 2,-0.00000721,0.00003515,-0.00004226,-0.00001688,-0.00034203,0.0006776
 4,0.00054976,0.00291538,-0.00258743,-0.00209071,0.00002467,-0.00000431
 ,-0.00007261,-0.00005697,-0.00004624,0.00006638,0.00000372,-0.00000558
 ,0.00002345,-0.00000021,-0.00000645,0.00001411,0.00005866,0.00003727,0
 .00002193,-0.00000586,-0.00002639,-0.00001933,0.09282261,0.08784978,0.
 13299755,-0.00082198,0.00177469,0.00372070,0.01225202,-0.00853168,0.00
 516855,-0.00084727,-0.00031805,0.00012975,-0.01081110,0.00880634,-0.00
 853348,0.00000341,-0.00011490,-0.00010811,-0.00009295,-0.00002593,0.00
 006284,-0.00071928,0.00010364,0.00079569,-0.00174548,-0.00192558,-0.00
 117742,0.00001907,-0.00001326,0.00007691,-0.00021319,0.00008435,0.0001
 6497,0.00044314,-0.00418260,0.00370016,0.00068187,0.00168900,-0.000844
 40,-0.15869159,0.10557231,-0.08081193,0.00026281,-0.00029938,0.0001839
 6,-0.00047032,0.00107593,-0.00068378,-0.00001692,0.00002174,-0.0000832
 0,0.00017114,-0.00053590,-0.00025955,0.00060942,-0.00024371,0.00007070
 ,0.00007132,-0.00001932,-0.00008310,0.00010853,-0.00002286,-0.00018987
 ,0.00000183,0.00002217,-0.00002520,0.00003927,0.00000199,-0.00002521,0
 .00001310,0.00001147,0.00001034,0.00003002,0.00004406,0.00001380,-0.01
 296921,0.01224996,-0.00928127,0.17536871,0.00107880,-0.00070328,-0.003
 54014,0.01454395,-0.01087146,0.00609871,-0.00008478,0.00016493,-0.0003
 4593,0.01034799,-0.01054565,0.00824488,-0.00006328,0.00008650,-0.00009
 338,0.00040140,0.00025180,-0.00009859,-0.00043551,0.00122877,0.0002856
 4,-0.00056042,-0.00112081,0.00086914,0.00016439,-0.00003436,0.00024810
 ,-0.00027311,-0.00021688,-0.00047966,-0.00106238,-0.00295502,0.0040386
 7,-0.00046782,0.00108567,-0.00094498,0.10305546,-0.14708538,0.07790631
 ,0.00019518,0.00002966,0.00018070,0.00061331,-0.00047075,0.00066084,0.
 00011226,-0.00000035,0.00008921,-0.00032950,0.00072938,-0.00009781,-0.
 00045143,0.00025830,0.00032231,-0.00001090,-0.00009925,-0.00008519,0.0
 0004245,-0.00002867,-0.00000401,-0.00001259,0.00002123,-0.00002577,0.0
 0007085,0.00000368,-0.00006383,0.00001916,-0.00001638,0.00002184,0.000
 02050,0.00008011,0.00002476,-0.01145527,0.01236005,-0.00873245,-0.1142
 8745,0.15826331,0.00210103,-0.00264334,-0.00346097,-0.01709937,0.00823
 651,-0.00768579,0.00032752,0.00022139,0.00028323,0.01532243,-0.0143001
 6,0.01279812,-0.00003849,-0.00002640,0.00010588,-0.00013767,-0.0000862
 2,0.00001771,0.00112412,-0.00103780,-0.00134282,-0.00093272,-0.0004154
 5,-0.00014193,-0.00009372,-0.00014435,-0.00023832,0.00012061,-0.000058
 64,0.00023837,0.00097117,0.00618061,-0.00397211,0.00025806,-0.00027457
 ,0.00035050,-0.07936107,0.07947584,-0.10806833,0.00008753,0.00006368,0
 .00003454,0.00087750,-0.00102259,0.00067475,-0.00010393,-0.00004706,-0
 .00009796,-0.00058040,0.00087163,0.00093041,-0.00091297,0.00045939,0.0
 0076873,-0.00010223,0.00013556,0.00019699,-0.00018709,0.00011241,0.000
 20061,-0.00000063,-0.00000505,0.00001552,-0.00000716,0.00001146,0.0000
 1210,0.00001940,0.00002949,0.00000469,-0.00001823,-0.00004718,-0.00001
 914,-0.00970918,0.01003912,-0.00831727,0.08835909,-0.08349761,0.116847
 39,0.00027815,0.00013550,-0.00006427,-0.09167202,0.05533385,0.07938579
 ,-0.00022724,0.00100598,-0.00011044,-0.00007348,-0.00272899,0.00124457
 ,0.00015195,-0.00028186,0.00002693,-0.00018180,0.00002266,0.00009643,0
 .00025582,0.00083641,-0.00404203,0.00233972,-0.00219203,0.00133664,0.0
 0005453,0.00026019,-0.00019987,-0.00018603,0.00040496,-0.00031688,-0.0
 1790984,0.02249620,0.01368610,0.00317047,-0.02290555,-0.02596745,-0.00
 434066,0.00688444,0.01242265,-0.00007987,-0.00007150,-0.00005199,-0.00
 007898,-0.00007281,0.00007993,0.00007194,-0.00009698,0.00009187,-0.000
 49200,0.00047706,0.00055691,-0.00000527,0.00009910,0.00014253,-0.00020
 547,0.00039163,0.00031780,-0.00060389,0.00076717,0.00062160,-0.0000193
 0,-0.00022849,0.00025380,0.00000153,-0.00000218,0.00006050,-0.00023761
 ,-0.00002211,-0.00004382,0.00004601,0.00011977,0.00006705,0.00018051,0
 .00040595,-0.00023766,0.00009955,-0.00046066,0.00020291,0.11086415,0.0
 0033833,-0.00058611,-0.00008543,0.05387737,-0.11832596,-0.09186591,-0.
 00013753,-0.00011408,-0.00016018,-0.00142766,-0.00290846,0.00246895,0.
 00017153,-0.00012739,-0.00002416,-0.00025370,-0.00004418,0.00015396,0.
 00084889,0.00029393,0.00426411,0.00236319,-0.00242685,0.00108042,-0.00
 013416,0.00005051,-0.00007256,-0.00012608,0.00051159,-0.00060366,0.021
 59667,-0.02042730,-0.01406244,-0.00729209,-0.01509275,-0.02215851,-0.0
 0933323,0.01234856,0.01430745,-0.00001807,0.00007020,-0.00006842,0.000
 02578,0.00022002,-0.00024813,-0.00016017,0.00026977,0.00007969,-0.0007
 8304,0.00065983,0.00087346,0.00005374,0.00007812,0.00012421,-0.0000978
 3,-0.00005838,-0.00014454,0.00067790,-0.00070325,-0.00072997,-0.000229
 13,-0.00009872,0.00001341,-0.00001095,-0.00001482,0.00006080,-0.000302
 80,-0.00014409,-0.00005981,0.00001646,0.00010510,0.00005787,0.00042535
 ,0.00082405,-0.00074655,0.00087799,0.00027293,-0.00066995,-0.06127835,
 0.14505777,-0.00044248,0.00043160,-0.00003324,0.08692848,-0.10030439,-
 0.19361907,-0.00037529,-0.00027264,-0.00027878,0.00144035,0.00433688,-
 0.00127762,0.00020502,-0.00011912,-0.00011329,-0.00026669,-0.00006819,
 0.00008552,-0.00163084,0.00230694,-0.00066141,0.00199200,-0.00211105,0
 .00178663,-0.00015975,0.00006281,0.00015794,-0.00018436,0.00045003,-0.
 00022010,-0.01121839,0.01307597,0.01393511,-0.00766747,-0.01529148,-0.
 01171181,0.01116779,-0.01177216,-0.01459646,0.00005032,-0.00006348,0.0
 0006090,-0.00001042,-0.00024146,0.00014072,0.00013751,0.00034214,0.000
 19171,0.00085640,-0.00093488,-0.00093776,-0.00025361,-0.00002391,0.000
 13022,-0.00013540,0.00027256,0.00012192,-0.00038986,0.00041978,0.00039
 256,-0.00024615,-0.00002288,-0.00003015,0.00002271,-0.00001965,0.00004
 159,-0.00023287,-0.00008360,-0.00006497,0.00006152,0.00013080,0.000069
 83,0.00008193,0.00031023,0.00086291,-0.00060652,-0.00005994,0.00025767
 ,-0.07867081,0.10817215,0.20567110,-0.00000006,-0.00000192,0.00000311,
 0.00017483,0.00005256,0.00013311,0.00046037,0.00121947,-0.00044564,0.0
 0000418,-0.00000366,0.00000075,-0.11996632,0.03494884,-0.09833429,-0.0
 2069187,0.02045298,-0.00869673,0.00001797,-0.00001114,-0.00001622,-0.0
 0042820,-0.00005804,0.00030315,-0.00882133,0.00370787,-0.01561050,0.00
 162727,0.00147641,-0.00431142,-0.00005749,0.00003008,-0.00001587,-0.00
 008714,-0.00015665,0.00008989,-0.00002568,-0.00001479,-0.00001895,-0.0
 0000226,-0.00000049,-0.00000160,-0.00000317,0.00000197,0.00000151,-0.0
 0014567,-0.00027809,0.00039682,-0.00000741,-0.00000056,0.00000344,0.00
 000453,-0.00000498,-0.00000867,-0.00000092,-0.00000369,0.00000160,-0.0
 0000533,0.00000292,-0.00000003,-0.00080287,-0.00260350,-0.00139554,0.0
 0051155,-0.00018587,0.00008878,0.00007823,-0.00060807,0.00076622,0.000
 17679,-0.00013912,0.00040863,-0.00001454,-0.00000707,0.00000430,0.0000
 0492,0.00001008,-0.00000147,0.00003130,-0.00000970,-0.00001225,0.13562
 627,0.00000074,0.00000025,-0.00000330,-0.00008854,-0.00008040,-0.00016
 705,0.00075381,0.00125133,-0.00082802,-0.00000838,-0.00000454,0.000007
 03,0.03652483,-0.07098191,0.05985581,0.02762773,-0.02025416,0.01297847
 ,-0.00001913,0.00001043,0.00000461,0.00004951,-0.00008903,-0.00050663,
 -0.01537407,0.00787754,-0.02047637,-0.00327097,-0.00054088,0.00316596,
 0.00005773,-0.00000582,0.00004357,0.00017039,0.00022122,0.00026156,0.0
 0002326,0.00004766,0.00002710,0.00000210,0.00000016,0.00000162,0.00000
 255,-0.00000206,-0.00000071,0.00030678,-0.00012162,0.00039785,0.000005
 33,0.00000219,-0.00000070,-0.00000451,0.00000449,0.00000830,-0.0000001
 5,0.00000352,-0.00000233,0.00000228,-0.00000137,0.00000150,-0.00344740
 ,-0.00350639,-0.00197334,0.00096150,0.00095765,0.00068426,-0.00005954,
 0.00064265,-0.00099981,-0.00013570,0.00004537,-0.00038290,0.00001984,0
 .00000289,-0.00000164,0.00000256,-0.00002102,0.00000848,0.00006170,0.0
 0003786,0.00003350,-0.05158653,0.08755599,-0.00000001,0.00000118,0.000
 00658,0.00028827,0.00014101,0.00009821,0.00104130,0.00041683,0.0007589
 4,0.00000017,-0.00000307,-0.00000330,-0.10102053,0.06199848,-0.2044286
 7,0.00875412,-0.00424439,0.01164913,0.00002718,-0.00002099,-0.00002597
 ,0.00003408,0.00009602,-0.00016685,-0.00775488,0.00456857,-0.01238053,
 0.00124476,-0.00183104,0.00371408,-0.00010776,0.00004182,-0.00002547,-
 0.00041361,-0.00009836,-0.00009478,-0.00000731,-0.00000115,0.00000447,
 -0.00000323,-0.00000057,-0.00000258,-0.00000534,0.00000297,0.00000245,
 -0.00038916,-0.00023338,0.00062768,-0.00001033,-0.00000117,0.00000541,
 0.00000633,-0.00000714,-0.00001172,-0.00000038,-0.00000330,0.00000282,
 -0.00000775,0.00000441,-0.00000009,-0.00145410,-0.00283466,0.00007225,
 0.00017299,-0.00017399,0.00017919,-0.00167624,0.00014914,0.00020823,-0
 .00016247,-0.00002574,0.00021533,-0.00001438,-0.00000630,0.00000083,0.
 00001427,0.00001541,-0.00000481,0.00005064,-0.00001157,-0.00001480,0.1
 1263461,-0.06365412,0.21488305,-0.00000220,0.00000152,0.00001348,0.000
 33030,0.00009504,0.00019512,-0.00030864,-0.00230028,-0.00242063,-0.000
 00157,-0.00000185,-0.00001640,-0.14224856,-0.06856096,0.10181856,-0.01
 940480,-0.00367629,0.02087321,0.00003575,-0.00002848,-0.00003386,0.000
 47762,0.00007676,0.00026794,-0.00941633,-0.00867150,0.01078479,-0.0003
 8857,0.00412158,-0.00137113,-0.00014710,0.00007100,-0.00005161,-0.0003
 6913,-0.00007168,-0.00019583,-0.00001306,-0.00003086,0.00000241,-0.000
 00497,-0.00000044,-0.00000418,-0.00000832,0.00000662,0.00000166,0.0000
 1836,-0.00011284,0.00024508,-0.00001503,-0.00000222,0.00000704,0.00001
 203,-0.00001032,-0.00001637,0.00000153,-0.00000582,0.00000569,-0.00001
 097,0.00000658,-0.00000099,0.00037208,0.00079459,0.00032622,0.00037523
 ,-0.00012126,-0.00015497,0.00006647,-0.00020361,0.00039390,-0.00068119
 ,-0.00039539,0.00089821,-0.00003405,-0.00000497,-0.00000009,0.00002335
 ,0.00004489,-0.00002130,-0.00000707,-0.00002825,-0.00000698,0.01219050
 ,0.00697098,-0.01127866,0.15977578,-0.00000236,0.00000762,0.00001751,0
 .00019453,-0.00006522,0.00005173,-0.00251916,-0.00344554,-0.00395043,-
 0.00002174,0.00000229,-0.00002896,-0.07691861,-0.10471136,0.08845834,0
 .02289662,0.00945187,-0.02420632,0.00001298,-0.00001813,-0.00002675,0.
 00077382,-0.00058061,-0.00062065,-0.01392968,-0.00949664,0.01815205,0.
 00257467,-0.00372526,-0.00078787,-0.00007158,0.00006688,-0.00000057,-0
 .00025106,0.00021076,0.00000121,0.00001172,-0.00001597,0.00005526,-0.0
 0000168,-0.00000131,-0.00000220,-0.00000759,0.00000646,-0.00000053,0.0
 0034447,0.00017747,-0.00023116,-0.00000826,0.00000016,0.00000701,-0.00
 000192,-0.00000470,-0.00000500,-0.00000157,0.00000011,0.00000260,-0.00
 000630,0.00000556,0.00000088,0.00045777,0.00115378,-0.00035645,0.00070
 224,0.00043944,0.00005772,-0.00010854,0.00006107,-0.00022744,0.0009627
 0,0.00038584,-0.00092850,-0.00002470,0.00000478,-0.00000364,0.00002540
 ,0.00005060,-0.00004166,0.00000899,0.00000422,0.00004253,-0.00604024,-
 0.00321172,0.00579636,0.07242787,0.11345642,-0.00000252,0.00000166,0.0
 0000264,-0.00009324,-0.00007748,-0.00005093,-0.00142059,-0.00227564,-0
 .00090247,-0.00001414,0.00000404,-0.00000926,0.10642879,0.08089580,-0.
 17334713,0.01093161,0.00099967,-0.01021944,-0.00001629,0.00000601,0.00
 000900,-0.00008327,-0.00024525,-0.00034618,-0.01039273,-0.00649417,0.0
 1144785,0.00021081,-0.00295581,0.00148656,0.00005020,-0.00000872,0.000
 02219,0.00016532,0.00018111,0.00010410,0.00001322,0.00001169,0.0000343
 3,0.00000124,0.00000025,0.00000085,0.00000065,0.00000053,-0.00000189,-
 0.00002588,-0.00018024,0.00018055,0.00000332,0.00000082,-0.00000061,-0
 .00000546,0.00000115,0.00000540,-0.00000132,0.00000290,-0.00000299,0.0
 0000380,-0.00000084,0.00000026,0.00044360,0.00067632,0.00080669,0.0007
 5087,0.00077198,0.00028595,-0.00018874,-0.00005506,0.00031648,0.000808
 12,0.00024755,-0.00033928,0.00000574,0.00000509,-0.00000349,0.00001213
 ,0.00000277,-0.00001109,0.00001768,0.00001196,0.00002042,0.01385986,0.
 01133817,-0.01543280,-0.12093224,-0.08255964,0.18533377,0.00000074,0.0
 0000233,-0.00007641,-0.00081377,0.00050072,-0.00119594,-0.13473548,-0.
 10871802,-0.06215971,0.00001103,0.00005111,0.00006277,-0.00266322,-0.0
 0013018,0.00528032,0.00087657,-0.00050620,-0.00098069,-0.00005634,0.00
 009723,0.00008180,0.01303016,0.01548712,0.00857594,-0.01234767,-0.0144
 4922,-0.00985499,-0.00315448,0.00268150,0.00198837,0.00008064,-0.00015
 636,0.00016828,0.00156159,-0.00220189,0.00001605,-0.00063506,0.0000046
 4,0.00024983,0.00000290,0.00000363,0.00000232,0.00002537,-0.00001947,0
 .00000807,-0.00967664,-0.01153506,-0.00639130,0.00002768,-0.00000934,-
 0.00003086,-0.00000605,-0.00001079,-0.00000849,-0.00000158,0.00001193,
 0.00000040,0.00001628,-0.00001334,0.00000017,0.00098259,0.00031703,0.0
 0003890,0.00028760,0.00056739,-0.00055515,0.00002121,0.00004146,0.0000
 5552,0.00067364,0.00098212,0.00031840,-0.00001149,0.00001167,-0.000033
 81,-0.00116213,0.00028295,0.00064685,-0.00103190,0.00069914,-0.0004273
 4,0.00027695,0.00035103,0.00013349,-0.00051959,-0.00148045,-0.00054435
 ,0.14843170,-0.00001929,0.00008922,0.00012106,0.00094185,-0.00137814,-
 0.00002489,-0.10779816,-0.18348753,-0.07627851,-0.00019714,-0.00004115
 ,-0.00024594,-0.00089590,0.00091700,0.00267644,-0.00024250,0.00049061,
 0.00025302,0.00000206,-0.00009925,-0.00017486,-0.01492997,-0.01913634,
 -0.01130918,-0.00647412,-0.00806423,-0.00380465,0.00540804,-0.00170780
 ,-0.00150492,-0.00027187,0.00054946,0.00023609,-0.00060113,0.00218655,
 0.00060357,0.00004391,-0.00001325,0.00041270,-0.00000041,-0.00001402,-
 0.00000420,-0.00004645,0.00004474,-0.00000742,0.00771391,0.01050942,0.
 00501405,-0.00003235,0.00002215,0.00006054,0.00000180,0.00003447,0.000
 03246,-0.00000142,0.00001467,0.00002191,-0.00004199,0.00004512,0.00002
 127,0.00025590,0.00017173,-0.00011635,0.00011484,0.00049704,0.00020871
 ,-0.00015103,0.00016704,-0.00012799,-0.00098517,-0.00112778,-0.0003680
 2,-0.00018019,0.00004747,-0.00005942,0.00004325,0.00045939,-0.00032896
 ,0.00046659,0.00003714,0.00083175,-0.00010843,-0.00001349,-0.00019441,
 -0.00029727,-0.00046763,-0.00043682,0.11815577,0.19857266,-0.00002227,
 0.00003887,0.00006665,-0.00075446,-0.00007482,0.00012620,-0.06170737,-
 0.07795703,-0.09140931,-0.00008528,0.00008149,-0.00019805,0.00355629,0
 .00044683,-0.00419193,-0.00113992,0.00000939,0.00068301,-0.00005423,0.
 00001138,0.00002871,-0.00890845,-0.00711264,-0.00635042,0.01435224,0.0
 1834702,0.01059641,0.00315526,-0.00158003,-0.00081029,0.00019767,0.000
 11806,0.00003225,0.00053047,0.00066608,0.00062628,0.00028044,-0.000288
 11,0.00023340,0.00000162,-0.00000439,-0.00000158,-0.00001528,0.0000281
 5,-0.00001690,-0.01299597,-0.01751458,-0.00993845,0.00001101,-0.000006
 03,0.00000605,-0.00000633,0.00001332,0.00001995,0.00000461,0.00000783,
 -0.00000272,0.00000322,0.00000347,-0.00000564,-0.00097009,-0.00029697,
 0.00092154,-0.00076858,-0.00071941,0.00080447,0.00025926,0.00029017,0.
 00029325,-0.00057055,-0.00091404,0.00006691,-0.00009584,0.00006537,-0.
 00006978,0.00066468,0.00015408,-0.00033556,-0.00065921,0.00057454,-0.0
 0023550,0.00018023,0.00008848,0.00013062,0.00075383,0.00112750,0.00058
 708,0.06514221,0.08413397,0.09833693,-0.00004629,0.00020625,-0.0000596
 4,0.00279570,0.00111690,0.00001672,-0.01018560,-0.00571886,0.01301985,
 -0.00096041,-0.00041472,-0.00030876,0.00130684,-0.00037079,-0.00032661
 ,-0.00289573,-0.00415664,-0.00081989,0.00009755,-0.00004543,-0.0000682
 3,-0.13122965,-0.04931706,0.11296792,-0.00061262,0.00379766,0.00036461
 ,-0.00986544,-0.00332490,0.01546563,-0.00016494,-0.00009181,0.00032141
 ,0.00840830,0.01145524,-0.02473121,-0.00145977,-0.00161504,-0.00077470
 ,0.00004061,0.00000620,0.00008137,0.00002833,-0.00002954,0.00001960,0.
 00016135,-0.00009987,-0.00019220,-0.00006879,-0.00001315,0.00006291,-0
 .00149912,0.00067388,0.00006221,0.00000895,-0.00000567,0.00000445,-0.0
 0002653,-0.00000133,0.00002260,0.00000702,-0.00006087,0.00013549,-0.00
 068868,-0.00045558,0.00074395,-0.00011424,0.00037346,-0.00010167,0.000
 78850,-0.00001167,-0.00029536,0.00001851,0.00040840,-0.00001229,-0.001
 64206,-0.00104853,-0.00111057,-0.00019322,-0.00034960,-0.00000652,-0.0
 0012541,0.00010031,-0.00009608,-0.00009785,0.00000166,0.00001382,0.000
 50877,0.00012684,-0.00033922,0.14770596,-0.00005317,-0.00016763,-0.000
 14580,-0.00170426,-0.00089197,-0.00178128,0.01593466,0.00910957,-0.019
 68003,0.00012130,0.00020283,0.00034371,0.00069406,-0.00152522,-0.00066
 932,-0.00515810,-0.00403530,-0.00048231,-0.00022193,0.00015707,0.00020
 351,-0.04605490,-0.07597598,0.06029563,0.00246384,-0.00446667,-0.00139
 197,-0.01368208,-0.00611792,0.01948335,0.00060155,-0.00016770,0.000139
 71,-0.00061645,-0.00599688,0.01747417,-0.00084010,-0.00030753,-0.00044
 693,-0.00003708,0.00006939,-0.00003900,0.00003730,-0.00000903,-0.00000
 109,-0.00060877,0.00103792,0.00074562,-0.00008693,-0.00010966,-0.00010
 561,0.00068161,-0.00019857,-0.00026976,-0.00000166,-0.00000527,-0.0000
 1395,0.00003733,-0.00002321,-0.00002205,-0.00012004,0.00002533,-0.0001
 1323,0.00115241,0.00056976,-0.00109948,0.00029237,0.00092717,-0.000441
 46,0.00102055,0.00051753,0.00031720,0.00019935,0.00022036,-0.00019391,
 -0.00188620,-0.00117705,-0.00119860,0.00016333,0.00023071,0.00016917,-
 0.00008065,0.00017322,0.00011314,-0.00009319,0.00025877,0.00013020,-0.
 00101843,0.00069474,0.00026207,0.04886429,0.08698122,0.00018603,0.0001
 5595,-0.00000506,0.00489679,0.00347053,0.00148304,0.00894504,0.0036962
 8,-0.00795507,0.00003419,-0.00027389,0.00024521,0.00014829,-0.00080231
 ,-0.00045791,-0.00272641,-0.00292338,0.00103169,0.00034709,-0.00003166
 ,-0.00029115,0.10959235,0.05812072,-0.19692439,0.00105369,-0.00253819,
 0.00070512,-0.00450248,-0.00186710,0.00875826,-0.00111342,-0.00018424,
 0.00011242,-0.00257083,0.01464990,-0.02987479,-0.00077307,-0.00013178,
 -0.00023694,0.00006426,-0.00009677,0.00007079,0.00000962,-0.00006268,0
 .00003852,0.00011410,-0.00027825,0.00053935,0.00019430,0.00014431,0.00
 006503,0.00027458,0.00020904,0.00051583,-0.00001463,-0.00004198,-0.000
 02082,-0.00007698,-0.00000409,0.00002704,-0.00023514,0.00000552,0.0001
 0344,0.00053665,0.00047459,-0.00049948,0.00021770,0.00075101,0.0005491
 5,0.00053609,0.00035244,0.00011075,0.00025458,-0.00024367,0.00033432,-
 0.00043549,-0.00109409,-0.00004107,-0.00029789,-0.00053117,-0.00013182
 ,-0.00000684,0.00009062,0.00003313,-0.00008190,0.00020707,0.00002344,-
 0.00051066,0.00035901,0.00000645,-0.11405960,-0.07158174,0.22168551\\0
 .00000033,0.00001541,-0.00000146,-0.00109583,-0.00013930,0.00208886,-0
 .00002705,0.00000770,-0.00002185,-0.00000725,-0.00000138,-0.00000745,0
 .00001243,0.00000741,-0.00000419,0.00000232,-0.00001833,0.00001461,-0.
 00003338,0.00003511,0.00000846,0.00204775,-0.00088261,-0.00222318,0.00
 001346,-0.00001231,0.00000889,-0.00001134,0.00003526,-0.00000450,0.001
 61591,-0.00023795,-0.00246790,-0.00253901,0.00125202,0.00262559,0.0000
 1940,-0.00001553,-0.00001069,-0.00000617,-0.00000425,-0.00000460,0.000
 00168,0.00000072,0.00000158,0.00000613,0.00000086,0.00001094,-0.000008
 75,-0.00000684,0.00001100,0.00000339,0.00000787,-0.00000021,0.00001219
 ,0.00000917,0.00000525,-0.00000919,0.00001002,-0.00000981,-0.00000352,
 0.00000055,-0.00000598,-0.00000553,-0.00001539,0.00000117,0.00001002,-
 0.00000151,-0.00000112,-0.00001570,0.00002202,0.00001253,-0.00000964,-
 0.00000685,0.00000564,-0.00000162,-0.00001349,0.00000740,0.00002653,-0
 .00002734,-0.00001100,0.00000303,0.00000061,0.00000585,0.00001523,0.00
 000338,-0.00001789,-0.00002127,-0.00001851,-0.00000984,0.00000544,-0.0
 0000652,-0.00000611\\\@


 COMMON SENSE IS NOT SO COMMON.   -- VOLTAIRE
 Job cpu time:       0 days 16 hours 25 minutes 37.4 seconds.
 Elapsed time:       0 days  1 hours  1 minutes 37.9 seconds.
 File lengths (MBytes):  RWF=    688 Int=      0 D2E=      0 Chk=     32 Scr=      1
 Normal termination of Gaussian 16 at Mon Nov  5 03:59:22 2018.
