 Entering Gaussian System, Link 0=g16
 Initial command:
 /apps/gaussian/g16a03/g16/l1.exe "/jobfs/local/2011879.r-man2/Gau-12505.inp" -scrdir="/jobfs/local/2011879.r-man2/"
 Entering Link 1 = /apps/gaussian/g16a03/g16/l1.exe PID=     12506.
  
 Copyright (c) 1988,1990,1992,1993,1995,1998,2003,2009,2016,
            Gaussian, Inc.  All Rights Reserved.
  
 This is part of the Gaussian(R) 16 program.  It is based on
 the Gaussian(R) 09 system (copyright 2009, Gaussian, Inc.),
 the Gaussian(R) 03 system (copyright 2003, Gaussian, Inc.),
 the Gaussian(R) 98 system (copyright 1998, Gaussian, Inc.),
 the Gaussian(R) 94 system (copyright 1995, Gaussian, Inc.),
 the Gaussian 92(TM) system (copyright 1992, Gaussian, Inc.),
 the Gaussian 90(TM) system (copyright 1990, Gaussian, Inc.),
 the Gaussian 88(TM) system (copyright 1988, Gaussian, Inc.),
 the Gaussian 86(TM) system (copyright 1986, Carnegie Mellon
 University), and the Gaussian 82(TM) system (copyright 1983,
 Carnegie Mellon University). Gaussian is a federally registered
 trademark of Gaussian, Inc.
  
 This software contains proprietary and confidential information,
 including trade secrets, belonging to Gaussian, Inc.
  
 This software is provided under written license and may be
 used, copied, transmitted, or stored only in accord with that
 written license.
  
 The following legend is applicable only to US Government
 contracts under FAR:
  
                    RESTRICTED RIGHTS LEGEND
  
 Use, reproduction and disclosure by the US Government is
 subject to restrictions as set forth in subparagraphs (a)
 and (c) of the Commercial Computer Software - Restricted
 Rights clause in FAR 52.227-19.
  
 Gaussian, Inc.
 340 Quinnipiac St., Bldg. 40, Wallingford CT 06492
  
  
 ---------------------------------------------------------------
 Warning -- This program may not be used in any manner that
 competes with the business of Gaussian, Inc. or will provide
 assistance to any competitor of Gaussian, Inc.  The licensee
 of this program is prohibited from giving any competitor of
 Gaussian, Inc. access to this program.  By using this program,
 the user acknowledges that Gaussian, Inc. is engaged in the
 business of creating and licensing software in the field of
 computational chemistry and represents and warrants to the
 licensee that it is not a competitor of Gaussian, Inc. and that
 it will not use this program in any manner prohibited above.
 ---------------------------------------------------------------
  

 Cite this work as:
 Gaussian 16, Revision A.03,
 M. J. Frisch, G. W. Trucks, H. B. Schlegel, G. E. Scuseria, 
 M. A. Robb, J. R. Cheeseman, G. Scalmani, V. Barone, 
 G. A. Petersson, H. Nakatsuji, X. Li, M. Caricato, A. V. Marenich, 
 J. Bloino, B. G. Janesko, R. Gomperts, B. Mennucci, H. P. Hratchian, 
 J. V. Ortiz, A. F. Izmaylov, J. L. Sonnenberg, D. Williams-Young, 
 F. Ding, F. Lipparini, F. Egidi, J. Goings, B. Peng, A. Petrone, 
 T. Henderson, D. Ranasinghe, V. G. Zakrzewski, J. Gao, N. Rega, 
 G. Zheng, W. Liang, M. Hada, M. Ehara, K. Toyota, R. Fukuda, 
 J. Hasegawa, M. Ishida, T. Nakajima, Y. Honda, O. Kitao, H. Nakai, 
 T. Vreven, K. Throssell, J. A. Montgomery, Jr., J. E. Peralta, 
 F. Ogliaro, M. J. Bearpark, J. J. Heyd, E. N. Brothers, K. N. Kudin, 
 V. N. Staroverov, T. A. Keith, R. Kobayashi, J. Normand, 
 K. Raghavachari, A. P. Rendell, J. C. Burant, S. S. Iyengar, 
 J. Tomasi, M. Cossi, J. M. Millam, M. Klene, C. Adamo, R. Cammi, 
 J. W. Ochterski, R. L. Martin, K. Morokuma, O. Farkas, 
 J. B. Foresman, and D. J. Fox, Gaussian, Inc., Wallingford CT, 2016.
 
 ******************************************
 Gaussian 16:  ES64L-G16RevA.03 25-Dec-2016
                 5-Nov-2018 
 ******************************************
 %mem=6000mb
 %nproc=24
 Will use up to   24 processors via shared memory.
 %chk=D_1a_4a_L_PHI.inp_extract_16.chk
 ----------------------------------------------------------------------
 #M062X/6-311++G(2d,2p) opt=ModRedundant freq=noraman SCRF=(Solvent=Wat
 er)
 ----------------------------------------------------------------------
 1/18=120,19=15,26=3,38=1/1,3;
 2/9=110,12=2,17=6,18=5,40=1/2;
 3/5=4,6=6,7=1212,11=2,25=1,30=1,70=2201,71=1,72=1,74=-55/1,2,3;
 4//1;
 5/5=2,38=5,53=1/2;
 6/7=2,8=2,9=2,10=2,28=1/1;
 7//1,2,3,16;
 1/18=20,19=15,26=3/3(2);
 2/9=110/2;
 99//99;
 2/9=110/2;
 3/5=4,6=6,7=1212,11=2,25=1,30=1,70=2205,71=1,72=1,74=-55/1,2,3;
 4/5=5,16=3,69=1/1;
 5/5=2,38=5,53=1/2;
 7//1,2,3,16;
 1/18=20,19=15,26=3/3(-5);
 2/9=110/2;
 6/7=2,8=2,9=2,10=2,19=2,28=1/1;
 99/9=1/99;
 ----------------------------
 D_1a_4a_L_PHI.inp_extract_16
 ----------------------------
 Symbolic Z-matrix:
 Charge =  0 Multiplicity = 1
 C                     3.52231  -0.48355  -0.30204 
 C                     0.9999    0.49864   0.73051 
 C                    -1.84222   1.37787   0.06374 
 C                     2.7168    0.52201  -1.12451 
 C                    -3.4958   -0.48429   0.31454 
 O                    -2.60409  -1.34323  -0.37278 
 C                     2.60003  -1.28188   0.6036 
 C                    -0.96111   0.41302  -0.732 
 C                    -2.74301   0.62002   1.04084 
 C                    -1.82304  -0.67961  -1.34274 
 O                     1.79426  -0.43039   1.41158 
 O                     0.00825  -0.24632   0.06711 
 C                     1.85066   1.36622  -0.19006 
 H                     4.25364   0.04361   0.30617 
 H                     4.06642  -1.17016  -0.94436 
 H                    -2.45768   1.916    -0.65321 
 H                     3.37915   1.16516  -1.69577 
 H                     2.09112  -0.00544  -1.84004 
 H                     1.96078  -1.93513   0.02106 
 H                     3.15946  -1.89075   1.30009 
 H                    -2.1512    0.18504   1.84095 
 H                    -3.45804   1.29729   1.4989 
 H                    -2.47224  -0.23981  -2.09577 
 H                    -1.20556  -1.43153  -1.8139 
 H                     2.48829   1.96627   0.45375 
 H                     1.22488   2.05781  -0.74136 
 H                     0.54401   1.10024   1.50299 
 H                    -4.19775  -0.05976  -0.40026 
 H                    -4.0476   -1.10793   1.00455 
 H                    -1.24409   2.12036   0.5794 
 H                    -0.46809   0.93749  -1.54169 
 
 The following ModRedundant input section has been read:
 D      11       2      12       8 F                                           
 

 GradGradGradGradGradGradGradGradGradGradGradGradGradGradGradGradGradGrad
 Berny optimization.
 Initialization pass.
                           ----------------------------
                           !    Initial Parameters    !
                           ! (Angstroms and Degrees)  !
 --------------------------                            --------------------------
 ! Name  Definition              Value          Derivative Info.                !
 --------------------------------------------------------------------------------
 ! R1    R(1,4)                  1.5286         estimate D2E/DX2                !
 ! R2    R(1,7)                  1.5192         estimate D2E/DX2                !
 ! R3    R(1,14)                 1.0875         estimate D2E/DX2                !
 ! R4    R(1,15)                 1.0863         estimate D2E/DX2                !
 ! R5    R(2,11)                 1.3993         estimate D2E/DX2                !
 ! R6    R(2,12)                 1.4066         estimate D2E/DX2                !
 ! R7    R(2,13)                 1.5245         estimate D2E/DX2                !
 ! R8    R(2,27)                 1.08           estimate D2E/DX2                !
 ! R9    R(3,8)                  1.5299         estimate D2E/DX2                !
 ! R10   R(3,9)                  1.5299         estimate D2E/DX2                !
 ! R11   R(3,16)                 1.0874         estimate D2E/DX2                !
 ! R12   R(3,30)                 1.084          estimate D2E/DX2                !
 ! R13   R(4,13)                 1.5284         estimate D2E/DX2                !
 ! R14   R(4,17)                 1.0857         estimate D2E/DX2                !
 ! R15   R(4,18)                 1.087          estimate D2E/DX2                !
 ! R16   R(5,6)                  1.4161         estimate D2E/DX2                !
 ! R17   R(5,9)                  1.5211         estimate D2E/DX2                !
 ! R18   R(5,28)                 1.0881         estimate D2E/DX2                !
 ! R19   R(5,29)                 1.0814         estimate D2E/DX2                !
 ! R20   R(6,10)                 1.4111         estimate D2E/DX2                !
 ! R21   R(7,11)                 1.4238         estimate D2E/DX2                !
 ! R22   R(7,19)                 1.0839         estimate D2E/DX2                !
 ! R23   R(7,20)                 1.0811         estimate D2E/DX2                !
 ! R24   R(8,10)                 1.5198         estimate D2E/DX2                !
 ! R25   R(8,12)                 1.4188         estimate D2E/DX2                !
 ! R26   R(8,31)                 1.0834         estimate D2E/DX2                !
 ! R27   R(9,21)                 1.0861         estimate D2E/DX2                !
 ! R28   R(9,22)                 1.0862         estimate D2E/DX2                !
 ! R29   R(10,23)                1.0872         estimate D2E/DX2                !
 ! R30   R(10,24)                1.081          estimate D2E/DX2                !
 ! R31   R(13,25)                1.0868         estimate D2E/DX2                !
 ! R32   R(13,26)                1.0834         estimate D2E/DX2                !
 ! A1    A(4,1,7)              110.2751         estimate D2E/DX2                !
 ! A2    A(4,1,14)             109.6592         estimate D2E/DX2                !
 ! A3    A(4,1,15)             111.1984         estimate D2E/DX2                !
 ! A4    A(7,1,14)             109.2428         estimate D2E/DX2                !
 ! A5    A(7,1,15)             108.93           estimate D2E/DX2                !
 ! A6    A(14,1,15)            107.4721         estimate D2E/DX2                !
 ! A7    A(11,2,12)            106.1505         estimate D2E/DX2                !
 ! A8    A(11,2,13)            110.7912         estimate D2E/DX2                !
 ! A9    A(11,2,27)            105.149          estimate D2E/DX2                !
 ! A10   A(12,2,13)            114.208          estimate D2E/DX2                !
 ! A11   A(12,2,27)            109.558          estimate D2E/DX2                !
 ! A12   A(13,2,27)            110.5159         estimate D2E/DX2                !
 ! A13   A(8,3,9)              111.0328         estimate D2E/DX2                !
 ! A14   A(8,3,16)             107.1664         estimate D2E/DX2                !
 ! A15   A(8,3,30)             111.2009         estimate D2E/DX2                !
 ! A16   A(9,3,16)             109.4511         estimate D2E/DX2                !
 ! A17   A(9,3,30)             111.1238         estimate D2E/DX2                !
 ! A18   A(16,3,30)            106.6779         estimate D2E/DX2                !
 ! A19   A(1,4,13)             109.4523         estimate D2E/DX2                !
 ! A20   A(1,4,17)             110.5686         estimate D2E/DX2                !
 ! A21   A(1,4,18)             109.7727         estimate D2E/DX2                !
 ! A22   A(13,4,17)            109.8901         estimate D2E/DX2                !
 ! A23   A(13,4,18)            110.137          estimate D2E/DX2                !
 ! A24   A(17,4,18)            106.9929         estimate D2E/DX2                !
 ! A25   A(6,5,9)              111.1293         estimate D2E/DX2                !
 ! A26   A(6,5,28)             108.9074         estimate D2E/DX2                !
 ! A27   A(6,5,29)             106.3313         estimate D2E/DX2                !
 ! A28   A(9,5,28)             110.4689         estimate D2E/DX2                !
 ! A29   A(9,5,29)             111.5019         estimate D2E/DX2                !
 ! A30   A(28,5,29)            108.3599         estimate D2E/DX2                !
 ! A31   A(5,6,10)             113.3849         estimate D2E/DX2                !
 ! A32   A(1,7,11)             111.5671         estimate D2E/DX2                !
 ! A33   A(1,7,19)             110.7541         estimate D2E/DX2                !
 ! A34   A(1,7,20)             111.4603         estimate D2E/DX2                !
 ! A35   A(11,7,19)            109.37           estimate D2E/DX2                !
 ! A36   A(11,7,20)            105.3118         estimate D2E/DX2                !
 ! A37   A(19,7,20)            108.1808         estimate D2E/DX2                !
 ! A38   A(3,8,10)             109.6211         estimate D2E/DX2                !
 ! A39   A(3,8,12)             113.1804         estimate D2E/DX2                !
 ! A40   A(3,8,31)             110.2132         estimate D2E/DX2                !
 ! A41   A(10,8,12)            106.244          estimate D2E/DX2                !
 ! A42   A(10,8,31)            107.8057         estimate D2E/DX2                !
 ! A43   A(12,8,31)            109.5719         estimate D2E/DX2                !
 ! A44   A(3,9,5)              110.2473         estimate D2E/DX2                !
 ! A45   A(3,9,21)             110.3694         estimate D2E/DX2                !
 ! A46   A(3,9,22)             110.3699         estimate D2E/DX2                !
 ! A47   A(5,9,21)             109.3089         estimate D2E/DX2                !
 ! A48   A(5,9,22)             109.1626         estimate D2E/DX2                !
 ! A49   A(21,9,22)            107.3227         estimate D2E/DX2                !
 ! A50   A(6,10,8)             112.0727         estimate D2E/DX2                !
 ! A51   A(6,10,23)            109.6235         estimate D2E/DX2                !
 ! A52   A(6,10,24)            106.7762         estimate D2E/DX2                !
 ! A53   A(8,10,23)            109.0367         estimate D2E/DX2                !
 ! A54   A(8,10,24)            110.5637         estimate D2E/DX2                !
 ! A55   A(23,10,24)           108.6979         estimate D2E/DX2                !
 ! A56   A(2,11,7)             116.2404         estimate D2E/DX2                !
 ! A57   A(2,12,8)             120.0803         estimate D2E/DX2                !
 ! A58   A(2,13,4)             111.7838         estimate D2E/DX2                !
 ! A59   A(2,13,25)            106.494          estimate D2E/DX2                !
 ! A60   A(2,13,26)            110.3782         estimate D2E/DX2                !
 ! A61   A(4,13,25)            109.5523         estimate D2E/DX2                !
 ! A62   A(4,13,26)            111.6411         estimate D2E/DX2                !
 ! A63   A(25,13,26)           106.731          estimate D2E/DX2                !
 ! D1    D(7,1,4,13)            52.8925         estimate D2E/DX2                !
 ! D2    D(7,1,4,17)           174.0847         estimate D2E/DX2                !
 ! D3    D(7,1,4,18)           -68.1012         estimate D2E/DX2                !
 ! D4    D(14,1,4,13)          -67.443          estimate D2E/DX2                !
 ! D5    D(14,1,4,17)           53.7492         estimate D2E/DX2                !
 ! D6    D(14,1,4,18)          171.5634         estimate D2E/DX2                !
 ! D7    D(15,1,4,13)          173.8376         estimate D2E/DX2                !
 ! D8    D(15,1,4,17)          -64.9702         estimate D2E/DX2                !
 ! D9    D(15,1,4,18)           52.844          estimate D2E/DX2                !
 ! D10   D(4,1,7,11)           -53.9239         estimate D2E/DX2                !
 ! D11   D(4,1,7,19)            68.1606         estimate D2E/DX2                !
 ! D12   D(4,1,7,20)          -171.3424         estimate D2E/DX2                !
 ! D13   D(14,1,7,11)           66.6616         estimate D2E/DX2                !
 ! D14   D(14,1,7,19)         -171.2539         estimate D2E/DX2                !
 ! D15   D(14,1,7,20)          -50.7569         estimate D2E/DX2                !
 ! D16   D(15,1,7,11)         -176.2149         estimate D2E/DX2                !
 ! D17   D(15,1,7,19)          -54.1304         estimate D2E/DX2                !
 ! D18   D(15,1,7,20)           66.3665         estimate D2E/DX2                !
 ! D19   D(12,2,11,7)           69.026          estimate D2E/DX2                !
 ! D20   D(13,2,11,7)          -55.4866         estimate D2E/DX2                !
 ! D21   D(27,2,11,7)         -174.9042         estimate D2E/DX2                !
 ! D22   D(11,2,12,8)         -179.4577         Frozen                          !
 ! D23   D(13,2,12,8)          -57.0886         estimate D2E/DX2                !
 ! D24   D(27,2,12,8)           67.4879         estimate D2E/DX2                !
 ! D25   D(11,2,13,4)           52.9896         estimate D2E/DX2                !
 ! D26   D(11,2,13,25)         -66.6277         estimate D2E/DX2                !
 ! D27   D(11,2,13,26)         177.8878         estimate D2E/DX2                !
 ! D28   D(12,2,13,4)          -66.8072         estimate D2E/DX2                !
 ! D29   D(12,2,13,25)         173.5755         estimate D2E/DX2                !
 ! D30   D(12,2,13,26)          58.091          estimate D2E/DX2                !
 ! D31   D(27,2,13,4)          169.1281         estimate D2E/DX2                !
 ! D32   D(27,2,13,25)          49.5108         estimate D2E/DX2                !
 ! D33   D(27,2,13,26)         -65.9737         estimate D2E/DX2                !
 ! D34   D(9,3,8,10)            50.9461         estimate D2E/DX2                !
 ! D35   D(9,3,8,12)           -67.4591         estimate D2E/DX2                !
 ! D36   D(9,3,8,31)           169.4492         estimate D2E/DX2                !
 ! D37   D(16,3,8,10)          -68.5385         estimate D2E/DX2                !
 ! D38   D(16,3,8,12)          173.0563         estimate D2E/DX2                !
 ! D39   D(16,3,8,31)           49.9646         estimate D2E/DX2                !
 ! D40   D(30,3,8,10)          175.2298         estimate D2E/DX2                !
 ! D41   D(30,3,8,12)           56.8246         estimate D2E/DX2                !
 ! D42   D(30,3,8,31)          -66.2672         estimate D2E/DX2                !
 ! D43   D(8,3,9,5)            -51.4778         estimate D2E/DX2                !
 ! D44   D(8,3,9,21)            69.3797         estimate D2E/DX2                !
 ! D45   D(8,3,9,22)          -172.1528         estimate D2E/DX2                !
 ! D46   D(16,3,9,5)            66.6314         estimate D2E/DX2                !
 ! D47   D(16,3,9,21)         -172.5111         estimate D2E/DX2                !
 ! D48   D(16,3,9,22)          -54.0436         estimate D2E/DX2                !
 ! D49   D(30,3,9,5)          -175.8053         estimate D2E/DX2                !
 ! D50   D(30,3,9,21)          -54.9478         estimate D2E/DX2                !
 ! D51   D(30,3,9,22)           63.5197         estimate D2E/DX2                !
 ! D52   D(1,4,13,2)           -52.8465         estimate D2E/DX2                !
 ! D53   D(1,4,13,25)           64.9536         estimate D2E/DX2                !
 ! D54   D(1,4,13,26)         -177.0402         estimate D2E/DX2                !
 ! D55   D(17,4,13,2)         -174.4483         estimate D2E/DX2                !
 ! D56   D(17,4,13,25)         -56.6482         estimate D2E/DX2                !
 ! D57   D(17,4,13,26)          61.358          estimate D2E/DX2                !
 ! D58   D(18,4,13,2)           67.926          estimate D2E/DX2                !
 ! D59   D(18,4,13,25)        -174.2739         estimate D2E/DX2                !
 ! D60   D(18,4,13,26)         -56.2677         estimate D2E/DX2                !
 ! D61   D(9,5,6,10)           -59.8347         estimate D2E/DX2                !
 ! D62   D(28,5,6,10)           62.0799         estimate D2E/DX2                !
 ! D63   D(29,5,6,10)          178.6512         estimate D2E/DX2                !
 ! D64   D(6,5,9,3)             54.7529         estimate D2E/DX2                !
 ! D65   D(6,5,9,21)           -66.737          estimate D2E/DX2                !
 ! D66   D(6,5,9,22)           176.149          estimate D2E/DX2                !
 ! D67   D(28,5,9,3)           -66.2483         estimate D2E/DX2                !
 ! D68   D(28,5,9,21)          172.2618         estimate D2E/DX2                !
 ! D69   D(28,5,9,22)           55.1478         estimate D2E/DX2                !
 ! D70   D(29,5,9,3)           173.1938         estimate D2E/DX2                !
 ! D71   D(29,5,9,21)           51.7039         estimate D2E/DX2                !
 ! D72   D(29,5,9,22)          -65.4102         estimate D2E/DX2                !
 ! D73   D(5,6,10,8)            60.1669         estimate D2E/DX2                !
 ! D74   D(5,6,10,23)          -61.0483         estimate D2E/DX2                !
 ! D75   D(5,6,10,24)         -178.6268         estimate D2E/DX2                !
 ! D76   D(1,7,11,2)            56.7852         estimate D2E/DX2                !
 ! D77   D(19,7,11,2)          -66.0933         estimate D2E/DX2                !
 ! D78   D(20,7,11,2)          177.856          estimate D2E/DX2                !
 ! D79   D(3,8,10,6)           -54.58           estimate D2E/DX2                !
 ! D80   D(3,8,10,23)           66.9727         estimate D2E/DX2                !
 ! D81   D(3,8,10,24)         -173.5783         estimate D2E/DX2                !
 ! D82   D(12,8,10,6)           68.045          estimate D2E/DX2                !
 ! D83   D(12,8,10,23)        -170.4023         estimate D2E/DX2                !
 ! D84   D(12,8,10,24)         -50.9533         estimate D2E/DX2                !
 ! D85   D(31,8,10,6)         -174.5646         estimate D2E/DX2                !
 ! D86   D(31,8,10,23)         -53.0119         estimate D2E/DX2                !
 ! D87   D(31,8,10,24)          66.4371         estimate D2E/DX2                !
 ! D88   D(3,8,12,2)           -62.2328         estimate D2E/DX2                !
 ! D89   D(10,8,12,2)          177.4202         estimate D2E/DX2                !
 ! D90   D(31,8,12,2)           61.2126         estimate D2E/DX2                !
 --------------------------------------------------------------------------------
 Trust Radius=3.00D-01 FncErr=1.00D-07 GrdErr=1.00D-06 EigMax=2.50D+02 EigMin=1.00D-04
 Number of steps in this run=    186 maximum allowed number of steps=    186.
 GradGradGradGradGradGradGradGradGradGradGradGradGradGradGradGradGradGrad

                          Input orientation:                          
 ---------------------------------------------------------------------
 Center     Atomic      Atomic             Coordinates (Angstroms)
 Number     Number       Type             X           Y           Z
 ---------------------------------------------------------------------
      1          6           0        3.522312   -0.483550   -0.302041
      2          6           0        0.999901    0.498638    0.730513
      3          6           0       -1.842219    1.377866    0.063739
      4          6           0        2.716797    0.522013   -1.124514
      5          6           0       -3.495801   -0.484287    0.314540
      6          8           0       -2.604092   -1.343231   -0.372779
      7          6           0        2.600033   -1.281876    0.603604
      8          6           0       -0.961111    0.413015   -0.732002
      9          6           0       -2.743005    0.620022    1.040841
     10          6           0       -1.823043   -0.679613   -1.342741
     11          8           0        1.794257   -0.430388    1.411579
     12          8           0        0.008253   -0.246316    0.067105
     13          6           0        1.850662    1.366224   -0.190063
     14          1           0        4.253642    0.043611    0.306170
     15          1           0        4.066425   -1.170158   -0.944362
     16          1           0       -2.457675    1.916000   -0.653214
     17          1           0        3.379147    1.165157   -1.695765
     18          1           0        2.091118   -0.005444   -1.840036
     19          1           0        1.960775   -1.935127    0.021059
     20          1           0        3.159457   -1.890745    1.300093
     21          1           0       -2.151201    0.185039    1.840951
     22          1           0       -3.458040    1.297288    1.498903
     23          1           0       -2.472238   -0.239811   -2.095770
     24          1           0       -1.205559   -1.431526   -1.813896
     25          1           0        2.488288    1.966270    0.453751
     26          1           0        1.224875    2.057811   -0.741362
     27          1           0        0.544011    1.100241    1.502988
     28          1           0       -4.197745   -0.059757   -0.400259
     29          1           0       -4.047603   -1.107932    1.004547
     30          1           0       -1.244087    2.120359    0.579403
     31          1           0       -0.468091    0.937487   -1.541692
 ---------------------------------------------------------------------
                    Distance matrix (angstroms):
                    1          2          3          4          5
     1  C    0.000000
     2  C    2.897140   0.000000
     3  C    5.690067   3.048815   0.000000
     4  C    1.528553   2.527727   4.788429   0.000000
     5  C    7.045146   4.620661   2.502968   6.455996   0.000000
     6  O    6.186831   4.195057   2.859260   5.688242   1.416099
     7  C    1.519248   2.397240   5.205697   2.500808   6.154584
     8  C    4.592361   2.447825   1.529867   3.700399   2.885317
     9  C    6.501954   3.757710   1.529860   5.874335   1.521090
    10  C    5.449249   3.695358   2.492343   4.701242   2.362806
    11  O    2.434234   1.399265   4.279067   2.861803   5.402880
    12  O    3.541350   1.406568   2.462159   3.057204   3.520831
    13  C    2.495720   1.524454   3.701611   1.528424   5.680113
    14  H    1.087503   3.312695   6.244880   2.153513   7.767407
    15  H    1.086308   3.872164   6.513123   2.171956   7.696916
    16  H    6.453015   3.984777   1.087380   5.379636   2.788482
    17  H    2.163608   3.462930   5.513961   1.085665   7.350299
    18  H    2.154607   2.837706   4.583563   1.087040   6.007092
    19  H    2.156355   2.711054   5.043858   2.814506   5.653785
    20  H    2.163029   3.270666   6.101570   3.449068   6.873274
    21  H    6.101490   3.355721   2.162588   5.710073   2.141466
    22  H    7.425638   4.593637   2.162653   6.753664   2.139661
    23  H    6.261909   4.537503   2.770791   5.333835   2.630027
    24  H    5.053427   3.881186   3.438536   4.435813   3.266911
    25  H    2.764425   2.108515   4.387667   2.151515   6.467915
    26  H    3.453945   2.155934   3.243082   2.175158   5.464611
    27  H    3.825807   1.080037   2.800465   3.458195   4.499246
    28  H    7.732304   5.348455   2.798313   6.976668   1.088067
    29  H    7.707181   5.304098   3.453698   7.276450   1.081447
    30  H    5.502349   2.772778   1.083959   4.598548   3.453194
    31  H    4.413547   2.740530   2.158604   3.238853   3.825450
                    6          7          8          9         10
     6  O    0.000000
     7  C    5.295281   0.000000
     8  C    2.431631   4.163922   0.000000
     9  C    2.423217   5.688273   2.522096   0.000000
    10  C    1.411118   4.869762   1.519791   2.866504   0.000000
    11  O    4.833497   1.423773   3.591423   4.671997   4.553378
    12  O    2.867240   2.842101   1.418787   3.044359   2.351395
    13  C    5.217218   2.864245   3.018008   4.813909   4.360072
    14  H    7.029425   2.140048   5.329907   7.058687   6.337828
    15  H    6.697198   2.135178   5.275192   7.315334   5.923274
    16  H    3.274549   6.114443   2.122469   2.151928   2.759604
    17  H    6.621288   3.447040   4.509146   6.728070   5.530875
    18  H    5.097795   2.803507   3.273981   5.662103   4.002807
    19  H    4.619898   1.083857   3.823387   5.449247   4.213496
    20  H    6.026340   1.081098   5.139630   6.419519   5.768598
    21  H    2.727878   5.124167   2.844007   1.086102   3.315299
    22  H    3.347351   6.644840   3.463168   1.086179   3.828354
    23  H    2.050273   5.839559   2.137651   3.263580   1.087167
    24  H    2.010102   4.511012   2.152343   3.836941   1.081040
    25  H    6.129297   3.253520   3.964463   5.433552   5.368022
    26  H    5.134582   3.854024   2.735686   4.581218   4.140646
    27  H    4.404499   3.272705   2.780801   3.353903   4.107189
    28  H    2.046409   6.979334   3.287760   2.157577   2.629012
    29  H    2.009009   6.661987   3.854259   2.165437   3.262190
    30  H    3.840927   5.133522   2.171378   2.170413   3.445239
    31  H    3.336245   4.352155   1.083392   3.456225   2.119077
                   11         12         13         14         15
    11  O    0.000000
    12  O    2.243057   0.000000
    13  C    2.407541   2.461888   0.000000
    14  H    2.737732   4.261988   2.787448   0.000000
    15  H    3.355662   4.283142   3.451348   1.752745   0.000000
    16  H    5.277105   3.357867   4.367898   7.033352   7.223089
    17  H    3.835782   4.057449   2.154955   2.455677   2.547676
    18  H    3.292674   2.834349   2.159098   3.047149   2.461834
    19  H    2.055605   2.581965   3.309927   3.042028   2.439462
    20  H    2.002209   3.762246   3.813313   2.434514   2.525750
    21  H    4.016186   2.827691   4.640595   6.587683   6.946467
    22  H    5.529838   4.055607   5.571326   7.903440   8.287063
    23  H    5.526373   3.291034   4.989843   7.147524   6.704133
    24  H    4.517174   2.533027   4.450250   6.039336   5.349600
    25  H    2.672655   3.345983   1.086793   2.614359   3.779209
    26  H    3.339234   2.728148   1.083436   3.785202   4.305276
    27  H    1.978458   2.040101   2.155111   4.038589   4.853003
    28  H    6.270902   4.235995   6.217783   8.481490   8.356168
    29  H    5.895089   4.251017   6.506771   8.409783   8.345033
    30  H    4.053438   2.726161   3.276930   5.883244   6.430467
    31  H    3.963724   2.053417   2.717965   5.148628   5.035951
                   16         17         18         19         20
    16  H    0.000000
    17  H    5.976552   0.000000
    18  H    5.078584   1.746465   0.000000
    19  H    5.899875   3.817201   2.684090   0.000000
    20  H    7.061083   4.285086   3.815248   1.753493   0.000000
    21  H    3.051395   6.637299   5.619895   4.971464   5.727521
    22  H    2.452579   7.547880   6.605965   6.480439   7.348085
    23  H    2.593974   6.030974   4.576521   5.196794   6.780373
    24  H    3.757780   5.270318   3.592001   3.694096   5.381559
    25  H    5.068575   2.460860   3.050714   3.960605   4.005412
    26  H    3.686334   2.519644   2.492886   4.131149   4.847808
    27  H    3.784810   4.274837   3.846022   3.662894   3.978407
    28  H    2.644890   7.783832   6.451799   6.451503   7.769951
    29  H    3.797395   8.222848   6.855000   6.144274   7.255471
    30  H    1.741810   5.240524   4.636412   5.199024   5.999962
    31  H    2.388582   3.857047   2.743662   4.073511   5.406824
                   21         22         23         24         25
    21  H    0.000000
    22  H    1.749835   0.000000
    23  H    3.972573   4.031892   0.000000
    24  H    4.106754   4.847137   1.761849   0.000000
    25  H    5.159648   6.074430   5.997805   5.507426   0.000000
    26  H    4.644729   5.246606   4.558742   4.385523   1.741519
    27  H    2.866353   4.006901   4.883089   4.524661   2.372998
    28  H    3.044879   2.448581   2.425809   3.582359   7.038264
    29  H    2.442885   2.525283   3.584323   4.015663   7.243754
    30  H    2.481899   2.534663   3.772971   4.283136   3.737667
    31  H    3.852442   4.279541   2.389485   2.496032   3.712191
                   26         27         28         29         30
    26  H    0.000000
    27  H    2.533303   0.000000
    28  H    5.831402   5.239484   0.000000
    29  H    6.392899   5.119315   1.759174   0.000000
    30  H    2.800733   2.256312   3.799571   4.296779   0.000000
    31  H    2.182152   3.212618   4.025877   4.845614   2.549588
                   31
    31  H    0.000000
 Stoichiometry    C10H18O3
 Framework group  C1[X(C10H18O3)]
 Deg. of freedom    87
 Full point group                 C1      NOp   1
 Largest Abelian subgroup         C1      NOp   1
 Largest concise Abelian subgroup C1      NOp   1
                         Standard orientation:                         
 ---------------------------------------------------------------------
 Center     Atomic      Atomic             Coordinates (Angstroms)
 Number     Number       Type             X           Y           Z
 ---------------------------------------------------------------------
      1          6           0       -3.522312   -0.483550    0.302041
      2          6           0       -0.999901    0.498638   -0.730513
      3          6           0        1.842219    1.377866   -0.063739
      4          6           0       -2.716797    0.522013    1.124514
      5          6           0        3.495801   -0.484287   -0.314540
      6          8           0        2.604092   -1.343231    0.372779
      7          6           0       -2.600033   -1.281876   -0.603604
      8          6           0        0.961111    0.413015    0.732002
      9          6           0        2.743005    0.620022   -1.040841
     10          6           0        1.823043   -0.679613    1.342741
     11          8           0       -1.794257   -0.430388   -1.411579
     12          8           0       -0.008253   -0.246316   -0.067105
     13          6           0       -1.850662    1.366224    0.190063
     14          1           0       -4.253642    0.043611   -0.306170
     15          1           0       -4.066425   -1.170158    0.944362
     16          1           0        2.457675    1.916000    0.653214
     17          1           0       -3.379147    1.165157    1.695765
     18          1           0       -2.091118   -0.005444    1.840036
     19          1           0       -1.960775   -1.935127   -0.021059
     20          1           0       -3.159457   -1.890745   -1.300093
     21          1           0        2.151201    0.185039   -1.840951
     22          1           0        3.458040    1.297288   -1.498903
     23          1           0        2.472238   -0.239811    2.095770
     24          1           0        1.205559   -1.431526    1.813896
     25          1           0       -2.488288    1.966270   -0.453751
     26          1           0       -1.224875    2.057811    0.741362
     27          1           0       -0.544011    1.100241   -1.502988
     28          1           0        4.197745   -0.059757    0.400259
     29          1           0        4.047603   -1.107932   -1.004547
     30          1           0        1.244087    2.120359   -0.579403
     31          1           0        0.468091    0.937487    1.541692
 ---------------------------------------------------------------------
 Rotational constants (GHZ):           1.7494015           0.4459391           0.4375563
 Standard basis: 6-311++G(2d,2p) (5D, 7F)
 There are   557 symmetry adapted cartesian basis functions of A   symmetry.
 There are   531 symmetry adapted basis functions of A   symmetry.
   531 basis functions,   762 primitive gaussians,   557 cartesian basis functions
    51 alpha electrons       51 beta electrons
       nuclear repulsion energy       906.0817045457 Hartrees.
 NAtoms=   31 NActive=   31 NUniq=   31 SFac= 1.00D+00 NAtFMM=   60 NAOKFM=F Big=F
 Integral buffers will be    131072 words long.
 Raffenetti 2 integral format.
 Two-electron integral symmetry is turned on.
 ------------------------------------------------------------------------------
 Polarizable Continuum Model (PCM)
 =================================
 Model                : PCM.
 Atomic radii         : UFF (Universal Force Field).
 Polarization charges : Total charges.
 Charge compensation  : None.
 Solution method      : On-the-fly selection.
 Cavity type          : Scaled VdW (van der Waals Surface) (Alpha=1.100).
 Cavity algorithm     : GePol (No added spheres)
                        Default sphere list used, NSphG=   31.
                        Lebedev-Laikov grids with approx.  5.0 points / Ang**2.
                        Smoothing algorithm: York/Karplus (Gamma=1.0000).
                        Polarization charges: spherical gaussians, with
                                              point-specific exponents (IZeta= 3).
                        Self-potential: point-specific (ISelfS= 7).
                        Self-field    : sphere-specific E.n sum rule (ISelfD= 2).
 1st derivatives      : Analytical E(r).r(x)/FMM algorithm (CHGder, D1EAlg=3).
                        Cavity 1st derivative terms included.
 Solvent              : Water, Eps=  78.355300 Eps(inf)=   1.777849
 ------------------------------------------------------------------------------
 One-electron integrals computed using PRISM.
 NBasis=   531 RedAO= T EigKep=  3.81D-06  NBF=   531
 NBsUse=   531 1.00D-06 EigRej= -1.00D+00 NBFU=   531
 ExpMin= 3.60D-02 ExpMax= 8.59D+03 ExpMxC= 1.30D+03 IAcc=3 IRadAn=         5 AccDes= 0.00D+00
 Harris functional with IExCor= 1009 and IRadAn=       5 diagonalized for initial guess.
 HarFok:  IExCor= 1009 AccDes= 0.00D+00 IRadAn=         5 IDoV= 1 UseB2=F ITyADJ=14
 ICtDFT=  3500011 ScaDFX=  1.000000  1.000000  1.000000  1.000000
 FoFCou: FMM=F IPFlag=           0 FMFlag=      100000 FMFlg1=           0
         NFxFlg=           0 DoJE=T BraDBF=F KetDBF=T FulRan=T
         wScrn=  0.000000 ICntrl=       500 IOpCl=  0 I1Cent=   200000004 NGrid=           0
         NMat0=    1 NMatS0=      1 NMatT0=    0 NMatD0=    1 NMtDS0=    0 NMtDT0=    0
 Petite list used in FoFCou.
 Requested convergence on RMS density matrix=1.00D-08 within 128 cycles.
 Requested convergence on MAX density matrix=1.00D-06.
 Requested convergence on             energy=1.00D-06.
 No special actions if energy rises.
 Inv3:  Mode=1 IEnd=    12277587.
 Iteration    1 A*A^-1 deviation from unit magnitude is 4.22D-15 for   1977.
 Iteration    1 A*A^-1 deviation from orthogonality  is 3.68D-15 for   2012    921.
 Iteration    1 A^-1*A deviation from unit magnitude is 4.22D-15 for   2015.
 Iteration    1 A^-1*A deviation from orthogonality  is 2.07D-15 for   2017    918.
 Error on total polarization charges =  0.01473
 SCF Done:  E(RM062X) =  -617.497983065     A.U. after   12 cycles
            NFock= 12  Conv=0.53D-08     -V/T= 2.0035

 **********************************************************************

            Population analysis using the SCF density.

 **********************************************************************

 Orbital symmetries:
       Occupied  (A) (A) (A) (A) (A) (A) (A) (A) (A) (A) (A) (A)
                 (A) (A) (A) (A) (A) (A) (A) (A) (A) (A) (A) (A)
                 (A) (A) (A) (A) (A) (A) (A) (A) (A) (A) (A) (A)
                 (A) (A) (A) (A) (A) (A) (A) (A) (A) (A) (A) (A)
                 (A) (A) (A)
       Virtual   (A) (A) (A) (A) (A) (A) (A) (A) (A) (A) (A) (A)
                 (A) (A) (A) (A) (A) (A) (A) (A) (A) (A) (A) (A)
                 (A) (A) (A) (A) (A) (A) (A) (A) (A) (A) (A) (A)
                 (A) (A) (A) (A) (A) (A) (A) (A) (A) (A) (A) (A)
                 (A) (A) (A) (A) (A) (A) (A) (A) (A) (A) (A) (A)
                 (A) (A) (A) (A) (A) (A) (A) (A) (A) (A) (A) (A)
                 (A) (A) (A) (A) (A) (A) (A) (A) (A) (A) (A) (A)
                 (A) (A) (A) (A) (A) (A) (A) (A) (A) (A) (A) (A)
                 (A) (A) (A) (A) (A) (A) (A) (A) (A) (A) (A) (A)
                 (A) (A) (A) (A) (A) (A) (A) (A) (A) (A) (A) (A)
                 (A) (A) (A) (A) (A) (A) (A) (A) (A) (A) (A) (A)
                 (A) (A) (A) (A) (A) (A) (A) (A) (A) (A) (A) (A)
                 (A) (A) (A) (A) (A) (A) (A) (A) (A) (A) (A) (A)
                 (A) (A) (A) (A) (A) (A) (A) (A) (A) (A) (A) (A)
                 (A) (A) (A) (A) (A) (A) (A) (A) (A) (A) (A) (A)
                 (A) (A) (A) (A) (A) (A) (A) (A) (A) (A) (A) (A)
                 (A) (A) (A) (A) (A) (A) (A) (A) (A) (A) (A) (A)
                 (A) (A) (A) (A) (A) (A) (A) (A) (A) (A) (A) (A)
                 (A) (A) (A) (A) (A) (A) (A) (A) (A) (A) (A) (A)
                 (A) (A) (A) (A) (A) (A) (A) (A) (A) (A) (A) (A)
                 (A) (A) (A) (A) (A) (A) (A) (A) (A) (A) (A) (A)
                 (A) (A) (A) (A) (A) (A) (A) (A) (A) (A) (A) (A)
                 (A) (A) (A) (A) (A) (A) (A) (A) (A) (A) (A) (A)
                 (A) (A) (A) (A) (A) (A) (A) (A) (A) (A) (A) (A)
                 (A) (A) (A) (A) (A) (A) (A) (A) (A) (A) (A) (A)
                 (A) (A) (A) (A) (A) (A) (A) (A) (A) (A) (A) (A)
                 (A) (A) (A) (A) (A) (A) (A) (A) (A) (A) (A) (A)
                 (A) (A) (A) (A) (A) (A) (A) (A) (A) (A) (A) (A)
                 (A) (A) (A) (A) (A) (A) (A) (A) (A) (A) (A) (A)
                 (A) (A) (A) (A) (A) (A) (A) (A) (A) (A) (A) (A)
                 (A) (A) (A) (A) (A) (A) (A) (A) (A) (A) (A) (A)
                 (A) (A) (A) (A) (A) (A) (A) (A) (A) (A) (A) (A)
                 (A) (A) (A) (A) (A) (A) (A) (A) (A) (A) (A) (A)
                 (A) (A) (A) (A) (A) (A) (A) (A) (A) (A) (A) (A)
                 (A) (A) (A) (A) (A) (A) (A) (A) (A) (A) (A) (A)
                 (A) (A) (A) (A) (A) (A) (A) (A) (A) (A) (A) (A)
                 (A) (A) (A) (A) (A) (A) (A) (A) (A) (A) (A) (A)
                 (A) (A) (A) (A) (A) (A) (A) (A) (A) (A) (A) (A)
                 (A) (A) (A) (A) (A) (A) (A) (A) (A) (A) (A) (A)
                 (A) (A) (A) (A) (A) (A) (A) (A) (A) (A) (A) (A)
 The electronic state is 1-A.
 Alpha  occ. eigenvalues --  -19.62897 -19.62661 -19.62645 -10.63498 -10.58928
 Alpha  occ. eigenvalues --  -10.57977 -10.57760 -10.57598 -10.53340 -10.53082
 Alpha  occ. eigenvalues --  -10.52993 -10.52946 -10.52785  -1.20117  -1.16615
 Alpha  occ. eigenvalues --   -1.13265  -0.90336  -0.90026  -0.87683  -0.85017
 Alpha  occ. eigenvalues --   -0.75215  -0.74123  -0.73210  -0.71538  -0.66724
 Alpha  occ. eigenvalues --   -0.61727  -0.59981  -0.58975  -0.57458  -0.56204
 Alpha  occ. eigenvalues --   -0.54746  -0.53183  -0.52186  -0.51908  -0.49849
 Alpha  occ. eigenvalues --   -0.47906  -0.46898  -0.46319  -0.46143  -0.45291
 Alpha  occ. eigenvalues --   -0.44257  -0.42799  -0.40925  -0.40206  -0.39126
 Alpha  occ. eigenvalues --   -0.38692  -0.37584  -0.36584  -0.34646  -0.32606
 Alpha  occ. eigenvalues --   -0.31913
 Alpha virt. eigenvalues --   -0.00183   0.00831   0.00903   0.01069   0.02281
 Alpha virt. eigenvalues --    0.02496   0.02665   0.03379   0.03489   0.04613
 Alpha virt. eigenvalues --    0.04645   0.04879   0.05380   0.05870   0.07156
 Alpha virt. eigenvalues --    0.07591   0.07853   0.08373   0.09135   0.09274
 Alpha virt. eigenvalues --    0.10033   0.10686   0.10748   0.11572   0.12003
 Alpha virt. eigenvalues --    0.12294   0.12480   0.12875   0.13148   0.13640
 Alpha virt. eigenvalues --    0.13666   0.14011   0.14304   0.14424   0.14586
 Alpha virt. eigenvalues --    0.14911   0.15231   0.15478   0.16012   0.16203
 Alpha virt. eigenvalues --    0.16639   0.16758   0.17462   0.17632   0.17987
 Alpha virt. eigenvalues --    0.18086   0.18507   0.18912   0.19541   0.20005
 Alpha virt. eigenvalues --    0.20274   0.20373   0.20532   0.21074   0.21715
 Alpha virt. eigenvalues --    0.21906   0.22337   0.22750   0.23441   0.24498
 Alpha virt. eigenvalues --    0.24764   0.25990   0.26253   0.26882   0.27057
 Alpha virt. eigenvalues --    0.27330   0.28314   0.28585   0.28675   0.29210
 Alpha virt. eigenvalues --    0.29971   0.31235   0.31440   0.31535   0.32314
 Alpha virt. eigenvalues --    0.32624   0.32824   0.33669   0.34040   0.34268
 Alpha virt. eigenvalues --    0.34497   0.35017   0.35366   0.35874   0.36424
 Alpha virt. eigenvalues --    0.36853   0.37097   0.37504   0.38014   0.38124
 Alpha virt. eigenvalues --    0.38694   0.39535   0.39749   0.39936   0.40470
 Alpha virt. eigenvalues --    0.40585   0.41838   0.43279   0.44645   0.45756
 Alpha virt. eigenvalues --    0.47764   0.48095   0.49666   0.50130   0.50560
 Alpha virt. eigenvalues --    0.51855   0.51955   0.53400   0.54090   0.55588
 Alpha virt. eigenvalues --    0.57193   0.57890   0.58118   0.59129   0.59597
 Alpha virt. eigenvalues --    0.59995   0.60724   0.61427   0.61670   0.61751
 Alpha virt. eigenvalues --    0.62512   0.63357   0.63745   0.63995   0.64516
 Alpha virt. eigenvalues --    0.64759   0.65328   0.65881   0.66944   0.67187
 Alpha virt. eigenvalues --    0.67849   0.67943   0.68216   0.69187   0.69801
 Alpha virt. eigenvalues --    0.70117   0.70988   0.71707   0.72484   0.72816
 Alpha virt. eigenvalues --    0.73712   0.74273   0.75082   0.75433   0.76160
 Alpha virt. eigenvalues --    0.76834   0.77323   0.78477   0.79007   0.79749
 Alpha virt. eigenvalues --    0.80770   0.82785   0.83435   0.85251   0.85937
 Alpha virt. eigenvalues --    0.86331   0.87438   0.87538   0.89180   0.90075
 Alpha virt. eigenvalues --    0.91282   0.92817   0.93891   0.95044   0.97342
 Alpha virt. eigenvalues --    0.98125   0.99604   1.00063   1.01068   1.02357
 Alpha virt. eigenvalues --    1.02662   1.03961   1.05212   1.05336   1.07466
 Alpha virt. eigenvalues --    1.07743   1.08465   1.09216   1.10822   1.11835
 Alpha virt. eigenvalues --    1.13626   1.14055   1.15268   1.15933   1.16937
 Alpha virt. eigenvalues --    1.17391   1.18233   1.19185   1.20086   1.20609
 Alpha virt. eigenvalues --    1.21981   1.22613   1.23789   1.24781   1.24877
 Alpha virt. eigenvalues --    1.25291   1.26033   1.26902   1.27269   1.28403
 Alpha virt. eigenvalues --    1.28540   1.29241   1.30874   1.31108   1.31373
 Alpha virt. eigenvalues --    1.32111   1.32769   1.33721   1.34762   1.34960
 Alpha virt. eigenvalues --    1.36147   1.36392   1.38108   1.38293   1.38976
 Alpha virt. eigenvalues --    1.39429   1.39983   1.40536   1.41186   1.41852
 Alpha virt. eigenvalues --    1.42972   1.43894   1.44536   1.45489   1.45956
 Alpha virt. eigenvalues --    1.46256   1.46466   1.47092   1.47578   1.48886
 Alpha virt. eigenvalues --    1.49150   1.50010   1.50644   1.51046   1.51866
 Alpha virt. eigenvalues --    1.52395   1.53878   1.54268   1.55359   1.55852
 Alpha virt. eigenvalues --    1.56090   1.56477   1.56743   1.57649   1.58815
 Alpha virt. eigenvalues --    1.59527   1.60745   1.61702   1.62272   1.63172
 Alpha virt. eigenvalues --    1.63490   1.64853   1.65274   1.66374   1.67289
 Alpha virt. eigenvalues --    1.67943   1.69238   1.70503   1.71318   1.72323
 Alpha virt. eigenvalues --    1.73144   1.74153   1.76262   1.76748   1.78237
 Alpha virt. eigenvalues --    1.78679   1.79763   1.81021   1.81965   1.84720
 Alpha virt. eigenvalues --    1.85751   1.87430   1.90620   1.96701   2.03836
 Alpha virt. eigenvalues --    2.05626   2.10006   2.14580   2.19355   2.20269
 Alpha virt. eigenvalues --    2.25204   2.26016   2.28756   2.34301   2.37871
 Alpha virt. eigenvalues --    2.41305   2.42363   2.45064   2.47077   2.52942
 Alpha virt. eigenvalues --    2.56809   2.76102   2.77430   2.78863   2.81647
 Alpha virt. eigenvalues --    2.82408   2.88543   2.91712   2.92618   2.93933
 Alpha virt. eigenvalues --    2.95782   2.99491   3.00044   3.01806   3.03077
 Alpha virt. eigenvalues --    3.05638   3.07461   3.09442   3.10357   3.11528
 Alpha virt. eigenvalues --    3.13490   3.15032   3.18192   3.21107   3.24296
 Alpha virt. eigenvalues --    3.24752   3.29613   3.30994   3.32495   3.33777
 Alpha virt. eigenvalues --    3.35405   3.36223   3.38215   3.38842   3.40874
 Alpha virt. eigenvalues --    3.42970   3.43755   3.44920   3.45807   3.47950
 Alpha virt. eigenvalues --    3.49180   3.49813   3.50446   3.51040   3.52088
 Alpha virt. eigenvalues --    3.52712   3.53810   3.54115   3.55534   3.55763
 Alpha virt. eigenvalues --    3.56658   3.57414   3.58083   3.59092   3.60316
 Alpha virt. eigenvalues --    3.60716   3.62346   3.64545   3.65144   3.65891
 Alpha virt. eigenvalues --    3.66377   3.67025   3.67845   3.69239   3.69841
 Alpha virt. eigenvalues --    3.70561   3.71374   3.72365   3.73310   3.74519
 Alpha virt. eigenvalues --    3.75177   3.75793   3.76851   3.77651   3.78145
 Alpha virt. eigenvalues --    3.78199   3.79817   3.80764   3.82878   3.84608
 Alpha virt. eigenvalues --    3.86720   3.87982   3.89037   3.90288   3.91402
 Alpha virt. eigenvalues --    3.92171   3.94958   3.95618   3.97518   3.98181
 Alpha virt. eigenvalues --    3.99971   4.00639   4.01279   4.03634   4.03899
 Alpha virt. eigenvalues --    4.04716   4.05980   4.06433   4.07186   4.08052
 Alpha virt. eigenvalues --    4.08386   4.08817   4.10113   4.10410   4.11493
 Alpha virt. eigenvalues --    4.12118   4.12419   4.13257   4.14776   4.15287
 Alpha virt. eigenvalues --    4.16566   4.17258   4.19060   4.19352   4.21636
 Alpha virt. eigenvalues --    4.22322   4.23174   4.24303   4.25067   4.26935
 Alpha virt. eigenvalues --    4.28708   4.29608   4.30806   4.31280   4.31899
 Alpha virt. eigenvalues --    4.32909   4.33831   4.35245   4.36953   4.38822
 Alpha virt. eigenvalues --    4.40977   4.43028   4.45241   4.47073   4.49924
 Alpha virt. eigenvalues --    4.58018   4.59919   4.73255   4.75329   4.82655
 Alpha virt. eigenvalues --    4.85851   4.94024   4.96154   5.00210   5.03713
 Alpha virt. eigenvalues --    5.06695   5.07241   5.08286   5.08943   5.11342
 Alpha virt. eigenvalues --    5.12305   5.13922   5.14439   5.32113   5.35162
 Alpha virt. eigenvalues --    5.45304   5.58606   5.59357   5.64109   5.86670
 Alpha virt. eigenvalues --    5.87903   6.01602   7.02974   7.05126   7.06845
 Alpha virt. eigenvalues --    7.10097   7.11514   7.12971   7.13756   7.16861
 Alpha virt. eigenvalues --    7.22312   7.37050   7.39986   7.49184   7.55057
 Alpha virt. eigenvalues --    7.57839   7.63605  23.95746  23.97400  24.05689
 Alpha virt. eigenvalues --   24.08536  24.10133  24.12853  24.13970  24.15957
 Alpha virt. eigenvalues --   24.18648  24.19513  50.16645  50.18985  50.25429
          Condensed to atoms (all electrons):
               1          2          3          4          5          6
     1  C    5.799395   0.229312  -0.002610   0.059456  -0.002918  -0.000237
     2  C    0.229312   7.673690   0.148567  -0.132879   0.048387  -0.008976
     3  C   -0.002610   0.148567   6.724600   0.007140  -0.125361   0.025395
     4  C    0.059456  -0.132879   0.007140   5.702635   0.006029   0.002567
     5  C   -0.002918   0.048387  -0.125361   0.006029   5.514442   0.117220
     6  O   -0.000237  -0.008976   0.025395   0.002567   0.117220   8.296415
     7  C   -0.076486  -0.472026  -0.025640  -0.013154   0.002779   0.000954
     8  C    0.026896  -0.766876  -0.861245   0.056518   0.163873  -0.011831
     9  C    0.000503   0.015480  -0.212280  -0.035590   0.060830  -0.012612
    10  C    0.011090   0.211164   0.083764  -0.004058  -0.265806   0.135650
    11  O   -0.067466   0.184709   0.009141   0.003244  -0.001556  -0.000321
    12  O   -0.023435   0.210857   0.044643  -0.037202  -0.013076   0.024444
    13  C   -0.228843  -1.464735  -0.079940  -0.143699   0.003082  -0.000162
    14  H    0.477047   0.016573   0.001844  -0.009861   0.000094  -0.000024
    15  H    0.435368   0.007647  -0.001314  -0.051387  -0.000083  -0.000010
    16  H    0.000679  -0.002771   0.494614   0.001281  -0.018612   0.001224
    17  H   -0.001094   0.004791   0.000426   0.409758  -0.000094  -0.000048
    18  H   -0.102566  -0.005735  -0.011402   0.501422   0.002902   0.000566
    19  H   -0.119809  -0.006953   0.000574   0.005793   0.000816  -0.000258
    20  H   -0.021675   0.007086  -0.002118  -0.000163  -0.000187  -0.000000
    21  H    0.001897  -0.018230   0.008954   0.001507  -0.119427  -0.011829
    22  H   -0.000099  -0.002841  -0.052361  -0.000021  -0.019863   0.009445
    23  H   -0.001667  -0.015149  -0.061660   0.002520   0.007413  -0.060912
    24  H    0.008715   0.001765   0.016504  -0.008566   0.003496  -0.076013
    25  H   -0.028893  -0.124927  -0.014881  -0.008736   0.000491   0.000181
    26  H   -0.011434  -0.051754   0.006051  -0.028241   0.005787   0.000451
    27  H    0.012992   0.540691  -0.047690  -0.041275   0.004202  -0.002816
    28  H    0.000184  -0.007298  -0.045270  -0.000117   0.440326  -0.065337
    29  H   -0.000280   0.003161   0.008178   0.000030   0.446126  -0.065225
    30  H   -0.002371  -0.011043   0.408796  -0.002073  -0.017978  -0.002275
    31  H    0.008677  -0.032341   0.005949   0.017572  -0.034968   0.008453
               7          8          9         10         11         12
     1  C   -0.076486   0.026896   0.000503   0.011090  -0.067466  -0.023435
     2  C   -0.472026  -0.766876   0.015480   0.211164   0.184709   0.210857
     3  C   -0.025640  -0.861245  -0.212280   0.083764   0.009141   0.044643
     4  C   -0.013154   0.056518  -0.035590  -0.004058   0.003244  -0.037202
     5  C    0.002779   0.163873   0.060830  -0.265806  -0.001556  -0.013076
     6  O    0.000954  -0.011831  -0.012612   0.135650  -0.000321   0.024444
     7  C    5.499553   0.093443   0.002332  -0.033945   0.144165   0.003018
     8  C    0.093443   7.458483  -0.284713  -0.600608  -0.044331   0.008535
     9  C    0.002332  -0.284713   5.731779   0.177693   0.005230  -0.016420
    10  C   -0.033945  -0.600608   0.177693   6.094189  -0.000610  -0.110134
    11  O    0.144165  -0.044331   0.005230  -0.000610   8.202368   0.021331
    12  O    0.003018   0.008535  -0.016420  -0.110134   0.021331   8.244710
    13  C    0.294038   0.258780   0.038197  -0.092492   0.008719   0.039582
    14  H   -0.074984  -0.005798  -0.000530  -0.000155  -0.008008   0.000453
    15  H   -0.037589   0.002388  -0.000180   0.000974   0.010699  -0.000746
    16  H   -0.000067  -0.042878  -0.046928  -0.012445  -0.000615  -0.001434
    17  H    0.008563   0.001330   0.000617   0.000434   0.000359   0.000189
    18  H    0.005366  -0.013375   0.000904   0.004417  -0.000249   0.007915
    19  H    0.499353  -0.001667  -0.001185  -0.007514  -0.037732  -0.011896
    20  H    0.430713   0.001256   0.001669  -0.000015  -0.071855  -0.000069
    21  H   -0.000269   0.005316   0.486038   0.006172   0.000920   0.005954
    22  H   -0.000102  -0.004554   0.441009   0.000806   0.000348   0.000872
    23  H    0.001717  -0.040299   0.026268   0.460625   0.000229   0.014297
    24  H   -0.004006  -0.016804   0.006368   0.412311   0.000182  -0.004015
    25  H    0.016587   0.004998   0.004102   0.001821  -0.008449   0.003831
    26  H    0.004951  -0.002574  -0.003480   0.000369   0.005062   0.004564
    27  H   -0.023988  -0.019113   0.029233   0.019940  -0.087476  -0.062286
    28  H    0.000154   0.042949  -0.007725  -0.023927   0.000162   0.001373
    29  H    0.000097  -0.002100  -0.060263   0.012645  -0.000310   0.001054
    30  H    0.005771  -0.016391  -0.004858   0.000836   0.006566   0.000966
    31  H   -0.010974   0.417195  -0.033333   0.015547   0.000133  -0.031235
              13         14         15         16         17         18
     1  C   -0.228843   0.477047   0.435368   0.000679  -0.001094  -0.102566
     2  C   -1.464735   0.016573   0.007647  -0.002771   0.004791  -0.005735
     3  C   -0.079940   0.001844  -0.001314   0.494614   0.000426  -0.011402
     4  C   -0.143699  -0.009861  -0.051387   0.001281   0.409758   0.501422
     5  C    0.003082   0.000094  -0.000083  -0.018612  -0.000094   0.002902
     6  O   -0.000162  -0.000024  -0.000010   0.001224  -0.000048   0.000566
     7  C    0.294038  -0.074984  -0.037589  -0.000067   0.008563   0.005366
     8  C    0.258780  -0.005798   0.002388  -0.042878   0.001330  -0.013375
     9  C    0.038197  -0.000530  -0.000180  -0.046928   0.000617   0.000904
    10  C   -0.092492  -0.000155   0.000974  -0.012445   0.000434   0.004417
    11  O    0.008719  -0.008008   0.010699  -0.000615   0.000359  -0.000249
    12  O    0.039582   0.000453  -0.000746  -0.001434   0.000189   0.007915
    13  C    6.819361  -0.034396   0.004884  -0.003976  -0.046632  -0.024642
    14  H   -0.034396   0.479143  -0.006438  -0.000018  -0.003638   0.002894
    15  H    0.004884  -0.006438   0.483856   0.000056  -0.007639  -0.005193
    16  H   -0.003976  -0.000018   0.000056   0.423771  -0.000190   0.000058
    17  H   -0.046632  -0.003638  -0.007639  -0.000190   0.467688  -0.009764
    18  H   -0.024642   0.002894  -0.005193   0.000058  -0.009764   0.496799
    19  H    0.021821   0.002850   0.003034  -0.000065  -0.000789   0.001810
    20  H    0.005179  -0.005835  -0.010599  -0.000064   0.001042  -0.002950
    21  H   -0.008130  -0.000171   0.000103   0.005525   0.000006  -0.000639
    22  H    0.002316   0.000007  -0.000011  -0.008020   0.000018  -0.000072
    23  H    0.011271  -0.000045  -0.000033  -0.004949   0.000191   0.001753
    24  H   -0.004888   0.000057  -0.000159  -0.001119  -0.000255  -0.007008
    25  H    0.518012  -0.002280  -0.002136  -0.000140  -0.004785   0.006313
    26  H    0.433874   0.000781  -0.000246  -0.001450  -0.007434  -0.000223
    27  H   -0.078545   0.001437   0.001710  -0.000435   0.000279   0.000733
    28  H    0.002274  -0.000006   0.000005  -0.004520   0.000034  -0.000311
    29  H   -0.000531  -0.000002  -0.000000  -0.001534  -0.000014   0.000232
    30  H    0.018184  -0.000378  -0.000049   0.001077   0.000320  -0.000914
    31  H   -0.005608  -0.000485   0.001299  -0.000054   0.000166  -0.010546
              19         20         21         22         23         24
     1  C   -0.119809  -0.021675   0.001897  -0.000099  -0.001667   0.008715
     2  C   -0.006953   0.007086  -0.018230  -0.002841  -0.015149   0.001765
     3  C    0.000574  -0.002118   0.008954  -0.052361  -0.061660   0.016504
     4  C    0.005793  -0.000163   0.001507  -0.000021   0.002520  -0.008566
     5  C    0.000816  -0.000187  -0.119427  -0.019863   0.007413   0.003496
     6  O   -0.000258  -0.000000  -0.011829   0.009445  -0.060912  -0.076013
     7  C    0.499353   0.430713  -0.000269  -0.000102   0.001717  -0.004006
     8  C   -0.001667   0.001256   0.005316  -0.004554  -0.040299  -0.016804
     9  C   -0.001185   0.001669   0.486038   0.441009   0.026268   0.006368
    10  C   -0.007514  -0.000015   0.006172   0.000806   0.460625   0.412311
    11  O   -0.037732  -0.071855   0.000920   0.000348   0.000229   0.000182
    12  O   -0.011896  -0.000069   0.005954   0.000872   0.014297  -0.004015
    13  C    0.021821   0.005179  -0.008130   0.002316   0.011271  -0.004888
    14  H    0.002850  -0.005835  -0.000171   0.000007  -0.000045   0.000057
    15  H    0.003034  -0.010599   0.000103  -0.000011  -0.000033  -0.000159
    16  H   -0.000065  -0.000064   0.005525  -0.008020  -0.004949  -0.001119
    17  H   -0.000789   0.001042   0.000006   0.000018   0.000191  -0.000255
    18  H    0.001810  -0.002950  -0.000639  -0.000072   0.001753  -0.007008
    19  H    0.502962  -0.015704  -0.000571   0.000043   0.000136  -0.005284
    20  H   -0.015704   0.470943  -0.000080   0.000005  -0.000032   0.000655
    21  H   -0.000571  -0.000080   0.495808  -0.014248  -0.001149  -0.001141
    22  H    0.000043   0.000005  -0.014248   0.478343   0.000080   0.001664
    23  H    0.000136  -0.000032  -0.001149   0.000080   0.469471  -0.008461
    24  H   -0.005284   0.000655  -0.001141   0.001664  -0.008461   0.491696
    25  H   -0.000859   0.000425  -0.000137  -0.000001   0.000570  -0.000604
    26  H    0.000666   0.000185  -0.002854   0.000474   0.000106   0.000050
    27  H    0.000481   0.001761  -0.013433   0.001258  -0.002186   0.002037
    28  H   -0.000134   0.000022   0.003782   0.003244   0.006571  -0.001610
    29  H    0.000235   0.000007  -0.005549  -0.008838  -0.000855   0.001040
    30  H   -0.000265   0.000357   0.006144  -0.009765   0.000666  -0.000648
    31  H    0.001217  -0.000153   0.005596  -0.000158  -0.006711  -0.010838
              25         26         27         28         29         30
     1  C   -0.028893  -0.011434   0.012992   0.000184  -0.000280  -0.002371
     2  C   -0.124927  -0.051754   0.540691  -0.007298   0.003161  -0.011043
     3  C   -0.014881   0.006051  -0.047690  -0.045270   0.008178   0.408796
     4  C   -0.008736  -0.028241  -0.041275  -0.000117   0.000030  -0.002073
     5  C    0.000491   0.005787   0.004202   0.440326   0.446126  -0.017978
     6  O    0.000181   0.000451  -0.002816  -0.065337  -0.065225  -0.002275
     7  C    0.016587   0.004951  -0.023988   0.000154   0.000097   0.005771
     8  C    0.004998  -0.002574  -0.019113   0.042949  -0.002100  -0.016391
     9  C    0.004102  -0.003480   0.029233  -0.007725  -0.060263  -0.004858
    10  C    0.001821   0.000369   0.019940  -0.023927   0.012645   0.000836
    11  O   -0.008449   0.005062  -0.087476   0.000162  -0.000310   0.006566
    12  O    0.003831   0.004564  -0.062286   0.001373   0.001054   0.000966
    13  C    0.518012   0.433874  -0.078545   0.002274  -0.000531   0.018184
    14  H   -0.002280   0.000781   0.001437  -0.000006  -0.000002  -0.000378
    15  H   -0.002136  -0.000246   0.001710   0.000005  -0.000000  -0.000049
    16  H   -0.000140  -0.001450  -0.000435  -0.004520  -0.001534   0.001077
    17  H   -0.004785  -0.007434   0.000279   0.000034  -0.000014   0.000320
    18  H    0.006313  -0.000223   0.000733  -0.000311   0.000232  -0.000914
    19  H   -0.000859   0.000666   0.000481  -0.000134   0.000235  -0.000265
    20  H    0.000425   0.000185   0.001761   0.000022   0.000007   0.000357
    21  H   -0.000137  -0.002854  -0.013433   0.003782  -0.005549   0.006144
    22  H   -0.000001   0.000474   0.001258   0.003244  -0.008838  -0.009765
    23  H    0.000570   0.000106  -0.002186   0.006571  -0.000855   0.000666
    24  H   -0.000604   0.000050   0.002037  -0.001610   0.001040  -0.000648
    25  H    0.441689  -0.008057  -0.004694   0.000049   0.000040   0.001274
    26  H   -0.008057   0.492688  -0.007722  -0.000481   0.000124  -0.002788
    27  H   -0.004694  -0.007722   0.504100  -0.001361   0.001653  -0.031315
    28  H    0.000049  -0.000481  -0.001361   0.504866  -0.005340   0.003131
    29  H    0.000040   0.000124   0.001653  -0.005340   0.477231  -0.001192
    30  H    0.001274  -0.002788  -0.031315   0.003131  -0.001192   0.494819
    31  H   -0.000191  -0.025369  -0.000472   0.004262  -0.000357  -0.002991
              31
     1  C    0.008677
     2  C   -0.032341
     3  C    0.005949
     4  C    0.017572
     5  C   -0.034968
     6  O    0.008453
     7  C   -0.010974
     8  C    0.417195
     9  C   -0.033333
    10  C    0.015547
    11  O    0.000133
    12  O   -0.031235
    13  C   -0.005608
    14  H   -0.000485
    15  H    0.001299
    16  H   -0.000054
    17  H    0.000166
    18  H   -0.010546
    19  H    0.001217
    20  H   -0.000153
    21  H    0.005596
    22  H   -0.000158
    23  H   -0.006711
    24  H   -0.010838
    25  H   -0.000191
    26  H   -0.025369
    27  H   -0.000472
    28  H    0.004262
    29  H   -0.000357
    30  H   -0.002991
    31  H    0.480446
 Mulliken charges:
               1
     1  C   -0.380328
     2  C   -0.179345
     3  C   -0.451365
     4  C   -0.260447
     5  C   -0.208369
     6  O   -0.304082
     7  C   -0.240325
     8  C    0.193196
     9  C   -0.308156
    10  C   -0.498739
    11  O   -0.274587
    12  O   -0.326641
    13  C   -0.262352
    14  H    0.169873
    15  H    0.171789
    16  H    0.224002
    17  H    0.186164
    18  H    0.161505
    19  H    0.168892
    20  H    0.210194
    21  H    0.164137
    22  H    0.181023
    23  H    0.200225
    24  H    0.204878
    25  H    0.209388
    26  H    0.197926
    27  H    0.302299
    28  H    0.150046
    29  H    0.200538
    30  H    0.158389
    31  H    0.240273
 Sum of Mulliken charges =  -0.00000
 Mulliken charges with hydrogens summed into heavy atoms:
               1
     1  C   -0.038666
     2  C    0.122954
     3  C   -0.068974
     4  C    0.087221
     5  C    0.142215
     6  O   -0.304082
     7  C    0.138761
     8  C    0.433469
     9  C    0.037003
    10  C   -0.093636
    11  O   -0.274587
    12  O   -0.326641
    13  C    0.144962
 Electronic spatial extent (au):  <R**2>=           2831.2258
 Charge=             -0.0000 electrons
 Dipole moment (field-independent basis, Debye):
    X=             -0.1495    Y=              3.7499    Z=              2.4344  Tot=              4.4733
 Quadrupole moment (field-independent basis, Debye-Ang):
   XX=            -71.6758   YY=            -81.0898   ZZ=            -80.4962
   XY=              6.4132   XZ=             -3.5541   YZ=             -0.9086
 Traceless Quadrupole moment (field-independent basis, Debye-Ang):
   XX=              6.0782   YY=             -3.3359   ZZ=             -2.7423
   XY=              6.4132   XZ=             -3.5541   YZ=             -0.9086
 Octapole moment (field-independent basis, Debye-Ang**2):
  XXX=              4.7525  YYY=              0.9458  ZZZ=              7.3151  XYY=            -14.1051
  XXY=              7.2227  XXZ=             -1.6374  XZZ=             12.1027  YZZ=             -0.6393
  YYZ=             -2.6374  XYZ=              2.6311
 Hexadecapole moment (field-independent basis, Debye-Ang**3):
 XXXX=          -2657.4315 YYYY=           -536.2098 ZZZZ=           -474.3832 XXXY=             40.0541
 XXXZ=            -20.6641 YYYX=             18.9511 YYYZ=              1.9732 ZZZX=              2.6313
 ZZZY=             -4.6558 XXYY=           -556.4800 XXZZ=           -537.1598 YYZZ=           -158.1059
 XXYZ=             16.4065 YYXZ=              0.5080 ZZXY=             -3.6362
 N-N= 9.060817045457D+02 E-N=-3.254145736469D+03  KE= 6.153239417605D+02
 D1PCM: PCM CHGder 1st derivatives, ID1Alg=3 FixD1E=F DoIter=F DoCFld=F I1PDM=0.
 Calling FoFJK, ICntrl=      2127 FMM=F ISym2X=0 I1Cent= 0 IOpClX= 0 NMat=1 NMatS=1 NMatT=0.
 ***** Axes restored to original set *****
 -------------------------------------------------------------------
 Center     Atomic                   Forces (Hartrees/Bohr)
 Number     Number              X              Y              Z
 -------------------------------------------------------------------
      1        6          -0.002678029   -0.000470482   -0.000825044
      2        6           0.006151020   -0.002286922   -0.006776263
      3        6          -0.001095065   -0.004333174   -0.000207814
      4        6          -0.000509083   -0.000427235    0.003872895
      5        6           0.006532578    0.002775487   -0.000580006
      6        8           0.001167587   -0.008133315    0.001377447
      7        6          -0.000063952    0.006064393   -0.003355667
      8        6           0.000172881    0.000017073    0.004895999
      9        6          -0.000504521    0.000645645   -0.002354483
     10        6          -0.001651671    0.003006395    0.005905304
     11        8          -0.001232877    0.001461960    0.009595648
     12        8          -0.002012107   -0.009906172   -0.003016299
     13        6          -0.000070802   -0.002692616   -0.000983165
     14        1           0.001676061    0.001892194    0.002150120
     15        1           0.001503941   -0.001451475   -0.001914786
     16        1          -0.002160562    0.001869657   -0.002283025
     17        1           0.001482495    0.001528822   -0.001310041
     18        1          -0.002910281   -0.002174866   -0.001714083
     19        1          -0.003555406   -0.002935147   -0.004227596
     20        1           0.002468767   -0.002305478    0.002934960
     21        1           0.002620478   -0.001964877    0.001779769
     22        1          -0.001554015    0.002057462    0.001255253
     23        1          -0.003064654    0.003531979   -0.004333493
     24        1           0.003561068   -0.003044402   -0.001476655
     25        1           0.002049457    0.001757834    0.002093205
     26        1          -0.002900097    0.002688874   -0.002258440
     27        1          -0.002991620    0.004995627    0.006243275
     28        1          -0.003805371    0.003556854   -0.003587809
     29        1          -0.002158704   -0.002422058    0.002874967
     30        1           0.002761255    0.002598410    0.001663548
     31        1           0.002771229    0.004099551   -0.005437721
 -------------------------------------------------------------------
 Cartesian Forces:  Max     0.009906172 RMS     0.003326217

 GradGradGradGradGradGradGradGradGradGradGradGradGradGradGradGradGradGrad
 Berny optimization.
 FormGI is forming the generalized inverse of G from B-inverse, IUseBI=4.
 Internal  Forces:  Max     0.014224340 RMS     0.002162030
 Search for a local minimum.
 Step number   1 out of a maximum of  186
 All quantities printed in internal units (Hartrees-Bohrs-Radians)
 Mixed Optimization -- RFO/linear search
 Second derivative matrix not updated -- first step.
 ITU=  0
     Eigenvalues ---    0.00608   0.00632   0.00715   0.00734   0.01403
     Eigenvalues ---    0.01439   0.01443   0.02688   0.02803   0.03077
     Eigenvalues ---    0.03081   0.04055   0.04342   0.04734   0.04751
     Eigenvalues ---    0.04830   0.04891   0.05027   0.05045   0.05127
     Eigenvalues ---    0.05296   0.05657   0.05860   0.06129   0.06206
     Eigenvalues ---    0.06550   0.06658   0.06918   0.07383   0.07824
     Eigenvalues ---    0.07925   0.07963   0.07975   0.08160   0.08218
     Eigenvalues ---    0.08371   0.09085   0.09392   0.10799   0.11600
     Eigenvalues ---    0.11706   0.11727   0.11769   0.12412   0.12528
     Eigenvalues ---    0.14611   0.14614   0.15982   0.16359   0.17404
     Eigenvalues ---    0.19163   0.21524   0.21840   0.25000   0.28421
     Eigenvalues ---    0.28599   0.28814   0.28849   0.28879   0.28961
     Eigenvalues ---    0.30220   0.30325   0.35037   0.35103   0.35117
     Eigenvalues ---    0.35142   0.35157   0.35186   0.35243   0.35258
     Eigenvalues ---    0.35267   0.35318   0.35520   0.35532   0.35582
     Eigenvalues ---    0.35588   0.35820   0.35862   0.35869   0.35990
     Eigenvalues ---    0.40554   0.41510   0.42317   0.42644   0.44091
     Eigenvalues ---    0.445491000.000001000.000001000.000001000.00000
     Eigenvalues --- 1000.000001000.000001000.000001000.000001000.00000
     Eigenvalues --- 1000.000001000.000001000.000001000.000001000.00000
     Eigenvalues --- 1000.000001000.000001000.000001000.000001000.00000
     Eigenvalues --- 1000.000001000.000001000.000001000.000001000.00000
     Eigenvalues --- 1000.000001000.000001000.000001000.000001000.00000
     Eigenvalues --- 1000.000001000.000001000.000001000.000001000.00000
     Eigenvalues --- 1000.000001000.000001000.000001000.000001000.00000
     Eigenvalues --- 1000.000001000.000001000.000001000.000001000.00000
     Eigenvalues --- 1000.000001000.000001000.000001000.000001000.00000
     Eigenvalues --- 1000.000001000.000001000.000001000.000001000.00000
     Eigenvalues --- 1000.000001000.000001000.000001000.000001000.00000
     Eigenvalues --- 1000.000001000.000001000.000001000.000001000.00000
     Eigenvalues --- 1000.000001000.000001000.000001000.000001000.00000
     Eigenvalues --- 1000.000001000.000001000.000001000.000001000.00000
     Eigenvalues --- 1000.000001000.000001000.000001000.000001000.00000
     Eigenvalues --- 1000.000001000.000001000.000001000.000001000.00000
     Eigenvalues --- 1000.000001000.000001000.000001000.000001000.00000
     Eigenvalues --- 1000.000001000.000001000.000001000.000001000.00000
     Eigenvalues --- 1000.000001000.000001000.000001000.000001000.00000
 RFO step:  Lambda=-3.87001536D-03 EMin= 6.07931618D-03
 Linear search not attempted -- first point.
 Iteration  1 RMS(Cart)=  0.06248080 RMS(Int)=  0.00083361
 Iteration  2 RMS(Cart)=  0.00289237 RMS(Int)=  0.00006355
 Iteration  3 RMS(Cart)=  0.00000292 RMS(Int)=  0.00006353
 Iteration  4 RMS(Cart)=  0.00000000 RMS(Int)=  0.00006353
 Iteration  1 RMS(Cart)=  0.00001973 RMS(Int)=  0.00000436
 Iteration  2 RMS(Cart)=  0.00001055 RMS(Int)=  0.00000487
 Iteration  3 RMS(Cart)=  0.00000564 RMS(Int)=  0.00000549
 Iteration  4 RMS(Cart)=  0.00000302 RMS(Int)=  0.00000589
 Iteration  5 RMS(Cart)=  0.00000161 RMS(Int)=  0.00000612
 Iteration  6 RMS(Cart)=  0.00000086 RMS(Int)=  0.00000624
 Variable       Old X    -DE/DX   Delta X   Delta X   Delta X     New X
                                 (Linear)    (Quad)   (Total)
    R1        2.88855  -0.00105   0.00000  -0.00223  -0.00227   2.88627
    R2        2.87096   0.00019   0.00000   0.00175   0.00179   2.87275
    R3        2.05508   0.00325   0.00000   0.00915   0.00915   2.06424
    R4        2.05283   0.00280   0.00000   0.00786   0.00786   2.06069
    R5        2.64423   0.00062   0.00000   0.00054   0.00059   2.64481
    R6        2.65803   0.00355   0.00000   0.00790   0.00790   2.66593
    R7        2.88080  -0.00050   0.00000  -0.00285  -0.00288   2.87792
    R8        2.04097   0.00851   0.00000   0.02340   0.02340   2.06437
    R9        2.89103  -0.00123   0.00000  -0.00461  -0.00465   2.88638
   R10        2.89102  -0.00122   0.00000  -0.00513  -0.00515   2.88587
   R11        2.05485   0.00366   0.00000   0.01030   0.01030   2.06515
   R12        2.04839   0.00409   0.00000   0.01140   0.01140   2.05978
   R13        2.88830  -0.00172   0.00000  -0.00597  -0.00598   2.88233
   R14        2.05161   0.00250   0.00000   0.00700   0.00700   2.05861
   R15        2.05421   0.00386   0.00000   0.01086   0.01086   2.06507
   R16        2.67604   0.00306   0.00000   0.00741   0.00744   2.68348
   R17        2.87444   0.00042   0.00000   0.00091   0.00088   2.87533
   R18        2.05615   0.00620   0.00000   0.01750   0.01750   2.07364
   R19        2.04364   0.00433   0.00000   0.01197   0.01197   2.05561
   R20        2.66663   0.00207   0.00000   0.00537   0.00539   2.67201
   R21        2.69054   0.00287   0.00000   0.00689   0.00690   2.69744
   R22        2.04819   0.00613   0.00000   0.01708   0.01708   2.06527
   R23        2.04298   0.00447   0.00000   0.01232   0.01232   2.05530
   R24        2.87199  -0.00013   0.00000   0.00014   0.00017   2.87216
   R25        2.68112  -0.00020   0.00000  -0.00046  -0.00046   2.68065
   R26        2.04731   0.00731   0.00000   0.02032   0.02032   2.06763
   R27        2.05244   0.00352   0.00000   0.00989   0.00989   2.06232
   R28        2.05258   0.00284   0.00000   0.00796   0.00796   2.06054
   R29        2.05445   0.00626   0.00000   0.01761   0.01761   2.07206
   R30        2.04287   0.00480   0.00000   0.01323   0.01323   2.05610
   R31        2.05374   0.00341   0.00000   0.00959   0.00959   2.06333
   R32        2.04740   0.00454   0.00000   0.01263   0.01263   2.06003
    A1        1.92466  -0.00126   0.00000  -0.00424  -0.00451   1.92015
    A2        1.91391   0.00091   0.00000   0.00077   0.00087   1.91478
    A3        1.94078  -0.00048   0.00000  -0.00276  -0.00270   1.93808
    A4        1.90665   0.00028   0.00000  -0.00014  -0.00003   1.90662
    A5        1.90119   0.00064   0.00000   0.00322   0.00326   1.90445
    A6        1.87574  -0.00004   0.00000   0.00339   0.00334   1.87909
    A7        1.85267   0.00114   0.00000   0.00499   0.00525   1.85792
    A8        1.93367   0.00404   0.00000   0.01924   0.01912   1.95279
    A9        1.83520  -0.00194   0.00000  -0.00528  -0.00532   1.82987
   A10        1.99331  -0.00489   0.00000  -0.02414  -0.02408   1.96922
   A11        1.91215   0.00256   0.00000   0.01110   0.01096   1.92310
   A12        1.92887  -0.00058   0.00000  -0.00393  -0.00393   1.92493
   A13        1.93789   0.00020   0.00000  -0.01064  -0.01075   1.92713
   A14        1.87041   0.00011   0.00000   0.00829   0.00830   1.87871
   A15        1.94082  -0.00049   0.00000  -0.00658  -0.00654   1.93428
   A16        1.91028  -0.00008   0.00000   0.00594   0.00600   1.91629
   A17        1.93948   0.00020   0.00000   0.00145   0.00136   1.94083
   A18        1.86188   0.00007   0.00000   0.00263   0.00262   1.86450
   A19        1.91030   0.00146   0.00000  -0.00471  -0.00472   1.90558
   A20        1.92979   0.00002   0.00000   0.00339   0.00350   1.93329
   A21        1.91589  -0.00084   0.00000  -0.00148  -0.00162   1.91428
   A22        1.91794  -0.00050   0.00000   0.00202   0.00199   1.91993
   A23        1.92225  -0.00071   0.00000  -0.00474  -0.00472   1.91753
   A24        1.86738   0.00053   0.00000   0.00570   0.00571   1.87309
   A25        1.93957   0.00144   0.00000   0.00766   0.00757   1.94714
   A26        1.90079   0.00108   0.00000   0.00906   0.00913   1.90992
   A27        1.85583  -0.00119   0.00000  -0.00447  -0.00444   1.85139
   A28        1.92805  -0.00143   0.00000  -0.00912  -0.00914   1.91891
   A29        1.94608  -0.00039   0.00000  -0.00393  -0.00392   1.94216
   A30        1.89124   0.00054   0.00000   0.00124   0.00119   1.89243
   A31        1.97894  -0.00354   0.00000  -0.02251  -0.02246   1.95648
   A32        1.94721   0.00263   0.00000   0.00789   0.00792   1.95513
   A33        1.93302  -0.00187   0.00000  -0.00878  -0.00885   1.92417
   A34        1.94535  -0.00024   0.00000  -0.00198  -0.00192   1.94343
   A35        1.90887   0.00011   0.00000   0.00110   0.00114   1.91001
   A36        1.83804  -0.00146   0.00000  -0.00265  -0.00268   1.83536
   A37        1.88811   0.00085   0.00000   0.00480   0.00479   1.89291
   A38        1.91325   0.00067   0.00000   0.00122   0.00112   1.91437
   A39        1.97537  -0.00093   0.00000  -0.01185  -0.01183   1.96354
   A40        1.92358  -0.00091   0.00000  -0.00618  -0.00614   1.91745
   A41        1.85431   0.00018   0.00000   0.00075   0.00077   1.85508
   A42        1.88157   0.00018   0.00000   0.00674   0.00673   1.88830
   A43        1.91239   0.00091   0.00000   0.01047   0.01040   1.92280
   A44        1.92418  -0.00052   0.00000  -0.00888  -0.00897   1.91521
   A45        1.92631   0.00050   0.00000  -0.00167  -0.00166   1.92465
   A46        1.92632  -0.00065   0.00000  -0.00044  -0.00042   1.92590
   A47        1.90780  -0.00028   0.00000  -0.00114  -0.00120   1.90660
   A48        1.90525   0.00077   0.00000   0.00626   0.00632   1.91157
   A49        1.87313   0.00022   0.00000   0.00638   0.00636   1.87949
   A50        1.95604   0.00090   0.00000   0.00416   0.00419   1.96023
   A51        1.91329   0.00122   0.00000   0.01047   0.01046   1.92375
   A52        1.86360  -0.00063   0.00000  -0.00240  -0.00241   1.86119
   A53        1.90305  -0.00150   0.00000  -0.00688  -0.00694   1.89611
   A54        1.92970  -0.00071   0.00000  -0.00970  -0.00972   1.91998
   A55        1.89714   0.00078   0.00000   0.00475   0.00470   1.90184
   A56        2.02878  -0.00586   0.00000  -0.03972  -0.03956   1.98922
   A57        2.09580  -0.01422   0.00000  -0.05603  -0.05603   2.03977
   A58        1.95100  -0.00183   0.00000  -0.01839  -0.01849   1.93250
   A59        1.85867   0.00027   0.00000   0.00796   0.00794   1.86661
   A60        1.92646   0.00069   0.00000  -0.00224  -0.00223   1.92423
   A61        1.91205   0.00137   0.00000   0.00997   0.01010   1.92214
   A62        1.94850  -0.00020   0.00000  -0.00057  -0.00075   1.94775
   A63        1.86281  -0.00018   0.00000   0.00500   0.00497   1.86778
    D1        0.92315   0.00006   0.00000   0.01215   0.01220   0.93535
    D2        3.03835   0.00041   0.00000   0.01376   0.01383   3.05218
    D3       -1.18859   0.00055   0.00000   0.02190   0.02197  -1.16662
    D4       -1.17710  -0.00007   0.00000   0.01450   0.01453  -1.16257
    D5        0.93810   0.00027   0.00000   0.01612   0.01615   0.95425
    D6        2.99435   0.00042   0.00000   0.02426   0.02429   3.01864
    D7        3.03404  -0.00031   0.00000   0.01152   0.01151   3.04555
[...]
 0012738,-0.00086072,0.00073306,0.00376889,0.00459438,-0.00077591,-0.09
 482452,-0.08803191,-0.14565228,0.00035767,-0.00024350,0.00052910,0.000
 21652,0.00028451,0.00004308,0.00001876,-0.00003502,-0.00002154,-0.0002
 9328,0.00065067,0.00054420,0.00319906,-0.00233229,-0.00182039,0.000022
 92,0.00001057,-0.00006865,-0.00006075,-0.00005132,0.00006244,0.0000091
 1,-0.00000404,0.00001194,-0.00000323,-0.00000692,0.00001034,0.00005366
 ,0.00002977,0.00001972,-0.00000916,-0.00002325,-0.00001744,0.09897819,
 0.09636782,0.15937391,-0.00134706,0.00190391,0.00403727,0.01331502,-0.
 00962844,0.00691713,-0.00044803,-0.00019589,-0.00011937,-0.01121025,0.
 01043882,-0.01022043,-0.00000279,-0.00007286,-0.00011217,-0.00005632,-
 0.00002640,0.00005906,-0.00091571,0.00015467,0.00085121,-0.00186326,-0
 .00140735,-0.00109756,0.00007539,-0.00001139,0.00010051,-0.00021036,0.
 00003390,0.00013190,-0.00014148,-0.00498075,0.00376480,0.00094891,0.00
 202288,-0.00092118,-0.14528674,0.10146070,-0.07906576,0.00025307,-0.00
 031749,0.00020783,-0.00047315,0.00121414,-0.00073192,0.00000148,-0.000
 01016,-0.00003828,0.00020998,-0.00060921,-0.00036642,0.00081167,-0.000
 27718,0.00006403,0.00009311,-0.00002726,-0.00009670,0.00014471,-0.0000
 2055,-0.00019613,-0.00000994,0.00001713,-0.00001038,0.00003620,0.00000
 589,-0.00002691,0.00001786,0.00000818,0.00000911,0.00002640,0.00003593
 ,0.00001703,-0.01126618,0.01173382,-0.00888085,0.15922305,0.00132179,-
 0.00040789,-0.00334721,0.01511867,-0.01187758,0.00774533,-0.00005324,0
 .00025590,-0.00014654,0.00902461,-0.01036584,0.00794115,-0.00009092,0.
 00009539,-0.00002948,0.00039895,0.00026971,-0.00010027,-0.00053992,0.0
 0126892,0.00038807,-0.00053585,-0.00076657,0.00080026,0.00013237,-0.00
 008094,0.00014430,-0.00031033,-0.00015682,-0.00050937,-0.00162004,-0.0
 0357317,0.00388755,-0.00010584,0.00120739,-0.00091764,0.09930777,-0.15
 386696,0.08341196,0.00017717,0.00002279,0.00020139,0.00052766,-0.00047
 437,0.00066271,0.00010942,0.00000287,0.00004780,-0.00028044,0.00067221
 ,-0.00015802,-0.00039425,0.00023727,0.00025090,0.00000425,-0.00010506,
 -0.00010133,0.00005518,-0.00003894,-0.00000922,-0.00000860,0.00002188,
 -0.00001820,0.00005371,0.00001353,-0.00006235,0.00001988,-0.00002055,0
 .00001436,0.00002069,0.00006685,0.00003324,-0.01020773,0.01220936,-0.0
 0856858,-0.11083791,0.16531829,0.00240027,-0.00233463,-0.00320163,-0.0
 1450592,0.00746361,-0.00808611,0.00028473,0.00014650,0.00012121,0.0138
 5766,-0.01477980,0.01290597,-0.00001211,-0.00003837,0.00007002,-0.0001
 4003,-0.00008815,0.00002433,0.00113432,-0.00089382,-0.00116398,-0.0008
 6285,-0.00044578,-0.00004399,-0.00006975,-0.00009181,-0.00017998,0.000
 12536,-0.00007150,0.00021216,0.00137771,0.00574863,-0.00289871,0.00011
 517,-0.00014470,0.00025906,-0.07799606,0.08517039,-0.11290864,0.000127
 26,0.00002967,0.00007876,0.00080365,-0.00098381,0.00066721,-0.00008525
 ,-0.00004489,-0.00005392,-0.00064416,0.00081655,0.00083315,-0.00088775
 ,0.00045757,0.00078221,-0.00011465,0.00011892,0.00017873,-0.00018428,0
 .00009395,0.00016473,-0.00000759,-0.00001082,0.00001565,-0.00000127,0.
 00000810,0.00001193,0.00001804,0.00002728,0.00000887,-0.00001842,-0.00
 004087,-0.00002155,-0.01049934,0.01212278,-0.00978834,0.08620616,-0.09
 054794,0.12216089,0.00032785,0.00006888,-0.00004101,-0.11278881,0.0600
 7540,0.09387777,-0.00099628,0.00161799,-0.00056880,-0.00039708,-0.0032
 4850,0.00116018,0.00014678,-0.00038056,-0.00004029,-0.00016100,0.00004
 820,0.00009364,0.00082954,0.00089150,-0.00371166,0.00249904,-0.0014783
 7,0.00112098,-0.00007624,0.00049301,-0.00031774,-0.00006783,0.00025216
 ,-0.00001438,-0.01783258,0.02018470,0.01122355,0.00686763,-0.01899547,
 -0.02446254,-0.00692811,0.00752394,0.01363420,-0.00007985,-0.00006037,
 -0.00006848,-0.00007662,-0.00003941,0.00004641,0.00005238,-0.00032509,
 0.00002187,-0.00062290,0.00056002,0.00063870,0.00001910,0.00008609,0.0
 0012837,-0.00023287,0.00035148,0.00029193,-0.00058779,0.00066290,0.000
 52283,-0.00017589,-0.00047366,0.00033927,0.00001340,-0.00000690,0.0000
 5937,-0.00012744,0.00002897,0.00000979,0.00004514,0.00008979,0.0000713
 8,0.00024964,0.00037051,-0.00037690,0.00020811,-0.00041722,0.00010584,
 0.13191088,0.00035749,-0.00058602,-0.00005814,0.05678284,-0.10691901,-
 0.08203312,0.00034579,-0.00022487,0.00024075,-0.00180847,-0.00333341,0
 .00220984,0.00017237,-0.00019651,-0.00002036,-0.00024032,-0.00003832,0
 .00015203,0.00050678,-0.00021971,0.00418017,0.00240384,-0.00183069,0.0
 0105619,-0.00018066,0.00009075,-0.00013756,-0.00000805,0.00037764,-0.0
 0033090,0.02332848,-0.02018617,-0.01338477,-0.00315341,-0.01416881,-0.
 02332674,-0.01141539,0.01210262,0.01471152,-0.00001374,0.00007389,-0.0
 0006689,0.00003886,0.00023777,-0.00022481,-0.00010886,0.00031913,0.000
 19872,-0.00091230,0.00069155,0.00091119,0.00008355,0.00006357,0.000129
 66,-0.00005634,-0.00005425,-0.00014760,0.00074714,-0.00065293,-0.00067
 875,-0.00040503,-0.00019088,0.00015171,0.00004523,-0.00004601,0.000083
 70,-0.00023192,-0.00007062,-0.00002765,-0.00001083,0.00008687,0.000056
 39,0.00053810,0.00080176,-0.00080630,0.00093685,0.00032708,-0.00056015
 ,-0.06898263,0.13348137,-0.00039047,0.00042908,-0.00006213,0.09953158,
 -0.08962293,-0.18605589,-0.00050229,-0.00022940,-0.00019624,0.00143172
 ,0.00385661,-0.00062093,0.00021703,-0.00013807,-0.00019084,-0.00024408
 ,-0.00005261,0.00009613,-0.00144501,0.00247049,-0.00086047,0.00281368,
 -0.00260135,0.00179142,-0.00013460,0.00000543,0.00031775,-0.00020401,0
 .00042100,-0.00009612,-0.01345061,0.01349128,0.01424856,-0.00527875,-0
 .01746348,-0.01832778,0.01155635,-0.00939084,-0.01172032,0.00003129,-0
 .00006897,0.00004871,-0.00002773,-0.00024207,0.00011676,0.00027984,0.0
 0037812,0.00029981,0.00078583,-0.00080365,-0.00079742,-0.00028783,-0.0
 0002556,0.00012211,-0.00017949,0.00030014,0.00015040,-0.00045723,0.000
 43342,0.00038779,-0.00025654,-0.00000510,0.00007809,0.00007634,-0.0000
 4185,0.00003326,-0.00022632,-0.00005944,-0.00004295,0.00005873,0.00015
 385,0.00009121,0.00009805,0.00037406,0.00071060,-0.00058350,-0.0001315
 0,0.00022881,-0.09244492,0.09702850,0.20051552,0.00000128,0.00000042,0
 .00000486,0.00020076,0.00002844,0.00013556,0.00050815,0.00135883,-0.00
 031636,0.00000127,-0.00001298,-0.00000011,-0.14191546,0.05593278,-0.09
 812935,-0.02037400,0.02046849,-0.00250822,0.00002563,-0.00001410,-0.00
 002139,-0.00040759,-0.00007018,0.00029111,-0.01129837,0.00613788,-0.01
 490300,0.00137251,0.00179378,-0.00384092,-0.00007597,0.00004362,-0.000
 01717,-0.00011225,-0.00020542,0.00005496,-0.00002886,-0.00000385,-0.00
 001272,-0.00000187,-0.00000116,-0.00000184,-0.00000446,0.00000212,0.00
 000161,-0.00017670,-0.00042608,0.00043297,-0.00000924,0.00000069,0.000
 00486,0.00000544,-0.00000284,-0.00000683,0.00000001,-0.00000352,0.0000
 0250,-0.00000706,0.00000418,0.00000024,-0.00106924,-0.00264796,-0.0016
 4142,0.00054069,-0.00020539,0.00002366,-0.00001769,-0.00064585,0.00073
 188,0.00019340,-0.00020261,0.00039471,-0.00001632,-0.00000752,0.000002
 50,0.00000639,0.00001193,-0.00000120,0.00005821,0.00000653,-0.00000420
 ,0.16028951,0.00000120,-0.00000168,-0.00000410,-0.00012612,-0.00014907
 ,-0.00024493,0.00046149,0.00136217,-0.00093400,-0.00001178,-0.00000964
 ,0.00001129,0.05765186,-0.08926569,0.06925620,0.02675657,-0.02004999,0
 .00541759,-0.00002064,0.00001026,0.00000144,-0.00000980,-0.00003187,-0
 .00048910,-0.01624828,0.00933859,-0.01596675,-0.00311011,-0.00065748,0
 .00273464,0.00005949,-0.00000315,0.00006322,0.00028647,0.00020444,0.00
 027309,0.00001590,0.00006479,0.00004318,0.00000149,0.00000106,0.000000
 97,0.00000244,-0.00000219,-0.00000065,0.00036299,-0.00013701,0.0002928
 1,0.00000305,0.00000312,0.00000053,-0.00000457,0.00000265,0.00000715,-
 0.00000114,0.00000486,-0.00000039,0.00000206,-0.00000039,0.00000246,-0
 .00338929,-0.00282875,-0.00202997,0.00096313,0.00088513,0.00065621,0.0
 0008102,0.00075166,-0.00082732,-0.00013326,0.00009844,-0.00037805,0.00
 002179,0.00000506,-0.00000171,-0.00000023,-0.00002313,0.00000921,0.000
 05496,0.00006788,0.00005256,-0.07423772,0.10607745,0.00000146,0.000003
 06,0.00000711,0.00023576,0.00007721,0.00005074,0.00119865,0.00043620,0
 .00059885,-0.00000337,-0.00001373,-0.00000177,-0.10067505,0.07143473,-
 0.16467238,0.01623848,-0.01098659,0.01127709,0.00002749,-0.00001956,-0
 .00002770,0.00006128,0.00015727,-0.00025305,-0.01033344,0.00687080,-0.
 01169244,0.00092890,-0.00260357,0.00415955,-0.00010037,0.00004678,-0.0
 0001894,-0.00032138,-0.00005640,-0.00006423,-0.00001017,0.00002251,0.0
 0001720,-0.00000208,-0.00000088,-0.00000204,-0.00000524,0.00000213,0.0
 0000212,-0.00023648,-0.00027851,0.00062825,-0.00000985,0.00000078,0.00
 000629,0.00000567,-0.00000303,-0.00000630,0.00000030,-0.00000155,0.000
 00300,-0.00000763,0.00000537,0.00000085,-0.00185674,-0.00299817,-0.000
 30786,0.00026380,-0.00004497,0.00022912,-0.00166114,0.00034537,0.00013
 143,-0.00019222,-0.00001561,0.00011156,-0.00000940,-0.00000540,-0.0000
 0062,0.00001221,0.00000858,-0.00000260,0.00009391,0.00002180,0.0000066
 7,0.10910382,-0.07006285,0.17238900,-0.00000061,0.00000432,0.00001332,
 0.00030845,0.00005987,0.00019557,-0.00071140,-0.00218416,-0.00273470,0
 .,-0.00001001,-0.00001603,-0.12074824,-0.07322468,0.08643450,-0.016153
 74,-0.00664107,0.02078359,0.00003918,-0.00002580,-0.00003410,0.0004814
 0,0.00001934,0.00017509,-0.00906820,-0.01098624,0.01134191,-0.00044049
 ,0.00393222,-0.00055524,-0.00014272,0.00007904,-0.00005238,-0.00035028
 ,-0.00003358,-0.00016737,-0.00001552,-0.00002309,-0.00000310,-0.000003
 29,-0.00000142,-0.00000340,-0.00000792,0.00000560,0.00000137,0.0000618
 5,-0.00015671,0.00023076,-0.00001387,-0.00000063,0.00000686,0.00000994
 ,-0.00000522,-0.00001084,0.00000093,-0.00000541,0.00000574,-0.00001101
 ,0.00000688,-0.00000087,0.00043961,0.00077471,0.00048216,0.00042532,-0
 .00000632,-0.00015605,0.00006593,-0.00026400,0.00038751,-0.00050967,-0
 .00050150,0.00085344,-0.00003078,-0.00000614,-0.00000135,0.00002258,0.
 00003720,-0.00001726,0.00000911,-0.00002158,0.00000607,0.01215290,0.01
 011489,-0.01284382,0.13477687,-0.00000111,0.00000746,0.00001463,0.0002
 2354,-0.00007604,0.00001527,-0.00266819,-0.00271660,-0.00391114,-0.000
 01276,-0.00000703,-0.00002211,-0.08135069,-0.13328985,0.10515771,0.018
 40499,0.01261273,-0.02255388,0.00002137,-0.00001584,-0.00003100,0.0007
 1648,-0.00044278,-0.00067784,-0.01065468,-0.01105800,0.01622480,0.0023
 6814,-0.00298828,-0.00175505,-0.00008982,0.00007944,0.00000478,-0.0002
 7341,0.00017990,0.00004041,0.00000465,0.00000121,0.00003865,-0.0000014
 2,-0.00000154,-0.00000226,-0.00000721,0.00000501,0.00000041,0.00030523
 ,0.00025685,-0.00027690,-0.00000986,0.00000098,0.00000755,0.00000235,-
 0.00000152,-0.00000403,-0.00000163,-0.00000029,0.00000420,-0.00000863,
 0.00000638,0.00000122,0.00034113,0.00110750,-0.00033337,0.00059600,0.0
 0033946,0.00001633,-0.00008730,0.00009958,-0.00024742,0.00073549,0.000
 47850,-0.00086887,-0.00001961,-0.00000006,-0.00000317,0.00002512,0.000
 03456,-0.00002977,0.00001525,0.00000605,0.00006048,-0.00687771,-0.0058
 6824,0.00772788,0.07956989,0.14158079,-0.00000221,0.00000071,0.0000008
 8,-0.00007797,-0.00009268,-0.00009769,-0.00184232,-0.00237306,-0.00138
 017,-0.00001204,0.00000419,-0.00000778,0.08997555,0.09683785,-0.166362
 11,0.01435136,0.00515864,-0.01658550,-0.00001872,0.00000768,0.00000799
 ,-0.00005346,-0.00025519,-0.00047209,-0.00987322,-0.00878947,0.0126654
 7,0.00071294,-0.00401447,0.00085034,0.00005137,-0.00000841,0.00003632,
 0.00016941,0.00020266,0.00015485,0.00001337,0.00001670,0.00003584,0.00
 000101,0.00000042,0.00000074,0.00000101,0.00000028,-0.00000168,0.00005
 004,-0.00016275,0.00008688,0.00000301,0.00000080,-0.00000041,-0.000004
 36,0.00000077,0.00000462,-0.00000140,0.00000309,-0.00000256,0.00000359
 ,-0.00000099,0.00000071,0.00052558,0.00063299,0.00076460,0.00083232,0.
 00079311,0.00033918,-0.00019867,-0.00005081,0.00024699,0.00092797,0.00
 043550,-0.00059477,0.00000881,0.00000518,-0.00000288,0.00001217,-0.000
 00073,-0.00000976,0.00001945,0.00000765,0.00002974,0.01007181,0.011980
 59,-0.01273076,-0.10506166,-0.09994601,0.18226236,0.00002093,-0.000003
 53,-0.00010377,-0.00126033,0.00090582,-0.00176064,-0.14126150,-0.10859
 103,-0.06761845,0.00005524,0.00003753,0.00014297,-0.00183611,-0.000786
 39,0.00491430,0.00070168,-0.00031561,-0.00103887,-0.00004185,0.0001061
 4,0.00004093,0.01343352,0.01389317,0.00856204,-0.01136058,-0.01151578,
 -0.00915566,-0.00281264,0.00218307,0.00241923,-0.00004127,-0.00004531,
 0.00024247,0.00121390,-0.00210154,-0.00047935,-0.00027920,0.00001973,-
 0.00003533,0.00000079,0.00000374,0.00000238,0.00002909,-0.00003194,0.0
 0001767,-0.01148856,-0.01282277,-0.00807142,0.00003607,-0.00000864,-0.
 00003087,-0.00000966,-0.00001633,-0.00001323,-0.00000589,0.00001958,0.
 00001070,0.00000926,-0.00000584,0.00001027,0.00078337,0.00028468,0.000
 05606,0.00016559,0.00052786,-0.00040736,0.00005273,0.00005506,0.000102
 37,0.00063471,0.00087889,0.00041505,0.00000891,0.00000005,-0.00003931,
 -0.00057737,-0.00006798,0.00057691,-0.00189302,0.00158287,-0.00065717,
 0.00029892,0.00032935,0.00015978,-0.00047445,-0.00128059,-0.00061686,0
 .15546056,-0.00001077,0.00007075,0.00008845,0.00088625,-0.00140986,-0.
 00062168,-0.10752276,-0.17271403,-0.07821113,-0.00014108,-0.00009302,-
 0.00015398,-0.00097941,0.00039221,0.00348127,-0.00006499,0.00043810,0.
 00020501,0.00003214,-0.00009006,-0.00024045,-0.01399413,-0.01641109,-0
 .01065304,-0.00850816,-0.00995047,-0.00580253,0.00474182,-0.00107990,-
 0.00197229,-0.00047744,0.00068521,0.00036987,-0.00036356,0.00177923,0.
 00084381,0.00001434,0.00023305,0.00027138,-0.00000268,-0.00001101,-0.0
 0000811,-0.00004130,0.00003150,0.00000106,0.00901869,0.01158370,0.0064
 5845,-0.00005141,0.00002474,0.00006356,0.00000700,0.00002563,0.0000191
 1,-0.00000370,0.00001881,0.00003126,-0.00005817,0.00005680,0.00003034,
 0.00034398,0.00021321,-0.00019979,0.00021737,0.00060984,0.00016185,-0.
 00019634,0.00014615,-0.00012990,-0.00091465,-0.00090113,-0.00041495,-0
 .00010788,0.00000773,-0.00005580,0.00001153,0.00017767,-0.00014894,0.0
 0083745,-0.00032554,0.00116454,-0.00015300,0.00000710,-0.00019992,-0.0
 0044249,-0.00054166,-0.00056721,0.11765232,0.18639750,-0.00002438,0.00
 003607,0.00006136,-0.00087308,0.00004941,-0.00024583,-0.06744661,-0.07
 985356,-0.09711769,-0.00006407,0.00008452,-0.00018162,0.00310648,0.001
 25215,-0.00456628,-0.00115781,-0.00000160,0.00095038,-0.00005635,0.000
 01051,-0.00002755,-0.01234640,-0.01005101,-0.00866114,0.01502918,0.017
 27151,0.01190404,0.00403120,-0.00188935,-0.00191020,0.00009661,0.00022
 938,0.00018033,0.00027734,0.00074455,0.00069862,0.00031124,-0.00023185
 ,0.00019434,0.00000108,-0.00000351,-0.00000243,-0.00001506,0.00002535,
 -0.00001273,-0.01163701,-0.01421969,-0.00933575,0.00000486,-0.00000564
 ,0.00000855,-0.00000647,0.00000946,0.00001870,0.00000328,0.00001272,0.
 00000293,-0.00000828,0.00001320,0.00000509,-0.00094262,-0.00041771,0.0
 0083519,-0.00065994,-0.00080892,0.00086521,0.00026547,0.00027604,0.000
 30842,-0.00077107,-0.00115989,-0.00011136,-0.00006116,0.00004476,-0.00
 006051,0.00048722,0.00013312,-0.00033380,-0.00124065,0.00104731,-0.000
 12073,0.00014659,0.00004570,0.00008581,0.00081614,0.00111201,0.0006774
 8,0.07307046,0.08576803,0.10567780,0.00004929,0.00022458,0.00001344,0.
 00300368,0.00170531,0.00035260,-0.00831251,-0.00731043,0.01238302,-0.0
 0011505,-0.00043289,-0.00024324,0.00132640,-0.00037396,-0.00056658,-0.
 00332841,-0.00441926,-0.00099428,0.00016688,-0.00009736,-0.00012421,-0
 .11194332,-0.05769882,0.09566972,-0.00049425,0.00357300,0.00093359,-0.
 00864429,-0.00568148,0.01661876,-0.00069381,-0.00013555,0.00005186,0.0
 0639496,0.01658532,-0.02623175,-0.00099028,-0.00120465,-0.00054940,0.0
 0004320,-0.00003840,0.00008074,0.00001367,-0.00001877,0.00002169,0.000
 12014,-0.00012486,-0.00015959,0.00002300,0.00002016,0.00006613,-0.0001
 6246,0.00049457,0.00026604,0.00001994,-0.00000753,0.00000865,-0.000035
 65,0.00000814,0.00001951,0.00000862,-0.00008495,0.00013705,-0.00058259
 ,-0.00053347,0.00070863,-0.00008059,0.00047004,0.00001524,0.00079991,0
 .00003607,-0.00036036,0.00010477,0.00029077,0.00001102,-0.00158529,-0.
 00085098,-0.00108518,-0.00019252,-0.00032720,-0.00011177,-0.00014000,0
 .00012277,-0.00006312,-0.00011187,0.00001500,0.00003212,0.00043716,0.0
 0027105,-0.00033619,0.12490125,-0.00003581,-0.00009633,-0.00009107,-0.
 00227896,-0.00136324,-0.00219301,0.01265677,0.01092084,-0.01813131,0.0
 0017547,0.00008712,0.00018826,0.00066321,-0.00129834,-0.00090576,-0.00
 482704,-0.00360126,-0.00062025,-0.00031100,0.00014985,0.00020031,-0.05
 530043,-0.09609177,0.07896420,0.00221760,-0.00365746,-0.00213920,-0.01
 132204,-0.00838854,0.01822752,0.00088161,-0.00008491,0.00027474,0.0026
 0210,-0.01104300,0.02039776,-0.00022659,-0.00018820,-0.00007605,-0.000
 01307,0.00005106,-0.00001903,0.00003193,0.00000332,-0.00001081,-0.0005
 8307,0.00092697,0.00081820,-0.00002984,-0.00005333,-0.00008205,0.00038
 150,-0.00020438,-0.00011477,-0.00001159,0.00001924,-0.00001171,0.00005
 480,-0.00002000,-0.00001108,-0.00010128,0.00003959,-0.00010538,0.00093
 941,0.00063388,-0.00101342,0.00019349,0.00086505,-0.00041484,0.0009345
 4,0.00040616,0.00025480,0.00019213,0.00028392,-0.00019823,-0.00158035,
 -0.00044388,-0.00095741,0.00019498,0.00031580,0.00025724,-0.00007179,0
 .00014363,0.00013026,-0.00006392,0.00021133,0.00017297,-0.00088656,0.0
 0062884,0.00047692,0.05552377,0.11084802,0.00008701,0.00001741,-0.0000
 4915,0.00420016,0.00320699,0.00151903,0.01097229,0.00733259,-0.0122297
 2,-0.00017705,0.00001093,0.00030117,0.00005405,-0.00088879,-0.00067709
 ,-0.00298288,-0.00316399,0.00086113,0.00035557,-0.00005055,-0.00022339
 ,0.09470972,0.07714508,-0.19138016,0.00157573,-0.00355870,-0.00012766,
 -0.00454385,-0.00391469,0.00990589,-0.00133508,-0.00019336,-0.00016721
 ,-0.00586947,0.01645213,-0.02199643,-0.00060947,0.00026084,-0.00016606
 ,0.00000996,-0.00004484,0.00001422,0.00000097,-0.00005790,0.00004036,0
 .00011171,-0.00021923,0.00057862,0.00006285,0.00004438,0.00002679,-0.0
 0026752,0.00000397,0.00004785,0.00001793,-0.00004306,-0.00000541,-0.00
 007238,0.00000655,0.00001120,-0.00025309,0.00000379,0.00011311,0.00069
 935,0.00070331,-0.00070589,0.00036158,0.00082000,0.00055107,0.00061063
 ,0.00040622,0.00019842,0.00021762,-0.00035469,0.00032627,-0.00041007,-
 0.00102236,-0.00003067,-0.00017206,-0.00038338,-0.00018151,0.00000109,
 0.00009096,0.00007605,-0.00007584,0.00023648,0.00008317,-0.00071533,0.
 00042172,0.00021336,-0.09656415,-0.09326781,0.21307265\\0.00000448,0.0
 0000969,0.00000892,0.00008507,0.00002340,-0.00026975,0.00001722,0.0000
 1494,0.00001131,0.00000685,0.00002870,-0.00002019,-0.00001291,-0.00000
 338,0.00000679,0.00000240,-0.00000246,0.00000516,-0.00002055,0.0000030
 6,0.00000570,-0.00023910,-0.00000531,0.00027684,0.00000109,-0.00000245
 ,0.00001785,0.00000564,0.00001843,-0.00003735,-0.00016672,-0.00005111,
 0.00030091,0.00027011,0.00003416,-0.00031968,0.00002727,0.00000322,-0.
 00001242,-0.00001265,-0.00000433,-0.00001118,-0.00000124,-0.00000046,0
 .00001653,0.00001852,-0.00002088,0.00000047,-0.00002010,-0.00001576,0.
 00001159,0.00001100,0.00000961,0.00000699,0.00002232,0.00002027,0.0000
 2294,-0.00001227,0.00002394,-0.00000819,-0.00000909,0.00000453,-0.0000
 1548,0.00000169,-0.00002374,-0.00000364,0.00001541,-0.00001925,0.00001
 205,-0.00001962,0.00002123,0.00001685,-0.00000439,0.00000079,-0.000007
 40,-0.00000250,-0.00000499,0.00002372,0.00002438,-0.00003424,-0.000028
 88,0.00001382,-0.00001266,0.00001438,0.00001332,0.00001071,-0.00002473
 ,-0.00001025,-0.00001437,-0.00001126,-0.00000922,-0.00001128,0.0000111
 6\\\@


 GOORD'S AXIOM:  A MEETING IS AN EVENT AT WHICH
 THE MINUTES ARE KEPT AND THE HOURS ARE LOST.
 Job cpu time:       0 days 14 hours 37 minutes  7.3 seconds.
 Elapsed time:       0 days  0 hours 54 minutes 53.0 seconds.
 File lengths (MBytes):  RWF=    684 Int=      0 D2E=      0 Chk=     32 Scr=      1
 Normal termination of Gaussian 16 at Mon Nov  5 03:33:38 2018.
