 Entering Gaussian System, Link 0=g16
 Initial command:
 /apps/gaussian/g16a03/g16/l1.exe "/jobfs/local/2011891.r-man2/Gau-19884.inp" -scrdir="/jobfs/local/2011891.r-man2/"
 Entering Link 1 = /apps/gaussian/g16a03/g16/l1.exe PID=     19885.
  
 Copyright (c) 1988,1990,1992,1993,1995,1998,2003,2009,2016,
            Gaussian, Inc.  All Rights Reserved.
  
 This is part of the Gaussian(R) 16 program.  It is based on
 the Gaussian(R) 09 system (copyright 2009, Gaussian, Inc.),
 the Gaussian(R) 03 system (copyright 2003, Gaussian, Inc.),
 the Gaussian(R) 98 system (copyright 1998, Gaussian, Inc.),
 the Gaussian(R) 94 system (copyright 1995, Gaussian, Inc.),
 the Gaussian 92(TM) system (copyright 1992, Gaussian, Inc.),
 the Gaussian 90(TM) system (copyright 1990, Gaussian, Inc.),
 the Gaussian 88(TM) system (copyright 1988, Gaussian, Inc.),
 the Gaussian 86(TM) system (copyright 1986, Carnegie Mellon
 University), and the Gaussian 82(TM) system (copyright 1983,
 Carnegie Mellon University). Gaussian is a federally registered
 trademark of Gaussian, Inc.
  
 This software contains proprietary and confidential information,
 including trade secrets, belonging to Gaussian, Inc.
  
 This software is provided under written license and may be
 used, copied, transmitted, or stored only in accord with that
 written license.
  
 The following legend is applicable only to US Government
 contracts under FAR:
  
                    RESTRICTED RIGHTS LEGEND
  
 Use, reproduction and disclosure by the US Government is
 subject to restrictions as set forth in subparagraphs (a)
 and (c) of the Commercial Computer Software - Restricted
 Rights clause in FAR 52.227-19.
  
 Gaussian, Inc.
 340 Quinnipiac St., Bldg. 40, Wallingford CT 06492
  
  
 ---------------------------------------------------------------
 Warning -- This program may not be used in any manner that
 competes with the business of Gaussian, Inc. or will provide
 assistance to any competitor of Gaussian, Inc.  The licensee
 of this program is prohibited from giving any competitor of
 Gaussian, Inc. access to this program.  By using this program,
 the user acknowledges that Gaussian, Inc. is engaged in the
 business of creating and licensing software in the field of
 computational chemistry and represents and warrants to the
 licensee that it is not a competitor of Gaussian, Inc. and that
 it will not use this program in any manner prohibited above.
 ---------------------------------------------------------------
  

 Cite this work as:
 Gaussian 16, Revision A.03,
 M. J. Frisch, G. W. Trucks, H. B. Schlegel, G. E. Scuseria, 
 M. A. Robb, J. R. Cheeseman, G. Scalmani, V. Barone, 
 G. A. Petersson, H. Nakatsuji, X. Li, M. Caricato, A. V. Marenich, 
 J. Bloino, B. G. Janesko, R. Gomperts, B. Mennucci, H. P. Hratchian, 
 J. V. Ortiz, A. F. Izmaylov, J. L. Sonnenberg, D. Williams-Young, 
 F. Ding, F. Lipparini, F. Egidi, J. Goings, B. Peng, A. Petrone, 
 T. Henderson, D. Ranasinghe, V. G. Zakrzewski, J. Gao, N. Rega, 
 G. Zheng, W. Liang, M. Hada, M. Ehara, K. Toyota, R. Fukuda, 
 J. Hasegawa, M. Ishida, T. Nakajima, Y. Honda, O. Kitao, H. Nakai, 
 T. Vreven, K. Throssell, J. A. Montgomery, Jr., J. E. Peralta, 
 F. Ogliaro, M. J. Bearpark, J. J. Heyd, E. N. Brothers, K. N. Kudin, 
 V. N. Staroverov, T. A. Keith, R. Kobayashi, J. Normand, 
 K. Raghavachari, A. P. Rendell, J. C. Burant, S. S. Iyengar, 
 J. Tomasi, M. Cossi, J. M. Millam, M. Klene, C. Adamo, R. Cammi, 
 J. W. Ochterski, R. L. Martin, K. Morokuma, O. Farkas, 
 J. B. Foresman, and D. J. Fox, Gaussian, Inc., Wallingford CT, 2016.
 
 ******************************************
 Gaussian 16:  ES64L-G16RevA.03 25-Dec-2016
                 5-Nov-2018 
 ******************************************
 %mem=6000mb
 %nproc=24
 Will use up to   24 processors via shared memory.
 %chk=D_1a_4a_L_PHI.inp_extract_2.chk
 ----------------------------------------------------------------------
 #M062X/6-311++G(2d,2p) opt=ModRedundant freq=noraman SCRF=(Solvent=Wat
 er)
 ----------------------------------------------------------------------
 1/18=120,19=15,26=3,38=1/1,3;
 2/9=110,12=2,17=6,18=5,40=1/2;
 3/5=4,6=6,7=1212,11=2,25=1,30=1,70=2201,71=1,72=1,74=-55/1,2,3;
 4//1;
 5/5=2,38=5,53=1/2;
 6/7=2,8=2,9=2,10=2,28=1/1;
 7//1,2,3,16;
 1/18=20,19=15,26=3/3(2);
 2/9=110/2;
 99//99;
 2/9=110/2;
 3/5=4,6=6,7=1212,11=2,25=1,30=1,70=2205,71=1,72=1,74=-55/1,2,3;
 4/5=5,16=3,69=1/1;
 5/5=2,38=5,53=1/2;
 7//1,2,3,16;
 1/18=20,19=15,26=3/3(-5);
 2/9=110/2;
 6/7=2,8=2,9=2,10=2,19=2,28=1/1;
 99/9=1/99;
 ---------------------------
 D_1a_4a_L_PHI.inp_extract_2
 ---------------------------
 Symbolic Z-matrix:
 Charge =  0 Multiplicity = 1
 C                     3.34213  -0.28778  -0.72556 
 C                     1.12355   0.11956   1.13308 
 C                    -1.76147   1.16041  -0.94332 
 C                     2.7759    1.11606  -0.53418 
 C                    -3.5519   -0.2449    0.09373 
 O                    -2.55612  -1.15985   0.51275 
 C                     2.25213  -1.32457  -0.52126 
 C                    -0.75117   0.08879  -0.53556 
 C                    -2.98439   1.16059  -0.02381 
 C                    -1.46366  -1.24921  -0.37802 
 O                     1.5278   -1.14573   0.69465 
 O                    -0.15879   0.50941   0.68255 
 C                     2.16272   1.20319   0.8605 
 H                     4.14546  -0.45481  -0.01209 
 H                     3.7573   -0.41923  -1.72054 
 H                    -2.07848   0.94671  -1.96134 
 H                     3.55752   1.86201  -0.63936 
 H                     2.02967   1.32585  -1.29635 
 H                     1.5645   -1.31751  -1.35699 
 H                     2.66963  -2.31915  -0.44808 
 H                    -2.7162    1.52229   0.96424 
 H                    -3.75007   1.82496  -0.41415 
 H                    -1.81664  -1.57616  -1.35393 
 H                    -0.80364  -2.00331   0.01994 
 H                     2.95414   1.08211   1.59623 
 H                     1.70157   2.16756   1.04144 
 H                     0.99755   0.01165   2.19921 
 H                    -3.95523  -0.57536  -0.86137 
 H                    -4.34128  -0.29397   0.8315 
 H                    -1.2785    2.13182  -0.95253 
 H                    -0.00344   0.00112  -1.30903 
 
 The following ModRedundant input section has been read:
 D      11       2      12       8 F                                           
 

 GradGradGradGradGradGradGradGradGradGradGradGradGradGradGradGradGradGrad
 Berny optimization.
 Initialization pass.
                           ----------------------------
                           !    Initial Parameters    !
                           ! (Angstroms and Degrees)  !
 --------------------------                            --------------------------
 ! Name  Definition              Value          Derivative Info.                !
 --------------------------------------------------------------------------------
 ! R1    R(1,4)                  1.5258         estimate D2E/DX2                !
 ! R2    R(1,7)                  1.5182         estimate D2E/DX2                !
 ! R3    R(1,14)                 1.0873         estimate D2E/DX2                !
 ! R4    R(1,15)                 1.0861         estimate D2E/DX2                !
 ! R5    R(2,11)                 1.3988         estimate D2E/DX2                !
 ! R6    R(2,12)                 1.414          estimate D2E/DX2                !
 ! R7    R(2,13)                 1.5259         estimate D2E/DX2                !
 ! R8    R(2,27)                 1.079          estimate D2E/DX2                !
 ! R9    R(3,8)                  1.5282         estimate D2E/DX2                !
 ! R10   R(3,9)                  1.53           estimate D2E/DX2                !
 ! R11   R(3,16)                 1.0874         estimate D2E/DX2                !
 ! R12   R(3,30)                 1.0849         estimate D2E/DX2                !
 ! R13   R(4,13)                 1.526          estimate D2E/DX2                !
 ! R14   R(4,17)                 1.0856         estimate D2E/DX2                !
 ! R15   R(4,18)                 1.0871         estimate D2E/DX2                !
 ! R16   R(5,6)                  1.4157         estimate D2E/DX2                !
 ! R17   R(5,9)                  1.5203         estimate D2E/DX2                !
 ! R18   R(5,28)                 1.0882         estimate D2E/DX2                !
 ! R19   R(5,29)                 1.0816         estimate D2E/DX2                !
 ! R20   R(6,10)                 1.4124         estimate D2E/DX2                !
 ! R21   R(7,11)                 1.4266         estimate D2E/DX2                !
 ! R22   R(7,19)                 1.0823         estimate D2E/DX2                !
 ! R23   R(7,20)                 1.0811         estimate D2E/DX2                !
 ! R24   R(8,10)                 1.524          estimate D2E/DX2                !
 ! R25   R(8,12)                 1.4183         estimate D2E/DX2                !
 ! R26   R(8,31)                 1.0794         estimate D2E/DX2                !
 ! R27   R(9,21)                 1.0858         estimate D2E/DX2                !
 ! R28   R(9,22)                 1.0863         estimate D2E/DX2                !
 ! R29   R(10,23)                1.0881         estimate D2E/DX2                !
 ! R30   R(10,24)                1.0783         estimate D2E/DX2                !
 ! R31   R(13,25)                1.0873         estimate D2E/DX2                !
 ! R32   R(13,26)                1.0842         estimate D2E/DX2                !
 ! A1    A(4,1,7)              110.1828         estimate D2E/DX2                !
 ! A2    A(4,1,14)             109.464          estimate D2E/DX2                !
 ! A3    A(4,1,15)             111.5997         estimate D2E/DX2                !
 ! A4    A(7,1,14)             109.7089         estimate D2E/DX2                !
 ! A5    A(7,1,15)             108.3659         estimate D2E/DX2                !
 ! A6    A(14,1,15)            107.4642         estimate D2E/DX2                !
 ! A7    A(11,2,12)            114.3068         estimate D2E/DX2                !
 ! A8    A(11,2,13)            112.928          estimate D2E/DX2                !
 ! A9    A(11,2,27)            104.6546         estimate D2E/DX2                !
 ! A10   A(12,2,13)            111.4015         estimate D2E/DX2                !
 ! A11   A(12,2,27)            103.68           estimate D2E/DX2                !
 ! A12   A(13,2,27)            109.0903         estimate D2E/DX2                !
 ! A13   A(8,3,9)              111.6006         estimate D2E/DX2                !
 ! A14   A(8,3,16)             107.7412         estimate D2E/DX2                !
 ! A15   A(8,3,30)             109.6237         estimate D2E/DX2                !
 ! A16   A(9,3,16)             109.246          estimate D2E/DX2                !
 ! A17   A(9,3,30)             111.1502         estimate D2E/DX2                !
 ! A18   A(16,3,30)            107.325          estimate D2E/DX2                !
 ! A19   A(1,4,13)             108.4387         estimate D2E/DX2                !
 ! A20   A(1,4,17)             110.6638         estimate D2E/DX2                !
 ! A21   A(1,4,18)             110.1436         estimate D2E/DX2                !
 ! A22   A(13,4,17)            109.7932         estimate D2E/DX2                !
 ! A23   A(13,4,18)            110.7274         estimate D2E/DX2                !
 ! A24   A(17,4,18)            107.0801         estimate D2E/DX2                !
 ! A25   A(6,5,9)              110.965          estimate D2E/DX2                !
 ! A26   A(6,5,28)             108.9189         estimate D2E/DX2                !
 ! A27   A(6,5,29)             106.3875         estimate D2E/DX2                !
 ! A28   A(9,5,28)             110.5641         estimate D2E/DX2                !
 ! A29   A(9,5,29)             111.5381         estimate D2E/DX2                !
 ! A30   A(28,5,29)            108.325          estimate D2E/DX2                !
 ! A31   A(5,6,10)             113.469          estimate D2E/DX2                !
 ! A32   A(1,7,11)             113.1812         estimate D2E/DX2                !
 ! A33   A(1,7,19)             110.3528         estimate D2E/DX2                !
 ! A34   A(1,7,20)             111.106          estimate D2E/DX2                !
 ! A35   A(11,7,19)            109.5576         estimate D2E/DX2                !
 ! A36   A(11,7,20)            104.6972         estimate D2E/DX2                !
 ! A37   A(19,7,20)            107.6756         estimate D2E/DX2                !
 ! A38   A(3,8,10)             109.5207         estimate D2E/DX2                !
 ! A39   A(3,8,12)             107.2972         estimate D2E/DX2                !
 ! A40   A(3,8,31)             108.889          estimate D2E/DX2                !
 ! A41   A(10,8,12)            111.5208         estimate D2E/DX2                !
 ! A42   A(10,8,31)            109.0635         estimate D2E/DX2                !
 ! A43   A(12,8,31)            110.4993         estimate D2E/DX2                !
 ! A44   A(3,9,5)              110.1643         estimate D2E/DX2                !
 ! A45   A(3,9,21)             110.456          estimate D2E/DX2                !
 ! A46   A(3,9,22)             110.3344         estimate D2E/DX2                !
 ! A47   A(5,9,21)             109.2566         estimate D2E/DX2                !
 ! A48   A(5,9,22)             109.2735         estimate D2E/DX2                !
 ! A49   A(21,9,22)            107.2985         estimate D2E/DX2                !
 ! A50   A(6,10,8)             111.7923         estimate D2E/DX2                !
 ! A51   A(6,10,23)            109.4968         estimate D2E/DX2                !
 ! A52   A(6,10,24)            106.5544         estimate D2E/DX2                !
 ! A53   A(8,10,23)            108.83           estimate D2E/DX2                !
 ! A54   A(8,10,24)            111.4675         estimate D2E/DX2                !
 ! A55   A(23,10,24)           108.63           estimate D2E/DX2                !
 ! A56   A(2,11,7)             121.8225         estimate D2E/DX2                !
 ! A57   A(2,12,8)             124.7961         estimate D2E/DX2                !
 ! A58   A(2,13,4)             113.3505         estimate D2E/DX2                !
 ! A59   A(2,13,25)            107.2012         estimate D2E/DX2                !
 ! A60   A(2,13,26)            108.1919         estimate D2E/DX2                !
 ! A61   A(4,13,25)            108.6379         estimate D2E/DX2                !
 ! A62   A(4,13,26)            111.9769         estimate D2E/DX2                !
 ! A63   A(25,13,26)           107.2            estimate D2E/DX2                !
 ! D1    D(7,1,4,13)            57.2553         estimate D2E/DX2                !
 ! D2    D(7,1,4,17)           177.7352         estimate D2E/DX2                !
 ! D3    D(7,1,4,18)           -64.0554         estimate D2E/DX2                !
 ! D4    D(14,1,4,13)          -63.4746         estimate D2E/DX2                !
 ! D5    D(14,1,4,17)           57.0053         estimate D2E/DX2                !
 ! D6    D(14,1,4,18)          175.2147         estimate D2E/DX2                !
 ! D7    D(15,1,4,13)          177.6921         estimate D2E/DX2                !
 ! D8    D(15,1,4,17)          -61.828          estimate D2E/DX2                !
 ! D9    D(15,1,4,18)           56.3814         estimate D2E/DX2                !
 ! D10   D(4,1,7,11)           -50.6997         estimate D2E/DX2                !
 ! D11   D(4,1,7,19)            72.479          estimate D2E/DX2                !
 ! D12   D(4,1,7,20)          -168.1594         estimate D2E/DX2                !
 ! D13   D(14,1,7,11)           69.8832         estimate D2E/DX2                !
 ! D14   D(14,1,7,19)         -166.9381         estimate D2E/DX2                !
 ! D15   D(14,1,7,20)          -47.5766         estimate D2E/DX2                !
 ! D16   D(15,1,7,11)         -173.0632         estimate D2E/DX2                !
 ! D17   D(15,1,7,19)          -49.8845         estimate D2E/DX2                !
 ! D18   D(15,1,7,20)           69.4771         estimate D2E/DX2                !
 ! D19   D(12,2,11,7)           90.4754         estimate D2E/DX2                !
 ! D20   D(13,2,11,7)          -38.2648         estimate D2E/DX2                !
 ! D21   D(27,2,11,7)         -156.7979         estimate D2E/DX2                !
 ! D22   D(11,2,12,8)          -29.4578         Frozen                          !
 ! D23   D(13,2,12,8)          100.047          estimate D2E/DX2                !
 ! D24   D(27,2,12,8)         -142.7637         estimate D2E/DX2                !
 ! D25   D(11,2,13,4)           43.9614         estimate D2E/DX2                !
 ! D26   D(11,2,13,25)         -75.9092         estimate D2E/DX2                !
 ! D27   D(11,2,13,26)         168.777          estimate D2E/DX2                !
 ! D28   D(12,2,13,4)          -86.2653         estimate D2E/DX2                !
 ! D29   D(12,2,13,25)         153.8641         estimate D2E/DX2                !
 ! D30   D(12,2,13,26)          38.5502         estimate D2E/DX2                !
 ! D31   D(27,2,13,4)          159.8787         estimate D2E/DX2                !
 ! D32   D(27,2,13,25)          40.0081         estimate D2E/DX2                !
 ! D33   D(27,2,13,26)         -75.3057         estimate D2E/DX2                !
 ! D34   D(9,3,8,10)            50.3922         estimate D2E/DX2                !
 ! D35   D(9,3,8,12)           -70.8093         estimate D2E/DX2                !
 ! D36   D(9,3,8,31)           169.5728         estimate D2E/DX2                !
 ! D37   D(16,3,8,10)          -69.5351         estimate D2E/DX2                !
 ! D38   D(16,3,8,12)          169.2635         estimate D2E/DX2                !
 ! D39   D(16,3,8,31)           49.6456         estimate D2E/DX2                !
 ! D40   D(30,3,8,10)          173.9769         estimate D2E/DX2                !
 ! D41   D(30,3,8,12)           52.7754         estimate D2E/DX2                !
 ! D42   D(30,3,8,31)          -66.8425         estimate D2E/DX2                !
 ! D43   D(8,3,9,5)            -51.0196         estimate D2E/DX2                !
 ! D44   D(8,3,9,21)            69.7746         estimate D2E/DX2                !
 ! D45   D(8,3,9,22)          -171.756          estimate D2E/DX2                !
 ! D46   D(16,3,9,5)            68.0172         estimate D2E/DX2                !
 ! D47   D(16,3,9,21)         -171.1885         estimate D2E/DX2                !
 ! D48   D(16,3,9,22)          -52.7191         estimate D2E/DX2                !
 ! D49   D(30,3,9,5)          -173.7357         estimate D2E/DX2                !
 ! D50   D(30,3,9,21)          -52.9415         estimate D2E/DX2                !
 ! D51   D(30,3,9,22)           65.5279         estimate D2E/DX2                !
 ! D52   D(1,4,13,2)           -54.674          estimate D2E/DX2                !
 ! D53   D(1,4,13,25)           64.3741         estimate D2E/DX2                !
 ! D54   D(1,4,13,26)         -177.4202         estimate D2E/DX2                !
 ! D55   D(17,4,13,2)         -175.6931         estimate D2E/DX2                !
 ! D56   D(17,4,13,25)         -56.645          estimate D2E/DX2                !
 ! D57   D(17,4,13,26)          61.5606         estimate D2E/DX2                !
 ! D58   D(18,4,13,2)           66.2766         estimate D2E/DX2                !
 ! D59   D(18,4,13,25)        -174.6753         estimate D2E/DX2                !
 ! D60   D(18,4,13,26)         -56.4697         estimate D2E/DX2                !
 ! D61   D(9,5,6,10)           -60.5227         estimate D2E/DX2                !
 ! D62   D(28,5,6,10)           61.4129         estimate D2E/DX2                !
 ! D63   D(29,5,6,10)          177.9789         estimate D2E/DX2                !
 ! D64   D(6,5,9,3)             54.6045         estimate D2E/DX2                !
 ! D65   D(6,5,9,21)           -66.9063         estimate D2E/DX2                !
 ! D66   D(6,5,9,22)           175.9753         estimate D2E/DX2                !
 ! D67   D(28,5,9,3)           -66.3658         estimate D2E/DX2                !
 ! D68   D(28,5,9,21)          172.1235         estimate D2E/DX2                !
 ! D69   D(28,5,9,22)           55.0051         estimate D2E/DX2                !
 ! D70   D(29,5,9,3)           173.0316         estimate D2E/DX2                !
 ! D71   D(29,5,9,21)           51.5209         estimate D2E/DX2                !
 ! D72   D(29,5,9,22)          -65.5975         estimate D2E/DX2                !
 ! D73   D(5,6,10,8)            60.6859         estimate D2E/DX2                !
 ! D74   D(5,6,10,23)          -59.9982         estimate D2E/DX2                !
 ! D75   D(5,6,10,24)         -177.3068         estimate D2E/DX2                !
 ! D76   D(1,7,11,2)            42.5257         estimate D2E/DX2                !
 ! D77   D(19,7,11,2)          -81.0909         estimate D2E/DX2                !
 ! D78   D(20,7,11,2)          163.6763         estimate D2E/DX2                !
 ! D79   D(3,8,10,6)           -54.2367         estimate D2E/DX2                !
 ! D80   D(3,8,10,23)           66.8349         estimate D2E/DX2                !
 ! D81   D(3,8,10,24)         -173.3776         estimate D2E/DX2                !
 ! D82   D(12,8,10,6)           64.3769         estimate D2E/DX2                !
 ! D83   D(12,8,10,23)        -174.5515         estimate D2E/DX2                !
 ! D84   D(12,8,10,24)         -54.764          estimate D2E/DX2                !
 ! D85   D(31,8,10,6)         -173.3097         estimate D2E/DX2                !
 ! D86   D(31,8,10,23)         -52.2381         estimate D2E/DX2                !
 ! D87   D(31,8,10,24)          67.5494         estimate D2E/DX2                !
 ! D88   D(3,8,12,2)          -154.5972         estimate D2E/DX2                !
 ! D89   D(10,8,12,2)           85.4689         estimate D2E/DX2                !
 ! D90   D(31,8,12,2)          -36.0148         estimate D2E/DX2                !
 --------------------------------------------------------------------------------
 Trust Radius=3.00D-01 FncErr=1.00D-07 GrdErr=1.00D-06 EigMax=2.50D+02 EigMin=1.00D-04
 Number of steps in this run=    186 maximum allowed number of steps=    186.
 GradGradGradGradGradGradGradGradGradGradGradGradGradGradGradGradGradGrad

                          Input orientation:                          
 ---------------------------------------------------------------------
 Center     Atomic      Atomic             Coordinates (Angstroms)
 Number     Number       Type             X           Y           Z
 ---------------------------------------------------------------------
      1          6           0        3.342132   -0.287784   -0.725561
      2          6           0        1.123551    0.119559    1.133076
      3          6           0       -1.761471    1.160411   -0.943320
      4          6           0        2.775897    1.116055   -0.534181
      5          6           0       -3.551896   -0.244898    0.093729
      6          8           0       -2.556116   -1.159851    0.512752
      7          6           0        2.252126   -1.324572   -0.521258
      8          6           0       -0.751172    0.088794   -0.535558
      9          6           0       -2.984387    1.160593   -0.023810
     10          6           0       -1.463662   -1.249208   -0.378023
     11          8           0        1.527797   -1.145733    0.694648
     12          8           0       -0.158794    0.509408    0.682554
     13          6           0        2.162722    1.203187    0.860495
     14          1           0        4.145459   -0.454813   -0.012088
     15          1           0        3.757303   -0.419230   -1.720536
     16          1           0       -2.078482    0.946712   -1.961339
     17          1           0        3.557515    1.862008   -0.639355
     18          1           0        2.029670    1.325854   -1.296346
     19          1           0        1.564497   -1.317512   -1.356989
     20          1           0        2.669633   -2.319152   -0.448076
     21          1           0       -2.716198    1.522285    0.964244
     22          1           0       -3.750070    1.824964   -0.414150
     23          1           0       -1.816641   -1.576164   -1.353928
     24          1           0       -0.803636   -2.003307    0.019943
     25          1           0        2.954140    1.082112    1.596231
     26          1           0        1.701574    2.167558    1.041436
     27          1           0        0.997553    0.011653    2.199212
     28          1           0       -3.955233   -0.575355   -0.861372
     29          1           0       -4.341284   -0.293969    0.831501
     30          1           0       -1.278501    2.131822   -0.952531
     31          1           0       -0.003438    0.001117   -1.309032
 ---------------------------------------------------------------------
                    Distance matrix (angstroms):
                    1          2          3          4          5
     1  C    0.000000
     2  C    2.922766   0.000000
     3  C    5.309562   3.703801   0.000000
     4  C    1.525783   2.550098   4.555993   0.000000
     5  C    6.942672   4.803423   2.501197   6.502878   0.000000
     6  O    6.089602   3.944825   2.852231   5.891195   1.415732
     7  C    1.518151   2.469011   4.739434   2.496230   5.935535
     8  C    4.114979   2.509955   1.528181   3.673620   2.889880
     9  C    6.528024   4.392868   1.530040   5.783021   1.520292
    10  C    4.913326   3.294027   2.492893   4.857233   2.364722
    11  O    2.458634   1.398784   4.338263   2.860675   5.193832
    12  O    3.856784   1.413988   2.373993   3.234328   3.525455
    13  C    2.475798   1.525918   4.319128   1.526007   5.944892
    14  H    1.087325   3.282260   6.194188   2.148466   7.700944
    15  H    1.086103   3.920465   5.792771   2.174327   7.533017
    16  H    5.695102   4.529084   1.087440   5.062653   2.795387
    17  H    2.162274   3.478767   5.373662   1.085557   7.451187
    18  H    2.156891   2.859771   3.811135   1.087091   5.962671
    19  H    2.149192   2.908613   4.168128   2.840203   5.425178
    20  H    2.157709   3.292070   5.655732   3.437929   6.580540
    21  H    6.544857   4.091432   2.163621   5.707312   2.139889
    22  H    7.406754   5.390222   2.162447   6.565455   2.140454
    23  H    5.354223   4.207778   2.767758   5.386226   2.622802
    24  H    4.548207   3.075658   3.443027   4.780223   3.263492
    25  H    2.723577   2.119452   5.356532   2.138125   6.807861
    26  H    3.441281   2.129978   4.116586   2.177705   5.858075
    27  H    3.760453   1.078965   4.336746   3.442913   5.019598
    28  H    7.304292   5.500434   2.798605   6.948096   1.088164
    29  H    7.839602   5.488750   3.452629   7.382921   1.081596
    30  H    5.220753   3.764148   1.084889   4.200588   3.451345
    31  H    3.408334   2.692215   2.137379   3.093248   3.823587
                    6          7          8          9         10
     6  O    0.000000
     7  C    4.920925   0.000000
     8  C    2.432260   3.319278   0.000000
     9  C    2.419871   5.817608   2.529405   0.000000
    10  C    1.412417   3.719311   1.524044   2.871448   0.000000
    11  O    4.087986   1.426556   2.869000   5.118117   3.179647
    12  O    2.926160   3.259629   1.418318   2.984454   2.433153
    13  C    5.288885   2.882152   3.417838   5.222695   4.549597
    14  H    6.758968   2.144865   4.954445   7.310566   5.676901
    15  H    6.737607   2.126845   4.689201   7.129173   5.454327
    16  H    3.284337   5.097718   2.128527   2.149518   2.776141
    17  H    6.916319   3.445617   4.660455   6.608128   5.912713
    18  H    5.520960   2.770380   3.137228   5.175657   4.435947
    19  H    4.527719   1.082280   2.831037   5.348899   3.183204
    20  H    5.438347   1.081137   4.184228   6.652561   4.270107
    21  H    2.724578   5.915704   2.857557   1.085816   3.324410
    22  H    3.345713   6.779189   3.467335   1.086289   3.831384
    23  H    2.050520   4.160709   2.139402   3.259246   1.088065
    24  H    2.006356   3.176675   2.165230   3.842896   1.078275
    25  H    6.046755   3.281571   4.388683   6.156037   5.371192
    26  H    5.429464   3.865242   3.581080   4.909884   4.869073
    27  H    4.104282   3.280306   3.246992   4.702950   3.780144
    28  H    2.046309   6.261654   3.288351   2.158140   2.625953
    29  H    2.009522   6.809196   3.860604   2.165289   3.264374
    30  H    3.822887   4.959635   2.150792   2.171602   3.434488
    31  H    3.344086   2.732327   1.079377   3.447062   2.135965
                   11         12         13         14         15
    11  O    0.000000
    12  O    2.363097   0.000000
    13  C    2.438865   2.429491   0.000000
    14  H    2.798035   4.465293   2.727932   0.000000
    15  H    3.366247   4.687539   3.440443   1.752349   0.000000
    16  H    4.943464   3.296454   5.100621   6.670929   5.998347
    17  H    3.865983   4.169883   2.151521   2.471194   2.532373
    18  H    3.213203   3.061373   2.164420   3.049042   2.491981
    19  H    2.059143   3.235290   3.410137   3.035519   2.397389
    20  H    1.996627   4.156811   3.791595   2.417418   2.532170
    21  H    5.020209   2.765065   4.890445   7.207252   7.272121
    22  H    6.157138   3.978783   6.080496   8.227905   7.943784
    23  H    3.945529   3.353405   5.335147   6.213260   5.704538
    24  H    2.574148   2.677426   4.448304   5.185788   5.132322
    25  H    2.794745   3.294412   1.087340   2.523503   3.728276
    26  H    3.335919   2.517782   1.084163   3.736217   4.306505
    27  H    1.970892   1.971078   2.137647   3.875145   4.813139
    28  H    5.728014   4.239501   6.599804   8.145982   7.761814
    29  H    5.932145   4.261552   6.674160   8.530083   8.492096
    30  H    4.618536   2.561147   3.998930   6.082307   5.697106
    31  H    2.770321   2.061288   3.293033   4.370730   3.806468
                   16         17         18         19         20
    16  H    0.000000
    17  H    5.860876   0.000000
    18  H    4.178861   1.747401   0.000000
    19  H    4.331656   3.820532   2.684669   0.000000
    20  H    5.958224   4.278670   3.796733   1.746634   0.000000
    21  H    3.049099   6.484321   5.260429   5.637102   6.764500
    22  H    2.441173   7.311148   5.867945   6.245696   7.641167
    23  H    2.608143   6.419750   4.818624   3.391018   4.636729
    24  H    3.775357   5.864723   4.565474   2.823882   3.518863
    25  H    6.164570   2.443388   3.046483   4.051026   3.978534
    26  H    4.979553   2.522486   2.506260   4.232841   4.825593
    27  H    5.257995   4.246726   3.874444   3.838577   3.903414
    28  H    2.654959   7.901355   6.294669   5.591409   6.862980
    29  H    3.802567   8.318815   6.909458   6.380860   7.408889
    30  H    1.749900   4.853651   3.422249   4.488221   5.971047
    31  H    2.371806   4.073300   2.426647   2.049269   3.642829
                   21         22         23         24         25
    21  H    0.000000
    22  H    1.749422   0.000000
    23  H    3.972847   4.023556   0.000000
    24  H    4.120606   4.850316   1.759589   0.000000
    25  H    5.722403   7.038458   6.207272   5.111299   0.000000
    26  H    4.465316   5.653010   5.668427   4.971483   1.747831
    27  H    4.195128   5.714690   4.802672   3.471824   2.310347
    28  H    3.044368   2.450231   2.412013   3.570480   7.518407
    29  H    2.440759   2.528054   3.576863   4.011909   7.463352
    30  H    2.472354   2.548072   3.768272   4.274400   5.051072
    31  H    3.852376   4.261981   2.403651   2.534602   4.284434
                   26         27         28         29         30
    26  H    0.000000
    27  H    2.546373   0.000000
    28  H    6.568388   5.851653   0.000000
    29  H    6.528347   5.519712   1.758986   0.000000
    30  H    3.585809   4.428208   3.808151   4.295099   0.000000
    31  H    3.622876   3.648269   4.018632   4.846222   2.508542
                   31
    31  H    0.000000
 Stoichiometry    C10H18O3
 Framework group  C1[X(C10H18O3)]
 Deg. of freedom    87
 Full point group                 C1      NOp   1
 Largest Abelian subgroup         C1      NOp   1
 Largest concise Abelian subgroup C1      NOp   1
                         Standard orientation:                         
 ---------------------------------------------------------------------
 Center     Atomic      Atomic             Coordinates (Angstroms)
 Number     Number       Type             X           Y           Z
 ---------------------------------------------------------------------
      1          6           0        3.342132   -0.287784   -0.725561
      2          6           0        1.123551    0.119559    1.133076
      3          6           0       -1.761471    1.160411   -0.943320
      4          6           0        2.775897    1.116055   -0.534181
      5          6           0       -3.551896   -0.244898    0.093729
      6          8           0       -2.556116   -1.159851    0.512752
      7          6           0        2.252126   -1.324572   -0.521258
      8          6           0       -0.751172    0.088794   -0.535558
      9          6           0       -2.984387    1.160593   -0.023810
     10          6           0       -1.463662   -1.249208   -0.378023
     11          8           0        1.527797   -1.145733    0.694648
     12          8           0       -0.158794    0.509408    0.682554
     13          6           0        2.162722    1.203187    0.860495
     14          1           0        4.145459   -0.454813   -0.012088
     15          1           0        3.757303   -0.419230   -1.720536
     16          1           0       -2.078482    0.946712   -1.961339
     17          1           0        3.557515    1.862008   -0.639355
     18          1           0        2.029670    1.325854   -1.296346
     19          1           0        1.564497   -1.317512   -1.356989
     20          1           0        2.669633   -2.319152   -0.448076
     21          1           0       -2.716198    1.522285    0.964244
     22          1           0       -3.750070    1.824964   -0.414150
     23          1           0       -1.816641   -1.576164   -1.353928
     24          1           0       -0.803636   -2.003307    0.019943
     25          1           0        2.954140    1.082112    1.596231
     26          1           0        1.701574    2.167558    1.041436
     27          1           0        0.997553    0.011653    2.199212
     28          1           0       -3.955233   -0.575355   -0.861372
     29          1           0       -4.341284   -0.293969    0.831501
     30          1           0       -1.278501    2.131822   -0.952531
     31          1           0       -0.003438    0.001117   -1.309032
 ---------------------------------------------------------------------
 Rotational constants (GHZ):           1.7492995           0.4745708           0.4371720
 Standard basis: 6-311++G(2d,2p) (5D, 7F)
 There are   557 symmetry adapted cartesian basis functions of A   symmetry.
 There are   531 symmetry adapted basis functions of A   symmetry.
   531 basis functions,   762 primitive gaussians,   557 cartesian basis functions
    51 alpha electrons       51 beta electrons
       nuclear repulsion energy       909.5260810659 Hartrees.
 NAtoms=   31 NActive=   31 NUniq=   31 SFac= 1.00D+00 NAtFMM=   60 NAOKFM=F Big=F
 Integral buffers will be    131072 words long.
 Raffenetti 2 integral format.
 Two-electron integral symmetry is turned on.
 ------------------------------------------------------------------------------
 Polarizable Continuum Model (PCM)
 =================================
 Model                : PCM.
 Atomic radii         : UFF (Universal Force Field).
 Polarization charges : Total charges.
 Charge compensation  : None.
 Solution method      : On-the-fly selection.
 Cavity type          : Scaled VdW (van der Waals Surface) (Alpha=1.100).
 Cavity algorithm     : GePol (No added spheres)
                        Default sphere list used, NSphG=   31.
                        Lebedev-Laikov grids with approx.  5.0 points / Ang**2.
                        Smoothing algorithm: York/Karplus (Gamma=1.0000).
                        Polarization charges: spherical gaussians, with
                                              point-specific exponents (IZeta= 3).
                        Self-potential: point-specific (ISelfS= 7).
                        Self-field    : sphere-specific E.n sum rule (ISelfD= 2).
 1st derivatives      : Analytical E(r).r(x)/FMM algorithm (CHGder, D1EAlg=3).
                        Cavity 1st derivative terms included.
 Solvent              : Water, Eps=  78.355300 Eps(inf)=   1.777849
 ------------------------------------------------------------------------------
 One-electron integrals computed using PRISM.
 NBasis=   531 RedAO= T EigKep=  5.35D-06  NBF=   531
 NBsUse=   531 1.00D-06 EigRej= -1.00D+00 NBFU=   531
 ExpMin= 3.60D-02 ExpMax= 8.59D+03 ExpMxC= 1.30D+03 IAcc=3 IRadAn=         5 AccDes= 0.00D+00
 Harris functional with IExCor= 1009 and IRadAn=       5 diagonalized for initial guess.
 HarFok:  IExCor= 1009 AccDes= 0.00D+00 IRadAn=         5 IDoV= 1 UseB2=F ITyADJ=14
 ICtDFT=  3500011 ScaDFX=  1.000000  1.000000  1.000000  1.000000
 FoFCou: FMM=F IPFlag=           0 FMFlag=      100000 FMFlg1=           0
         NFxFlg=           0 DoJE=T BraDBF=F KetDBF=T FulRan=T
         wScrn=  0.000000 ICntrl=       500 IOpCl=  0 I1Cent=   200000004 NGrid=           0
         NMat0=    1 NMatS0=      1 NMatT0=    0 NMatD0=    1 NMtDS0=    0 NMtDT0=    0
 Petite list used in FoFCou.
 Requested convergence on RMS density matrix=1.00D-08 within 128 cycles.
 Requested convergence on MAX density matrix=1.00D-06.
 Requested convergence on             energy=1.00D-06.
 No special actions if energy rises.
 Inv3:  Mode=1 IEnd=    12301875.
 Iteration    1 A*A^-1 deviation from unit magnitude is 4.44D-15 for   2025.
 Iteration    1 A*A^-1 deviation from orthogonality  is 3.92D-15 for   1996    903.
 Iteration    1 A^-1*A deviation from unit magnitude is 4.44D-15 for   2025.
 Iteration    1 A^-1*A deviation from orthogonality  is 2.89D-15 for   2017    852.
 Error on total polarization charges =  0.01465
 SCF Done:  E(RM062X) =  -617.487610889     A.U. after   12 cycles
            NFock= 12  Conv=0.80D-08     -V/T= 2.0035

 **********************************************************************

            Population analysis using the SCF density.

 **********************************************************************

 Orbital symmetries:
       Occupied  (A) (A) (A) (A) (A) (A) (A) (A) (A) (A) (A) (A)
                 (A) (A) (A) (A) (A) (A) (A) (A) (A) (A) (A) (A)
                 (A) (A) (A) (A) (A) (A) (A) (A) (A) (A) (A) (A)
                 (A) (A) (A) (A) (A) (A) (A) (A) (A) (A) (A) (A)
                 (A) (A) (A)
       Virtual   (A) (A) (A) (A) (A) (A) (A) (A) (A) (A) (A) (A)
                 (A) (A) (A) (A) (A) (A) (A) (A) (A) (A) (A) (A)
                 (A) (A) (A) (A) (A) (A) (A) (A) (A) (A) (A) (A)
                 (A) (A) (A) (A) (A) (A) (A) (A) (A) (A) (A) (A)
                 (A) (A) (A) (A) (A) (A) (A) (A) (A) (A) (A) (A)
                 (A) (A) (A) (A) (A) (A) (A) (A) (A) (A) (A) (A)
                 (A) (A) (A) (A) (A) (A) (A) (A) (A) (A) (A) (A)
                 (A) (A) (A) (A) (A) (A) (A) (A) (A) (A) (A) (A)
                 (A) (A) (A) (A) (A) (A) (A) (A) (A) (A) (A) (A)
                 (A) (A) (A) (A) (A) (A) (A) (A) (A) (A) (A) (A)
                 (A) (A) (A) (A) (A) (A) (A) (A) (A) (A) (A) (A)
                 (A) (A) (A) (A) (A) (A) (A) (A) (A) (A) (A) (A)
                 (A) (A) (A) (A) (A) (A) (A) (A) (A) (A) (A) (A)
                 (A) (A) (A) (A) (A) (A) (A) (A) (A) (A) (A) (A)
                 (A) (A) (A) (A) (A) (A) (A) (A) (A) (A) (A) (A)
                 (A) (A) (A) (A) (A) (A) (A) (A) (A) (A) (A) (A)
                 (A) (A) (A) (A) (A) (A) (A) (A) (A) (A) (A) (A)
                 (A) (A) (A) (A) (A) (A) (A) (A) (A) (A) (A) (A)
                 (A) (A) (A) (A) (A) (A) (A) (A) (A) (A) (A) (A)
                 (A) (A) (A) (A) (A) (A) (A) (A) (A) (A) (A) (A)
                 (A) (A) (A) (A) (A) (A) (A) (A) (A) (A) (A) (A)
                 (A) (A) (A) (A) (A) (A) (A) (A) (A) (A) (A) (A)
                 (A) (A) (A) (A) (A) (A) (A) (A) (A) (A) (A) (A)
                 (A) (A) (A) (A) (A) (A) (A) (A) (A) (A) (A) (A)
                 (A) (A) (A) (A) (A) (A) (A) (A) (A) (A) (A) (A)
                 (A) (A) (A) (A) (A) (A) (A) (A) (A) (A) (A) (A)
                 (A) (A) (A) (A) (A) (A) (A) (A) (A) (A) (A) (A)
                 (A) (A) (A) (A) (A) (A) (A) (A) (A) (A) (A) (A)
                 (A) (A) (A) (A) (A) (A) (A) (A) (A) (A) (A) (A)
                 (A) (A) (A) (A) (A) (A) (A) (A) (A) (A) (A) (A)
                 (A) (A) (A) (A) (A) (A) (A) (A) (A) (A) (A) (A)
                 (A) (A) (A) (A) (A) (A) (A) (A) (A) (A) (A) (A)
                 (A) (A) (A) (A) (A) (A) (A) (A) (A) (A) (A) (A)
                 (A) (A) (A) (A) (A) (A) (A) (A) (A) (A) (A) (A)
                 (A) (A) (A) (A) (A) (A) (A) (A) (A) (A) (A) (A)
                 (A) (A) (A) (A) (A) (A) (A) (A) (A) (A) (A) (A)
                 (A) (A) (A) (A) (A) (A) (A) (A) (A) (A) (A) (A)
                 (A) (A) (A) (A) (A) (A) (A) (A) (A) (A) (A) (A)
                 (A) (A) (A) (A) (A) (A) (A) (A) (A) (A) (A) (A)
                 (A) (A) (A) (A) (A) (A) (A) (A) (A) (A) (A) (A)
 The electronic state is 1-A.
 Alpha  occ. eigenvalues --  -19.63232 -19.62490 -19.61955 -10.63687 -10.58756
 Alpha  occ. eigenvalues --  -10.58183 -10.57604 -10.57420 -10.53218 -10.53098
 Alpha  occ. eigenvalues --  -10.53059 -10.52848 -10.52718  -1.19440  -1.16345
 Alpha  occ. eigenvalues --   -1.13089  -0.90891  -0.90249  -0.87433  -0.84705
 Alpha  occ. eigenvalues --   -0.75099  -0.74168  -0.73738  -0.71344  -0.66148
 Alpha  occ. eigenvalues --   -0.62736  -0.59779  -0.57937  -0.57568  -0.55297
 Alpha  occ. eigenvalues --   -0.54360  -0.53723  -0.52914  -0.51258  -0.49977
 Alpha  occ. eigenvalues --   -0.48457  -0.47261  -0.46426  -0.45448  -0.45165
 Alpha  occ. eigenvalues --   -0.43571  -0.42261  -0.40851  -0.40189  -0.39141
 Alpha  occ. eigenvalues --   -0.38952  -0.37926  -0.36189  -0.34122  -0.33268
 Alpha  occ. eigenvalues --   -0.30879
 Alpha virt. eigenvalues --   -0.00243   0.00753   0.00870   0.01146   0.02238
 Alpha virt. eigenvalues --    0.02542   0.02685   0.03214   0.03502   0.04589
 Alpha virt. eigenvalues --    0.04673   0.04824   0.05534   0.06010   0.07137
 Alpha virt. eigenvalues --    0.07487   0.08038   0.08393   0.08806   0.09337
 Alpha virt. eigenvalues --    0.09769   0.10421   0.11402   0.11480   0.12122
 Alpha virt. eigenvalues --    0.12366   0.12553   0.13088   0.13363   0.13540
 Alpha virt. eigenvalues --    0.13837   0.13850   0.14025   0.14691   0.14917
 Alpha virt. eigenvalues --    0.15011   0.15330   0.15697   0.15786   0.16090
 Alpha virt. eigenvalues --    0.16474   0.16741   0.17339   0.17614   0.17697
 Alpha virt. eigenvalues --    0.18027   0.18354   0.18650   0.19145   0.19270
 Alpha virt. eigenvalues --    0.19681   0.20407   0.20532   0.21079   0.21542
 Alpha virt. eigenvalues --    0.21986   0.22290   0.22982   0.23533   0.23908
 Alpha virt. eigenvalues --    0.24652   0.25409   0.26238   0.26431   0.27121
 Alpha virt. eigenvalues --    0.27859   0.28433   0.28791   0.29239   0.29622
 Alpha virt. eigenvalues --    0.30496   0.30551   0.30908   0.32072   0.32412
 Alpha virt. eigenvalues --    0.32660   0.33467   0.34032   0.34504   0.34659
 Alpha virt. eigenvalues --    0.34969   0.35138   0.35677   0.36054   0.36658
 Alpha virt. eigenvalues --    0.36957   0.37305   0.37817   0.37985   0.38600
 Alpha virt. eigenvalues --    0.38898   0.39203   0.39471   0.40307   0.40429
 Alpha virt. eigenvalues --    0.41770   0.42086   0.42609   0.44444   0.45978
 Alpha virt. eigenvalues --    0.47547   0.48171   0.49762   0.50029   0.50817
 Alpha virt. eigenvalues --    0.51332   0.51921   0.52996   0.54191   0.54765
 Alpha virt. eigenvalues --    0.56885   0.57002   0.58146   0.58447   0.59667
 Alpha virt. eigenvalues --    0.60333   0.61047   0.61081   0.61956   0.62166
 Alpha virt. eigenvalues --    0.62726   0.63014   0.63235   0.63531   0.64216
 Alpha virt. eigenvalues --    0.64768   0.65460   0.66631   0.67056   0.67720
 Alpha virt. eigenvalues --    0.68308   0.68659   0.69177   0.70068   0.70496
 Alpha virt. eigenvalues --    0.70645   0.71671   0.71892   0.72867   0.73326
 Alpha virt. eigenvalues --    0.73588   0.73783   0.74874   0.75526   0.75660
 Alpha virt. eigenvalues --    0.76422   0.77093   0.77633   0.78622   0.80077
 Alpha virt. eigenvalues --    0.81060   0.81380   0.82919   0.85192   0.85833
 Alpha virt. eigenvalues --    0.87152   0.87356   0.88084   0.89550   0.90720
 Alpha virt. eigenvalues --    0.91067   0.91496   0.93386   0.95334   0.95622
 Alpha virt. eigenvalues --    0.97709   0.98695   0.99744   1.01049   1.01536
 Alpha virt. eigenvalues --    1.02677   1.03220   1.03933   1.05637   1.05982
 Alpha virt. eigenvalues --    1.07162   1.08411   1.09521   1.11701   1.12620
 Alpha virt. eigenvalues --    1.12932   1.14753   1.15719   1.16616   1.16657
 Alpha virt. eigenvalues --    1.17969   1.18095   1.18795   1.19292   1.20337
 Alpha virt. eigenvalues --    1.21606   1.22757   1.23278   1.23871   1.24507
 Alpha virt. eigenvalues --    1.25479   1.25845   1.26639   1.26931   1.27885
 Alpha virt. eigenvalues --    1.28678   1.29350   1.30339   1.31752   1.32242
 Alpha virt. eigenvalues --    1.32433   1.33704   1.34285   1.34321   1.35080
 Alpha virt. eigenvalues --    1.36601   1.36935   1.37465   1.37645   1.38127
 Alpha virt. eigenvalues --    1.38876   1.39900   1.40865   1.40911   1.41441
 Alpha virt. eigenvalues --    1.42883   1.43543   1.44220   1.44870   1.45310
 Alpha virt. eigenvalues --    1.46001   1.46518   1.47803   1.48303   1.48528
 Alpha virt. eigenvalues --    1.49297   1.50019   1.50227   1.51918   1.52616
 Alpha virt. eigenvalues --    1.53279   1.53605   1.53850   1.55371   1.55967
 Alpha virt. eigenvalues --    1.56565   1.57143   1.58092   1.58383   1.59069
 Alpha virt. eigenvalues --    1.59848   1.60785   1.62113   1.63046   1.63695
 Alpha virt. eigenvalues --    1.64109   1.64645   1.65031   1.65581   1.67194
 Alpha virt. eigenvalues --    1.68192   1.69275   1.69715   1.71132   1.72202
 Alpha virt. eigenvalues --    1.73219   1.74729   1.75837   1.76605   1.77586
 Alpha virt. eigenvalues --    1.77969   1.78583   1.80062   1.81595   1.83175
 Alpha virt. eigenvalues --    1.85255   1.88244   1.91051   1.96384   2.01330
 Alpha virt. eigenvalues --    2.03888   2.06820   2.11317   2.14766   2.22618
 Alpha virt. eigenvalues --    2.23808   2.28112   2.28891   2.33638   2.39260
 Alpha virt. eigenvalues --    2.42143   2.44667   2.45598   2.48615   2.54124
 Alpha virt. eigenvalues --    2.55274   2.76518   2.77941   2.80421   2.82016
 Alpha virt. eigenvalues --    2.83770   2.85840   2.92831   2.93226   2.94312
 Alpha virt. eigenvalues --    2.96722   2.98821   2.99351   3.02291   3.04020
 Alpha virt. eigenvalues --    3.06250   3.07650   3.07905   3.09732   3.11840
 Alpha virt. eigenvalues --    3.12513   3.14254   3.15978   3.18020   3.19967
 Alpha virt. eigenvalues --    3.23299   3.28678   3.31610   3.33035   3.34913
 Alpha virt. eigenvalues --    3.35016   3.35992   3.37952   3.38871   3.39766
 Alpha virt. eigenvalues --    3.41337   3.44199   3.45246   3.46792   3.47182
 Alpha virt. eigenvalues --    3.48318   3.49064   3.50720   3.50859   3.52452
 Alpha virt. eigenvalues --    3.52714   3.53939   3.55146   3.55368   3.55761
 Alpha virt. eigenvalues --    3.56905   3.58064   3.58688   3.59489   3.59808
 Alpha virt. eigenvalues --    3.60639   3.62206   3.63103   3.64017   3.65623
 Alpha virt. eigenvalues --    3.66556   3.67133   3.67436   3.68962   3.69721
 Alpha virt. eigenvalues --    3.70986   3.71243   3.72611   3.73707   3.73803
 Alpha virt. eigenvalues --    3.75424   3.75528   3.76219   3.76517   3.77895
 Alpha virt. eigenvalues --    3.79646   3.80271   3.81528   3.82790   3.84095
 Alpha virt. eigenvalues --    3.85662   3.86174   3.89565   3.89912   3.92048
 Alpha virt. eigenvalues --    3.92998   3.94238   3.95983   3.96360   3.97742
 Alpha virt. eigenvalues --    3.99708   4.00575   4.02868   4.04204   4.04939
 Alpha virt. eigenvalues --    4.05089   4.05599   4.05990   4.07133   4.08318
 Alpha virt. eigenvalues --    4.08527   4.08827   4.10285   4.10760   4.11503
 Alpha virt. eigenvalues --    4.12699   4.13411   4.13946   4.14846   4.16372
 Alpha virt. eigenvalues --    4.16613   4.17166   4.18340   4.19234   4.19923
 Alpha virt. eigenvalues --    4.21253   4.24230   4.25472   4.26089   4.27834
 Alpha virt. eigenvalues --    4.28097   4.28913   4.29635   4.31396   4.32376
 Alpha virt. eigenvalues --    4.33301   4.33519   4.34928   4.36441   4.39240
 Alpha virt. eigenvalues --    4.41661   4.43891   4.45542   4.46661   4.52491
 Alpha virt. eigenvalues --    4.59218   4.61954   4.74983   4.75329   4.82106
 Alpha virt. eigenvalues --    4.86302   4.93214   4.94728   4.99101   5.03968
 Alpha virt. eigenvalues --    5.06996   5.07808   5.08053   5.08708   5.11732
 Alpha virt. eigenvalues --    5.13713   5.14483   5.15468   5.31824   5.39290
 Alpha virt. eigenvalues --    5.43793   5.58392   5.59504   5.62116   5.86270
 Alpha virt. eigenvalues --    5.88119   6.03329   7.00452   7.03463   7.06655
 Alpha virt. eigenvalues --    7.09903   7.11209   7.12206   7.14173   7.18720
 Alpha virt. eigenvalues --    7.27612   7.37161   7.44500   7.50942   7.51526
 Alpha virt. eigenvalues --    7.54874   7.59984  23.95467  23.98408  24.06434
 Alpha virt. eigenvalues --   24.07556  24.08840  24.12986  24.13566  24.15605
 Alpha virt. eigenvalues --   24.16916  24.18359  50.16159  50.19572  50.25521
          Condensed to atoms (all electrons):
               1          2          3          4          5          6
     1  C    6.326304   0.156842   0.106984  -0.093611  -0.006912  -0.000132
     2  C    0.156842   7.580108   0.286684   0.043557  -0.002549  -0.011726
     3  C    0.106984   0.286684   7.423890   0.055177  -0.110795   0.008537
     4  C   -0.093611   0.043557   0.055177   5.790568  -0.001659   0.000653
     5  C   -0.006912  -0.002549  -0.110795  -0.001659   5.436572   0.070169
     6  O   -0.000132  -0.011726   0.008537   0.000653   0.070169   8.281739
     7  C   -0.415297  -0.473783  -0.174797   0.046222   0.008073   0.003315
     8  C    0.094031  -0.613915  -1.023998  -0.012897   0.178605   0.020892
     9  C   -0.018025   0.061920  -0.174348   0.008440   0.096937  -0.007027
    10  C   -0.027221  -0.214656  -0.380506  -0.080855  -0.252727   0.132662
    11  O   -0.081752   0.262769   0.006465  -0.025347  -0.003120  -0.003513
    12  O   -0.056636   0.144419  -0.102415  -0.029844   0.001231   0.022612
    13  C   -0.211026  -1.327778  -0.225417  -0.266412   0.007357  -0.002245
    14  H    0.457647   0.040447   0.002146   0.003699  -0.000041  -0.000033
    15  H    0.445859  -0.021437   0.000902  -0.052052  -0.000098   0.000050
    16  H   -0.002793  -0.008263   0.440444   0.000226  -0.016308   0.000323
    17  H   -0.024491  -0.001726  -0.002761   0.413680  -0.000045   0.000050
    18  H   -0.126843   0.041959  -0.009828   0.547586   0.001512  -0.000638
    19  H   -0.186224   0.027073  -0.036483   0.028113  -0.001416   0.000215
    20  H   -0.010481  -0.010360  -0.001596   0.006240   0.000277   0.000338
    21  H    0.002547  -0.012934  -0.009008   0.000415  -0.101105  -0.008408
    22  H   -0.000220   0.008602  -0.024654   0.000504  -0.015269   0.009132
    23  H    0.002968   0.003921  -0.018885   0.001817  -0.010480  -0.045769
    24  H   -0.001574  -0.002287   0.028793  -0.004355   0.025841  -0.072367
    25  H   -0.022304  -0.076904   0.006271   0.003024  -0.000169  -0.000014
    26  H   -0.019686  -0.061105  -0.018664  -0.044854   0.002171   0.000041
    27  H    0.003447   0.482049   0.004891  -0.017653  -0.001299  -0.001402
    28  H    0.000626  -0.000149  -0.006902   0.000142   0.459287  -0.053869
    29  H   -0.000473   0.001400  -0.002435  -0.000093   0.440098  -0.068687
    30  H    0.006380   0.004802   0.414986  -0.000546  -0.001214  -0.002410
    31  H    0.116173  -0.067002   0.153880  -0.039950  -0.021892   0.020512
               7          8          9         10         11         12
     1  C   -0.415297   0.094031  -0.018025  -0.027221  -0.081752  -0.056636
     2  C   -0.473783  -0.613915   0.061920  -0.214656   0.262769   0.144419
     3  C   -0.174797  -1.023998  -0.174348  -0.380506   0.006465  -0.102415
     4  C    0.046222  -0.012897   0.008440  -0.080855  -0.025347  -0.029844
     5  C    0.008073   0.178605   0.096937  -0.252727  -0.003120   0.001231
     6  O    0.003315   0.020892  -0.007027   0.132662  -0.003513   0.022612
     7  C    5.737428  -0.039316   0.012215   0.098727   0.171975   0.075207
     8  C   -0.039316   7.720256  -0.272297  -0.612521  -0.002707   0.094458
     9  C    0.012215  -0.272297   5.628044   0.188328  -0.007993  -0.030007
    10  C    0.098727  -0.612521   0.188328   6.638595   0.002152  -0.043973
    11  O    0.171975  -0.002707  -0.007993   0.002152   8.138207  -0.020962
    12  O    0.075207   0.094458  -0.030007  -0.043973  -0.020962   8.273169
    13  C    0.322195   0.233879   0.008118   0.138778  -0.011508  -0.038445
    14  H   -0.082969  -0.002308   0.000153  -0.001385  -0.005813   0.000263
    15  H   -0.031714   0.000893  -0.000242  -0.000008   0.008906  -0.001418
    16  H    0.002082  -0.046057  -0.011610   0.011252   0.000569   0.006183
    17  H    0.015392   0.001606   0.001115   0.001081  -0.001773  -0.001660
    18  H    0.016354  -0.001992   0.004156  -0.004398  -0.001877   0.007040
    19  H    0.542968  -0.065691   0.011341   0.051885  -0.050415   0.013369
    20  H    0.419201   0.000420   0.000439   0.006126  -0.057226   0.001105
    21  H   -0.001503  -0.020179   0.499175   0.021734   0.001486  -0.001251
    22  H   -0.000813  -0.022444   0.432117  -0.011518  -0.000315   0.001080
    23  H    0.000261  -0.055328   0.018480   0.440671   0.002245   0.011524
    24  H    0.001710  -0.021470  -0.010931   0.385719  -0.000858  -0.015470
    25  H    0.005117   0.000331  -0.000493  -0.000882  -0.014366   0.000038
    26  H    0.024148  -0.004545   0.004434   0.002176   0.010274   0.000093
    27  H   -0.034312  -0.014984   0.009109   0.012851  -0.055738  -0.069487
    28  H   -0.000733   0.021444  -0.032855  -0.038022   0.000073   0.001087
    29  H    0.000615   0.008794  -0.051865   0.008821  -0.000172   0.001117
    30  H   -0.005570  -0.000599  -0.024417  -0.010410  -0.001035   0.000771
    31  H   -0.064236   0.368040  -0.079743  -0.064166   0.015026  -0.035175
              13         14         15         16         17         18
     1  C   -0.211026   0.457647   0.445859  -0.002793  -0.024491  -0.126843
     2  C   -1.327778   0.040447  -0.021437  -0.008263  -0.001726   0.041959
     3  C   -0.225417   0.002146   0.000902   0.440444  -0.002761  -0.009828
     4  C   -0.266412   0.003699  -0.052052   0.000226   0.413680   0.547586
     5  C    0.007357  -0.000041  -0.000098  -0.016308  -0.000045   0.001512
     6  O   -0.002245  -0.000033   0.000050   0.000323   0.000050  -0.000638
     7  C    0.322195  -0.082969  -0.031714   0.002082   0.015392   0.016354
     8  C    0.233879  -0.002308   0.000893  -0.046057   0.001606  -0.001992
     9  C    0.008118   0.000153  -0.000242  -0.011610   0.001115   0.004156
    10  C    0.138778  -0.001385  -0.000008   0.011252   0.001081  -0.004398
    11  O   -0.011508  -0.005813   0.008906   0.000569  -0.001773  -0.001877
    12  O   -0.038445   0.000263  -0.001418   0.006183  -0.001660   0.007040
    13  C    6.809831  -0.050089   0.023792   0.006418  -0.035492  -0.083747
    14  H   -0.050089   0.475792  -0.007331   0.000002  -0.001015   0.001439
    15  H    0.023792  -0.007331   0.474305  -0.000244  -0.006362  -0.005529
    16  H    0.006418   0.000002  -0.000244   0.436032   0.000031   0.001558
    17  H   -0.035492  -0.001015  -0.006362   0.000031   0.451954  -0.006408
    18  H   -0.083747   0.001439  -0.005529   0.001558  -0.006408   0.475828
    19  H    0.010984   0.005899  -0.005018   0.004420  -0.000543   0.011256
    20  H   -0.001523  -0.005326  -0.007527  -0.000141   0.002016  -0.002195
    21  H    0.002297  -0.000020   0.000030   0.004274  -0.000029  -0.000544
    22  H   -0.002203   0.000016  -0.000026  -0.009937  -0.000011   0.000438
    23  H   -0.007413  -0.000141   0.000050  -0.004832  -0.000052   0.001548
    24  H    0.011553   0.000494  -0.000171  -0.003051   0.000013  -0.001598
    25  H    0.474111  -0.005126  -0.000898  -0.000032  -0.004514   0.000759
    26  H    0.477612  -0.002240   0.000514   0.000466  -0.005665   0.001003
    27  H   -0.038049   0.003967  -0.000015  -0.000498   0.001402   0.001919
    28  H   -0.001320   0.000007   0.000040  -0.006343   0.000001  -0.000245
    29  H    0.001057  -0.000004  -0.000016  -0.000853   0.000009   0.000113
    30  H   -0.004746   0.000103   0.000220  -0.002451   0.000293  -0.003313
    31  H   -0.018471  -0.002517   0.004818  -0.021943   0.000742  -0.040212
              19         20         21         22         23         24
     1  C   -0.186224  -0.010481   0.002547  -0.000220   0.002968  -0.001574
     2  C    0.027073  -0.010360  -0.012934   0.008602   0.003921  -0.002287
     3  C   -0.036483  -0.001596  -0.009008  -0.024654  -0.018885   0.028793
     4  C    0.028113   0.006240   0.000415   0.000504   0.001817  -0.004355
     5  C   -0.001416   0.000277  -0.101105  -0.015269  -0.010480   0.025841
     6  O    0.000215   0.000338  -0.008408   0.009132  -0.045769  -0.072367
     7  C    0.542968   0.419201  -0.001503  -0.000813   0.000261   0.001710
     8  C   -0.065691   0.000420  -0.020179  -0.022444  -0.055328  -0.021470
     9  C    0.011341   0.000439   0.499175   0.432117   0.018480  -0.010931
    10  C    0.051885   0.006126   0.021734  -0.011518   0.440671   0.385719
    11  O   -0.050415  -0.057226   0.001486  -0.000315   0.002245  -0.000858
    12  O    0.013369   0.001105  -0.001251   0.001080   0.011524  -0.015470
    13  C    0.010984  -0.001523   0.002297  -0.002203  -0.007413   0.011553
    14  H    0.005899  -0.005326  -0.000020   0.000016  -0.000141   0.000494
    15  H   -0.005018  -0.007527   0.000030  -0.000026   0.000050  -0.000171
    16  H    0.004420  -0.000141   0.004274  -0.009937  -0.004832  -0.003051
    17  H   -0.000543   0.002016  -0.000029  -0.000011  -0.000052   0.000013
    18  H    0.011256  -0.002195  -0.000544   0.000438   0.001548  -0.001598
    19  H    0.574425  -0.026141   0.000334  -0.000059  -0.003644  -0.004241
    20  H   -0.026141   0.464884  -0.000056  -0.000014   0.000660  -0.001769
    21  H    0.000334  -0.000056   0.479042  -0.014984   0.000253  -0.002319
    22  H   -0.000059  -0.000014  -0.014984   0.481195  -0.000427   0.001915
    23  H   -0.003644   0.000660   0.000253  -0.000427   0.494128  -0.013431
    24  H   -0.004241  -0.001769  -0.002319   0.001915  -0.013431   0.457751
    25  H   -0.002187   0.001443   0.000227   0.000015   0.000323  -0.000290
    26  H    0.002772   0.000506  -0.001371   0.000218  -0.000512   0.000177
    27  H   -0.000353   0.000350  -0.003104   0.000512  -0.000615  -0.001886
    28  H   -0.000815  -0.000013   0.000750   0.004138   0.008938  -0.001860
    29  H    0.000280   0.000023  -0.004120  -0.008526  -0.002167   0.001172
    30  H   -0.002741  -0.000014  -0.000926  -0.008704  -0.001204   0.001100
    31  H   -0.066967   0.006604   0.000343   0.000325  -0.009343   0.005562
              25         26         27         28         29         30
     1  C   -0.022304  -0.019686   0.003447   0.000626  -0.000473   0.006380
     2  C   -0.076904  -0.061105   0.482049  -0.000149   0.001400   0.004802
     3  C    0.006271  -0.018664   0.004891  -0.006902  -0.002435   0.414986
     4  C    0.003024  -0.044854  -0.017653   0.000142  -0.000093  -0.000546
     5  C   -0.000169   0.002171  -0.001299   0.459287   0.440098  -0.001214
     6  O   -0.000014   0.000041  -0.001402  -0.053869  -0.068687  -0.002410
     7  C    0.005117   0.024148  -0.034312  -0.000733   0.000615  -0.005570
     8  C    0.000331  -0.004545  -0.014984   0.021444   0.008794  -0.000599
     9  C   -0.000493   0.004434   0.009109  -0.032855  -0.051865  -0.024417
    10  C   -0.000882   0.002176   0.012851  -0.038022   0.008821  -0.010410
    11  O   -0.014366   0.010274  -0.055738   0.000073  -0.000172  -0.001035
    12  O    0.000038   0.000093  -0.069487   0.001087   0.001117   0.000771
    13  C    0.474111   0.477612  -0.038049  -0.001320   0.001057  -0.004746
    14  H   -0.005126  -0.002240   0.003967   0.000007  -0.000004   0.000103
    15  H   -0.000898   0.000514  -0.000015   0.000040  -0.000016   0.000220
    16  H   -0.000032   0.000466  -0.000498  -0.006343  -0.000853  -0.002451
    17  H   -0.004514  -0.005665   0.001402   0.000001   0.000009   0.000293
    18  H    0.000759   0.001003   0.001919  -0.000245   0.000113  -0.003313
    19  H   -0.002187   0.002772  -0.000353  -0.000815   0.000280  -0.002741
    20  H    0.001443   0.000506   0.000350  -0.000013   0.000023  -0.000014
    21  H    0.000227  -0.001371  -0.003104   0.000750  -0.004120  -0.000926
    22  H    0.000015   0.000218   0.000512   0.004138  -0.008526  -0.008704
    23  H    0.000323  -0.000512  -0.000615   0.008938  -0.002167  -0.001204
    24  H   -0.000290   0.000177  -0.001886  -0.001860   0.001172   0.001100
    25  H    0.454676  -0.010142  -0.001851  -0.000005  -0.000014  -0.000067
    26  H   -0.010142   0.483002  -0.016520  -0.000212   0.000208  -0.004152
    27  H   -0.001851  -0.016520   0.497633   0.000086   0.000109   0.001607
    28  H   -0.000005  -0.000212   0.000086   0.503462  -0.006960   0.001769
    29  H   -0.000014   0.000208   0.000109  -0.006960   0.481025  -0.000161
    30  H   -0.000067  -0.004152   0.001607   0.001769  -0.000161   0.478839
    31  H    0.000993  -0.004676  -0.006320   0.004537  -0.000875  -0.001646
              31
     1  C    0.116173
     2  C   -0.067002
     3  C    0.153880
     4  C   -0.039950
     5  C   -0.021892
     6  O    0.020512
     7  C   -0.064236
     8  C    0.368040
     9  C   -0.079743
    10  C   -0.064166
    11  O    0.015026
    12  O   -0.035175
    13  C   -0.018471
    14  H   -0.002517
    15  H    0.004818
    16  H   -0.021943
    17  H    0.000742
    18  H   -0.040212
    19  H   -0.066967
    20  H    0.006604
    21  H    0.000343
    22  H    0.000325
    23  H   -0.009343
    24  H    0.005562
    25  H    0.000993
    26  H   -0.004676
    27  H   -0.006320
    28  H    0.004537
    29  H   -0.000875
    30  H   -0.001646
    31  H    0.631158
 Mulliken charges:
               1
     1  C   -0.414105
     2  C   -0.239980
     3  C   -0.616558
     4  C   -0.279934
     5  C   -0.181029
     6  O   -0.293000
     7  C   -0.178164
     8  C    0.089599
     9  C   -0.262668
    10  C   -0.398310
    11  O   -0.273657
    12  O   -0.208026
    13  C   -0.202102
    14  H    0.174286
    15  H    0.179726
    16  H    0.221076
    17  H    0.203162
    18  H    0.174897
    19  H    0.167604
    20  H    0.213750
    21  H    0.168953
    22  H    0.179918
    23  H    0.186454
    24  H    0.238125
    25  H    0.192931
    26  H    0.184527
    27  H    0.244153
    28  H    0.143915
    29  H    0.202580
    30  H    0.165456
    31  H    0.216419
 Sum of Mulliken charges =  -0.00000
 Mulliken charges with hydrogens summed into heavy atoms:
               1
     1  C   -0.060093
     2  C    0.004173
     3  C   -0.230026
     4  C    0.098125
     5  C    0.165466
     6  O   -0.293000
     7  C    0.203190
     8  C    0.306018
     9  C    0.086203
    10  C    0.026270
    11  O   -0.273657
    12  O   -0.208026
    13  C    0.175357
 Electronic spatial extent (au):  <R**2>=           2767.4230
 Charge=             -0.0000 electrons
 Dipole moment (field-independent basis, Debye):
    X=              1.9205    Y=              1.7332    Z=             -3.6776  Tot=              4.4964
 Quadrupole moment (field-independent basis, Debye-Ang):
   XX=            -71.5249   YY=            -82.3425   ZZ=            -79.3422
   XY=             -3.1725   XZ=              2.7536   YZ=              3.8482
 Traceless Quadrupole moment (field-independent basis, Debye-Ang):
   XX=              6.2116   YY=             -4.6060   ZZ=             -1.6056
   XY=             -3.1725   XZ=              2.7536   YZ=              3.8482
 Octapole moment (field-independent basis, Debye-Ang**2):
  XXX=             -2.6112  YYY=             -2.4030  ZZZ=              5.2024  XYY=              7.4257
  XXY=             11.8460  XXZ=             -9.7231  XZZ=              2.2680  YZZ=             -0.0981
  YYZ=             -5.2658  XYZ=              0.8771
 Hexadecapole moment (field-independent basis, Debye-Ang**3):
 XXXX=          -2561.7343 YYYY=           -609.8240 ZZZZ=           -364.6585 XXXY=            -34.1396
 XXXZ=              0.4181 YYYX=            -13.8850 YYYZ=              5.4468 ZZZX=              3.8014
 ZZZY=              2.5042 XXYY=           -562.2728 XXZZ=           -507.1233 YYZZ=           -171.3509
 XXYZ=             18.2035 YYXZ=              2.5431 ZZXY=              0.8388
 N-N= 9.095260810659D+02 E-N=-3.261081010228D+03  KE= 6.153210416177D+02
 D1PCM: PCM CHGder 1st derivatives, ID1Alg=3 FixD1E=F DoIter=F DoCFld=F I1PDM=0.
 Calling FoFJK, ICntrl=      2127 FMM=F ISym2X=0 I1Cent= 0 IOpClX= 0 NMat=1 NMatS=1 NMatT=0.
 ***** Axes restored to original set *****
 -------------------------------------------------------------------
 Center     Atomic                   Forces (Hartrees/Bohr)
 Number     Number              X              Y              Z
 -------------------------------------------------------------------
      1        6          -0.002538416    0.000451577   -0.001014541
      2        6           0.005192543    0.001373442   -0.012365582
      3        6          -0.001166688   -0.002488660    0.002510232
      4        6          -0.000633275   -0.003477866    0.003193613
      5        6           0.006379916    0.002787050   -0.000588109
      6        8          -0.000068487   -0.004506089    0.007014168
      7        6           0.001873656    0.007630790    0.003335833
      8        6           0.001374331    0.000188629    0.003681491
      9        6           0.000475706   -0.001527055   -0.001940790
     10        6          -0.003420297    0.005482439    0.000412386
     11        8          -0.002680648   -0.008175708    0.005765326
     12        8          -0.008788973    0.006571583    0.005350048
     13        6           0.000057509   -0.000848241   -0.002114935
     14        1           0.001931594   -0.000448621    0.002667755
     15        1           0.001215315   -0.000093388   -0.002496670
     16        1          -0.001272859   -0.001120049   -0.003235413
     17        1           0.001630610    0.001751185   -0.000498115
     18        1          -0.003226104    0.000519550   -0.002622353
     19        1          -0.004009347    0.000599130   -0.005892573
     20        1           0.001916561   -0.004199267    0.000027889
     21        1           0.001761051    0.000298822    0.002972637
     22        1          -0.001740988    0.001988342   -0.001219724
     23        1          -0.001613494   -0.001357009   -0.006331446
     24        1           0.005144269   -0.002835570    0.002524080
     25        1           0.002921171   -0.000707053    0.002147545
     26        1          -0.001915484    0.002442371    0.000374119
     27        1          -0.000583612   -0.000768754    0.006996570
     28        1          -0.002147229   -0.000835520   -0.005891235
     29        1          -0.003149813   -0.000096634    0.003019315
     30        1           0.001955039    0.002406854    0.000359733
     31        1           0.005126445   -0.001006281   -0.006141253
 -------------------------------------------------------------------
 Cartesian Forces:  Max     0.012365582 RMS     0.003567400

 GradGradGradGradGradGradGradGradGradGradGradGradGradGradGradGradGradGrad
 Berny optimization.
 FormGI is forming the generalized inverse of G from B-inverse, IUseBI=4.
 Internal  Forces:  Max     0.020617824 RMS     0.002396342
 Search for a local minimum.
 Step number   1 out of a maximum of  186
 All quantities printed in internal units (Hartrees-Bohrs-Radians)
 Mixed Optimization -- RFO/linear search
 Second derivative matrix not updated -- first step.
 ITU=  0
     Eigenvalues ---    0.00607   0.00641   0.00720   0.00727   0.01253
     Eigenvalues ---    0.01432   0.01449   0.02641   0.02828   0.03013
     Eigenvalues ---    0.03094   0.04073   0.04370   0.04595   0.04701
     Eigenvalues ---    0.04733   0.04903   0.05021   0.05060   0.05165
     Eigenvalues ---    0.05308   0.05744   0.05850   0.05975   0.06146
     Eigenvalues ---    0.06214   0.06625   0.06707   0.07372   0.07681
     Eigenvalues ---    0.07947   0.07953   0.07974   0.08182   0.08436
     Eigenvalues ---    0.08463   0.09173   0.09394   0.10816   0.11705
     Eigenvalues ---    0.11717   0.11740   0.11867   0.12534   0.12631
     Eigenvalues ---    0.14539   0.15427   0.16220   0.16822   0.17531
     Eigenvalues ---    0.19617   0.21832   0.21919   0.25000   0.28535
     Eigenvalues ---    0.28565   0.28788   0.28929   0.29016   0.29227
     Eigenvalues ---    0.30175   0.30231   0.35026   0.35037   0.35110
     Eigenvalues ---    0.35122   0.35124   0.35151   0.35245   0.35267
     Eigenvalues ---    0.35301   0.35331   0.35410   0.35496   0.35720
     Eigenvalues ---    0.35802   0.35857   0.36070   0.36120   0.36204
     Eigenvalues ---    0.40321   0.41550   0.42119   0.42715   0.43379
     Eigenvalues ---    0.444591000.000001000.000001000.000001000.00000
     Eigenvalues --- 1000.000001000.000001000.000001000.000001000.00000
     Eigenvalues --- 1000.000001000.000001000.000001000.000001000.00000
     Eigenvalues --- 1000.000001000.000001000.000001000.000001000.00000
     Eigenvalues --- 1000.000001000.000001000.000001000.000001000.00000
     Eigenvalues --- 1000.000001000.000001000.000001000.000001000.00000
     Eigenvalues --- 1000.000001000.000001000.000001000.000001000.00000
     Eigenvalues --- 1000.000001000.000001000.000001000.000001000.00000
     Eigenvalues --- 1000.000001000.000001000.000001000.000001000.00000
     Eigenvalues --- 1000.000001000.000001000.000001000.000001000.00000
     Eigenvalues --- 1000.000001000.000001000.000001000.000001000.00000
     Eigenvalues --- 1000.000001000.000001000.000001000.000001000.00000
     Eigenvalues --- 1000.000001000.000001000.000001000.000001000.00000
     Eigenvalues --- 1000.000001000.000001000.000001000.000001000.00000
     Eigenvalues --- 1000.000001000.000001000.000001000.000001000.00000
     Eigenvalues --- 1000.000001000.000001000.000001000.000001000.00000
     Eigenvalues --- 1000.000001000.000001000.000001000.000001000.00000
     Eigenvalues --- 1000.000001000.000001000.000001000.000001000.00000
     Eigenvalues --- 1000.000001000.000001000.000001000.000001000.00000
     Eigenvalues --- 1000.000001000.000001000.000001000.000001000.00000
 RFO step:  Lambda=-4.72261685D-03 EMin= 6.06927959D-03
 Linear search not attempted -- first point.
 Iteration  1 RMS(Cart)=  0.10782204 RMS(Int)=  0.00207082
 Iteration  2 RMS(Cart)=  0.00579503 RMS(Int)=  0.00006056
 Iteration  3 RMS(Cart)=  0.00001247 RMS(Int)=  0.00006020
 Iteration  4 RMS(Cart)=  0.00000000 RMS(Int)=  0.00006020
 Iteration  1 RMS(Cart)=  0.00008325 RMS(Int)=  0.00001714
 Iteration  2 RMS(Cart)=  0.00004366 RMS(Int)=  0.00001916
 Iteration  3 RMS(Cart)=  0.00002290 RMS(Int)=  0.00002154
 Iteration  4 RMS(Cart)=  0.00001201 RMS(Int)=  0.00002304
 Iteration  5 RMS(Cart)=  0.00000630 RMS(Int)=  0.00002389
 Iteration  6 RMS(Cart)=  0.00000330 RMS(Int)=  0.00002434
 Iteration  7 RMS(Cart)=  0.00000173 RMS(Int)=  0.00002459
 Iteration  8 RMS(Cart)=  0.00000091 RMS(Int)=  0.00002471
 Variable       Old X    -DE/DX   Delta X   Delta X   Delta X     New X
                                 (Linear)    (Quad)   (Total)
    R1        2.88331  -0.00079   0.00000  -0.00323  -0.00330   2.88001
    R2        2.86889   0.00002   0.00000  -0.00109  -0.00113   2.86776
    R3        2.05475   0.00325   0.00000   0.00912   0.00912   2.06387
    R4        2.05244   0.00276   0.00000   0.00774   0.00774   2.06017
    R5        2.64332   0.00319   0.00000   0.00747   0.00754   2.65086
    R6        2.67205   0.00134   0.00000   0.00305   0.00305   2.67510
    R7        2.88357  -0.00061   0.00000  -0.00090  -0.00085   2.88271
    R8        2.03895   0.00706   0.00000   0.01929   0.01929   2.05823
    R9        2.88784  -0.00179   0.00000  -0.00645  -0.00648   2.88137
   R10        2.89136  -0.00127   0.00000  -0.00487  -0.00489   2.88647
   R11        2.05496   0.00362   0.00000   0.01018   0.01018   2.06514
   R12        2.05014   0.00302   0.00000   0.00842   0.00842   2.05856
   R13        2.88373  -0.00095   0.00000  -0.00373  -0.00374   2.88000
   R14        2.05141   0.00242   0.00000   0.00677   0.00677   2.05818
   R15        2.05430   0.00416   0.00000   0.01166   0.01166   2.06597
   R16        2.67535   0.00308   0.00000   0.00743   0.00746   2.68280
   R17        2.87293   0.00068   0.00000   0.00186   0.00184   2.87478
   R18        2.05633   0.00622   0.00000   0.01751   0.01751   2.07384
   R19        2.04392   0.00436   0.00000   0.01203   0.01203   2.05595
   R20        2.66908   0.00209   0.00000   0.00516   0.00517   2.67425
   R21        2.69580   0.00272   0.00000   0.00683   0.00684   2.70264
   R22        2.04521   0.00710   0.00000   0.01962   0.01962   2.06483
   R23        2.04305   0.00461   0.00000   0.01268   0.01268   2.05573
   R24        2.88002   0.00016   0.00000   0.00093   0.00095   2.88098
   R25        2.68023   0.00002   0.00000   0.00003   0.00003   2.68027
   R26        2.03973   0.00803   0.00000   0.02198   0.02198   2.06171
   R27        2.05190   0.00324   0.00000   0.00906   0.00906   2.06095
   R28        2.05279   0.00288   0.00000   0.00807   0.00807   2.06086
   R29        2.05614   0.00661   0.00000   0.01861   0.01861   2.07475
   R30        2.03764   0.00606   0.00000   0.01653   0.01653   2.05418
   R31        2.05478   0.00366   0.00000   0.01027   0.01027   2.06505
   R32        2.04877   0.00305   0.00000   0.00848   0.00848   2.05725
    A1        1.92305  -0.00096   0.00000  -0.00637  -0.00654   1.91651
    A2        1.91051   0.00060   0.00000   0.00019   0.00024   1.91075
    A3        1.94778  -0.00024   0.00000   0.00003   0.00006   1.94785
    A4        1.91478   0.00031   0.00000  -0.00070  -0.00067   1.91411
    A5        1.89134   0.00032   0.00000   0.00348   0.00354   1.89488
    A6        1.87560   0.00001   0.00000   0.00363   0.00360   1.87921
    A7        1.99503  -0.00216   0.00000  -0.02296  -0.02300   1.97203
    A8        1.97096   0.00375   0.00000   0.00818   0.00773   1.97869
    A9        1.82657  -0.00160   0.00000   0.00653   0.00660   1.83317
   A10        1.94432  -0.00199   0.00000  -0.01708  -0.01730   1.92702
   A11        1.80956   0.00191   0.00000   0.02193   0.02212   1.83168
   A12        1.90398   0.00005   0.00000   0.00821   0.00819   1.91218
   A13        1.94780   0.00010   0.00000  -0.01118  -0.01126   1.93654
   A14        1.88044  -0.00009   0.00000   0.00464   0.00464   1.88508
   A15        1.91329  -0.00042   0.00000  -0.00554  -0.00550   1.90779
   A16        1.90670  -0.00019   0.00000   0.00372   0.00376   1.91046
   A17        1.93994   0.00032   0.00000   0.00287   0.00278   1.94272
   A18        1.87317   0.00028   0.00000   0.00631   0.00630   1.87947
   A19        1.89261   0.00184   0.00000  -0.00138  -0.00139   1.89123
   A20        1.93145  -0.00012   0.00000   0.00100   0.00103   1.93248
   A21        1.92237  -0.00093   0.00000  -0.00005  -0.00008   1.92228
   A22        1.91625  -0.00066   0.00000   0.00164   0.00165   1.91791
   A23        1.93256  -0.00054   0.00000  -0.00237  -0.00239   1.93017
   A24        1.86890   0.00036   0.00000   0.00120   0.00120   1.87010
   A25        1.93670   0.00131   0.00000   0.00807   0.00800   1.94471
   A26        1.90099   0.00103   0.00000   0.00794   0.00801   1.90900
   A27        1.85681  -0.00116   0.00000  -0.00477  -0.00474   1.85207
   A28        1.92971  -0.00129   0.00000  -0.00848  -0.00849   1.92122
   A29        1.94671  -0.00036   0.00000  -0.00371  -0.00370   1.94300
   A30        1.89063   0.00051   0.00000   0.00129   0.00126   1.89188
   A31        1.98041  -0.00381   0.00000  -0.02440  -0.02432   1.95608
   A32        1.97538   0.00241   0.00000   0.00839   0.00832   1.98371
   A33        1.92602  -0.00155   0.00000  -0.00691  -0.00692   1.91910
   A34        1.93917  -0.00046   0.00000  -0.00415  -0.00414   1.93502
   A35        1.91214   0.00014   0.00000   0.00395   0.00400   1.91614
   A36        1.82731  -0.00103   0.00000  -0.00085  -0.00083   1.82648
   A37        1.87929   0.00047   0.00000  -0.00036  -0.00040   1.87890
   A38        1.91150   0.00076   0.00000   0.00316   0.00309   1.91459
   A39        1.87269   0.00028   0.00000  -0.00060  -0.00057   1.87211
   A40        1.90047  -0.00042   0.00000   0.00252   0.00254   1.90301
   A41        1.94640  -0.00064   0.00000  -0.00422  -0.00417   1.94223
   A42        1.90352  -0.00061   0.00000  -0.00775  -0.00774   1.89578
   A43        1.92858   0.00065   0.00000   0.00722   0.00719   1.93576
   A44        1.92273  -0.00028   0.00000  -0.00614  -0.00619   1.91654
   A45        1.92782   0.00036   0.00000  -0.00270  -0.00268   1.92514
   A46        1.92570  -0.00073   0.00000  -0.00152  -0.00152   1.92418
   A47        1.90689  -0.00030   0.00000  -0.00084  -0.00090   1.90599
   A48        1.90718   0.00068   0.00000   0.00516   0.00521   1.91239
   A49        1.87271   0.00029   0.00000   0.00645   0.00644   1.87915
   A50        1.95114   0.00086   0.00000   0.00392   0.00396   1.95510
   A51        1.91108   0.00105   0.00000   0.00981   0.00979   1.92087
   A52        1.85973   0.00001   0.00000   0.00236   0.00233   1.86205
   A53        1.89944  -0.00103   0.00000  -0.00322  -0.00329   1.89615
   A54        1.94547  -0.00179   0.00000  -0.01843  -0.01846   1.92702
   A55        1.89595   0.00100   0.00000   0.00620   0.00612   1.90207
   A56        2.12620  -0.00554   0.00000  -0.02749  -0.02730   2.09891
   A57        2.17810  -0.02062   0.00000  -0.08094  -0.08094   2.09716
   A58        1.97834  -0.00192   0.00000  -0.01336  -0.01341   1.96493
   A59        1.87101   0.00046   0.00000   0.00988   0.00991   1.88092
   A60        1.88830   0.00055   0.00000  -0.00690  -0.00702   1.88129
   A61        1.89609   0.00121   0.00000   0.00935   0.00944   1.90553
   A62        1.95437  -0.00014   0.00000  -0.00396  -0.00417   1.95019
   A63        1.87099  -0.00004   0.00000   0.00673   0.00676   1.87775
    D1        0.99929   0.00033   0.00000   0.01009   0.01006   1.00935
    D2        3.10206   0.00062   0.00000   0.01184   0.01184   3.11391
    D3       -1.11798   0.00041   0.00000   0.01391   0.01391  -1.10407
    D4       -1.10784   0.00018   0.00000   0.01484   0.01483  -1.09301
    D5        0.99493   0.00046   0.00000   0.01659   0.01661   1.01154
    D6        3.05807   0.00025   0.00000   0.01866   0.01868   3.07675
[...]
 0.00010227,-0.00053295,0.00005340,0.00222204,0.00113450,0.00180211,-0.
 12700761,0.02570683,-0.15565739,0.00057014,-0.00077396,0.00021525,0.00
 040163,0.00020250,0.00036606,0.00002616,-0.00002513,0.00001432,0.00003
 350,0.00030992,0.00143926,0.00302665,-0.00105218,-0.00519089,0.0000793
 9,0.00007643,-0.00001914,-0.00006311,-0.00007046,0.00004637,-0.0000014
 6,-0.00000008,0.00000153,-0.00000261,0.00000006,0.00000369,0.00001085,
 0.00003219,-0.00000149,0.00000370,0.00000370,-0.00000356,0.13520750,-0
 .02967302,0.17420472,-0.00026318,-0.00021380,0.00314637,0.00758228,-0.
 02082855,-0.00517776,0.00000471,0.00003996,0.00001703,-0.00471361,0.00
 992431,0.00025086,-0.00000639,-0.00000917,0.00000522,-0.00001349,0.000
 03489,0.00000350,-0.00085123,0.00015399,0.00122212,-0.00002375,-0.0002
 0209,-0.00013911,-0.00000384,-0.00000354,0.00000007,0.00004215,-0.0000
 1286,0.00001807,-0.00286786,-0.00659484,-0.00037613,0.00120509,-0.0007
 3806,0.00001477,-0.08579026,0.09602897,0.01693096,0.00026064,-0.000473
 63,0.00003387,0.00009721,0.00101556,0.00034368,0.00000997,-0.00000646,
 0.00000983,-0.00000372,-0.00000403,-0.00047656,0.00046967,-0.00040131,
 -0.00000041,0.00009464,-0.00000253,-0.00014258,0.00012296,0.00005059,-
 0.00014647,0.00000064,0.00000356,0.00000579,0.00000509,0.00000052,0.00
 000060,0.00000636,0.00001945,0.00000310,0.00005451,0.00003882,0.000018
 20,-0.00825151,0.02142468,0.00435780,0.09230151,-0.00010474,0.00131709
 ,-0.00036144,0.01137897,-0.02047062,-0.00459172,-0.00003837,-0.0000242
 0,-0.00001521,-0.00028785,0.00056962,-0.00015108,-0.00001272,-0.000010
 60,0.00000931,-0.00004444,0.00002663,-0.00000380,-0.00034711,0.0008157
 4,0.00153674,-0.00008480,0.00027397,-0.00059845,-0.00001063,0.00000140
 ,-0.00000965,0.00012213,-0.00001924,0.00020916,-0.00392330,-0.00487208
 ,0.00034488,0.00180745,0.00216996,0.00060391,0.09065567,-0.27390896,-0
 .04033732,-0.00001802,0.00006974,0.00007523,-0.00006905,-0.00010535,0.
 00017014,0.00000642,0.00000597,0.00000566,0.00018662,0.00036514,-0.000
 43201,-0.00000585,0.00012091,-0.00038251,0.00001043,-0.00002469,-0.000
 21484,0.00007995,-0.00005304,-0.00010071,-0.00000168,0.00000373,0.0000
 0783,0.00000224,0.00000063,0.00000486,0.00001135,0.00009220,-0.0000102
 8,0.00006502,0.00008620,0.00000453,0.00116360,-0.00319417,0.00008734,-
 0.10019885,0.29626885,0.00198559,0.00094068,-0.00638044,-0.00423383,0.
 00396703,-0.00029756,-0.00000498,-0.00000904,0.00004343,0.01130445,-0.
 02988524,-0.00389964,0.00000003,-0.00000224,-0.00000315,0.00001067,-0.
 00000490,0.00000479,0.00074021,0.00033060,-0.00064884,-0.00000570,-0.0
 0008894,-0.00012669,-0.00000849,0.00000944,0.00000329,-0.00001185,0.00
 000429,0.00002018,0.00118593,0.00203617,0.00141028,-0.00021503,-0.0000
 9113,0.00022178,0.01671478,-0.03873837,-0.05513982,0.00018470,-0.00001
 343,0.00019665,0.00057986,-0.00196005,-0.00020321,0.00001537,-0.000004
 10,0.00000151,-0.00028391,0.00060633,0.00137347,-0.00088419,0.00021361
 ,0.00117578,-0.00009675,0.00000243,0.00007849,-0.00011073,-0.00004887,
 0.00015845,-0.00000298,-0.00000019,0.00000060,0.00000148,-0.00000095,0
 .00000050,0.00000860,-0.00000014,0.00000242,-0.00001426,-0.00000800,-0
 .00000606,-0.00633758,0.01952259,0.00334873,-0.02013489,0.04370156,0.0
 5868218,0.00037160,-0.00019394,-0.00026964,-0.05107473,-0.00855505,0.0
 4743900,-0.00048323,-0.00071595,-0.00143613,-0.00217033,-0.00383569,-0
 .00050706,0.00013398,0.00003904,0.00007281,-0.00022293,-0.00011162,0.0
 0017459,0.00209322,0.00071812,0.00006046,-0.00016523,0.00549694,-0.000
 20996,0.00006712,0.00003061,-0.00012292,0.00031339,0.00026010,-0.00009
 519,-0.00188201,0.00643371,0.01025559,-0.01532743,0.00441558,-0.041611
 46,-0.00463038,-0.00304910,0.02313530,-0.00007880,0.00004402,-0.000079
 29,-0.00001065,0.00006776,0.00000372,-0.00053296,0.00029116,-0.0001499
 9,-0.00062663,0.00015091,0.00120161,0.00011298,-0.00002301,0.00014224,
 -0.00020475,0.00008745,0.00063114,0.00000114,0.00010592,0.00012220,0.0
 0000323,-0.00001569,0.00005787,-0.00008539,0.00002229,0.00004866,-0.00
 011469,-0.00013486,-0.00000803,-0.00003032,-0.00012964,0.00005626,0.00
 042472,0.00054606,0.00023250,0.00052375,-0.00034123,-0.00039081,0.0738
 6058,0.00013440,-0.00048026,-0.00032250,-0.01091767,-0.05111768,0.0285
 2426,0.00009077,0.00014926,0.00033353,-0.00324738,-0.00353763,-0.00067
 884,-0.00005610,-0.00000319,-0.00000600,0.00009298,0.00008368,0.000000
 86,-0.00280853,-0.00388412,0.00040062,-0.00091646,-0.00158377,-0.00032
 068,-0.00001329,-0.00001223,0.00000300,-0.00001358,-0.00025652,-0.0000
 1389,0.01628762,-0.01358582,-0.04286810,0.00782715,0.00495715,0.009807
 25,-0.00710778,0.00124451,0.02351874,0.00005266,0.00014200,0.00003270,
 0.00012300,0.00033734,0.00004118,0.00012075,-0.00009019,0.00002504,-0.
 00076126,0.00023264,0.00147165,0.00019899,-0.00004773,-0.00013315,0.00
 034382,-0.00022252,-0.00104745,0.00063016,-0.00030824,-0.00095472,0.00
 000913,0.00000831,-0.00000319,0.00002415,-0.00000170,-0.00000453,0.000
 00737,0.00005698,-0.00002040,0.00002330,0.00010233,-0.00007423,0.00033
 963,0.00080627,-0.00052869,0.00091393,0.00052018,-0.00049026,-0.001399
 90,0.06646882,-0.00020772,0.00005925,-0.00005481,0.04271038,0.01881413
 ,-0.30562290,-0.00026546,-0.00050916,-0.00080010,0.00081438,0.00093378
 ,0.00148558,0.00014982,-0.00000241,0.00006669,-0.00032243,-0.00008961,
 0.00002804,-0.00203269,-0.00100544,0.00326478,0.00076411,0.00375483,0.
 00255762,-0.00001120,0.00009168,-0.00005418,0.00024178,0.00013359,-0.0
 0015550,0.00760115,-0.00952652,-0.01185089,-0.01386652,0.00310605,-0.0
 1637785,0.00195785,0.00118457,-0.00509429,0.00005741,0.00000455,0.0000
 3130,0.00004217,0.00003340,-0.00005376,-0.00032159,0.00016780,-0.00010
 480,0.00013731,-0.00017217,-0.00042207,-0.00013313,-0.00002256,0.00018
 123,0.00005668,0.00000018,-0.00022936,0.00030861,-0.00014939,-0.000496
 17,-0.00000554,-0.00002388,-0.00004211,-0.00008493,0.00000229,0.000015
 69,-0.00011121,-0.00009877,-0.00004350,0.00005422,0.00002914,0.0000298
 0,0.00038138,0.00005934,0.00069987,0.00018827,0.00035883,-0.00004593,-
 0.03813715,-0.01699394,0.33316602,0.00000066,0.00000177,-0.00000225,0.
 00010886,-0.00000336,0.00006501,0.00014769,0.00051751,-0.00102734,-0.0
 0000218,-0.00000621,0.00000317,-0.07546070,-0.02649619,-0.06128615,-0.
 02182075,0.00530443,-0.02758256,0.00002040,-0.00000627,-0.00000525,-0.
 00048424,0.00006410,0.00033228,-0.00211082,-0.00516692,-0.00957186,0.0
 0274910,-0.00113408,-0.00529568,-0.00001914,0.00002016,0.00001429,-0.0
 0002045,-0.00003506,0.00015974,-0.00000884,0.00000359,-0.00000206,-0.0
 0000354,-0.00000152,-0.00000107,-0.00000232,-0.00000024,0.00000204,-0.
 00016375,-0.00011624,0.00025153,-0.00000544,-0.00000070,-0.00000028,0.
 00000057,0.00000477,-0.00000641,0.00000274,-0.00000566,-0.00000892,-0.
 00000483,0.00000327,-0.00000119,0.00037371,-0.00181597,-0.00010151,0.0
 0038452,-0.00008915,0.00017547,0.00040290,0.00004024,0.00110502,0.0001
 2789,0.00014710,0.00039951,-0.00000735,-0.00000227,-0.00000130,0.00000
 070,0.00000037,0.00000047,-0.00000026,0.00000400,-0.00000862,0.0862368
 8,0.00000312,-0.00000245,0.00000372,0.00003491,-0.00004285,0.00007215,
 0.00120946,0.00132363,-0.00093403,0.00000152,0.00000068,-0.00000464,-0
 .02630381,-0.07335699,-0.07073295,0.01824968,0.00225764,0.02374550,-0.
 00000929,0.00001055,-0.00000833,0.00005519,-0.00024391,-0.00029887,-0.
 01086009,-0.01143324,-0.03019715,-0.00237200,0.00075718,0.00327251,-0.
 00001774,0.00005510,0.00000706,-0.00013517,0.00014628,-0.00007531,-0.0
 0000640,0.00000468,-0.00000758,0.00000091,0.00000139,0.00000009,-0.000
 00016,0.00000072,-0.00000007,-0.00024937,0.00010373,0.00082312,0.00000
 059,0.00000028,0.00000163,0.00000168,-0.00000104,0.00000184,-0.0000047
 3,-0.00000069,0.00000517,-0.00000171,0.00000026,0.00000173,-0.00260086
 ,-0.00581075,0.00091391,0.00069047,0.00109320,0.00032743,-0.00084552,-
 0.00006659,-0.00083790,-0.00014164,-0.00008585,-0.00006942,-0.00000379
 ,-0.00000182,0.00000062,0.00000102,0.00000146,0.00000105,-0.00000232,-
 0.00000102,-0.00000152,0.02198409,0.08309977,0.00000344,0.00000416,-0.
 00000537,0.00035236,-0.00010958,0.00016565,0.00013514,0.00048724,0.000
 91561,-0.00000222,-0.00001686,0.00000461,-0.06491761,-0.06920093,-0.24
 617679,-0.01377235,0.00672095,-0.01021569,0.00007208,-0.00000378,-0.00
 002169,-0.00015230,0.00026691,0.00010268,0.00156386,-0.00021837,0.0003
 8106,0.00309599,0.00012816,0.00131093,-0.00012235,0.00004305,0.0000057
 3,-0.00039213,-0.00024821,-0.00020248,-0.00002629,0.00002029,-0.000006
 39,-0.00000865,-0.00000497,-0.00000281,-0.00000563,-0.00000065,0.00000
 581,-0.00056416,-0.00002185,0.00015975,-0.00001424,-0.00000282,0.00000
 061,0.00000331,0.00001274,-0.00001432,0.00001786,-0.00001003,-0.000022
 90,-0.00001676,0.00000877,-0.00000321,0.00048977,0.00024701,0.00128225
 ,-0.00019194,-0.00080770,0.00019791,-0.00137668,-0.00008644,0.00074876
 ,-0.00009295,0.00019657,0.00046261,-0.00002237,-0.00000863,-0.00000104
 ,0.00000085,0.00000170,0.00000027,-0.00002491,0.00001262,-0.00003414,0
 .08232166,0.07007312,0.26879919,0.00000013,0.00000714,-0.00000996,0.00
 034187,-0.00003309,0.00019637,0.00088336,-0.00195556,-0.00052972,-0.00
 000444,-0.00001813,0.00000648,-0.18521121,-0.02308119,0.12721704,-0.02
 891759,0.00482048,0.01784829,0.00012727,-0.00002465,-0.00004495,0.0003
 0306,0.00055813,0.00033926,-0.00593429,-0.00254127,0.00699410,-0.00060
 803,0.00294569,-0.00447282,-0.00027013,-0.00000867,-0.00003896,-0.0003
 7231,-0.00012959,-0.00028421,-0.00002489,0.00001708,-0.00001054,-0.000
 01415,-0.00000825,-0.00000336,-0.00000808,-0.00000268,0.00000796,-0.00
 005604,0.00005115,0.00019761,-0.00001761,-0.00000472,0.00000044,0.0000
 0641,0.00001576,-0.00001822,0.00003815,-0.00000948,-0.00004064,-0.0000
 2024,0.00001173,-0.00000393,0.00013816,0.00049690,-0.00016885,0.000158
 76,-0.00041585,0.00006322,0.00008243,0.00003485,0.00037321,-0.00107835
 ,-0.00006063,0.00098542,-0.00002677,-0.00000923,-0.00000112,-0.0000009
 2,-0.00000300,0.00000195,-0.00003554,0.00000585,-0.00003971,0.00948729
 ,0.00100295,-0.00613862,0.21145253,0.00000583,-0.00000514,0.00000694,0
 .00009507,-0.00013924,-0.00003102,-0.00109524,-0.00672990,-0.00112213,
 0.00000777,-0.00000588,-0.00000056,-0.02813166,-0.05301163,0.02414638,
 0.02400328,-0.00081288,-0.01663494,-0.00004748,0.00003341,0.00002632,0
 .00072807,-0.00065286,-0.00009369,-0.02384299,-0.00189596,0.02270833,0
 .00239708,-0.00252029,0.00245941,0.00011797,0.00011599,0.00006284,-0.0
 0017076,0.00023732,-0.00008210,-0.00001305,0.00001830,-0.00000713,0.00
 000331,0.00000469,-0.00000089,0.00000121,0.00000250,-0.00000109,0.0002
 5334,0.00005623,0.00003219,-0.00000128,0.00000193,0.00000085,0.0000088
 6,-0.00000064,-0.00000115,-0.00003554,-0.00001157,0.00001088,-0.000005
 31,-0.00000042,-0.00000339,0.00049106,0.00150400,-0.00058013,0.0009361
 6,0.00095227,-0.00013182,-0.00019725,-0.00001259,0.00006533,0.00111291
 ,0.00013526,-0.00064302,-0.00000791,-0.00000471,0.00000119,0.00000414,
 0.00000449,0.00000195,-0.00002323,0.00000946,-0.00001370,0.00685188,0.
 00192405,-0.00728902,0.01844034,0.06062372,-0.00000155,-0.00000112,-0.
 00000457,-0.00012135,0.00004704,-0.00003597,-0.00003944,0.00068886,0.0
 0111046,-0.00000202,0.00000372,0.00000068,0.13721857,0.01960504,-0.181
 61362,-0.01061745,-0.00071501,0.00969388,-0.00001620,-0.00000523,0.000
 01673,-0.00042743,0.00007983,-0.00004838,-0.00130529,-0.00112640,0.000
 25540,-0.00177276,0.00092431,0.00043328,0.00005787,-0.00003083,-0.0000
 0959,0.00019430,0.00001351,0.00008768,0.00001078,-0.00000713,0.0000064
 1,0.00000083,0.,0.00000139,0.00000203,0.00000040,-0.00000181,-0.000297
 58,-0.00007448,0.00036133,0.00000336,0.00000076,-0.00000141,-0.0000019
 1,-0.00000229,0.00000328,0.00001060,0.00000226,0.00000235,0.00000622,-
 0.00000224,0.00000008,-0.00013350,0.00050800,0.00076610,0.00014724,0.0
 0038164,-0.00001878,-0.00016413,0.00014880,0.00043110,-0.00017491,0.00
 015616,0.00041327,0.00000915,0.00000270,-0.00000034,-0.00000179,-0.000
 00184,-0.00000073,0.00001438,-0.00000438,0.00001367,0.01985169,0.00363
 674,-0.01796539,-0.14284381,-0.02405870,0.18609586,0.00000746,0.000012
 32,0.00001190,-0.00013240,0.00015507,0.00016954,-0.08965372,-0.0991763
 4,-0.00034450,-0.00002365,0.00001242,-0.00008047,-0.00492602,0.0022806
 7,0.00418345,0.00147654,-0.00063601,-0.00036692,0.00007263,-0.00002180
 ,-0.00002490,0.00896829,0.02405505,-0.00089010,-0.00994420,-0.02460382
 ,-0.00153536,-0.00464130,0.00280516,-0.00128207,-0.00008259,-0.0001178
 1,-0.00008771,0.00161589,-0.00043143,0.00163465,0.00000905,-0.00002943
 ,0.00000338,-0.00000126,-0.00001329,0.00000038,-0.00000169,-0.00000344
 ,-0.00000041,-0.00425693,-0.00844591,0.00015271,0.00001543,-0.00000859
 ,0.00000577,0.00011220,-0.00005077,0.00006952,0.00004553,-0.00000695,-
 0.00002332,-0.00000026,-0.00000158,-0.00000421,0.00114312,0.00046915,-
 0.00014104,0.00059415,0.00027527,-0.00088919,-0.00006929,-0.00010221,-
 0.00003030,0.00069986,0.00135898,-0.00027560,0.00000801,0.00000511,0.0
 0000125,0.00000717,-0.00002031,0.00000523,0.00003854,-0.00000149,0.000
 03978,0.00016061,0.00035125,-0.00006449,-0.00033418,-0.00186799,0.0003
 8639,0.09799060,0.00000450,-0.00001429,0.00002520,0.00019528,0.0001747
 7,-0.00014846,-0.09701381,-0.27418151,-0.00071435,-0.00000239,0.000012
 79,-0.00005694,0.00034317,0.00144326,0.00030478,-0.00075915,0.00036174
 ,-0.00001316,-0.00013157,-0.00000834,-0.00002397,-0.00898310,-0.023095
 84,-0.00101550,0.00000129,0.00093932,0.00020909,0.00586226,-0.00114780
 ,0.00100168,0.00004242,0.00020848,0.00003256,-0.00129340,0.00248706,-0
 .00106102,0.00003792,-0.00001634,0.00004566,0.00001519,0.00001136,0.00
 000079,0.00000416,0.00000547,-0.00000485,-0.00167740,-0.00476996,-0.00
 053312,0.00001436,0.00000500,0.00001210,0.00012376,-0.00006177,0.00003
 775,-0.00004596,0.00002215,0.00007237,0.00002553,-0.00000293,0.0000220
 4,-0.00021006,0.00026227,0.00029702,-0.00044056,0.00028347,0.00029372,
 -0.00001050,0.00035051,-0.00011924,-0.00088553,-0.00129025,0.00035540,
 0.00000185,0.00001427,-0.00000172,0.00002290,0.00000403,0.00001746,-0.
 00002865,-0.00000882,-0.00002896,0.00007557,0.00006722,-0.00010549,0.0
 0010586,-0.00011637,-0.00006410,0.10461988,0.29731475,-0.00000277,0.00
 000475,-0.00001361,-0.00027512,0.00019096,0.00000105,-0.00055669,-0.00
 362276,-0.04807655,0.00001608,-0.00000087,0.00003035,0.00391287,-0.001
 66151,-0.00236167,-0.00063271,-0.00030033,0.00033326,0.00001109,0.0000
 0027,0.00005855,0.00157642,0.00910163,-0.00216282,0.00864457,0.0208830
 9,-0.00051231,-0.00130952,0.00026405,-0.00017053,0.00006465,-0.0001627
 9,-0.00007061,0.00093841,0.00028733,0.00096647,0.00002238,-0.00001533,
 0.00001519,-0.00000230,-0.00000097,0.00000099,0.00000312,-0.00000210,-
 0.00000208,-0.01076088,-0.02760589,0.00079866,0.00000148,-0.00000011,-
 0.00001149,-0.00002189,0.00000860,-0.00001116,0.00001039,-0.00000439,-
 0.00002485,-0.00000054,-0.00000074,-0.00001434,-0.00093755,0.00006974,
 0.00069807,-0.00061408,-0.00050308,0.00064837,0.00018173,0.00028958,0.
 00025951,0.00018613,0.00034187,0.00025994,0.00002646,0.00000463,-0.000
 00651,-0.00000427,-0.00002251,-0.00000359,0.00004551,-0.00000615,0.000
 03844,0.00017920,0.00032850,0.00015244,0.00041674,0.00123874,0.0000575
 5,-0.00104703,0.00142552,0.04910909,-0.00012257,0.00012593,0.00000969,
 0.00222396,0.00061621,-0.00014388,-0.01780480,0.00035037,0.01452203,-0
 .00068855,-0.00077272,0.00038071,0.00126161,-0.00006692,0.00020101,-0.
 00160571,-0.00312150,0.00056246,-0.00165473,0.00265398,0.00008705,-0.1
 8349920,-0.00084761,0.13328028,-0.00131581,0.00371081,-0.00266262,-0.0
 0850962,0.00306304,0.00866019,0.00028611,0.00012998,0.00105721,0.01266
 981,-0.00316539,-0.01668552,0.00074392,-0.00028457,0.00040038,-0.00000
 675,-0.00008750,0.00000766,0.00000581,0.00000102,0.00000979,0.00024243
 ,-0.00030359,-0.00014899,-0.00017924,0.00007662,-0.00003399,-0.0014773
 5,-0.00100041,-0.00044281,-0.00243737,0.00257861,-0.00113893,-0.000487
 25,0.00001011,-0.00025642,0.00006107,0.00004424,0.00013412,-0.00103765
 ,-0.00012859,0.00087304,-0.00010619,-0.00017655,-0.00028767,0.00027692
 ,-0.00027133,-0.00002967,0.00005741,0.00008011,-0.00002299,0.00000069,
 0.00002172,-0.00000334,-0.00026796,0.00001378,0.00004260,-0.00008993,-
 0.00003223,-0.00014964,-0.00008468,-0.00001861,0.00000771,0.00110239,-
 0.00001382,-0.00007187,0.20244321,0.00005485,0.00012009,-0.00004252,0.
 00086130,0.00034501,0.00122572,0.01867865,-0.00010581,-0.01559823,-0.0
 0038715,0.00013397,-0.00020769,0.00145098,-0.00163818,0.00054270,-0.00
 601576,-0.00625232,0.00248389,0.00164786,-0.00054838,0.00081064,-0.002
 25214,-0.05201412,-0.00094356,0.00260565,-0.00272835,0.00210337,-0.020
 72197,0.00468167,0.02004569,-0.00063086,0.00019938,-0.00073630,0.00635
 732,-0.00019514,-0.01375922,0.00011161,0.00002845,-0.00013162,-0.00008
 100,-0.00014153,-0.00000511,-0.00001208,-0.00002798,0.00000801,-0.0007
 6114,0.00092485,0.00012146,0.00002857,-0.00006004,0.00007961,-0.000959
 45,-0.00028426,0.00004979,0.00251542,-0.00190791,0.00019559,-0.0001358
 7,0.00000184,-0.00009179,-0.00020868,-0.00004569,-0.00001176,0.0011186
 8,0.00017332,-0.00080226,0.00025769,0.00094849,-0.00095066,0.00108129,
 0.00060123,0.00005249,-0.00006914,-0.00007200,0.00003858,0.00001244,-0
 .00003501,-0.00000934,-0.00014977,0.00002251,-0.00009541,-0.00014303,0
 .00019939,-0.00008798,-0.00020793,0.00029646,-0.00010601,-0.00086116,0
 .00074632,-0.00052974,-0.00318518,0.05663374,-0.00018696,-0.00004647,0
 .00028069,0.00445635,-0.00251468,0.00098904,-0.00718448,-0.00016683,0.
 00776902,-0.00014855,0.00052155,-0.00093050,-0.00018683,0.00029582,-0.
 00020628,0.00066509,0.00027797,0.00092384,-0.00024365,-0.00080529,-0.0
 0182528,0.12881561,0.00008725,-0.17285541,-0.00136804,0.00180725,0.000
 09736,0.00404848,0.00061158,-0.00149654,-0.00138897,0.00164762,0.00086
 873,0.01006527,-0.00806799,-0.03734694,-0.00071545,0.00007655,-0.00034
 380,0.00018520,0.00005073,0.00002362,-0.00000012,0.00000379,-0.0000303
 6,0.00026757,-0.00038627,0.00067535,0.00032706,-0.00004087,0.00033921,
 0.00038004,-0.00023503,0.00103461,0.00100350,-0.00007833,0.00167623,0.
 00038662,-0.00003576,0.00058319,-0.00015295,0.00005989,0.00016264,-0.0
 0052510,0.00006846,0.00029834,0.00002627,0.00073624,0.00031482,-0.0000
 4760,-0.00018972,-0.00010778,-0.00016489,-0.00006317,0.00014980,0.0000
 2902,0.00011169,0.00003288,-0.00065130,0.00029963,-0.00009637,0.000041
 36,-0.00004812,-0.00002366,0.00000135,-0.00006688,-0.00004990,0.000423
 67,-0.00026227,0.00001419,-0.13815756,0.00635167,0.19907925\\-0.000006
 10,0.00001428,0.00001415,-0.00107979,-0.00137179,0.00193114,0.00000226
 ,0.00001435,0.00001042,0.00000395,0.00000653,-0.00000559,-0.00000778,0
 .00000240,-0.00001985,0.00001710,-0.00000580,0.00000943,0.00000424,-0.
 00003136,-0.00003951,-0.00066324,-0.00108843,0.00070273,-0.00000555,-0
 .00000137,-0.00000331,-0.00000865,0.00003249,-0.00000646,0.00056448,0.
 00056231,-0.00108707,0.00119506,0.00187386,-0.00156266,-0.00002515,0.0
 0001193,0.00000466,-0.00000167,-0.00000300,-0.00001264,-0.00000459,-0.
 00000490,-0.00000388,0.00000704,0.00000005,0.00000714,0.00000117,-0.00
 000618,0.00000451,0.00000961,0.00000475,0.00001260,0.00000237,-0.00000
 746,0.00002689,0.00000589,0.00000708,0.00000269,0.00000088,-0.00000280
 ,0.00000128,0.00001006,0.00000417,0.00000546,0.00000291,-0.00000125,-0
 .00000344,-0.00001933,-0.00000282,0.00000521,0.00000547,-0.00000019,0.
 00000159,0.00000894,-0.00000577,0.00000647,-0.00002301,0.00000530,-0.0
 0001931,0.00000201,-0.00000045,0.00001181,0.00001501,-0.00000711,-0.00
 000100,-0.00000075,-0.00000407,0.00000286,-0.00001282,0.00000523,0.000
 00369\\\@


 The lyf so short, the craft so long to lerne.
                             -- Chaucer
 Job cpu time:       0 days 15 hours  8 minutes  4.8 seconds.
 Elapsed time:       0 days  0 hours 56 minutes 47.2 seconds.
 File lengths (MBytes):  RWF=    688 Int=      0 D2E=      0 Chk=     33 Scr=      1
 Normal termination of Gaussian 16 at Mon Nov  5 04:57:50 2018.
