 Entering Gaussian System, Link 0=g16
 Initial command:
 /apps/gaussian/g16a03/g16/l1.exe "/jobfs/local/2011886.r-man2/Gau-9059.inp" -scrdir="/jobfs/local/2011886.r-man2/"
 Entering Link 1 = /apps/gaussian/g16a03/g16/l1.exe PID=      9060.
  
 Copyright (c) 1988,1990,1992,1993,1995,1998,2003,2009,2016,
            Gaussian, Inc.  All Rights Reserved.
  
 This is part of the Gaussian(R) 16 program.  It is based on
 the Gaussian(R) 09 system (copyright 2009, Gaussian, Inc.),
 the Gaussian(R) 03 system (copyright 2003, Gaussian, Inc.),
 the Gaussian(R) 98 system (copyright 1998, Gaussian, Inc.),
 the Gaussian(R) 94 system (copyright 1995, Gaussian, Inc.),
 the Gaussian 92(TM) system (copyright 1992, Gaussian, Inc.),
 the Gaussian 90(TM) system (copyright 1990, Gaussian, Inc.),
 the Gaussian 88(TM) system (copyright 1988, Gaussian, Inc.),
 the Gaussian 86(TM) system (copyright 1986, Carnegie Mellon
 University), and the Gaussian 82(TM) system (copyright 1983,
 Carnegie Mellon University). Gaussian is a federally registered
 trademark of Gaussian, Inc.
  
 This software contains proprietary and confidential information,
 including trade secrets, belonging to Gaussian, Inc.
  
 This software is provided under written license and may be
 used, copied, transmitted, or stored only in accord with that
 written license.
  
 The following legend is applicable only to US Government
 contracts under FAR:
  
                    RESTRICTED RIGHTS LEGEND
  
 Use, reproduction and disclosure by the US Government is
 subject to restrictions as set forth in subparagraphs (a)
 and (c) of the Commercial Computer Software - Restricted
 Rights clause in FAR 52.227-19.
  
 Gaussian, Inc.
 340 Quinnipiac St., Bldg. 40, Wallingford CT 06492
  
  
 ---------------------------------------------------------------
 Warning -- This program may not be used in any manner that
 competes with the business of Gaussian, Inc. or will provide
 assistance to any competitor of Gaussian, Inc.  The licensee
 of this program is prohibited from giving any competitor of
 Gaussian, Inc. access to this program.  By using this program,
 the user acknowledges that Gaussian, Inc. is engaged in the
 business of creating and licensing software in the field of
 computational chemistry and represents and warrants to the
 licensee that it is not a competitor of Gaussian, Inc. and that
 it will not use this program in any manner prohibited above.
 ---------------------------------------------------------------
  

 Cite this work as:
 Gaussian 16, Revision A.03,
 M. J. Frisch, G. W. Trucks, H. B. Schlegel, G. E. Scuseria, 
 M. A. Robb, J. R. Cheeseman, G. Scalmani, V. Barone, 
 G. A. Petersson, H. Nakatsuji, X. Li, M. Caricato, A. V. Marenich, 
 J. Bloino, B. G. Janesko, R. Gomperts, B. Mennucci, H. P. Hratchian, 
 J. V. Ortiz, A. F. Izmaylov, J. L. Sonnenberg, D. Williams-Young, 
 F. Ding, F. Lipparini, F. Egidi, J. Goings, B. Peng, A. Petrone, 
 T. Henderson, D. Ranasinghe, V. G. Zakrzewski, J. Gao, N. Rega, 
 G. Zheng, W. Liang, M. Hada, M. Ehara, K. Toyota, R. Fukuda, 
 J. Hasegawa, M. Ishida, T. Nakajima, Y. Honda, O. Kitao, H. Nakai, 
 T. Vreven, K. Throssell, J. A. Montgomery, Jr., J. E. Peralta, 
 F. Ogliaro, M. J. Bearpark, J. J. Heyd, E. N. Brothers, K. N. Kudin, 
 V. N. Staroverov, T. A. Keith, R. Kobayashi, J. Normand, 
 K. Raghavachari, A. P. Rendell, J. C. Burant, S. S. Iyengar, 
 J. Tomasi, M. Cossi, J. M. Millam, M. Klene, C. Adamo, R. Cammi, 
 J. W. Ochterski, R. L. Martin, K. Morokuma, O. Farkas, 
 J. B. Foresman, and D. J. Fox, Gaussian, Inc., Wallingford CT, 2016.
 
 ******************************************
 Gaussian 16:  ES64L-G16RevA.03 25-Dec-2016
                 5-Nov-2018 
 ******************************************
 %mem=6000mb
 %nproc=24
 Will use up to   24 processors via shared memory.
 %chk=D_1a_4a_L_PHI.inp_extract_21.chk
 ----------------------------------------------------------------------
 #M062X/6-311++G(2d,2p) opt=ModRedundant freq=noraman SCRF=(Solvent=Wat
 er)
 ----------------------------------------------------------------------
 1/18=120,19=15,26=3,38=1/1,3;
 2/9=110,12=2,17=6,18=5,40=1/2;
 3/5=4,6=6,7=1212,11=2,25=1,30=1,70=2201,71=1,72=1,74=-55/1,2,3;
 4//1;
 5/5=2,38=5,53=1/2;
 6/7=2,8=2,9=2,10=2,28=1/1;
 7//1,2,3,16;
 1/18=20,19=15,26=3/3(2);
 2/9=110/2;
 99//99;
 2/9=110/2;
 3/5=4,6=6,7=1212,11=2,25=1,30=1,70=2205,71=1,72=1,74=-55/1,2,3;
 4/5=5,16=3,69=1/1;
 5/5=2,38=5,53=1/2;
 7//1,2,3,16;
 1/18=20,19=15,26=3/3(-5);
 2/9=110/2;
 6/7=2,8=2,9=2,10=2,19=2,28=1/1;
 99/9=1/99;
 ----------------------------
 D_1a_4a_L_PHI.inp_extract_21
 ----------------------------
 Symbolic Z-matrix:
 Charge =  0 Multiplicity = 1
 C                     3.36567  -0.34855  -0.68683 
 C                     1.15842   0.3445    1.11095 
 C                    -1.76913   1.33549  -0.44609 
 C                     2.57697   0.92251  -0.99398 
 C                    -3.57183  -0.35116  -0.01997 
 O                    -2.58402  -1.36465   0.02402 
 C                     2.46048  -1.35496  -0.00249 
 C                    -0.77165   0.17722  -0.47833 
 C                    -2.9937    0.98964   0.40453 
 C                    -1.49098  -1.1151   -0.83396 
 O                     1.93846  -0.8199    1.20432 
 O                    -0.17083   0.01399   0.79924 
 C                     1.84399   1.42079   0.25905 
 H                     4.20444  -0.12428  -0.03203 
 H                     3.76804  -0.7828   -1.59748 
 H                    -2.0845    1.53388  -1.46806 
 H                     3.24004   1.70776  -1.34386 
 H                     1.88255   0.72189  -1.80251 
 H                     1.64488  -1.6496   -0.65549 
 H                     2.99963  -2.24708   0.28474 
 H                    -2.72287   0.94457   1.45526 
 H                    -3.75516   1.75729   0.30049 
 H                    -1.84283  -1.05598  -1.86139 
 H                    -0.82501  -1.96109  -0.74351 
 H                     2.58069   1.87123   0.91791 
 H                     1.13018   2.19895   0.01558 
 H                     1.10226   0.69992   2.12727 
 H                    -3.97268  -0.29251  -1.02987 
 H                    -4.36478  -0.66909   0.64322 
 H                    -1.28285   2.23247  -0.07866 
 H                    -0.02034   0.35658  -1.22959 
 
 The following ModRedundant input section has been read:
 D      11       2      12       8 F                                           
 

 GradGradGradGradGradGradGradGradGradGradGradGradGradGradGradGradGradGrad
 Berny optimization.
 Initialization pass.
                           ----------------------------
                           !    Initial Parameters    !
                           ! (Angstroms and Degrees)  !
 --------------------------                            --------------------------
 ! Name  Definition              Value          Derivative Info.                !
 --------------------------------------------------------------------------------
 ! R1    R(1,4)                  1.5271         estimate D2E/DX2                !
 ! R2    R(1,7)                  1.5168         estimate D2E/DX2                !
 ! R3    R(1,14)                 1.0875         estimate D2E/DX2                !
 ! R4    R(1,15)                 1.0862         estimate D2E/DX2                !
 ! R5    R(2,11)                 1.4046         estimate D2E/DX2                !
 ! R6    R(2,12)                 1.4047         estimate D2E/DX2                !
 ! R7    R(2,13)                 1.5343         estimate D2E/DX2                !
 ! R8    R(2,27)                 1.0781         estimate D2E/DX2                !
 ! R9    R(3,8)                  1.5289         estimate D2E/DX2                !
 ! R10   R(3,9)                  1.5306         estimate D2E/DX2                !
 ! R11   R(3,16)                 1.0878         estimate D2E/DX2                !
 ! R12   R(3,30)                 1.0845         estimate D2E/DX2                !
 ! R13   R(4,13)                 1.5348         estimate D2E/DX2                !
 ! R14   R(4,17)                 1.0857         estimate D2E/DX2                !
 ! R15   R(4,18)                 1.0845         estimate D2E/DX2                !
 ! R16   R(5,6)                  1.4159         estimate D2E/DX2                !
 ! R17   R(5,9)                  1.5206         estimate D2E/DX2                !
 ! R18   R(5,28)                 1.0881         estimate D2E/DX2                !
 ! R19   R(5,29)                 1.0815         estimate D2E/DX2                !
 ! R20   R(6,10)                 1.4118         estimate D2E/DX2                !
 ! R21   R(7,11)                 1.4196         estimate D2E/DX2                !
 ! R22   R(7,19)                 1.0856         estimate D2E/DX2                !
 ! R23   R(7,20)                 1.0812         estimate D2E/DX2                !
 ! R24   R(8,10)                 1.5212         estimate D2E/DX2                !
 ! R25   R(8,12)                 1.4212         estimate D2E/DX2                !
 ! R26   R(8,31)                 1.0775         estimate D2E/DX2                !
 ! R27   R(9,21)                 1.086          estimate D2E/DX2                !
 ! R28   R(9,22)                 1.0862         estimate D2E/DX2                !
 ! R29   R(10,23)                1.0876         estimate D2E/DX2                !
 ! R30   R(10,24)                1.0805         estimate D2E/DX2                !
 ! R31   R(13,25)                1.0861         estimate D2E/DX2                !
 ! R32   R(13,26)                1.0837         estimate D2E/DX2                !
 ! A1    A(4,1,7)              109.5607         estimate D2E/DX2                !
 ! A2    A(4,1,14)             110.3537         estimate D2E/DX2                !
 ! A3    A(4,1,15)             110.8226         estimate D2E/DX2                !
 ! A4    A(7,1,14)             108.9941         estimate D2E/DX2                !
 ! A5    A(7,1,15)             109.5164         estimate D2E/DX2                !
 ! A6    A(14,1,15)            107.5507         estimate D2E/DX2                !
 ! A7    A(11,2,12)            110.1936         estimate D2E/DX2                !
 ! A8    A(11,2,13)            111.7324         estimate D2E/DX2                !
 ! A9    A(11,2,27)            103.8594         estimate D2E/DX2                !
 ! A10   A(12,2,13)            117.6879         estimate D2E/DX2                !
 ! A11   A(12,2,27)            103.7361         estimate D2E/DX2                !
 ! A12   A(13,2,27)            108.3861         estimate D2E/DX2                !
 ! A13   A(8,3,9)              111.2543         estimate D2E/DX2                !
 ! A14   A(8,3,16)             107.9086         estimate D2E/DX2                !
 ! A15   A(8,3,30)             109.9502         estimate D2E/DX2                !
 ! A16   A(9,3,16)             109.3526         estimate D2E/DX2                !
 ! A17   A(9,3,30)             110.9382         estimate D2E/DX2                !
 ! A18   A(16,3,30)            107.3057         estimate D2E/DX2                !
 ! A19   A(1,4,13)             110.6511         estimate D2E/DX2                !
 ! A20   A(1,4,17)             110.5735         estimate D2E/DX2                !
 ! A21   A(1,4,18)             109.0671         estimate D2E/DX2                !
 ! A22   A(13,4,17)            108.6605         estimate D2E/DX2                !
 ! A23   A(13,4,18)            111.2794         estimate D2E/DX2                !
 ! A24   A(17,4,18)            106.5342         estimate D2E/DX2                !
 ! A25   A(6,5,9)              110.9302         estimate D2E/DX2                !
 ! A26   A(6,5,28)             108.9297         estimate D2E/DX2                !
 ! A27   A(6,5,29)             106.3819         estimate D2E/DX2                !
 ! A28   A(9,5,28)             110.5871         estimate D2E/DX2                !
 ! A29   A(9,5,29)             111.5177         estimate D2E/DX2                !
 ! A30   A(28,5,29)            108.3528         estimate D2E/DX2                !
 ! A31   A(5,6,10)             113.2495         estimate D2E/DX2                !
 ! A32   A(1,7,11)             110.6665         estimate D2E/DX2                !
 ! A33   A(1,7,19)             110.9208         estimate D2E/DX2                !
 ! A34   A(1,7,20)             111.6997         estimate D2E/DX2                !
 ! A35   A(11,7,19)            109.7182         estimate D2E/DX2                !
 ! A36   A(11,7,20)            105.5766         estimate D2E/DX2                !
 ! A37   A(19,7,20)            108.0889         estimate D2E/DX2                !
 ! A38   A(3,8,10)             109.8781         estimate D2E/DX2                !
 ! A39   A(3,8,12)             110.1124         estimate D2E/DX2                !
 ! A40   A(3,8,31)             110.0905         estimate D2E/DX2                !
 ! A41   A(10,8,12)            108.2092         estimate D2E/DX2                !
 ! A42   A(10,8,31)            107.947          estimate D2E/DX2                !
 ! A43   A(12,8,31)            110.5546         estimate D2E/DX2                !
 ! A44   A(3,9,5)              110.3822         estimate D2E/DX2                !
 ! A45   A(3,9,21)             110.337          estimate D2E/DX2                !
 ! A46   A(3,9,22)             110.3606         estimate D2E/DX2                !
 ! A47   A(5,9,21)             109.1669         estimate D2E/DX2                !
 ! A48   A(5,9,22)             109.2618         estimate D2E/DX2                !
 ! A49   A(21,9,22)            107.2666         estimate D2E/DX2                !
 ! A50   A(6,10,8)             111.9751         estimate D2E/DX2                !
 ! A51   A(6,10,23)            109.4654         estimate D2E/DX2                !
 ! A52   A(6,10,24)            106.7346         estimate D2E/DX2                !
 ! A53   A(8,10,23)            109.126          estimate D2E/DX2                !
 ! A54   A(8,10,24)            110.7415         estimate D2E/DX2                !
 ! A55   A(23,10,24)           108.7256         estimate D2E/DX2                !
 ! A56   A(2,11,7)             117.397          estimate D2E/DX2                !
 ! A57   A(2,12,8)             124.9235         estimate D2E/DX2                !
 ! A58   A(2,13,4)             116.0365         estimate D2E/DX2                !
 ! A59   A(2,13,25)            104.9023         estimate D2E/DX2                !
 ! A60   A(2,13,26)            109.5196         estimate D2E/DX2                !
 ! A61   A(4,13,25)            107.8155         estimate D2E/DX2                !
 ! A62   A(4,13,26)            111.364          estimate D2E/DX2                !
 ! A63   A(25,13,26)           106.5748         estimate D2E/DX2                !
 ! D1    D(7,1,4,13)            50.9061         estimate D2E/DX2                !
 ! D2    D(7,1,4,17)           171.3497         estimate D2E/DX2                !
 ! D3    D(7,1,4,18)           -71.8197         estimate D2E/DX2                !
 ! D4    D(14,1,4,13)          -69.1085         estimate D2E/DX2                !
 ! D5    D(14,1,4,17)           51.3352         estimate D2E/DX2                !
 ! D6    D(14,1,4,18)          168.1657         estimate D2E/DX2                !
 ! D7    D(15,1,4,13)          171.8664         estimate D2E/DX2                !
 ! D8    D(15,1,4,17)          -67.69           estimate D2E/DX2                !
 ! D9    D(15,1,4,18)           49.1406         estimate D2E/DX2                !
 ! D10   D(4,1,7,11)           -59.2469         estimate D2E/DX2                !
 ! D11   D(4,1,7,19)            62.7751         estimate D2E/DX2                !
 ! D12   D(4,1,7,20)          -176.5687         estimate D2E/DX2                !
 ! D13   D(14,1,7,11)           61.5953         estimate D2E/DX2                !
 ! D14   D(14,1,7,19)         -176.3827         estimate D2E/DX2                !
 ! D15   D(14,1,7,20)          -55.7266         estimate D2E/DX2                !
 ! D16   D(15,1,7,11)          179.0053         estimate D2E/DX2                !
 ! D17   D(15,1,7,19)          -58.9726         estimate D2E/DX2                !
 ! D18   D(15,1,7,20)           61.6835         estimate D2E/DX2                !
 ! D19   D(12,2,11,7)           83.9244         estimate D2E/DX2                !
 ! D20   D(13,2,11,7)          -48.8862         estimate D2E/DX2                !
 ! D21   D(27,2,11,7)         -165.5068         estimate D2E/DX2                !
 ! D22   D(11,2,12,8)         -104.4577         Frozen                          !
 ! D23   D(13,2,12,8)           25.2256         estimate D2E/DX2                !
 ! D24   D(27,2,12,8)          144.8929         estimate D2E/DX2                !
 ! D25   D(11,2,13,4)           39.6546         estimate D2E/DX2                !
 ! D26   D(11,2,13,25)         -79.1856         estimate D2E/DX2                !
 ! D27   D(11,2,13,26)         166.7642         estimate D2E/DX2                !
 ! D28   D(12,2,13,4)          -89.3089         estimate D2E/DX2                !
 ! D29   D(12,2,13,25)         151.8509         estimate D2E/DX2                !
 ! D30   D(12,2,13,26)          37.8007         estimate D2E/DX2                !
 ! D31   D(27,2,13,4)          153.4975         estimate D2E/DX2                !
 ! D32   D(27,2,13,25)          34.6574         estimate D2E/DX2                !
 ! D33   D(27,2,13,26)         -79.3929         estimate D2E/DX2                !
 ! D34   D(9,3,8,10)            49.9781         estimate D2E/DX2                !
 ! D35   D(9,3,8,12)           -69.1174         estimate D2E/DX2                !
 ! D36   D(9,3,8,31)           168.7376         estimate D2E/DX2                !
 ! D37   D(16,3,8,10)          -69.9801         estimate D2E/DX2                !
 ! D38   D(16,3,8,12)          170.9244         estimate D2E/DX2                !
 ! D39   D(16,3,8,31)           48.7794         estimate D2E/DX2                !
 ! D40   D(30,3,8,10)          173.2842         estimate D2E/DX2                !
 ! D41   D(30,3,8,12)           54.1887         estimate D2E/DX2                !
 ! D42   D(30,3,8,31)          -67.9563         estimate D2E/DX2                !
 ! D43   D(8,3,9,5)            -50.8051         estimate D2E/DX2                !
 ! D44   D(8,3,9,21)            69.9417         estimate D2E/DX2                !
 ! D45   D(8,3,9,22)          -171.686          estimate D2E/DX2                !
 ! D46   D(16,3,9,5)            68.2936         estimate D2E/DX2                !
 ! D47   D(16,3,9,21)         -170.9596         estimate D2E/DX2                !
 ! D48   D(16,3,9,22)          -52.5873         estimate D2E/DX2                !
 ! D49   D(30,3,9,5)          -173.5445         estimate D2E/DX2                !
 ! D50   D(30,3,9,21)          -52.7977         estimate D2E/DX2                !
 ! D51   D(30,3,9,22)           65.5746         estimate D2E/DX2                !
 ! D52   D(1,4,13,2)           -42.5315         estimate D2E/DX2                !
 ! D53   D(1,4,13,25)           74.7026         estimate D2E/DX2                !
 ! D54   D(1,4,13,26)         -168.717          estimate D2E/DX2                !
 ! D55   D(17,4,13,2)         -164.1095         estimate D2E/DX2                !
 ! D56   D(17,4,13,25)         -46.8753         estimate D2E/DX2                !
 ! D57   D(17,4,13,26)          69.705          estimate D2E/DX2                !
 ! D58   D(18,4,13,2)           78.8973         estimate D2E/DX2                !
 ! D59   D(18,4,13,25)        -163.8685         estimate D2E/DX2                !
 ! D60   D(18,4,13,26)         -47.2882         estimate D2E/DX2                !
 ! D61   D(9,5,6,10)           -60.5772         estimate D2E/DX2                !
 ! D62   D(28,5,6,10)           61.372          estimate D2E/DX2                !
 ! D63   D(29,5,6,10)          177.973          estimate D2E/DX2                !
 ! D64   D(6,5,9,3)             54.8892         estimate D2E/DX2                !
 ! D65   D(6,5,9,21)           -66.5542         estimate D2E/DX2                !
 ! D66   D(6,5,9,22)           176.4235         estimate D2E/DX2                !
 ! D67   D(28,5,9,3)           -66.0869         estimate D2E/DX2                !
 ! D68   D(28,5,9,21)          172.4696         estimate D2E/DX2                !
 ! D69   D(28,5,9,22)           55.4474         estimate D2E/DX2                !
 ! D70   D(29,5,9,3)           173.2732         estimate D2E/DX2                !
 ! D71   D(29,5,9,21)           51.8298         estimate D2E/DX2                !
 ! D72   D(29,5,9,22)          -65.1924         estimate D2E/DX2                !
 ! D73   D(5,6,10,8)            60.5715         estimate D2E/DX2                !
 ! D74   D(5,6,10,23)          -60.5835         estimate D2E/DX2                !
 ! D75   D(5,6,10,24)         -178.0884         estimate D2E/DX2                !
 ! D76   D(1,7,11,2)            60.3445         estimate D2E/DX2                !
 ! D77   D(19,7,11,2)          -62.38           estimate D2E/DX2                !
 ! D78   D(20,7,11,2)         -178.6321         estimate D2E/DX2                !
 ! D79   D(3,8,10,6)           -54.1091         estimate D2E/DX2                !
 ! D80   D(3,8,10,23)           67.2417         estimate D2E/DX2                !
 ! D81   D(3,8,10,24)         -173.1104         estimate D2E/DX2                !
 ! D82   D(12,8,10,6)           66.1469         estimate D2E/DX2                !
 ! D83   D(12,8,10,23)        -172.5023         estimate D2E/DX2                !
 ! D84   D(12,8,10,24)         -52.8543         estimate D2E/DX2                !
 ! D85   D(31,8,10,6)         -174.1792         estimate D2E/DX2                !
 ! D86   D(31,8,10,23)         -52.8284         estimate D2E/DX2                !
 ! D87   D(31,8,10,24)          66.8195         estimate D2E/DX2                !
 ! D88   D(3,8,12,2)          -107.9725         estimate D2E/DX2                !
 ! D89   D(10,8,12,2)          131.9181         estimate D2E/DX2                !
 ! D90   D(31,8,12,2)           13.8976         estimate D2E/DX2                !
 --------------------------------------------------------------------------------
 Trust Radius=3.00D-01 FncErr=1.00D-07 GrdErr=1.00D-06 EigMax=2.50D+02 EigMin=1.00D-04
 Number of steps in this run=    186 maximum allowed number of steps=    186.
 GradGradGradGradGradGradGradGradGradGradGradGradGradGradGradGradGradGrad

                          Input orientation:                          
 ---------------------------------------------------------------------
 Center     Atomic      Atomic             Coordinates (Angstroms)
 Number     Number       Type             X           Y           Z
 ---------------------------------------------------------------------
      1          6           0        3.365666   -0.348546   -0.686831
      2          6           0        1.158418    0.344501    1.110949
      3          6           0       -1.769132    1.335492   -0.446085
      4          6           0        2.576971    0.922506   -0.993975
      5          6           0       -3.571829   -0.351159   -0.019966
      6          8           0       -2.584017   -1.364645    0.024016
      7          6           0        2.460479   -1.354958   -0.002491
      8          6           0       -0.771651    0.177223   -0.478332
      9          6           0       -2.993704    0.989640    0.404532
     10          6           0       -1.490980   -1.115099   -0.833956
     11          8           0        1.938457   -0.819898    1.204321
     12          8           0       -0.170826    0.013987    0.799244
     13          6           0        1.843994    1.420793    0.259046
     14          1           0        4.204436   -0.124279   -0.032029
     15          1           0        3.768042   -0.782803   -1.597481
     16          1           0       -2.084501    1.533882   -1.468061
     17          1           0        3.240040    1.707759   -1.343864
     18          1           0        1.882550    0.721886   -1.802512
     19          1           0        1.644877   -1.649602   -0.655486
     20          1           0        2.999633   -2.247075    0.284735
     21          1           0       -2.722869    0.944570    1.455261
     22          1           0       -3.755160    1.757287    0.300489
     23          1           0       -1.842828   -1.055985   -1.861388
     24          1           0       -0.825011   -1.961091   -0.743509
     25          1           0        2.580691    1.871226    0.917905
     26          1           0        1.130179    2.198950    0.015584
     27          1           0        1.102262    0.699921    2.127271
     28          1           0       -3.972677   -0.292510   -1.029871
     29          1           0       -4.364782   -0.669094    0.643217
     30          1           0       -1.282849    2.232468   -0.078660
     31          1           0       -0.020336    0.356583   -1.229595
 ---------------------------------------------------------------------
                    Distance matrix (angstroms):
                    1          2          3          4          5
     1  C    0.000000
     2  C    2.929893   0.000000
     3  C    5.409260   3.460775   0.000000
     4  C    1.527073   2.603284   4.399926   0.000000
     5  C    6.969473   4.913059   2.505212   6.354420   0.000000
     6  O    6.077540   4.255399   2.859331   5.736128   1.415931
     7  C    1.516756   2.413146   5.032386   2.486655   6.115281
     8  C    4.175799   2.505786   1.528920   3.469093   2.886223
     9  C    6.589644   4.260909   1.530601   5.743931   1.520582
    10  C    4.918969   3.596164   2.496639   4.552545   2.361380
    11  O    2.415689   1.404637   4.595189   2.876835   5.664084
    12  O    3.853132   1.404738   2.419050   3.404619   3.517280
    13  C    2.518081   1.534326   3.682277   1.534799   5.705156
    14  H    1.087473   3.287002   6.163269   2.160958   7.779583
    15  H    1.086172   3.926391   6.039303   2.165860   7.519879
    16  H    5.818778   4.310736   1.087773   4.725236   2.804016
    17  H    2.162375   3.495387   5.102587   1.085682   7.238329
    18  H    2.142476   3.025730   3.943499   1.084528   5.837735
    19  H    2.157509   2.708022   4.539834   2.756649   5.413304
    20  H    2.163870   3.284657   6.009160   3.443833   6.846273
    21  H    6.582626   3.942464   2.162765   5.838454   2.139145
    22  H    7.491028   5.176491   2.163236   6.516777   2.140525
    23  H    5.385951   4.450126   2.779870   4.919497   2.622415
    24  H    4.490578   3.562129   3.441989   4.466693   3.265028
    25  H    2.849342   2.095475   4.590037   2.134331   6.608487
    26  H    3.461289   2.153974   3.060180   2.177550   5.349131
    27  H    3.760512   1.078141   3.907815   3.459261   5.250002
    28  H    7.346570   5.596162   2.801215   6.661489   1.088130
    29  H    7.850580   5.634881   3.455769   7.307635   1.081512
    30  H    5.351654   3.307472   1.084453   4.177561   3.452246
    31  H    3.500973   2.620640   2.151845   2.668668   3.818010
                    6          7          8          9         10
     6  O    0.000000
     7  C    5.044575   0.000000
     8  C    2.431950   3.608416   0.000000
     9  C    2.419771   5.950707   2.525270   0.000000
    10  C    1.411779   4.045107   1.521183   2.867396   0.000000
    11  O    4.705597   1.419574   3.342193   5.314161   4.000344
    12  O    2.885324   3.072549   1.421210   3.012696   2.384320
    13  C    5.236524   2.855389   2.988610   4.859051   4.329833
    14  H    6.901068   2.134673   5.005151   7.296891   5.836315
    15  H    6.581523   2.140345   4.773150   7.271232   5.324538
    16  H    3.298070   5.581231   2.131587   2.151617   2.787733
    17  H    6.725355   3.433254   4.380109   6.513996   5.532728
    18  H    5.257379   2.808444   3.015774   5.359159   3.961479
    19  H    4.292606   1.085552   3.034515   5.441109   3.186086
    20  H    5.658958   1.081230   4.547755   6.812545   4.764288
    21  H    2.720334   5.854910   2.852167   1.086008   3.316670
    22  H    3.345814   6.957876   3.464750   1.086242   3.829370
    23  H    2.049239   4.697162   2.140343   3.262436   1.087616
    24  H    2.009713   3.422126   2.155354   3.837713   1.080462
    25  H    6.159879   3.357059   4.007159   5.666977   5.344685
    26  H    5.147284   3.794771   2.819271   4.315104   4.309886
    27  H    4.719615   3.256250   3.251758   4.452943   4.334520
    28  H    2.046589   6.600742   3.281983   2.158659   2.621804
    29  H    2.009558   6.889959   3.858071   2.165231   3.261855
    30  H    3.826591   5.185357   2.155248   2.169129   3.438022
    31  H    3.332661   3.254167   1.077516   3.451384   2.117822
                   11         12         13         14         15
    11  O    0.000000
    12  O    2.304024   0.000000
    13  C    2.433755   2.516032   0.000000
    14  H    2.673408   4.455676   2.836134   0.000000
    15  H    3.346469   4.679086   3.464749   1.753492   0.000000
    16  H    5.372718   3.333602   4.292873   6.660512   6.295716
    17  H    3.817907   4.369872   2.144904   2.450986   2.558517
    18  H    3.379537   3.389190   2.177149   3.040026   2.420993
    19  H    2.057542   2.860165   3.209882   3.044117   2.479219
    20  H    2.002141   3.927968   3.845701   2.461331   2.505450
    21  H    4.990419   2.794506   4.744887   7.165335   7.378006
    22  H    6.314750   4.016877   5.609409   8.185721   8.164124
    23  H    4.873646   3.319547   4.921720   6.386238   5.623712
    24  H    3.568350   2.590169   4.423329   5.401428   4.818067
    25  H    2.781483   3.321786   1.086143   2.742437   3.844586
    26  H    3.343629   2.660977   1.083667   3.853663   4.295480
    27  H    1.964919   1.963394   2.135436   3.868509   4.814419
    28  H    6.341235   4.230091   6.199224   8.239488   7.776972
    29  H    6.329961   4.252083   6.562325   8.613030   8.436616
    30  H    4.619501   2.632293   3.248078   5.972163   6.075375
    31  H    3.338402   2.063058   2.612340   4.417476   3.973078
                   16         17         18         19         20
    16  H    0.000000
    17  H    5.328827   0.000000
    18  H    4.063089   1.739276   0.000000
    19  H    4.970222   3.780249   2.645017   0.000000
    20  H    6.573914   4.283788   3.797263   1.753954   0.000000
    21  H    3.049691   6.631278   5.645579   5.501108   6.656107
    22  H    2.443109   7.186040   6.105607   6.456096   7.852540
    23  H    2.630689   5.808757   4.128285   3.737736   5.428993
    24  H    3.784987   5.508677   3.956102   2.491008   3.970765
    25  H    5.250776   2.361580   3.034642   3.968317   4.187699
    26  H    3.602455   2.557515   2.460336   3.940381   4.830573
    27  H    4.876204   4.199358   4.006560   3.682177   3.959765
    28  H    2.663255   7.491525   5.992467   5.791267   7.359458
    29  H    3.809236   8.211653   6.851684   6.226076   7.540102
    30  H    1.749601   4.725737   3.908104   4.896404   6.207899
    31  H    2.388237   3.531117   2.020558   2.669703   4.265260
                   21         22         23         24         25
    21  H    0.000000
    22  H    1.749180   0.000000
    23  H    3.972009   4.030537   0.000000
    24  H    4.108445   4.847890   1.762050   0.000000
    25  H    5.410655   6.366882   5.988368   5.389411   0.000000
    26  H    4.300246   4.913530   4.791283   4.658855   1.739417
    27  H    3.891411   5.296197   5.259863   4.363112   2.240597
    28  H    3.044383   2.453332   2.410513   3.574069   7.170929
    29  H    2.441148   2.525159   3.575330   4.015251   7.400559
    30  H    2.466830   2.545952   3.782277   4.270548   4.006317
    31  H    3.854590   4.272241   2.390813   2.501079   3.697464
                   26         27         28         29         30
    26  H    0.000000
    27  H    2.589805   0.000000
    28  H    5.774036   6.058669   0.000000
    29  H    6.230104   5.827966   1.759200   0.000000
    30  H    2.415100   3.592156   3.809920   4.294005   0.000000
    31  H    2.503692   3.556214   4.010263   4.840831   2.537230
                   31
    31  H    0.000000
 Stoichiometry    C10H18O3
 Framework group  C1[X(C10H18O3)]
 Deg. of freedom    87
 Full point group                 C1      NOp   1
 Largest Abelian subgroup         C1      NOp   1
 Largest concise Abelian subgroup C1      NOp   1
                         Standard orientation:                         
 ---------------------------------------------------------------------
 Center     Atomic      Atomic             Coordinates (Angstroms)
 Number     Number       Type             X           Y           Z
 ---------------------------------------------------------------------
      1          6           0        3.365666   -0.348546   -0.686831
      2          6           0        1.158418    0.344501    1.110949
      3          6           0       -1.769132    1.335492   -0.446085
      4          6           0        2.576971    0.922506   -0.993975
      5          6           0       -3.571829   -0.351159   -0.019966
      6          8           0       -2.584017   -1.364645    0.024016
      7          6           0        2.460479   -1.354958   -0.002491
      8          6           0       -0.771651    0.177223   -0.478332
      9          6           0       -2.993704    0.989640    0.404532
     10          6           0       -1.490980   -1.115099   -0.833956
     11          8           0        1.938457   -0.819898    1.204321
     12          8           0       -0.170826    0.013987    0.799244
     13          6           0        1.843994    1.420793    0.259046
     14          1           0        4.204436   -0.124279   -0.032029
     15          1           0        3.768042   -0.782803   -1.597481
     16          1           0       -2.084501    1.533882   -1.468061
     17          1           0        3.240040    1.707759   -1.343864
     18          1           0        1.882550    0.721886   -1.802512
     19          1           0        1.644877   -1.649602   -0.655486
     20          1           0        2.999633   -2.247075    0.284735
     21          1           0       -2.722869    0.944570    1.455261
     22          1           0       -3.755160    1.757287    0.300489
     23          1           0       -1.842828   -1.055985   -1.861388
     24          1           0       -0.825011   -1.961091   -0.743509
     25          1           0        2.580691    1.871226    0.917905
     26          1           0        1.130179    2.198950    0.015584
     27          1           0        1.102262    0.699921    2.127271
     28          1           0       -3.972677   -0.292510   -1.029871
     29          1           0       -4.364782   -0.669094    0.643217
     30          1           0       -1.282849    2.232468   -0.078660
     31          1           0       -0.020336    0.356583   -1.229595
 ---------------------------------------------------------------------
 Rotational constants (GHZ):           1.7168646           0.4655576           0.4332241
 Standard basis: 6-311++G(2d,2p) (5D, 7F)
 There are   557 symmetry adapted cartesian basis functions of A   symmetry.
 There are   531 symmetry adapted basis functions of A   symmetry.
   531 basis functions,   762 primitive gaussians,   557 cartesian basis functions
    51 alpha electrons       51 beta electrons
       nuclear repulsion energy       906.3556774861 Hartrees.
 NAtoms=   31 NActive=   31 NUniq=   31 SFac= 1.00D+00 NAtFMM=   60 NAOKFM=F Big=F
 Integral buffers will be    131072 words long.
 Raffenetti 2 integral format.
 Two-electron integral symmetry is turned on.
 ------------------------------------------------------------------------------
 Polarizable Continuum Model (PCM)
 =================================
 Model                : PCM.
 Atomic radii         : UFF (Universal Force Field).
 Polarization charges : Total charges.
 Charge compensation  : None.
 Solution method      : On-the-fly selection.
 Cavity type          : Scaled VdW (van der Waals Surface) (Alpha=1.100).
 Cavity algorithm     : GePol (No added spheres)
                        Default sphere list used, NSphG=   31.
                        Lebedev-Laikov grids with approx.  5.0 points / Ang**2.
                        Smoothing algorithm: York/Karplus (Gamma=1.0000).
                        Polarization charges: spherical gaussians, with
                                              point-specific exponents (IZeta= 3).
                        Self-potential: point-specific (ISelfS= 7).
                        Self-field    : sphere-specific E.n sum rule (ISelfD= 2).
 1st derivatives      : Analytical E(r).r(x)/FMM algorithm (CHGder, D1EAlg=3).
                        Cavity 1st derivative terms included.
 Solvent              : Water, Eps=  78.355300 Eps(inf)=   1.777849
 ------------------------------------------------------------------------------
 One-electron integrals computed using PRISM.
 NBasis=   531 RedAO= T EigKep=  4.23D-06  NBF=   531
 NBsUse=   531 1.00D-06 EigRej= -1.00D+00 NBFU=   531
 ExpMin= 3.60D-02 ExpMax= 8.59D+03 ExpMxC= 1.30D+03 IAcc=3 IRadAn=         5 AccDes= 0.00D+00
 Harris functional with IExCor= 1009 and IRadAn=       5 diagonalized for initial guess.
 HarFok:  IExCor= 1009 AccDes= 0.00D+00 IRadAn=         5 IDoV= 1 UseB2=F ITyADJ=14
 ICtDFT=  3500011 ScaDFX=  1.000000  1.000000  1.000000  1.000000
 FoFCou: FMM=F IPFlag=           0 FMFlag=      100000 FMFlg1=           0
         NFxFlg=           0 DoJE=T BraDBF=F KetDBF=T FulRan=T
         wScrn=  0.000000 ICntrl=       500 IOpCl=  0 I1Cent=   200000004 NGrid=           0
         NMat0=    1 NMatS0=      1 NMatT0=    0 NMatD0=    1 NMtDS0=    0 NMtDT0=    0
 Petite list used in FoFCou.
 Requested convergence on RMS density matrix=1.00D-08 within 128 cycles.
 Requested convergence on MAX density matrix=1.00D-06.
 Requested convergence on             energy=1.00D-06.
 No special actions if energy rises.
 Inv3:  Mode=1 IEnd=    12132363.
 Iteration    1 A*A^-1 deviation from unit magnitude is 5.77D-15 for   2008.
 Iteration    1 A*A^-1 deviation from orthogonality  is 2.20D-15 for   1999    897.
 Iteration    1 A^-1*A deviation from unit magnitude is 5.77D-15 for   2008.
 Iteration    1 A^-1*A deviation from orthogonality  is 1.34D-13 for   1974   1954.
 Error on total polarization charges =  0.01470
 SCF Done:  E(RM062X) =  -617.489854820     A.U. after   12 cycles
            NFock= 12  Conv=0.64D-08     -V/T= 2.0035

 **********************************************************************

            Population analysis using the SCF density.

 **********************************************************************

 Orbital symmetries:
       Occupied  (A) (A) (A) (A) (A) (A) (A) (A) (A) (A) (A) (A)
                 (A) (A) (A) (A) (A) (A) (A) (A) (A) (A) (A) (A)
                 (A) (A) (A) (A) (A) (A) (A) (A) (A) (A) (A) (A)
                 (A) (A) (A) (A) (A) (A) (A) (A) (A) (A) (A) (A)
                 (A) (A) (A)
       Virtual   (A) (A) (A) (A) (A) (A) (A) (A) (A) (A) (A) (A)
                 (A) (A) (A) (A) (A) (A) (A) (A) (A) (A) (A) (A)
                 (A) (A) (A) (A) (A) (A) (A) (A) (A) (A) (A) (A)
                 (A) (A) (A) (A) (A) (A) (A) (A) (A) (A) (A) (A)
                 (A) (A) (A) (A) (A) (A) (A) (A) (A) (A) (A) (A)
                 (A) (A) (A) (A) (A) (A) (A) (A) (A) (A) (A) (A)
                 (A) (A) (A) (A) (A) (A) (A) (A) (A) (A) (A) (A)
                 (A) (A) (A) (A) (A) (A) (A) (A) (A) (A) (A) (A)
                 (A) (A) (A) (A) (A) (A) (A) (A) (A) (A) (A) (A)
                 (A) (A) (A) (A) (A) (A) (A) (A) (A) (A) (A) (A)
                 (A) (A) (A) (A) (A) (A) (A) (A) (A) (A) (A) (A)
                 (A) (A) (A) (A) (A) (A) (A) (A) (A) (A) (A) (A)
                 (A) (A) (A) (A) (A) (A) (A) (A) (A) (A) (A) (A)
                 (A) (A) (A) (A) (A) (A) (A) (A) (A) (A) (A) (A)
                 (A) (A) (A) (A) (A) (A) (A) (A) (A) (A) (A) (A)
                 (A) (A) (A) (A) (A) (A) (A) (A) (A) (A) (A) (A)
                 (A) (A) (A) (A) (A) (A) (A) (A) (A) (A) (A) (A)
                 (A) (A) (A) (A) (A) (A) (A) (A) (A) (A) (A) (A)
                 (A) (A) (A) (A) (A) (A) (A) (A) (A) (A) (A) (A)
                 (A) (A) (A) (A) (A) (A) (A) (A) (A) (A) (A) (A)
                 (A) (A) (A) (A) (A) (A) (A) (A) (A) (A) (A) (A)
                 (A) (A) (A) (A) (A) (A) (A) (A) (A) (A) (A) (A)
                 (A) (A) (A) (A) (A) (A) (A) (A) (A) (A) (A) (A)
                 (A) (A) (A) (A) (A) (A) (A) (A) (A) (A) (A) (A)
                 (A) (A) (A) (A) (A) (A) (A) (A) (A) (A) (A) (A)
                 (A) (A) (A) (A) (A) (A) (A) (A) (A) (A) (A) (A)
                 (A) (A) (A) (A) (A) (A) (A) (A) (A) (A) (A) (A)
                 (A) (A) (A) (A) (A) (A) (A) (A) (A) (A) (A) (A)
                 (A) (A) (A) (A) (A) (A) (A) (A) (A) (A) (A) (A)
                 (A) (A) (A) (A) (A) (A) (A) (A) (A) (A) (A) (A)
                 (A) (A) (A) (A) (A) (A) (A) (A) (A) (A) (A) (A)
                 (A) (A) (A) (A) (A) (A) (A) (A) (A) (A) (A) (A)
                 (A) (A) (A) (A) (A) (A) (A) (A) (A) (A) (A) (A)
                 (A) (A) (A) (A) (A) (A) (A) (A) (A) (A) (A) (A)
                 (A) (A) (A) (A) (A) (A) (A) (A) (A) (A) (A) (A)
                 (A) (A) (A) (A) (A) (A) (A) (A) (A) (A) (A) (A)
                 (A) (A) (A) (A) (A) (A) (A) (A) (A) (A) (A) (A)
                 (A) (A) (A) (A) (A) (A) (A) (A) (A) (A) (A) (A)
                 (A) (A) (A) (A) (A) (A) (A) (A) (A) (A) (A) (A)
                 (A) (A) (A) (A) (A) (A) (A) (A) (A) (A) (A) (A)
 The electronic state is 1-A.
 Alpha  occ. eigenvalues --  -19.62653 -19.62648 -19.62475 -10.63734 -10.58869
 Alpha  occ. eigenvalues --  -10.57899 -10.57861 -10.57707 -10.53567 -10.53369
 Alpha  occ. eigenvalues --  -10.53138 -10.52909 -10.52810  -1.19586  -1.16567
 Alpha  occ. eigenvalues --   -1.13249  -0.90496  -0.90304  -0.87601  -0.84979
 Alpha  occ. eigenvalues --   -0.75202  -0.74296  -0.73764  -0.71359  -0.66599
 Alpha  occ. eigenvalues --   -0.62631  -0.59729  -0.58457  -0.57410  -0.55743
 Alpha  occ. eigenvalues --   -0.54934  -0.53458  -0.52617  -0.50983  -0.50275
 Alpha  occ. eigenvalues --   -0.49497  -0.46831  -0.46286  -0.45616  -0.45160
 Alpha  occ. eigenvalues --   -0.44073  -0.42231  -0.41166  -0.40294  -0.39100
 Alpha  occ. eigenvalues --   -0.38569  -0.37261  -0.36522  -0.34877  -0.33143
 Alpha  occ. eigenvalues --   -0.31596
 Alpha virt. eigenvalues --   -0.00218   0.00740   0.00859   0.01201   0.02267
 Alpha virt. eigenvalues --    0.02597   0.02672   0.03281   0.03651   0.04610
 Alpha virt. eigenvalues --    0.04707   0.04834   0.05569   0.06001   0.07426
 Alpha virt. eigenvalues --    0.07817   0.08212   0.08298   0.08627   0.09412
 Alpha virt. eigenvalues --    0.09826   0.10486   0.10944   0.11340   0.11862
 Alpha virt. eigenvalues --    0.12327   0.12697   0.13155   0.13253   0.13376
 Alpha virt. eigenvalues --    0.14060   0.14191   0.14420   0.14689   0.15153
 Alpha virt. eigenvalues --    0.15287   0.15339   0.15464   0.15890   0.16275
 Alpha virt. eigenvalues --    0.16389   0.16504   0.16954   0.17375   0.17595
 Alpha virt. eigenvalues --    0.18113   0.18307   0.18922   0.19194   0.19794
 Alpha virt. eigenvalues --    0.19879   0.20427   0.20812   0.21220   0.21375
 Alpha virt. eigenvalues --    0.21549   0.22256   0.22546   0.23395   0.23984
 Alpha virt. eigenvalues --    0.24549   0.26040   0.26181   0.26420   0.27354
 Alpha virt. eigenvalues --    0.27685   0.28427   0.29086   0.29309   0.29453
 Alpha virt. eigenvalues --    0.30249   0.30501   0.31077   0.31300   0.32362
 Alpha virt. eigenvalues --    0.33181   0.33682   0.34158   0.34613   0.34779
 Alpha virt. eigenvalues --    0.34883   0.35066   0.35679   0.35955   0.36240
 Alpha virt. eigenvalues --    0.36585   0.37310   0.37563   0.37684   0.38030
 Alpha virt. eigenvalues --    0.38590   0.39301   0.39579   0.40254   0.40774
 Alpha virt. eigenvalues --    0.41254   0.41637   0.42731   0.44482   0.45032
 Alpha virt. eigenvalues --    0.46638   0.48313   0.49259   0.50172   0.51366
 Alpha virt. eigenvalues --    0.52019   0.52569   0.53502   0.54349   0.55294
 Alpha virt. eigenvalues --    0.56647   0.57155   0.58071   0.59220   0.59599
 Alpha virt. eigenvalues --    0.60117   0.60474   0.60865   0.61147   0.61492
 Alpha virt. eigenvalues --    0.62158   0.62695   0.63089   0.63957   0.64574
 Alpha virt. eigenvalues --    0.65309   0.65886   0.66498   0.66933   0.67387
 Alpha virt. eigenvalues --    0.67704   0.68280   0.68921   0.69651   0.70621
 Alpha virt. eigenvalues --    0.70995   0.71248   0.71648   0.72550   0.73255
 Alpha virt. eigenvalues --    0.73510   0.74306   0.75017   0.75517   0.75733
 Alpha virt. eigenvalues --    0.76196   0.76999   0.77778   0.78517   0.79906
 Alpha virt. eigenvalues --    0.80287   0.83710   0.84000   0.84622   0.85355
 Alpha virt. eigenvalues --    0.86104   0.86913   0.88092   0.89476   0.90392
 Alpha virt. eigenvalues --    0.90592   0.92749   0.93518   0.95811   0.96175
 Alpha virt. eigenvalues --    0.97608   0.98255   0.99018   1.00632   1.02034
 Alpha virt. eigenvalues --    1.02524   1.03043   1.04050   1.04352   1.05298
 Alpha virt. eigenvalues --    1.07561   1.08679   1.09403   1.10273   1.12543
 Alpha virt. eigenvalues --    1.13104   1.14880   1.14941   1.15761   1.16895
 Alpha virt. eigenvalues --    1.17593   1.17808   1.18985   1.19574   1.21029
 Alpha virt. eigenvalues --    1.21861   1.22456   1.23427   1.23783   1.24377
 Alpha virt. eigenvalues --    1.25067   1.26003   1.26517   1.26939   1.28256
 Alpha virt. eigenvalues --    1.29048   1.29662   1.30291   1.31097   1.32111
 Alpha virt. eigenvalues --    1.32580   1.33012   1.33449   1.34621   1.35265
 Alpha virt. eigenvalues --    1.35638   1.36826   1.37039   1.38088   1.38325
 Alpha virt. eigenvalues --    1.38968   1.39397   1.40604   1.40704   1.41365
 Alpha virt. eigenvalues --    1.42306   1.42911   1.43312   1.44032   1.45210
 Alpha virt. eigenvalues --    1.45641   1.46638   1.47307   1.47718   1.48207
 Alpha virt. eigenvalues --    1.49045   1.50398   1.50858   1.51536   1.52475
 Alpha virt. eigenvalues --    1.53537   1.53890   1.54528   1.55093   1.55791
 Alpha virt. eigenvalues --    1.57032   1.57565   1.57718   1.58025   1.58766
 Alpha virt. eigenvalues --    1.59450   1.60711   1.61249   1.61682   1.62938
 Alpha virt. eigenvalues --    1.63950   1.65268   1.65805   1.66809   1.67284
 Alpha virt. eigenvalues --    1.68526   1.68993   1.70096   1.70833   1.72772
 Alpha virt. eigenvalues --    1.73342   1.74555   1.75504   1.75867   1.76288
 Alpha virt. eigenvalues --    1.77410   1.79818   1.80938   1.82922   1.84667
 Alpha virt. eigenvalues --    1.86392   1.88942   1.91645   1.97945   1.99741
 Alpha virt. eigenvalues --    2.02423   2.05591   2.09683   2.17472   2.19462
 Alpha virt. eigenvalues --    2.22502   2.26292   2.27991   2.33392   2.39961
 Alpha virt. eigenvalues --    2.41061   2.43575   2.46172   2.50595   2.52982
 Alpha virt. eigenvalues --    2.56600   2.75582   2.76375   2.79856   2.81572
 Alpha virt. eigenvalues --    2.82541   2.88609   2.91978   2.92756   2.94691
 Alpha virt. eigenvalues --    2.96210   2.97436   3.00787   3.00927   3.02598
 Alpha virt. eigenvalues --    3.06115   3.07575   3.08454   3.09416   3.11104
 Alpha virt. eigenvalues --    3.11559   3.13472   3.17191   3.18534   3.20695
 Alpha virt. eigenvalues --    3.24151   3.29405   3.31227   3.32117   3.34272
 Alpha virt. eigenvalues --    3.35263   3.36334   3.38592   3.40087   3.40548
 Alpha virt. eigenvalues --    3.41677   3.43023   3.44701   3.45086   3.47333
 Alpha virt. eigenvalues --    3.48202   3.48625   3.49991   3.50665   3.52303
 Alpha virt. eigenvalues --    3.53093   3.54011   3.54365   3.55858   3.56031
 Alpha virt. eigenvalues --    3.56689   3.57390   3.57825   3.58450   3.59333
 Alpha virt. eigenvalues --    3.61680   3.62841   3.63731   3.64093   3.65055
 Alpha virt. eigenvalues --    3.65467   3.67005   3.68059   3.68676   3.69271
 Alpha virt. eigenvalues --    3.70587   3.71248   3.73048   3.73996   3.74178
 Alpha virt. eigenvalues --    3.75513   3.75987   3.76431   3.77030   3.78091
 Alpha virt. eigenvalues --    3.78922   3.80237   3.81837   3.83629   3.84557
 Alpha virt. eigenvalues --    3.85972   3.88651   3.89136   3.90749   3.92373
 Alpha virt. eigenvalues --    3.94011   3.94521   3.95746   3.96432   3.98012
 Alpha virt. eigenvalues --    3.99827   4.00998   4.02621   4.03144   4.05084
 Alpha virt. eigenvalues --    4.05169   4.06038   4.06544   4.06952   4.07596
 Alpha virt. eigenvalues --    4.07978   4.09404   4.10460   4.10973   4.11430
 Alpha virt. eigenvalues --    4.12499   4.13035   4.13781   4.14966   4.15822
 Alpha virt. eigenvalues --    4.16572   4.16834   4.17534   4.19718   4.20460
 Alpha virt. eigenvalues --    4.20631   4.24372   4.25447   4.26829   4.27540
 Alpha virt. eigenvalues --    4.29328   4.30221   4.30823   4.31624   4.32645
 Alpha virt. eigenvalues --    4.33982   4.35258   4.36336   4.38237   4.40832
 Alpha virt. eigenvalues --    4.41751   4.43579   4.45470   4.47322   4.51255
 Alpha virt. eigenvalues --    4.58507   4.58960   4.74470   4.75613   4.82069
 Alpha virt. eigenvalues --    4.85003   4.93411   4.94319   4.99831   5.04174
 Alpha virt. eigenvalues --    5.06448   5.07065   5.08135   5.08894   5.11138
 Alpha virt. eigenvalues --    5.13127   5.13780   5.17243   5.31986   5.34599
 Alpha virt. eigenvalues --    5.46025   5.57447   5.59320   5.62976   5.86705
 Alpha virt. eigenvalues --    5.88228   6.00920   7.00893   7.06300   7.07103
 Alpha virt. eigenvalues --    7.09517   7.10127   7.11302   7.12307   7.14024
 Alpha virt. eigenvalues --    7.33146   7.37856   7.40793   7.47193   7.53574
 Alpha virt. eigenvalues --    7.54650   7.58796  23.96002  23.97205  24.06334
 Alpha virt. eigenvalues --   24.07725  24.09735  24.12559  24.14009  24.15222
 Alpha virt. eigenvalues --   24.16614  24.19629  50.16558  50.19089  50.25149
          Condensed to atoms (all electrons):
               1          2          3          4          5          6
     1  C    6.446194  -0.358321   0.071945  -0.541867   0.005946  -0.000101
     2  C   -0.358321   7.376690  -0.041233   0.640608  -0.041374   0.006867
     3  C    0.071945  -0.041233   6.861851  -0.073050  -0.133418   0.005366
     4  C   -0.541867   0.640608  -0.073050   6.184797  -0.010115   0.000871
     5  C    0.005946  -0.041374  -0.133418  -0.010115   5.529995   0.114339
     6  O   -0.000101   0.006867   0.005366   0.000871   0.114339   8.303565
     7  C   -0.259667  -0.163513  -0.072008   0.169902  -0.003266   0.001179
     8  C    0.231943  -1.244638  -0.833824  -0.308865   0.425618   0.037219
     9  C   -0.019559   0.346861  -0.194394   0.059518  -0.078454  -0.025416
    10  C   -0.114290   0.328702  -0.029621   0.081265  -0.318609   0.094058
    11  O   -0.119470   0.227043   0.004425  -0.027285   0.003458  -0.000382
    12  O   -0.019354   0.169288   0.003128   0.028258  -0.012638   0.022791
    13  C    0.443105  -1.433547   0.061697  -0.796469   0.020878  -0.001679
    14  H    0.437379   0.036989   0.001486   0.020434   0.000113  -0.000010
    15  H    0.433225   0.005144  -0.000547  -0.050741  -0.000118   0.000024
    16  H   -0.005101   0.002316   0.490274   0.003548  -0.014032  -0.000843
    17  H   -0.027565   0.021808  -0.004673   0.421189  -0.000317  -0.000005
    18  H   -0.141711   0.054494  -0.019002   0.598535   0.003170  -0.000926
    19  H   -0.186007   0.069125  -0.008400   0.061429  -0.003364   0.001535
    20  H   -0.007679  -0.018237  -0.003210  -0.005521   0.000150   0.000191
    21  H    0.000169  -0.006365  -0.012017   0.000269  -0.096504  -0.010375
    22  H   -0.000293   0.009112  -0.021208   0.000932  -0.032093   0.008483
    23  H   -0.000120   0.013442  -0.059108  -0.001705   0.000191  -0.051413
    24  H    0.000371  -0.003144   0.023495   0.003963   0.011644  -0.095801
    25  H   -0.018365  -0.065633  -0.006666  -0.015586   0.000395   0.000135
    26  H   -0.028864  -0.129580  -0.032528  -0.058949   0.008357  -0.000964
    27  H    0.001019   0.553602  -0.009900   0.007530  -0.001857  -0.000005
    28  H    0.000474  -0.003280  -0.026214  -0.000591   0.454242  -0.057751
    29  H   -0.000071   0.004046   0.004937   0.000256   0.439859  -0.065132
    30  H    0.007931  -0.012270   0.385417  -0.007891  -0.013097  -0.000970
    31  H    0.097304  -0.231678   0.097745  -0.100512  -0.021267   0.021323
               7          8          9         10         11         12
     1  C   -0.259667   0.231943  -0.019559  -0.114290  -0.119470  -0.019354
     2  C   -0.163513  -1.244638   0.346861   0.328702   0.227043   0.169288
     3  C   -0.072008  -0.833824  -0.194394  -0.029621   0.004425   0.003128
     4  C    0.169902  -0.308865   0.059518   0.081265  -0.027285   0.028258
     5  C   -0.003266   0.425618  -0.078454  -0.318609   0.003458  -0.012638
     6  O    0.001179   0.037219  -0.025416   0.094058  -0.000382   0.022791
     7  C    5.437530   0.005599  -0.004160   0.021005   0.196511   0.026994
     8  C    0.005599   8.275723  -0.753023  -0.893771   0.069117   0.075675
     9  C   -0.004160  -0.753023   6.038848   0.350769  -0.013844  -0.045872
    10  C    0.021005  -0.893771   0.350769   6.331287  -0.031346  -0.114620
    11  O    0.196511   0.069117  -0.013844  -0.031346   8.175107  -0.031379
    12  O    0.026994   0.075675  -0.045872  -0.114620  -0.031379   8.295081
    13  C    0.015398   0.592927  -0.165399  -0.153256  -0.012360  -0.017207
    14  H   -0.057404  -0.006765   0.000250   0.000741  -0.010069   0.000364
    15  H   -0.032583  -0.000984  -0.000132  -0.001313   0.008259  -0.000478
    16  H    0.001817  -0.084096  -0.021387  -0.004177  -0.000102   0.007237
    17  H    0.018699  -0.005743   0.000391   0.003428  -0.000953  -0.000810
    18  H    0.022057  -0.012958   0.017499   0.010475  -0.003192  -0.000679
    19  H    0.497367  -0.064581   0.008647   0.050272  -0.049958   0.006747
    20  H    0.421366   0.012878  -0.001119  -0.002522  -0.053414  -0.001506
    21  H   -0.000341  -0.020437   0.505371   0.007987   0.000608   0.004257
    22  H   -0.000249  -0.036192   0.441188   0.005715  -0.000292  -0.000431
    23  H    0.001414  -0.059205   0.044987   0.464163  -0.000196   0.014089
    24  H   -0.003363  -0.043339   0.003675   0.411329  -0.000606  -0.003180
    25  H    0.019215   0.016396   0.000185  -0.004932  -0.017421   0.001474
    26  H    0.008439   0.081930  -0.021074  -0.002059   0.013312  -0.008312
    27  H   -0.014505  -0.045839   0.019778   0.017483  -0.063867  -0.087595
    28  H   -0.000078   0.032254  -0.021938  -0.034595   0.000127   0.001260
    29  H    0.000120   0.002862  -0.053903   0.009890  -0.000094   0.000953
    30  H    0.000319   0.022927  -0.005415  -0.009802   0.000684  -0.002767
    31  H   -0.034492   0.544570  -0.177595  -0.093476   0.014704  -0.013403
              13         14         15         16         17         18
     1  C    0.443105   0.437379   0.433225  -0.005101  -0.027565  -0.141711
     2  C   -1.433547   0.036989   0.005144   0.002316   0.021808   0.054494
     3  C    0.061697   0.001486  -0.000547   0.490274  -0.004673  -0.019002
     4  C   -0.796469   0.020434  -0.050741   0.003548   0.421189   0.598535
     5  C    0.020878   0.000113  -0.000118  -0.014032  -0.000317   0.003170
     6  O   -0.001679  -0.000010   0.000024  -0.000843  -0.000005  -0.000926
     7  C    0.015398  -0.057404  -0.032583   0.001817   0.018699   0.022057
     8  C    0.592927  -0.006765  -0.000984  -0.084096  -0.005743  -0.012958
     9  C   -0.165399   0.000250  -0.000132  -0.021387   0.000391   0.017499
    10  C   -0.153256   0.000741  -0.001313  -0.004177   0.003428   0.010475
    11  O   -0.012360  -0.010069   0.008259  -0.000102  -0.000953  -0.003192
    12  O   -0.017207   0.000364  -0.000478   0.007237  -0.000810  -0.000679
    13  C    6.962537  -0.055542   0.013390   0.000428  -0.056239  -0.132496
    14  H   -0.055542   0.465529  -0.004931   0.000010   0.000105   0.001211
    15  H    0.013390  -0.004931   0.485569  -0.000216  -0.006258  -0.008191
    16  H    0.000428   0.000010  -0.000216   0.434709  -0.000011   0.002023
    17  H   -0.056239   0.000105  -0.006258  -0.000011   0.465010  -0.012857
    18  H   -0.132496   0.001211  -0.008191   0.002023  -0.012857   0.498299
    19  H   -0.033700   0.000140   0.001262   0.001334  -0.000137   0.001322
    20  H    0.017102  -0.001849  -0.012622   0.000010   0.001621  -0.002105
    21  H   -0.000562  -0.000029  -0.000005   0.002853   0.000002  -0.000307
    22  H   -0.003867   0.000017  -0.000017  -0.007363  -0.000069   0.000557
    23  H    0.001150  -0.000069  -0.000175  -0.002674   0.000052   0.005010
    24  H   -0.010844   0.000654   0.000423  -0.003709  -0.000288   0.001569
    25  H    0.453919  -0.002534  -0.001537  -0.000141  -0.008473   0.005530
    26  H    0.520167  -0.001829   0.000549   0.002029  -0.008133   0.000622
    27  H   -0.079213   0.002357   0.001405  -0.000593   0.002048  -0.000444
    28  H    0.001656  -0.000003   0.000035  -0.004309   0.000021  -0.000380
    29  H   -0.001265  -0.000002  -0.000007  -0.001780  -0.000005   0.000276
    30  H    0.009380  -0.000194   0.000039  -0.001468   0.000334  -0.001562
    31  H    0.155297  -0.001603   0.003971  -0.013413   0.008152  -0.058595
              19         20         21         22         23         24
     1  C   -0.186007  -0.007679   0.000169  -0.000293  -0.000120   0.000371
     2  C    0.069125  -0.018237  -0.006365   0.009112   0.013442  -0.003144
     3  C   -0.008400  -0.003210  -0.012017  -0.021208  -0.059108   0.023495
     4  C    0.061429  -0.005521   0.000269   0.000932  -0.001705   0.003963
     5  C   -0.003364   0.000150  -0.096504  -0.032093   0.000191   0.011644
     6  O    0.001535   0.000191  -0.010375   0.008483  -0.051413  -0.095801
     7  C    0.497367   0.421366  -0.000341  -0.000249   0.001414  -0.003363
     8  C   -0.064581   0.012878  -0.020437  -0.036192  -0.059205  -0.043339
     9  C    0.008647  -0.001119   0.505371   0.441188   0.044987   0.003675
    10  C    0.050272  -0.002522   0.007987   0.005715   0.464163   0.411329
    11  O   -0.049958  -0.053414   0.000608  -0.000292  -0.000196  -0.000606
    12  O    0.006747  -0.001506   0.004257  -0.000431   0.014089  -0.003180
    13  C   -0.033700   0.017102  -0.000562  -0.003867   0.001150  -0.010844
    14  H    0.000140  -0.001849  -0.000029   0.000017  -0.000069   0.000654
    15  H    0.001262  -0.012622  -0.000005  -0.000017  -0.000175   0.000423
    16  H    0.001334   0.000010   0.002853  -0.007363  -0.002674  -0.003709
    17  H   -0.000137   0.001621   0.000002  -0.000069   0.000052  -0.000288
    18  H    0.001322  -0.002105  -0.000307   0.000557   0.005010   0.001569
    19  H    0.586729  -0.018232   0.000497  -0.000009  -0.000163  -0.006497
    20  H   -0.018232   0.450346  -0.000000  -0.000037   0.000326  -0.001752
    21  H    0.000497  -0.000000   0.469903  -0.012055  -0.001081  -0.002834
    22  H   -0.000009  -0.000037  -0.012055   0.485817   0.000021   0.002371
    23  H   -0.000163   0.000326  -0.001081   0.000021   0.485149  -0.008586
    24  H   -0.006497  -0.001752  -0.002834   0.002371  -0.008586   0.507394
    25  H   -0.002356   0.001040  -0.000117  -0.000014   0.000418  -0.000793
    26  H    0.004395   0.000380  -0.000807  -0.000572  -0.000721  -0.000205
    27  H    0.000375  -0.000920  -0.002827   0.000355   0.000499   0.001847
    28  H   -0.000523  -0.000017   0.000615   0.003449   0.007138  -0.001818
    29  H    0.000013   0.000033  -0.003493  -0.009330  -0.000704   0.001373
    30  H   -0.001102   0.000179   0.002607  -0.013316  -0.002016  -0.000424
    31  H   -0.032415   0.001945   0.003360  -0.004214  -0.040666  -0.006195
              25         26         27         28         29         30
     1  C   -0.018365  -0.028864   0.001019   0.000474  -0.000071   0.007931
     2  C   -0.065633  -0.129580   0.553602  -0.003280   0.004046  -0.012270
     3  C   -0.006666  -0.032528  -0.009900  -0.026214   0.004937   0.385417
     4  C   -0.015586  -0.058949   0.007530  -0.000591   0.000256  -0.007891
     5  C    0.000395   0.008357  -0.001857   0.454242   0.439859  -0.013097
     6  O    0.000135  -0.000964  -0.000005  -0.057751  -0.065132  -0.000970
     7  C    0.019215   0.008439  -0.014505  -0.000078   0.000120   0.000319
     8  C    0.016396   0.081930  -0.045839   0.032254   0.002862   0.022927
     9  C    0.000185  -0.021074   0.019778  -0.021938  -0.053903  -0.005415
    10  C   -0.004932  -0.002059   0.017483  -0.034595   0.009890  -0.009802
    11  O   -0.017421   0.013312  -0.063867   0.000127  -0.000094   0.000684
    12  O    0.001474  -0.008312  -0.087595   0.001260   0.000953  -0.002767
    13  C    0.453919   0.520167  -0.079213   0.001656  -0.001265   0.009380
    14  H   -0.002534  -0.001829   0.002357  -0.000003  -0.000002  -0.000194
    15  H   -0.001537   0.000549   0.001405   0.000035  -0.000007   0.000039
    16  H   -0.000141   0.002029  -0.000593  -0.004309  -0.001780  -0.001468
    17  H   -0.008473  -0.008133   0.002048   0.000021  -0.000005   0.000334
    18  H    0.005530   0.000622  -0.000444  -0.000380   0.000276  -0.001562
    19  H   -0.002356   0.004395   0.000375  -0.000523   0.000013  -0.001102
    20  H    0.001040   0.000380  -0.000920  -0.000017   0.000033   0.000179
    21  H   -0.000117  -0.000807  -0.002827   0.000615  -0.003493   0.002607
    22  H   -0.000014  -0.000572   0.000355   0.003449  -0.009330  -0.013316
    23  H    0.000418  -0.000721   0.000499   0.007138  -0.000704  -0.002016
    24  H   -0.000793  -0.000205   0.001847  -0.001818   0.001373  -0.000424
    25  H    0.440334  -0.006251  -0.008785  -0.000007   0.000057   0.001454
    26  H   -0.006251   0.507136  -0.013823  -0.000596  -0.000050  -0.004490
    27  H   -0.008785  -0.013823   0.474251  -0.000024   0.000282  -0.001368
    28  H   -0.000007  -0.000596  -0.000024   0.504691  -0.004895   0.002514
    29  H    0.000057  -0.000050   0.000282  -0.004895   0.476921   0.000624
    30  H    0.001454  -0.004490  -0.001368   0.002514   0.000624   0.491843
    31  H   -0.004242  -0.011510  -0.004725   0.002879  -0.001354   0.000641
              31
     1  C    0.097304
     2  C   -0.231678
     3  C    0.097745
     4  C   -0.100512
     5  C   -0.021267
     6  O    0.021323
     7  C   -0.034492
     8  C    0.544570
     9  C   -0.177595
    10  C   -0.093476
    11  O    0.014704
    12  O   -0.013403
    13  C    0.155297
    14  H   -0.001603
    15  H    0.003971
    16  H   -0.013413
    17  H    0.008152
    18  H   -0.058595
    19  H   -0.032415
    20  H    0.001945
    21  H    0.003360
    22  H   -0.004214
    23  H   -0.040666
    24  H   -0.006195
    25  H   -0.004242
    26  H   -0.011510
    27  H   -0.004725
    28  H    0.002879
    29  H   -0.001354
    30  H    0.000641
    31  H    0.648263
 Mulliken charges:
               1
     1  C   -0.328600
     2  C   -0.113326
     3  C   -0.430747
     4  C   -0.284158
     5  C   -0.237832
     6  O   -0.306170
     7  C   -0.219304
     8  C   -0.013380
     9  C   -0.235284
    10  C   -0.380182
    11  O   -0.277126
    12  O   -0.297363
    13  C   -0.315385
    14  H    0.175054
    15  H    0.167559
    16  H    0.216824
    17  H    0.189677
    18  H    0.172755
    19  H    0.116253
    20  H    0.223178
    21  H    0.171658
    22  H    0.183607
    23  H    0.190553
    24  H    0.223269
    25  H    0.223301
    26  H    0.184003
    27  H    0.253458
    28  H    0.145666
    29  H    0.199583
    30  H    0.151259
    31  H    0.251201
 Sum of Mulliken charges =  -0.00000
 Mulliken charges with hydrogens summed into heavy atoms:
               1
     1  C    0.014013
     2  C    0.140132
     3  C   -0.062663
     4  C    0.078274
     5  C    0.107417
     6  O   -0.306170
     7  C    0.120127
     8  C    0.237821
     9  C    0.119981
    10  C    0.033639
    11  O   -0.277126
    12  O   -0.297363
    13  C    0.091918
 Electronic spatial extent (au):  <R**2>=           2796.1283
 Charge=             -0.0000 electrons
 Dipole moment (field-independent basis, Debye):
    X=              1.0666    Y=              3.4194    Z=             -4.0774  Tot=              5.4272
 Quadrupole moment (field-independent basis, Debye-Ang):
   XX=            -73.5392   YY=            -80.9829   ZZ=            -81.3489
   XY=             -4.2803   XZ=             -1.0804   YZ=              4.6558
 Traceless Quadrupole moment (field-independent basis, Debye-Ang):
   XX=              5.0845   YY=             -2.3592   ZZ=             -2.7253
   XY=             -4.2803   XZ=             -1.0804   YZ=              4.6558
 Octapole moment (field-independent basis, Debye-Ang**2):
  XXX=             -9.2482  YYY=             -0.4031  ZZZ=              0.6720  XYY=             14.1699
  XXY=             13.6066  XXZ=             -9.0307  XZZ=             -6.1351  YZZ=              2.7744
  YYZ=             -1.6231  XYZ=              3.8976
 Hexadecapole moment (field-independent basis, Debye-Ang**3):
 XXXX=          -2585.1562 YYYY=           -611.4457 ZZZZ=           -382.2579 XXXY=            -32.3034
 XXXZ=            -17.8282 YYYX=            -23.1747 YYYZ=              2.0839 ZZZX=              2.8013
 ZZZY=              9.9809 XXYY=           -562.9626 XXZZ=           -521.1010 YYZZ=           -170.5872
 XXYZ=              9.0841 YYXZ=              3.0705 ZZXY=             11.7631
 N-N= 9.063556774861D+02 E-N=-3.254580978185D+03  KE= 6.153198646693D+02
 D1PCM: PCM CHGder 1st derivatives, ID1Alg=3 FixD1E=F DoIter=F DoCFld=F I1PDM=0.
 Calling FoFJK, ICntrl=      2127 FMM=F ISym2X=0 I1Cent= 0 IOpClX= 0 NMat=1 NMatS=1 NMatT=0.
 ***** Axes restored to original set *****
 -------------------------------------------------------------------
 Center     Atomic                   Forces (Hartrees/Bohr)
 Number     Number              X              Y              Z
 -------------------------------------------------------------------
      1        6          -0.002723352   -0.000113396   -0.001295063
      2        6           0.002349647   -0.000983204   -0.011080146
      3        6          -0.001728526   -0.003686531    0.000529095
      4        6          -0.000219123   -0.001795687    0.004311367
      5        6           0.006312215    0.003031317    0.000367419
      6        8           0.000470017   -0.007116087    0.004837187
      7        6           0.000659804    0.007812017    0.000664744
      8        6           0.000511959    0.000734800    0.003463767
      9        6           0.000491515   -0.000505564   -0.002278056
     10        6          -0.003669644    0.005500638    0.002899889
     11        8           0.003371387   -0.003143339    0.008586553
     12        8          -0.006988080   -0.002249093    0.004823886
     13        6          -0.000418014   -0.003567178   -0.001770164
     14        1           0.001832357    0.000663736    0.002523701
     15        1           0.001141748   -0.000700088   -0.002472861
     16        1          -0.001324671    0.000567813   -0.003392998
     17        1           0.001532896    0.001813311   -0.001085118
     18        1          -0.002737335   -0.001086962   -0.002884164
     19        1          -0.005004107   -0.001318440   -0.004990084
     20        1           0.002035379   -0.003696688    0.000834048
     21        1           0.001805548   -0.000974820    0.002832295
     22        1          -0.001681386    0.002284354   -0.000332302
     23        1          -0.001408796    0.001065103   -0.006197248
     24        1           0.003796993   -0.003648493    0.001056011
     25        1           0.002443048    0.001483449    0.001911475
     26        1          -0.003213506    0.002757033   -0.001138562
     27        1           0.000109087    0.002094212    0.006713025
     28        1          -0.002146323    0.001470777   -0.005741684
     29        1          -0.003125459   -0.001182601    0.002754360
     30        1           0.002062584    0.002542346    0.001393754
     31        1           0.005462138    0.001947263   -0.005844129
 -------------------------------------------------------------------
 Cartesian Forces:  Max     0.011080146 RMS     0.003371382

 GradGradGradGradGradGradGradGradGradGradGradGradGradGradGradGradGradGrad
 Berny optimization.
 FormGI is forming the generalized inverse of G from B-inverse, IUseBI=4.
 Internal  Forces:  Max     0.017288907 RMS     0.002283420
 Search for a local minimum.
 Step number   1 out of a maximum of  186
 All quantities printed in internal units (Hartrees-Bohrs-Radians)
 Mixed Optimization -- RFO/linear search
 Second derivative matrix not updated -- first step.
 ITU=  0
     Eigenvalues ---    0.00472   0.00600   0.00713   0.00729   0.01375
     Eigenvalues ---    0.01411   0.01443   0.02498   0.02810   0.03038
     Eigenvalues ---    0.03110   0.03792   0.04346   0.04535   0.04768
     Eigenvalues ---    0.04782   0.04894   0.05060   0.05069   0.05093
     Eigenvalues ---    0.05312   0.05495   0.05612   0.05867   0.06215
     Eigenvalues ---    0.06280   0.06599   0.06791   0.07615   0.07877
     Eigenvalues ---    0.07950   0.07987   0.08014   0.08131   0.08551
     Eigenvalues ---    0.08850   0.09388   0.09400   0.10792   0.11636
     Eigenvalues ---    0.11703   0.11719   0.11952   0.12444   0.12533
     Eigenvalues ---    0.14597   0.15228   0.16295   0.16763   0.17461
     Eigenvalues ---    0.19818   0.21740   0.21806   0.25000   0.28043
     Eigenvalues ---    0.28486   0.28598   0.28776   0.28918   0.29030
     Eigenvalues ---    0.30093   0.30280   0.35030   0.35071   0.35090
     Eigenvalues ---    0.35106   0.35251   0.35259   0.35262   0.35278
     Eigenvalues ---    0.35316   0.35332   0.35453   0.35462   0.35555
     Eigenvalues ---    0.35812   0.35846   0.35939   0.36220   0.36296
     Eigenvalues ---    0.41034   0.41524   0.42212   0.42279   0.43414
     Eigenvalues ---    0.448441000.000001000.000001000.000001000.00000
     Eigenvalues --- 1000.000001000.000001000.000001000.000001000.00000
     Eigenvalues --- 1000.000001000.000001000.000001000.000001000.00000
     Eigenvalues --- 1000.000001000.000001000.000001000.000001000.00000
     Eigenvalues --- 1000.000001000.000001000.000001000.000001000.00000
     Eigenvalues --- 1000.000001000.000001000.000001000.000001000.00000
     Eigenvalues --- 1000.000001000.000001000.000001000.000001000.00000
     Eigenvalues --- 1000.000001000.000001000.000001000.000001000.00000
     Eigenvalues --- 1000.000001000.000001000.000001000.000001000.00000
     Eigenvalues --- 1000.000001000.000001000.000001000.000001000.00000
     Eigenvalues --- 1000.000001000.000001000.000001000.000001000.00000
     Eigenvalues --- 1000.000001000.000001000.000001000.000001000.00000
     Eigenvalues --- 1000.000001000.000001000.000001000.000001000.00000
     Eigenvalues --- 1000.000001000.000001000.000001000.000001000.00000
     Eigenvalues --- 1000.000001000.000001000.000001000.000001000.00000
     Eigenvalues --- 1000.000001000.000001000.000001000.000001000.00000
     Eigenvalues --- 1000.000001000.000001000.000001000.000001000.00000
     Eigenvalues --- 1000.000001000.000001000.000001000.000001000.00000
     Eigenvalues --- 1000.000001000.000001000.000001000.000001000.00000
     Eigenvalues --- 1000.000001000.000001000.000001000.000001000.00000
 RFO step:  Lambda=-4.14486046D-03 EMin= 4.71753866D-03
 Linear search not attempted -- first point.
 Iteration  1 RMS(Cart)=  0.08872509 RMS(Int)=  0.00167850
 Iteration  2 RMS(Cart)=  0.00396011 RMS(Int)=  0.00005340
 Iteration  3 RMS(Cart)=  0.00000637 RMS(Int)=  0.00005332
 Iteration  4 RMS(Cart)=  0.00000000 RMS(Int)=  0.00005332
 Iteration  1 RMS(Cart)=  0.00001108 RMS(Int)=  0.00000234
 Iteration  2 RMS(Cart)=  0.00000589 RMS(Int)=  0.00000261
 Iteration  3 RMS(Cart)=  0.00000314 RMS(Int)=  0.00000294
 Iteration  4 RMS(Cart)=  0.00000167 RMS(Int)=  0.00000316
 Iteration  5 RMS(Cart)=  0.00000089 RMS(Int)=  0.00000328
 Variable       Old X    -DE/DX   Delta X   Delta X   Delta X     New X
                                 (Linear)    (Quad)   (Total)
    R1        2.88575  -0.00107   0.00000  -0.00339  -0.00341   2.88234
    R2        2.86625   0.00008   0.00000   0.00009   0.00009   2.86634
    R3        2.05503   0.00307   0.00000   0.00865   0.00865   2.06367
    R4        2.05257   0.00278   0.00000   0.00778   0.00778   2.06035
    R5        2.65438   0.00251   0.00000   0.00535   0.00537   2.65975
    R6        2.65457   0.00089   0.00000   0.00197   0.00197   2.65654
    R7        2.89946  -0.00049   0.00000  -0.00141  -0.00141   2.89805
    R8        2.03739   0.00701   0.00000   0.01915   0.01915   2.05654
    R9        2.88924  -0.00107   0.00000  -0.00417  -0.00421   2.88503
   R10        2.89242  -0.00145   0.00000  -0.00568  -0.00571   2.88671
   R11        2.05559   0.00368   0.00000   0.01037   0.01037   2.06596
   R12        2.04932   0.00350   0.00000   0.00975   0.00975   2.05907
   R13        2.90035  -0.00130   0.00000  -0.00356  -0.00356   2.89679
   R14        2.05164   0.00260   0.00000   0.00727   0.00727   2.05891
   R15        2.04946   0.00411   0.00000   0.01145   0.01145   2.06091
   R16        2.67572   0.00321   0.00000   0.00781   0.00785   2.68357
   R17        2.87348   0.00031   0.00000   0.00081   0.00080   2.87428
   R18        2.05627   0.00620   0.00000   0.01749   0.01749   2.07375
   R19        2.04376   0.00433   0.00000   0.01195   0.01195   2.05571
   R20        2.66788   0.00176   0.00000   0.00454   0.00456   2.67244
   R21        2.68261   0.00299   0.00000   0.00634   0.00634   2.68895
   R22        2.05140   0.00712   0.00000   0.01991   0.01991   2.07130
   R23        2.04323   0.00429   0.00000   0.01182   0.01182   2.05505
   R24        2.87462   0.00048   0.00000   0.00187   0.00189   2.87651
   R25        2.68570   0.00106   0.00000   0.00247   0.00247   2.68817
   R26        2.03621   0.00821   0.00000   0.02236   0.02236   2.05857
   R27        2.05226   0.00323   0.00000   0.00904   0.00904   2.06130
   R28        2.05270   0.00283   0.00000   0.00793   0.00793   2.06063
   R29        2.05530   0.00636   0.00000   0.01792   0.01792   2.07322
   R30        2.04178   0.00529   0.00000   0.01455   0.01455   2.05632
   R31        2.05251   0.00343   0.00000   0.00961   0.00961   2.06213
   R32        2.04783   0.00435   0.00000   0.01211   0.01211   2.05994
    A1        1.91220  -0.00115   0.00000  -0.00598  -0.00615   1.90604
    A2        1.92603   0.00116   0.00000   0.00155   0.00161   1.92765
    A3        1.93422  -0.00068   0.00000  -0.00155  -0.00152   1.93270
    A4        1.90231  -0.00020   0.00000  -0.00360  -0.00358   1.89873
    A5        1.91142   0.00090   0.00000   0.00560   0.00567   1.91709
    A6        1.87711   0.00001   0.00000   0.00417   0.00415   1.88126
    A7        1.92324   0.00218   0.00000   0.00238   0.00229   1.92553
    A8        1.95010   0.00317   0.00000   0.00943   0.00912   1.95922
    A9        1.81269  -0.00161   0.00000   0.00133   0.00121   1.81390
   A10        2.05404  -0.00676   0.00000  -0.03641  -0.03638   2.01767
   A11        1.81054   0.00287   0.00000   0.02028   0.02037   1.83091
   A12        1.89169   0.00063   0.00000   0.00863   0.00875   1.90044
   A13        1.94175   0.00024   0.00000  -0.01100  -0.01113   1.93062
   A14        1.88336   0.00014   0.00000   0.00814   0.00817   1.89153
   A15        1.91899  -0.00052   0.00000  -0.00637  -0.00635   1.91265
   A16        1.90856  -0.00020   0.00000   0.00500   0.00507   1.91363
   A17        1.93624   0.00014   0.00000   0.00047   0.00039   1.93663
   A18        1.87284   0.00020   0.00000   0.00465   0.00464   1.87748
   A19        1.93123   0.00130   0.00000  -0.00234  -0.00233   1.92889
   A20        1.92987  -0.00004   0.00000   0.00193   0.00197   1.93184
   A21        1.90358  -0.00087   0.00000  -0.00261  -0.00266   1.90092
   A22        1.89648  -0.00020   0.00000   0.00305   0.00306   1.89954
   A23        1.94219  -0.00048   0.00000  -0.00084  -0.00087   1.94132
   A24        1.85937   0.00024   0.00000   0.00100   0.00101   1.86038
   A25        1.93610   0.00148   0.00000   0.00736   0.00729   1.94338
   A26        1.90118   0.00098   0.00000   0.00844   0.00850   1.90968
   A27        1.85671  -0.00121   0.00000  -0.00476  -0.00473   1.85198
   A28        1.93011  -0.00138   0.00000  -0.00821  -0.00822   1.92189
   A29        1.94635  -0.00036   0.00000  -0.00381  -0.00380   1.94255
   A30        1.89111   0.00053   0.00000   0.00135   0.00132   1.89243
   A31        1.97658  -0.00382   0.00000  -0.02422  -0.02416   1.95242
   A32        1.93150   0.00272   0.00000   0.00864   0.00854   1.94004
   A33        1.93593  -0.00181   0.00000  -0.00795  -0.00799   1.92795
   A34        1.94953  -0.00025   0.00000  -0.00279  -0.00274   1.94679
   A35        1.91494   0.00037   0.00000   0.00427   0.00436   1.91930
   A36        1.84266  -0.00154   0.00000  -0.00153  -0.00152   1.84114
   A37        1.88651   0.00050   0.00000  -0.00035  -0.00039   1.88612
   A38        1.91773   0.00019   0.00000  -0.00162  -0.00172   1.91601
   A39        1.92182   0.00009   0.00000  -0.00300  -0.00297   1.91886
   A40        1.92144  -0.00082   0.00000  -0.00484  -0.00481   1.91663
   A41        1.88861  -0.00002   0.00000   0.00115   0.00119   1.88979
   A42        1.88403   0.00019   0.00000   0.00293   0.00293   1.88696
   A43        1.92954   0.00039   0.00000   0.00558   0.00555   1.93509
   A44        1.92653  -0.00036   0.00000  -0.00747  -0.00756   1.91897
   A45        1.92574   0.00036   0.00000  -0.00276  -0.00275   1.92299
   A46        1.92616  -0.00068   0.00000  -0.00092  -0.00090   1.92526
   A47        1.90532  -0.00024   0.00000  -0.00116  -0.00121   1.90411
   A48        1.90698   0.00064   0.00000   0.00566   0.00572   1.91270
   A49        1.87216   0.00030   0.00000   0.00714   0.00712   1.87928
   A50        1.95433   0.00110   0.00000   0.00444   0.00445   1.95879
   A51        1.91053   0.00105   0.00000   0.01001   0.01000   1.92053
   A52        1.86287  -0.00078   0.00000  -0.00351  -0.00351   1.85936
   A53        1.90461  -0.00120   0.00000  -0.00456  -0.00461   1.90000
   A54        1.93280  -0.00082   0.00000  -0.00975  -0.00975   1.92305
   A55        1.89762   0.00068   0.00000   0.00368   0.00365   1.90127
   A56        2.04896  -0.00568   0.00000  -0.03749  -0.03739   2.01158
   A57        2.18033  -0.01729   0.00000  -0.06803  -0.06803   2.11230
   A58        2.02522  -0.00093   0.00000  -0.00879  -0.00895   2.01627
   A59        1.83089   0.00026   0.00000   0.00955   0.00956   1.84045
   A60        1.91148   0.00035   0.00000  -0.00562  -0.00567   1.90581
   A61        1.88174   0.00089   0.00000   0.00890   0.00900   1.89073
   A62        1.94367  -0.00042   0.00000  -0.00571  -0.00583   1.93783
   A63        1.86008  -0.00002   0.00000   0.00421   0.00423   1.86431
    D1        0.88848  -0.00037   0.00000   0.00178   0.00174   0.89022
    D2        2.99062   0.00021   0.00000   0.00534   0.00534   2.99596
    D3       -1.25349  -0.00004   0.00000   0.00612   0.00611  -1.24738
    D4       -1.20617  -0.00012   0.00000   0.00906   0.00903  -1.19714
    D5        0.89597   0.00046   0.00000   0.01261   0.01263   0.90860
    D6        2.93505   0.00022   0.00000   0.01339   0.01340   2.94845
    D7        2.99963  -0.00044   0.00000   0.00385   0.00381   3.00344
    D8       -1.18141   0.00014   0.00000   0.00741   0.00741  -1.17401
[...]
 61741,0.00003142,0.00004311,-0.00005175,-0.00003437,-0.00005078,0.0000
 5684,-0.00000961,0.00000259,0.00002125,0.00000097,-0.00000220,0.000012
 21,0.00006219,0.00005140,0.00002344,-0.00000241,-0.00002630,-0.0000073
 0,0.11083247,0.07239403,0.15574232,-0.00013058,-0.00031860,0.00326759,
 0.00963941,-0.00983181,0.00212690,-0.00092567,-0.00042431,-0.00015924,
 -0.00890492,0.00883233,-0.00380039,0.00001581,-0.00009191,-0.00009563,
 0.00004839,0.00006093,0.00000722,-0.00047865,0.00003592,0.00068612,0.0
 0000994,-0.00057179,-0.00026540,-0.00000824,0.00009303,0.00010681,-0.0
 0012505,0.00000310,-0.00005601,0.00050154,-0.00435343,0.00190685,0.000
 77355,0.00080572,-0.00035697,-0.17276722,0.12937687,-0.04207544,0.0001
 4142,-0.00032293,-0.00002055,-0.00021614,0.00101558,-0.00020707,0.0000
 3453,0.00006933,-0.00000700,-0.00013902,-0.00026854,-0.00011039,0.0007
 8187,-0.00036742,0.00000900,0.00006702,-0.00000322,-0.00007776,0.00005
 633,0.00003734,-0.00016807,0.00000923,0.00000637,-0.00000931,0.0000368
 9,-0.00000948,-0.00001460,0.00001205,0.00001510,0.00001659,0.00001429,
 0.00005295,0.00000262,-0.01493328,0.01527926,-0.00498845,0.18850097,0.
 00059372,0.00065079,-0.00228001,0.01815813,-0.01583293,0.00342518,0.00
 002794,-0.00021647,-0.00028471,0.00635413,-0.00704759,0.00183987,0.000
 00899,0.00001916,-0.00011911,0.00024180,0.00014918,-0.00003545,-0.0002
 8127,0.00124257,0.00119878,-0.00064435,-0.00087989,-0.00000624,0.00003
 077,0.00010503,0.00025226,-0.00011706,-0.00023905,-0.00022837,-0.00108
 507,-0.00571273,0.00348893,0.00037647,0.00228557,-0.00081221,0.1258411
 3,-0.17686449,0.04438189,0.00010568,-0.00007583,0.00007517,0.00032919,
 -0.00041652,0.00024582,0.00012390,0.00006795,0.00009412,0.00001709,0.0
 0014876,-0.00022764,-0.00043746,0.00029872,0.00027869,-0.00002599,-0.0
 0007850,-0.00018716,0.00004168,-0.00005716,-0.00010584,-0.00000205,0.0
 0001708,-0.00002548,0.00005713,-0.00001106,-0.00002056,0.00002299,0.00
 000628,0.00002818,0.00001900,0.00007921,0.00000756,-0.00984108,0.01119
 387,-0.00308757,-0.13956948,0.19097364,0.00238720,-0.00070171,-0.00522
 934,-0.01402589,0.00851077,-0.00307306,-0.00011946,0.00005908,-0.00002
 691,0.01944511,-0.02137997,0.00725602,-0.00003515,0.00000262,-0.000012
 01,0.00006240,0.00003806,-0.00002861,0.00050376,-0.00025979,-0.0012969
 6,-0.00011218,0.00012828,0.00047704,-0.00001148,-0.00003341,0.00000194
 ,0.00001168,-0.00009146,-0.00000179,0.00088667,0.00499260,-0.00143275,
 -0.00013012,-0.00092874,0.00052731,-0.04116717,0.04580616,-0.06146317,
 0.00014101,-0.00001278,0.00008278,0.00078537,-0.00154462,0.00024712,-0
 .00001992,-0.00004778,-0.00004046,-0.00036322,0.00072757,0.00068405,-0
 .00094153,0.00018199,0.00142752,-0.00008633,0.00003878,0.00017322,-0.0
 0012462,0.00003167,0.00020773,0.00000753,0.00000762,-0.00000685,0.0000
 1659,-0.00000023,-0.00000786,0.00002199,0.00001965,0.00001343,-0.00000
 425,0.00000767,0.00000080,-0.01201240,0.01351671,-0.00488593,0.0445092
 7,-0.04802218,0.06647348,0.00028512,-0.00001931,-0.00018558,-0.0403891
 8,0.00348173,0.01758773,0.00011548,-0.00017735,-0.00013599,0.00036395,
 -0.00174595,0.00074665,0.00024485,-0.00013595,0.00007777,-0.00038421,-
 0.00001555,0.00024514,0.00058842,0.00310057,-0.00191032,-0.00098896,-0
 .00611517,0.00143808,0.00003427,0.00009263,-0.00010704,-0.00037366,0.0
 0080274,-0.00216427,-0.00694512,0.01696704,0.02002693,-0.02209868,-0.0
 1121850,-0.04046985,-0.00106319,0.00080060,0.01279354,-0.00008025,-0.0
 0003839,-0.00006196,-0.00002793,-0.00005612,0.00001549,-0.00015726,0.0
 0011466,-0.00003261,-0.00023340,0.00004412,0.00033979,-0.00005184,0.00
 012378,0.00032684,-0.00000944,0.00011851,0.00043403,-0.00036222,0.0004
 1812,0.00074316,0.00002349,-0.00002681,0.00002243,-0.00007846,0.000018
 13,0.00003645,-0.00051683,-0.00058273,-0.00024594,0.00004476,0.0000364
 6,0.00003945,0.00006770,0.00018651,0.00118139,-0.00003163,-0.00047712,
 0.00034431,0.07215435,0.00026424,-0.00056869,-0.00031597,0.00167420,-0
 .07617141,-0.07159564,-0.00003002,-0.00011146,-0.00021645,-0.00050111,
 -0.00368162,0.00147744,0.00004896,-0.00001831,0.00001188,-0.00006253,0
 .00003448,0.00004426,0.00148650,-0.00342064,0.00388665,-0.00018532,-0.
 00045988,0.00126606,0.00000669,0.00001653,-0.00000469,0.00003142,0.000
 09738,-0.00043898,0.01640783,-0.02385939,-0.03407221,-0.00742307,0.002
 04770,-0.01176187,-0.00621512,0.00772356,0.02247047,-0.00002678,0.0001
 1649,-0.00003947,0.00006973,0.00032298,-0.00015930,-0.00006655,0.00007
 173,-0.00000162,-0.00074212,0.00032469,0.00095021,-0.00004294,0.000111
 80,0.00034269,-0.00015126,-0.00010508,-0.00021886,0.00070396,-0.000636
 88,-0.00143212,-0.00001397,-0.00000803,-0.00001617,-0.00001921,0.00000
 363,0.00000375,-0.00009017,-0.00011718,-0.00002454,0.00002165,0.000013
 64,0.00000633,-0.00000296,0.00105170,0.00056068,0.00076194,0.00007043,
 -0.00064822,-0.00582000,0.09717358,-0.00037049,0.00014421,0.00011416,0
 .01717904,-0.08298949,-0.29130058,-0.00000107,-0.00015572,-0.00011990,
 0.00051174,0.00339862,0.00036805,0.00015747,-0.00006430,0.00004587,-0.
 00032772,-0.00008978,0.00007819,-0.00049413,0.00098905,0.00283321,0.00
 034321,-0.00249241,0.00298425,-0.00001132,0.00005349,-0.00004278,-0.00
 010339,0.00047711,-0.00068170,0.00219939,-0.00211010,0.00298564,-0.012
 21100,-0.00282021,-0.00872961,0.00340625,-0.00440058,-0.01681140,0.000
 06383,-0.00004563,0.00003580,0.00000359,-0.00010182,-0.00002191,-0.000
 09045,0.00007769,-0.00004358,0.00053946,-0.00038114,-0.00084783,-0.000
 03038,-0.00000376,-0.00003640,-0.00012249,0.00016467,0.00010994,0.0000
 7231,-0.00001049,-0.00011667,0.00000445,-0.00001466,-0.00004823,-0.000
 05925,0.00000842,0.00000935,-0.00018276,-0.00021254,-0.00010112,0.0000
 3158,0.00003724,0.00003339,0.00028634,0.00002972,0.00109599,-0.0000996
 8,0.00031088,-0.00014267,-0.01086421,0.09012041,0.30815046,0.00000043,
 -0.00000139,-0.00000127,0.00008319,-0.00001988,0.00008871,0.00035716,0
 .00092420,-0.00082990,-0.00000173,-0.00000605,0.00000529,-0.07525967,-
 0.00075430,-0.06568429,-0.01864070,0.01525897,-0.02199685,0.00001072,-
 0.00000090,-0.00000415,-0.00051979,-0.00003084,0.00028378,-0.00309791,
 -0.00129589,-0.01312095,0.00245717,0.00059291,-0.00510561,-0.00003432,
 0.00001786,-0.00000315,-0.00000111,-0.00004489,0.00013574,-0.00001952,
 0.00000363,-0.00001146,-0.00000194,0.00000021,-0.00000080,-0.00000131,
 0.00000036,0.00000177,-0.00011766,-0.00020541,0.00022873,-0.00000617,-
 0.00000095,0.00000031,0.00000091,-0.00000043,-0.00000910,0.00000677,-0
 .00000503,-0.00000130,-0.00000332,0.00000131,-0.00000060,-0.00000027,-
 0.00205623,-0.00087578,0.00040236,-0.00010165,0.00016635,0.00029572,-0
 .00028472,0.00099047,0.00013004,-0.00001964,0.00039843,-0.00000787,-0.
 00000686,0.00000288,0.00000161,0.00000147,0.00000031,-0.00000113,-0.00
 000016,-0.00000929,0.08424898,0.00000221,0.00000096,0.00000498,-0.0000
 8188,0.00004322,-0.00002159,0.00117678,0.00128621,-0.00064603,0.000002
 29,0.00000657,-0.00000353,0.00058024,-0.04852476,0.00930810,0.02246813
 ,-0.01218205,0.02593888,-0.00001529,-0.00000487,-0.00001497,0.00016046
 ,-0.00018886,-0.00042163,-0.01046047,0.00114439,-0.02934736,-0.0035846
 9,-0.00007324,0.00303797,0.00000872,-0.00001068,0.00000213,0.00001393,
 0.00022560,0.00014054,0.00002294,0.00000675,0.00000380,0.00000331,0.00
 000129,0.00000011,0.00000144,-0.00000132,-0.00000169,0.00000227,-0.000
 11398,0.00064380,0.00000703,0.00000136,-0.00000007,-0.00000117,0.00000
 004,0.00001043,-0.00000718,0.00000710,0.00000466,0.00000594,-0.0000009
 8,0.00000241,-0.00300962,-0.00494083,-0.00154736,0.00078223,0.00106661
 ,0.00068580,-0.00024944,0.00030643,-0.00105174,-0.00009543,-0.00005667
 ,-0.00029663,0.00001192,0.00000231,-0.00000096,0.00000196,-0.00001191,
 -0.00000025,0.00001600,0.00000080,0.00000586,-0.01052919,0.06131476,0.
 00000002,-0.00000290,-0.00000053,0.00040262,0.00000642,0.00012133,0.00
 061044,0.00060398,0.00086680,-0.00000491,-0.00001824,0.00000974,-0.068
 91507,0.01120044,-0.27173454,-0.00582952,0.00741836,0.00140496,0.00003
 530,-0.00000020,-0.00001168,-0.00013420,0.00009500,0.00006094,-0.00242
 867,-0.00008443,-0.01114322,0.00204270,-0.00060764,0.00236215,-0.00011
 941,0.00007358,-0.00000372,-0.00044868,-0.00013383,-0.00022429,-0.0000
 2692,0.00000695,-0.00000687,-0.00000641,-0.00000095,-0.00000190,-0.000
 00536,0.00000293,0.00000486,-0.00063397,-0.00012954,0.00044221,-0.0000
 1833,-0.00000302,0.00000138,0.00000160,0.00000091,-0.00002306,0.000009
 98,-0.00001602,-0.00000584,-0.00001419,0.00000477,-0.00000169,-0.00060
 373,-0.00218854,0.00077064,0.00001408,-0.00045120,0.00013622,-0.001606
 84,-0.00008934,0.00026908,-0.00016396,0.00002875,0.00040229,-0.0000189
 7,-0.00001040,0.00000269,0.00001878,0.00001578,0.00000723,-0.00004433,
 -0.00001284,-0.00003235,0.08329289,-0.01572852,0.29279637,-0.00000731,
 -0.00000339,-0.00000850,0.00042659,-0.00000761,0.00013088,0.00065750,-
 0.00210135,-0.00150959,-0.00000720,-0.00001570,0.00000899,-0.19661588,
 -0.05796422,0.11550865,-0.02674644,0.00083486,0.01678407,0.00005433,0.
 00000930,0.00002463,0.00034738,0.00026188,0.00048350,-0.00808539,-0.00
 491356,0.00713632,-0.00004125,0.00403509,-0.00307309,-0.00013606,0.000
 08259,-0.00002052,-0.00041042,-0.00009757,-0.00028772,-0.00002679,-0.0
 0000968,-0.00000511,-0.00001076,-0.00000470,-0.00000054,-0.00000628,0.
 00000460,0.00000613,-0.00002887,-0.00001512,0.00019854,-0.00002307,-0.
 00000501,0.00000123,0.00000388,0.00000052,-0.00003180,0.00002090,-0.00
 002481,-0.00001921,-0.00002273,0.00000505,-0.00000646,0.00021487,0.000
 60945,-0.00001032,0.00022129,-0.00034309,-0.00007371,0.00005205,-0.000
 08868,0.00035052,-0.00109807,-0.00024128,0.00079047,-0.00003036,-0.000
 00740,0.00000109,0.00002458,0.00003495,0.00000695,-0.00005022,-0.00001
 167,-0.00003552,0.00960769,0.00238691,-0.00533045,0.22227108,0.0000067
 6,-0.00000216,0.00002898,0.00014189,-0.00000290,0.00007962,-0.00155859
 ,-0.00522886,-0.00357913,-0.00000373,0.00000498,-0.00001585,-0.0663373
 1,-0.07275931,0.05215943,0.02891656,0.00401757,-0.01922826,-0.00000730
 ,-0.00001803,-0.00006050,0.00086794,-0.00067502,-0.00025820,-0.0218532
 5,-0.00666694,0.01874323,0.00260907,-0.00379541,0.00134631,-0.00007340
 ,0.00006701,0.00000382,-0.00020522,0.00016013,-0.00011432,0.00000518,-
 0.00005601,0.00000762,0.00000240,0.00000502,-0.00000408,-0.00000434,0.
 00000571,0.00000055,0.00035636,0.00009052,-0.00007944,-0.00000576,0.00
 000063,0.00000310,0.00000040,-0.00000279,-0.00000072,-0.00001648,0.000
 00317,0.00001391,0.00000406,0.00000423,0.00000572,0.00059588,0.0013156
 3,-0.00033704,0.00085171,0.00071094,0.00017646,-0.00012482,-0.00000609
 ,-0.00013828,0.00129740,0.00021771,-0.00069071,-0.00002596,0.00001527,
 -0.00000478,0.00003204,0.00005651,-0.00000183,-0.00000134,-0.00000091,
 -0.00000448,-0.00132235,0.00049532,0.00014217,0.05778018,0.08208852,0.
 00000178,0.00000007,0.00000429,-0.00008898,0.00000011,-0.00000362,-0.0
 0057272,-0.00181479,-0.00001394,-0.00000199,0.00000347,-0.00000347,0.1
 2270035,0.04702576,-0.15050308,-0.00173299,-0.00188220,0.00269648,-0.0
 0001106,-0.00000345,-0.00000545,-0.00015289,-0.00008920,-0.00011840,-0
 .01005014,-0.00376391,0.00719779,-0.00088042,-0.00036377,0.00116082,0.
 00002518,-0.00001001,0.00000046,0.00012767,0.00008370,0.00005886,0.000
 00818,0.00000029,0.00000478,0.00000211,0.00000150,-0.00000037,0.000000
 52,-0.00000019,-0.00000115,-0.00019781,-0.00016130,0.00030012,0.000002
 17,0.00000063,-0.00000045,0.00000060,-0.00000061,0.00000332,-0.0000031
 0,0.00000324,0.00000679,0.00000513,-0.00000048,0.00000085,0.00011336,0
 .00074659,0.00081555,0.00052372,0.00064336,0.00020148,-0.00022674,-0.0
 0000836,0.00043514,0.00027192,0.00008874,0.00023146,0.00000286,0.00000
 284,-0.00000200,0.00000934,-0.00000027,0.00000103,0.00001385,0.0000043
 0,0.00000649,0.02186383,0.00898907,-0.01661987,-0.13142832,-0.04926296
 ,0.15379357,-0.00000432,0.00001524,-0.00006753,-0.00029091,0.00011442,
 -0.00032565,-0.10294676,-0.10167556,-0.04245439,-0.00001152,-0.0000231
 9,0.00011109,-0.00498612,0.00114753,0.00494644,0.00137569,-0.00064862,
 -0.00063041,-0.00000607,0.00004438,0.00008383,0.01012123,0.02033367,0.
 00761170,-0.01203652,-0.02219366,-0.01039894,-0.00412701,0.00336869,0.
 00012277,0.00017093,-0.00022876,0.00004071,0.00190714,-0.00174638,0.00
 135492,-0.00052749,0.00017387,0.00008239,0.00000282,-0.00000394,0.0000
 0686,0.00001492,-0.00002133,-0.00000117,-0.00472170,-0.00737225,-0.002
 92880,0.00001565,0.00000473,-0.00001453,-0.00001932,-0.00000835,-0.000
 00033,0.00002914,-0.00000861,-0.00001235,0.00000062,-0.00001315,-0.000
 00928,0.00122161,0.00042705,0.00001526,0.00061087,0.00055460,-0.000722
 40,-0.00005309,-0.00006226,-0.00004167,0.00072986,0.00125262,0.0001774
 8,0.00007410,-0.00003549,0.00001688,-0.00186380,0.00002605,-0.00002056
 ,0.00000189,0.00000884,0.00003835,0.00019158,0.00034620,0.00005046,-0.
 00050115,-0.00189947,-0.00032581,0.11472747,-0.00000912,0.00000242,0.0
 0015106,0.00025330,-0.00054181,0.00050202,-0.10033168,-0.22878226,-0.0
 7385831,-0.00003715,0.00011776,-0.00023954,-0.00064343,0.00145131,0.00
 142276,-0.00053716,0.00050461,0.00009019,-0.00004487,-0.00009902,-0.00
 013502,-0.01204587,-0.02377138,-0.01003657,-0.00287393,-0.00459707,-0.
 00129802,0.00612308,-0.00195870,0.00044623,-0.00008630,0.00020170,-0.0
 0006626,-0.00080539,0.00310927,-0.00018985,-0.00003616,-0.00054112,0.0
 0002247,0.00000935,-0.00000209,-0.00001051,-0.00002717,0.00004659,0.00
 000295,0.00314327,0.00575718,0.00148316,0.00000788,0.00000252,0.000042
 59,0.00002401,-0.00000933,0.00008570,-0.00003189,0.00003240,0.00003123
 ,0.00002001,0.00002004,0.00001632,0.00005205,0.00016868,0.00008694,-0.
 00018234,0.00038679,0.00025473,-0.00006469,0.00024864,-0.00013050,-0.0
 0092262,-0.00140958,-0.00019840,-0.00021275,0.00017650,-0.00005799,-0.
 00005006,0.00068795,-0.00005887,0.00008862,0.00002556,0.00001210,-0.00
 000076,-0.00001723,-0.00016036,-0.00005313,-0.00035703,-0.00024357,0.1
 0927762,0.24826876,-0.00001066,-0.00000568,0.00002357,-0.00050240,-0.0
 0012725,0.00014948,-0.04187429,-0.07661094,-0.07882548,-0.00001208,0.0
 0005399,-0.00002618,0.00372189,-0.00047115,-0.00230440,-0.00085458,-0.
 00023711,0.00017955,-0.00002663,-0.00001734,0.00001158,-0.00183103,0.0
 0157754,-0.00216936,0.00960176,0.01791876,0.00668256,0.00075179,-0.000
 08898,0.00034564,0.00013160,-0.00002387,-0.00002392,0.00128770,0.00047
 379,0.00095479,-0.00004798,-0.00012915,0.00000961,0.00000073,0.0000037
 3,-0.00000281,-0.00000301,0.00001119,-0.00000222,-0.01264678,-0.024937
 12,-0.00945892,0.00000065,-0.00000212,-0.00000072,-0.00000266,-0.00001
 293,-0.00000260,0.00000182,0.00000644,0.00000497,0.00000909,0.00000089
 ,-0.00000340,-0.00097436,-0.00002909,0.00080810,-0.00077631,-0.0005383
 1,0.00053685,0.00018489,0.00032182,0.00028866,-0.00010503,-0.00024883,
 0.00031384,-0.00003843,0.00005341,-0.00003368,0.00002100,0.00016422,0.
 00022697,0.00009011,0.00003274,0.00003332,0.00021233,0.00024949,0.0002
 0843,0.00049803,0.00097703,0.00041708,0.04329325,0.08189302,0.08178797
 ,-0.00009442,0.00019740,0.00012425,0.00255234,0.00059681,-0.00055299,-
 0.01531426,-0.00304617,0.01201375,-0.00407175,-0.00187042,-0.00036437,
 0.00115184,-0.00014710,0.00012542,-0.00161123,-0.00331434,-0.00070600,
 0.00016762,0.00064216,0.00014568,-0.19594439,-0.03274396,0.13625267,-0
 .00077987,0.00401901,-0.00110854,-0.01095171,-0.00029025,0.01023649,0.
 00016331,-0.00015084,-0.00003912,0.01130922,0.00342777,-0.01771114,-0.
 00065647,-0.00068276,0.00019087,0.00006780,-0.00009269,0.00006127,0.00
 001181,-0.00003498,-0.00001324,0.00025098,-0.00009889,-0.00022990,-0.0
 0042484,0.00006049,0.00003669,-0.00456174,-0.00151968,0.00102880,-0.00
 042971,0.00058105,-0.00042183,-0.00008252,-0.00007228,0.00003877,0.000
 04013,-0.00001707,0.00011615,-0.00092246,-0.00035690,0.00067445,-0.000
 05540,0.00005245,-0.00030366,0.00056535,-0.00010325,-0.00012724,-0.000
 08760,0.00026641,0.00019757,-0.00014522,0.00006872,0.00004415,-0.00008
 065,-0.00008101,0.00017613,-0.00007991,0.00003345,-0.00012495,-0.00005
 388,-0.00002851,0.00000038,0.00090028,-0.00000272,-0.00010042,0.219167
 38,0.00022125,0.00012331,-0.00001069,-0.00101258,0.00103117,-0.0006528
 7,0.02214142,0.00542975,-0.01766467,-0.00097237,-0.00034288,-0.0000446
 5,0.00095192,-0.00172638,-0.00007292,-0.00561611,-0.00533435,-0.000467
 95,0.00042690,0.00023088,0.00033365,-0.03083778,-0.05679084,0.02755581
 ,0.00284413,-0.00468085,0.00094460,-0.02057540,-0.00159709,0.01924846,
 -0.00000846,-0.00034339,-0.00004125,-0.00115097,-0.00028155,0.00451040
 ,-0.00063312,-0.00003154,-0.00055337,-0.00001543,-0.00009660,0.0000412
 8,0.00001546,-0.00003454,-0.00000059,-0.00077268,0.00106835,0.00039798
 ,-0.00005540,-0.00005557,-0.00009547,-0.00128018,0.00065370,0.00032145
 ,0.00043102,-0.00073865,0.00021569,-0.00013343,-0.00005182,-0.00011168
 ,-0.00017339,-0.00002519,-0.00010552,0.00147553,0.00040123,-0.00091149
 ,0.00040577,0.00102440,-0.00051551,0.00113413,0.00069032,0.00041338,0.
 00016373,0.00002785,0.00005638,-0.00029683,-0.00060854,-0.00033743,0.0
 0002007,-0.00004721,0.00006764,-0.00011338,0.00021764,0.00003795,-0.00
 013739,0.00031257,0.00001138,-0.00115450,0.00087795,-0.00025821,0.0347
 0809,0.06069787,-0.00006382,0.00008176,0.00000877,0.00536364,0.0012631
 7,0.00155370,0.00039930,-0.00047312,0.00173360,0.00090907,0.00034258,-
 0.00017598,0.00042796,-0.00043541,-0.00007204,-0.00216379,-0.00261915,
 0.00101648,-0.00027916,-0.00050480,-0.00092966,0.12702542,0.02518062,-
 0.16656848,-0.00026015,0.00035483,0.00102402,-0.00453943,0.00092316,0.
 00621436,-0.00126910,0.00065417,0.00017765,0.01265441,0.00686372,-0.03
 729537,-0.00148024,-0.00079439,-0.00046049,0.00009290,-0.00001358,0.00
 002364,0.00002264,-0.00005288,0.00000914,0.00011479,-0.00030861,0.0004
 8125,0.00046161,0.00009990,0.00030355,0.00225954,0.00068428,0.00089976
 ,0.00017084,0.00027699,0.00029580,0.00013381,0.00005673,0.00017750,-0.
 00021184,0.00000992,0.00011175,-0.00008673,0.00015243,0.00002534,-0.00
 006895,0.00066504,0.00036073,0.00043234,0.00012667,0.00001037,0.000177
 19,0.00007396,0.00008681,-0.00017612,-0.00036450,-0.00015930,-0.000281
 02,-0.00021893,0.00019259,-0.00001733,0.00005428,-0.00005778,-0.000089
 15,0.00009264,-0.00006457,0.00000144,0.00014032,-0.00012930,-0.1396600
 9,-0.03231179,0.19120617\\0.00000701,-0.00000581,-0.00000709,0.0000351
 4,-0.00014110,0.00032646,0.00000966,0.00002007,0.00000895,0.00000490,0
 .00000105,-0.00000860,-0.00002648,0.00000255,0.00000837,-0.00000541,0.
 00000673,0.00000300,-0.00000238,-0.00002235,-0.00000480,0.00008295,-0.
 00028118,-0.00010810,-0.00001374,0.00001261,-0.00001175,0.00002104,-0.
 00000464,-0.00001336,0.00003132,0.00002394,-0.00024427,-0.00012652,0.0
 0041348,0.00003884,-0.00000356,-0.00000517,-0.00000427,-0.00000143,0.0
 0000383,0.00000475,0.00000298,-0.00000327,0.00001626,0.00000696,-0.000
 00879,-0.00000586,0.00000167,-0.00000945,-0.00000069,-0.00000096,-0.00
 000675,0.00000710,0.00000602,-0.00000114,0.00001135,-0.00001394,0.0000
 0198,0.00000788,0.00000228,0.00000221,-0.00000370,0.00000581,-0.000004
 30,-0.00000039,0.00000443,-0.00000418,0.00001200,-0.00000187,0.0000043
 6,0.00000267,-0.00001092,-0.00000043,-0.00000699,-0.00000500,0.0000023
 4,-0.00000442,-0.00001408,0.00000098,-0.00001234,0.00000620,-0.0000026
 5,0.00000392,-0.00000145,0.00000785,-0.00000857,0.00000317,-0.00000518
 ,-0.00001501,-0.00000380,0.00000242,0.00000865\\\@


 SCIENCE IS A VERY HUMAN FORM OF KNOWLEDGE.
 WE ARE ALWAYS AT THE BRINK OF THE KNOWN,
 WE ALWAYS FEEL FORWARD FOR WHAT IS HOPED.
 EVERY JUDGEMENT IN SCIENCE STANDS ON THE EDGE OF ERROR, AND IS PERSONAL.
 SCIENCE IS A TRIBUTE TO WHAT WE CAN KNOW ALTHOUGH WE ARE FALLIBLE.

                     -- J. BRONOWSKI
 Job cpu time:       0 days 14 hours 50 minutes 21.3 seconds.
 Elapsed time:       0 days  0 hours 55 minutes 40.3 seconds.
 File lengths (MBytes):  RWF=    688 Int=      0 D2E=      0 Chk=     33 Scr=      1
 Normal termination of Gaussian 16 at Mon Nov  5 04:32:08 2018.
