 Entering Gaussian System, Link 0=g16
 Initial command:
 /apps/gaussian/g16a03/g16/l1.exe "/jobfs/local/2011884.r-man2/Gau-10266.inp" -scrdir="/jobfs/local/2011884.r-man2/"
 Entering Link 1 = /apps/gaussian/g16a03/g16/l1.exe PID=     10267.
  
 Copyright (c) 1988,1990,1992,1993,1995,1998,2003,2009,2016,
            Gaussian, Inc.  All Rights Reserved.
  
 This is part of the Gaussian(R) 16 program.  It is based on
 the Gaussian(R) 09 system (copyright 2009, Gaussian, Inc.),
 the Gaussian(R) 03 system (copyright 2003, Gaussian, Inc.),
 the Gaussian(R) 98 system (copyright 1998, Gaussian, Inc.),
 the Gaussian(R) 94 system (copyright 1995, Gaussian, Inc.),
 the Gaussian 92(TM) system (copyright 1992, Gaussian, Inc.),
 the Gaussian 90(TM) system (copyright 1990, Gaussian, Inc.),
 the Gaussian 88(TM) system (copyright 1988, Gaussian, Inc.),
 the Gaussian 86(TM) system (copyright 1986, Carnegie Mellon
 University), and the Gaussian 82(TM) system (copyright 1983,
 Carnegie Mellon University). Gaussian is a federally registered
 trademark of Gaussian, Inc.
  
 This software contains proprietary and confidential information,
 including trade secrets, belonging to Gaussian, Inc.
  
 This software is provided under written license and may be
 used, copied, transmitted, or stored only in accord with that
 written license.
  
 The following legend is applicable only to US Government
 contracts under FAR:
  
                    RESTRICTED RIGHTS LEGEND
  
 Use, reproduction and disclosure by the US Government is
 subject to restrictions as set forth in subparagraphs (a)
 and (c) of the Commercial Computer Software - Restricted
 Rights clause in FAR 52.227-19.
  
 Gaussian, Inc.
 340 Quinnipiac St., Bldg. 40, Wallingford CT 06492
  
  
 ---------------------------------------------------------------
 Warning -- This program may not be used in any manner that
 competes with the business of Gaussian, Inc. or will provide
 assistance to any competitor of Gaussian, Inc.  The licensee
 of this program is prohibited from giving any competitor of
 Gaussian, Inc. access to this program.  By using this program,
 the user acknowledges that Gaussian, Inc. is engaged in the
 business of creating and licensing software in the field of
 computational chemistry and represents and warrants to the
 licensee that it is not a competitor of Gaussian, Inc. and that
 it will not use this program in any manner prohibited above.
 ---------------------------------------------------------------
  

 Cite this work as:
 Gaussian 16, Revision A.03,
 M. J. Frisch, G. W. Trucks, H. B. Schlegel, G. E. Scuseria, 
 M. A. Robb, J. R. Cheeseman, G. Scalmani, V. Barone, 
 G. A. Petersson, H. Nakatsuji, X. Li, M. Caricato, A. V. Marenich, 
 J. Bloino, B. G. Janesko, R. Gomperts, B. Mennucci, H. P. Hratchian, 
 J. V. Ortiz, A. F. Izmaylov, J. L. Sonnenberg, D. Williams-Young, 
 F. Ding, F. Lipparini, F. Egidi, J. Goings, B. Peng, A. Petrone, 
 T. Henderson, D. Ranasinghe, V. G. Zakrzewski, J. Gao, N. Rega, 
 G. Zheng, W. Liang, M. Hada, M. Ehara, K. Toyota, R. Fukuda, 
 J. Hasegawa, M. Ishida, T. Nakajima, Y. Honda, O. Kitao, H. Nakai, 
 T. Vreven, K. Throssell, J. A. Montgomery, Jr., J. E. Peralta, 
 F. Ogliaro, M. J. Bearpark, J. J. Heyd, E. N. Brothers, K. N. Kudin, 
 V. N. Staroverov, T. A. Keith, R. Kobayashi, J. Normand, 
 K. Raghavachari, A. P. Rendell, J. C. Burant, S. S. Iyengar, 
 J. Tomasi, M. Cossi, J. M. Millam, M. Klene, C. Adamo, R. Cammi, 
 J. W. Ochterski, R. L. Martin, K. Morokuma, O. Farkas, 
 J. B. Foresman, and D. J. Fox, Gaussian, Inc., Wallingford CT, 2016.
 
 ******************************************
 Gaussian 16:  ES64L-G16RevA.03 25-Dec-2016
                 5-Nov-2018 
 ******************************************
 %mem=6000mb
 %nproc=24
 Will use up to   24 processors via shared memory.
 %chk=D_1a_4a_L_PHI.inp_extract_1.chk
 ----------------------------------------------------------------------
 #M062X/6-311++G(2d,2p) opt=ModRedundant freq=noraman SCRF=(Solvent=Wat
 er)
 ----------------------------------------------------------------------
 1/18=120,19=15,26=3,38=1/1,3;
 2/9=110,12=2,17=6,18=5,40=1/2;
 3/5=4,6=6,7=1212,11=2,25=1,30=1,70=2201,71=1,72=1,74=-55/1,2,3;
 4//1;
 5/5=2,38=5,53=1/2;
 6/7=2,8=2,9=2,10=2,28=1/1;
 7//1,2,3,16;
 1/18=20,19=15,26=3/3(2);
 2/9=110/2;
 99//99;
 2/9=110/2;
 3/5=4,6=6,7=1212,11=2,25=1,30=1,70=2205,71=1,72=1,74=-55/1,2,3;
 4/5=5,16=3,69=1/1;
 5/5=2,38=5,53=1/2;
 7//1,2,3,16;
 1/18=20,19=15,26=3/3(-5);
 2/9=110/2;
 6/7=2,8=2,9=2,10=2,19=2,28=1/1;
 99/9=1/99;
 ---------------------------
 D_1a_4a_L_PHI.inp_extract_1
 ---------------------------
 Symbolic Z-matrix:
 Charge =  0 Multiplicity = 1
 C                     3.32597  -0.36262  -0.71725 
 C                     1.14017   0.20404   1.14609 
 C                    -1.77385   1.21526  -0.85747 
 C                     2.77064   1.05725  -0.6571 
 C                    -3.54283  -0.30904   0.03948 
 O                    -2.53     -1.2231    0.4177 
 C                     2.2269   -1.36394  -0.41321 
 C                    -0.74166   0.14643  -0.50161 
 C                    -3.01417   1.11638   0.0331 
 C                    -1.41625  -1.21918  -0.45064 
 O                     1.55876  -1.09086   0.81559 
 O                    -0.18656   0.4861    0.76046 
 C                     2.13693   1.28257   0.71474 
 H                     4.12969  -0.47293   0.00695 
 H                     3.73646  -0.58713  -1.69745 
 H                    -2.06434   1.06462  -1.89452 
 H                     3.56104   1.78486  -0.81338 
 H                     2.04297   1.20481  -1.45025 
 H                     1.50772  -1.39265  -1.22225 
 H                     2.62813  -2.36064  -0.29318 
 H                    -2.77599   1.41437   1.04971 
 H                    -3.79107   1.78527  -0.32601 
 H                    -1.73725  -1.4911   -1.45399 
 H                    -0.74148  -1.97818  -0.08732 
 H                     2.93013   1.28389   1.45833 
 H                     1.64212   2.24531   0.7764 
 H                     1.08006   0.20595   2.22278 
 H                    -3.91575  -0.58302  -0.94537 
 H                    -4.34597  -0.43121   0.75351 
 H                    -1.31945   2.19794  -0.78817 
 H                     0.02425   0.12981  -1.26245 
 
 The following ModRedundant input section has been read:
 D      11       2      12       8 F                                           
 

 GradGradGradGradGradGradGradGradGradGradGradGradGradGradGradGradGradGrad
 Berny optimization.
 Initialization pass.
                           ----------------------------
                           !    Initial Parameters    !
                           ! (Angstroms and Degrees)  !
 --------------------------                            --------------------------
 ! Name  Definition              Value          Derivative Info.                !
 --------------------------------------------------------------------------------
 ! R1    R(1,4)                  1.5258         estimate D2E/DX2                !
 ! R2    R(1,7)                  1.5176         estimate D2E/DX2                !
 ! R3    R(1,14)                 1.0875         estimate D2E/DX2                !
 ! R4    R(1,15)                 1.0861         estimate D2E/DX2                !
 ! R5    R(2,11)                 1.4004         estimate D2E/DX2                !
 ! R6    R(2,12)                 1.4101         estimate D2E/DX2                !
 ! R7    R(2,13)                 1.5306         estimate D2E/DX2                !
 ! R8    R(2,27)                 1.0784         estimate D2E/DX2                !
 ! R9    R(3,8)                  1.5279         estimate D2E/DX2                !
 ! R10   R(3,9)                  1.5301         estimate D2E/DX2                !
 ! R11   R(3,16)                 1.0874         estimate D2E/DX2                !
 ! R12   R(3,30)                 1.0849         estimate D2E/DX2                !
 ! R13   R(4,13)                 1.5278         estimate D2E/DX2                !
 ! R14   R(4,17)                 1.0856         estimate D2E/DX2                !
 ! R15   R(4,18)                 1.0864         estimate D2E/DX2                !
 ! R16   R(5,6)                  1.4158         estimate D2E/DX2                !
 ! R17   R(5,9)                  1.5203         estimate D2E/DX2                !
 ! R18   R(5,28)                 1.0881         estimate D2E/DX2                !
 ! R19   R(5,29)                 1.0816         estimate D2E/DX2                !
 ! R20   R(6,10)                 1.4123         estimate D2E/DX2                !
 ! R21   R(7,11)                 1.4251         estimate D2E/DX2                !
 ! R22   R(7,19)                 1.0829         estimate D2E/DX2                !
 ! R23   R(7,20)                 1.0811         estimate D2E/DX2                !
 ! R24   R(8,10)                 1.524          estimate D2E/DX2                !
 ! R25   R(8,12)                 1.42           estimate D2E/DX2                !
 ! R26   R(8,31)                 1.0797         estimate D2E/DX2                !
 ! R27   R(9,21)                 1.0858         estimate D2E/DX2                !
 ! R28   R(9,22)                 1.0863         estimate D2E/DX2                !
 ! R29   R(10,23)                1.088          estimate D2E/DX2                !
 ! R30   R(10,24)                1.0786         estimate D2E/DX2                !
 ! R31   R(13,25)                1.0872         estimate D2E/DX2                !
 ! R32   R(13,26)                1.0842         estimate D2E/DX2                !
 ! A1    A(4,1,7)              110.0307         estimate D2E/DX2                !
 ! A2    A(4,1,14)             109.7026         estimate D2E/DX2                !
 ! A3    A(4,1,15)             111.4375         estimate D2E/DX2                !
 ! A4    A(7,1,14)             109.5667         estimate D2E/DX2                !
 ! A5    A(7,1,15)             108.5493         estimate D2E/DX2                !
 ! A6    A(14,1,15)            107.5001         estimate D2E/DX2                !
 ! A7    A(11,2,12)            113.6805         estimate D2E/DX2                !
 ! A8    A(11,2,13)            112.978          estimate D2E/DX2                !
 ! A9    A(11,2,27)            104.7105         estimate D2E/DX2                !
 ! A10   A(12,2,13)            113.2458         estimate D2E/DX2                !
 ! A11   A(12,2,27)            102.7238         estimate D2E/DX2                !
 ! A12   A(13,2,27)            108.4466         estimate D2E/DX2                !
 ! A13   A(8,3,9)              111.521          estimate D2E/DX2                !
 ! A14   A(8,3,16)             107.7985         estimate D2E/DX2                !
 ! A15   A(8,3,30)             109.6218         estimate D2E/DX2                !
 ! A16   A(9,3,16)             109.2425         estimate D2E/DX2                !
 ! A17   A(9,3,30)             111.1542         estimate D2E/DX2                !
 ! A18   A(16,3,30)            107.3547         estimate D2E/DX2                !
 ! A19   A(1,4,13)             108.8804         estimate D2E/DX2                !
 ! A20   A(1,4,17)             110.6735         estimate D2E/DX2                !
 ! A21   A(1,4,18)             109.9608         estimate D2E/DX2                !
 ! A22   A(13,4,17)            109.414          estimate D2E/DX2                !
 ! A23   A(13,4,18)            110.9566         estimate D2E/DX2                !
 ! A24   A(17,4,18)            106.9492         estimate D2E/DX2                !
 ! A25   A(6,5,9)              110.9585         estimate D2E/DX2                !
 ! A26   A(6,5,28)             108.9298         estimate D2E/DX2                !
 ! A27   A(6,5,29)             106.3757         estimate D2E/DX2                !
 ! A28   A(9,5,28)             110.5755         estimate D2E/DX2                !
 ! A29   A(9,5,29)             111.5238         estimate D2E/DX2                !
 ! A30   A(28,5,29)            108.3354         estimate D2E/DX2                !
 ! A31   A(5,6,10)             113.461          estimate D2E/DX2                !
 ! A32   A(1,7,11)             112.6967         estimate D2E/DX2                !
 ! A33   A(1,7,19)             110.4143         estimate D2E/DX2                !
 ! A34   A(1,7,20)             111.2082         estimate D2E/DX2                !
 ! A35   A(11,7,19)            109.7501         estimate D2E/DX2                !
 ! A36   A(11,7,20)            104.7692         estimate D2E/DX2                !
 ! A37   A(19,7,20)            107.7578         estimate D2E/DX2                !
 ! A38   A(3,8,10)             109.6089         estimate D2E/DX2                !
 ! A39   A(3,8,12)             107.684          estimate D2E/DX2                !
 ! A40   A(3,8,31)             109.0178         estimate D2E/DX2                !
 ! A41   A(10,8,12)            110.9572         estimate D2E/DX2                !
 ! A42   A(10,8,31)            108.8914         estimate D2E/DX2                !
 ! A43   A(12,8,31)            110.6511         estimate D2E/DX2                !
 ! A44   A(3,9,5)              110.176          estimate D2E/DX2                !
 ! A45   A(3,9,21)             110.4494         estimate D2E/DX2                !
 ! A46   A(3,9,22)             110.337          estimate D2E/DX2                !
 ! A47   A(5,9,21)             109.2477         estimate D2E/DX2                !
 ! A48   A(5,9,22)             109.2706         estimate D2E/DX2                !
 ! A49   A(21,9,22)            107.3021         estimate D2E/DX2                !
 ! A50   A(6,10,8)             111.8474         estimate D2E/DX2                !
 ! A51   A(6,10,23)            109.4908         estimate D2E/DX2                !
 ! A52   A(6,10,24)            106.5161         estimate D2E/DX2                !
 ! A53   A(8,10,23)            108.888          estimate D2E/DX2                !
 ! A54   A(8,10,24)            111.4018         estimate D2E/DX2                !
 ! A55   A(23,10,24)           108.6237         estimate D2E/DX2                !
 ! A56   A(2,11,7)             121.3866         estimate D2E/DX2                !
 ! A57   A(2,12,8)             124.2647         estimate D2E/DX2                !
 ! A58   A(2,13,4)             114.786          estimate D2E/DX2                !
 ! A59   A(2,13,25)            106.4518         estimate D2E/DX2                !
 ! A60   A(2,13,26)            108.2074         estimate D2E/DX2                !
 ! A61   A(4,13,25)            108.1599         estimate D2E/DX2                !
 ! A62   A(4,13,26)            111.7969         estimate D2E/DX2                !
 ! A63   A(25,13,26)           107.0362         estimate D2E/DX2                !
 ! D1    D(7,1,4,13)            56.2553         estimate D2E/DX2                !
 ! D2    D(7,1,4,17)           176.5546         estimate D2E/DX2                !
 ! D3    D(7,1,4,18)           -65.5051         estimate D2E/DX2                !
 ! D4    D(14,1,4,13)          -64.3547         estimate D2E/DX2                !
 ! D5    D(14,1,4,17)           55.9447         estimate D2E/DX2                !
 ! D6    D(14,1,4,18)          173.8849         estimate D2E/DX2                !
 ! D7    D(15,1,4,13)          176.7143         estimate D2E/DX2                !
 ! D8    D(15,1,4,17)          -62.9864         estimate D2E/DX2                !
 ! D9    D(15,1,4,18)           54.9538         estimate D2E/DX2                !
 ! D10   D(4,1,7,11)           -53.5372         estimate D2E/DX2                !
 ! D11   D(4,1,7,19)            69.5894         estimate D2E/DX2                !
 ! D12   D(4,1,7,20)          -170.84           estimate D2E/DX2                !
 ! D13   D(14,1,7,11)           67.1546         estimate D2E/DX2                !
 ! D14   D(14,1,7,19)         -169.7188         estimate D2E/DX2                !
 ! D15   D(14,1,7,20)          -50.1483         estimate D2E/DX2                !
 ! D16   D(15,1,7,11)         -175.7232         estimate D2E/DX2                !
 ! D17   D(15,1,7,19)          -52.5966         estimate D2E/DX2                !
 ! D18   D(15,1,7,20)           66.974          estimate D2E/DX2                !
 ! D19   D(12,2,11,7)           92.5261         estimate D2E/DX2                !
 ! D20   D(13,2,11,7)          -38.3228         estimate D2E/DX2                !
 ! D21   D(27,2,11,7)         -156.1406         estimate D2E/DX2                !
 ! D22   D(11,2,12,8)          -44.4578         Frozen                          !
 ! D23   D(13,2,12,8)           86.2585         estimate D2E/DX2                !
 ! D24   D(27,2,12,8)         -156.9954         estimate D2E/DX2                !
 ! D25   D(11,2,13,4)           40.4665         estimate D2E/DX2                !
 ! D26   D(11,2,13,25)         -79.1577         estimate D2E/DX2                !
 ! D27   D(11,2,13,26)         166.0888         estimate D2E/DX2                !
 ! D28   D(12,2,13,4)          -90.5997         estimate D2E/DX2                !
 ! D29   D(12,2,13,25)         149.7761         estimate D2E/DX2                !
 ! D30   D(12,2,13,26)          35.0226         estimate D2E/DX2                !
 ! D31   D(27,2,13,4)          156.0735         estimate D2E/DX2                !
 ! D32   D(27,2,13,25)          36.4493         estimate D2E/DX2                !
 ! D33   D(27,2,13,26)         -78.3042         estimate D2E/DX2                !
 ! D34   D(9,3,8,10)            50.3409         estimate D2E/DX2                !
 ! D35   D(9,3,8,12)           -70.4636         estimate D2E/DX2                !
 ! D36   D(9,3,8,31)           169.4416         estimate D2E/DX2                !
 ! D37   D(16,3,8,10)          -69.5711         estimate D2E/DX2                !
 ! D38   D(16,3,8,12)          169.6244         estimate D2E/DX2                !
 ! D39   D(16,3,8,31)           49.5296         estimate D2E/DX2                !
 ! D40   D(30,3,8,10)          173.8745         estimate D2E/DX2                !
 ! D41   D(30,3,8,12)           53.07           estimate D2E/DX2                !
 ! D42   D(30,3,8,31)          -67.0248         estimate D2E/DX2                !
 ! D43   D(8,3,9,5)            -51.0886         estimate D2E/DX2                !
 ! D44   D(8,3,9,21)            69.6979         estimate D2E/DX2                !
 ! D45   D(8,3,9,22)          -171.8306         estimate D2E/DX2                !
 ! D46   D(16,3,9,5)            67.9679         estimate D2E/DX2                !
 ! D47   D(16,3,9,21)         -171.2457         estimate D2E/DX2                !
 ! D48   D(16,3,9,22)          -52.7742         estimate D2E/DX2                !
 ! D49   D(30,3,9,5)          -173.7483         estimate D2E/DX2                !
 ! D50   D(30,3,9,21)          -52.9619         estimate D2E/DX2                !
 ! D51   D(30,3,9,22)           65.5096         estimate D2E/DX2                !
 ! D52   D(1,4,13,2)           -50.7726         estimate D2E/DX2                !
 ! D53   D(1,4,13,25)           67.8972         estimate D2E/DX2                !
 ! D54   D(1,4,13,26)         -174.5059         estimate D2E/DX2                !
 ! D55   D(17,4,13,2)         -171.8463         estimate D2E/DX2                !
 ! D56   D(17,4,13,25)         -53.1764         estimate D2E/DX2                !
 ! D57   D(17,4,13,26)          64.4205         estimate D2E/DX2                !
 ! D58   D(18,4,13,2)           70.3806         estimate D2E/DX2                !
 ! D59   D(18,4,13,25)        -170.9496         estimate D2E/DX2                !
 ! D60   D(18,4,13,26)         -53.3527         estimate D2E/DX2                !
 ! D61   D(9,5,6,10)           -60.5004         estimate D2E/DX2                !
 ! D62   D(28,5,6,10)           61.4525         estimate D2E/DX2                !
 ! D63   D(29,5,6,10)          178.0298         estimate D2E/DX2                !
 ! D64   D(6,5,9,3)             54.7369         estimate D2E/DX2                !
 ! D65   D(6,5,9,21)           -66.7675         estimate D2E/DX2                !
 ! D66   D(6,5,9,22)           176.1165         estimate D2E/DX2                !
 ! D67   D(28,5,9,3)           -66.2505         estimate D2E/DX2                !
 ! D68   D(28,5,9,21)          172.2452         estimate D2E/DX2                !
 ! D69   D(28,5,9,22)           55.1292         estimate D2E/DX2                !
 ! D70   D(29,5,9,3)           173.1356         estimate D2E/DX2                !
 ! D71   D(29,5,9,21)           51.6313         estimate D2E/DX2                !
 ! D72   D(29,5,9,22)          -65.4847         estimate D2E/DX2                !
 ! D73   D(5,6,10,8)            60.5243         estimate D2E/DX2                !
 ! D74   D(5,6,10,23)          -60.2645         estimate D2E/DX2                !
 ! D75   D(5,6,10,24)         -177.5415         estimate D2E/DX2                !
 ! D76   D(1,7,11,2)            45.9789         estimate D2E/DX2                !
 ! D77   D(19,7,11,2)          -77.5172         estimate D2E/DX2                !
 ! D78   D(20,7,11,2)          167.029          estimate D2E/DX2                !
 ! D79   D(3,8,10,6)           -54.1153         estimate D2E/DX2                !
 ! D80   D(3,8,10,23)           67.0232         estimate D2E/DX2                !
 ! D81   D(3,8,10,24)         -173.2001         estimate D2E/DX2                !
 ! D82   D(12,8,10,6)           64.6853         estimate D2E/DX2                !
 ! D83   D(12,8,10,23)        -174.1763         estimate D2E/DX2                !
 ! D84   D(12,8,10,24)         -54.3996         estimate D2E/DX2                !
 ! D85   D(31,8,10,6)         -173.2939         estimate D2E/DX2                !
 ! D86   D(31,8,10,23)         -52.1554         estimate D2E/DX2                !
 ! D87   D(31,8,10,24)          67.6213         estimate D2E/DX2                !
 ! D88   D(3,8,12,2)          -148.0628         estimate D2E/DX2                !
 ! D89   D(10,8,12,2)           91.9828         estimate D2E/DX2                !
 ! D90   D(31,8,12,2)          -29.006          estimate D2E/DX2                !
 --------------------------------------------------------------------------------
 Trust Radius=3.00D-01 FncErr=1.00D-07 GrdErr=1.00D-06 EigMax=2.50D+02 EigMin=1.00D-04
 Number of steps in this run=    186 maximum allowed number of steps=    186.
 GradGradGradGradGradGradGradGradGradGradGradGradGradGradGradGradGradGrad

                          Input orientation:                          
 ---------------------------------------------------------------------
 Center     Atomic      Atomic             Coordinates (Angstroms)
 Number     Number       Type             X           Y           Z
 ---------------------------------------------------------------------
      1          6           0        3.325972   -0.362615   -0.717250
      2          6           0        1.140167    0.204036    1.146090
      3          6           0       -1.773854    1.215259   -0.857474
      4          6           0        2.770644    1.057254   -0.657104
      5          6           0       -3.542826   -0.309043    0.039479
      6          8           0       -2.530000   -1.223103    0.417703
      7          6           0        2.226898   -1.363940   -0.413212
      8          6           0       -0.741662    0.146427   -0.501609
      9          6           0       -3.014167    1.116375    0.033096
     10          6           0       -1.416247   -1.219178   -0.450644
     11          8           0        1.558755   -1.090855    0.815589
     12          8           0       -0.186555    0.486102    0.760457
     13          6           0        2.136932    1.282571    0.714736
     14          1           0        4.129689   -0.472927    0.006949
     15          1           0        3.736455   -0.587128   -1.697445
     16          1           0       -2.064338    1.064616   -1.894520
     17          1           0        3.561035    1.784863   -0.813378
     18          1           0        2.042967    1.204806   -1.450253
     19          1           0        1.507720   -1.392653   -1.222250
     20          1           0        2.628132   -2.360638   -0.293177
     21          1           0       -2.775985    1.414368    1.049715
     22          1           0       -3.791074    1.785270   -0.326014
     23          1           0       -1.737252   -1.491099   -1.453990
     24          1           0       -0.741483   -1.978181   -0.087315
     25          1           0        2.930133    1.283893    1.458329
     26          1           0        1.642118    2.245309    0.776403
     27          1           0        1.080061    0.205950    2.222784
     28          1           0       -3.915751   -0.583020   -0.945369
     29          1           0       -4.345970   -0.431209    0.753513
     30          1           0       -1.319454    2.197936   -0.788173
     31          1           0        0.024252    0.129813   -1.262450
 ---------------------------------------------------------------------
                    Distance matrix (angstroms):
                    1          2          3          4          5
     1  C    0.000000
     2  C    2.927605   0.000000
     3  C    5.340185   3.678092   0.000000
     4  C    1.525790   2.576421   4.551656   0.000000
     5  C    6.910564   4.839242   2.501456   6.497068   0.000000
     6  O    6.026688   4.004672   2.853672   5.869588   1.415760
     7  C    1.517582   2.463931   4.780759   2.493456   5.882810
     8  C    4.105030   2.501902   1.527895   3.631815   2.889074
     9  C    6.553457   4.396545   1.530121   5.826140   1.520308
    10  C    4.826326   3.333219   2.493968   4.770202   2.364509
    11  O    2.450099   1.400425   4.384471   2.872607   5.219167
    12  O    3.904073   1.410130   2.380943   3.328772   3.523722
    13  C    2.484157   1.530635   4.215522   1.527843   5.937075
    14  H    1.087471   3.270040   6.200727   2.151610   7.674334
    15  H    1.086133   3.930947   5.858127   2.172347   7.488803
    16  H    5.698982   4.500529   1.087446   4.990822   2.795213
    17  H    2.162442   3.492725   5.365392   1.085612   7.454975
    18  H    2.154113   2.925335   3.862592   1.086449   5.975962
    19  H    2.149894   2.879852   4.207493   2.813612   5.317348
    20  H    2.158452   3.295919   5.699382   3.440165   6.511561
    21  H    6.596492   4.100053   2.163627   5.814280   2.139805
    22  H    7.444382   5.383728   2.162531   6.610278   2.140411
    23  H    5.239513   4.232427   2.771560   5.239299   2.624463
    24  H    4.421658   3.134321   3.443399   4.676918   3.263376
    25  H    2.756959   2.113661   5.243582   2.133509   6.815407
    26  H    3.444943   2.134343   3.924210   2.177151   5.826784
    27  H    3.743151   1.078372   4.318741   3.446236   5.138397
    28  H    7.248667   5.527745   2.798081   6.890680   1.088146
    29  H    7.811949   5.536728   3.452813   7.406184   1.081577
    30  H    5.304850   3.710357   1.084867   4.248204   3.451570
    31  H    3.382467   2.655530   2.139015   2.961294   3.822520
                    6          7          8          9         10
     6  O    0.000000
     7  C    4.830976   0.000000
     8  C    2.432879   3.331872   0.000000
     9  C    2.419814   5.815489   2.528040   0.000000
    10  C    1.412263   3.646212   1.523988   2.870916   0.000000
    11  O    4.110197   1.425111   2.925371   5.137682   3.235807
    12  O    2.920718   3.259587   1.419977   2.986919   2.426291
    13  C    5.305364   2.878260   3.325150   5.198661   4.499104
    14  H    6.714383   2.142674   4.936830   7.318555   5.614596
    15  H    6.644304   2.128721   4.692724   7.174092   5.338945
    16  H    3.285860   5.148482   2.129024   2.149548   2.778581
    17  H    6.903921   3.443111   4.614637   6.663083   5.824875
    18  H    5.504183   2.776282   3.126380   5.270934   4.340631
    19  H    4.361350   1.082859   2.819186   5.321520   3.029035
    20  H    5.329696   1.081112   4.205274   6.635632   4.205321
    21  H    2.723270   5.906606   2.855302   1.085838   3.321977
    22  H    3.345703   6.792725   3.466346   1.086262   3.831716
    23  H    2.050245   4.100472   2.140028   3.262033   1.087974
    24  H    2.005986   3.048735   2.164624   3.841337   1.078610
    25  H    6.097621   3.317864   4.314773   6.115068   5.366615
    26  H    5.437381   3.844975   3.423599   4.848504   4.781413
    27  H    4.281711   3.275403   3.277886   4.731417   3.925527
    28  H    2.046455   6.214915   3.286922   2.158284   2.626208
    29  H    2.009381   6.740462   3.860056   2.165113   3.264072
    30  H    3.824012   5.040255   2.150500   2.171706   3.435107
    31  H    3.343277   2.793591   1.079713   3.447279   2.133974
                   11         12         13         14         15
    11  O    0.000000
    12  O    2.352858   0.000000
    13  C    2.444915   2.456633   0.000000
    14  H    2.765038   4.485251   2.748421   0.000000
    15  H    3.363251   4.752169   3.445702   1.752893   0.000000
    16  H    5.011741   3.302976   4.950393   6.659249   6.034592
    17  H    3.864248   4.267103   2.148371   2.468587   2.537457
    18  H    3.261681   3.220954   2.168422   3.048382   2.477909
    19  H    2.060698   3.214252   3.362238   3.038346   2.417011
    20  H    1.996316   4.139630   3.811842   2.430679   2.519065
    21  H    5.012078   2.765953   4.926087   7.234471   7.346070
    22  H    6.180293   3.982564   6.039629   8.243106   8.010792
    23  H    4.021796   3.349293   5.235066   6.131233   5.553188
    24  H    2.625581   2.664461   4.422789   5.099313   4.957769
    25  H    2.816597   3.291996   1.087244   2.575239   3.756299
    26  H    3.337435   2.537540   1.084209   3.764157   4.304517
    27  H    1.972574   1.954789   2.133143   3.830278   4.801416
    28  H    5.773135   4.237897   6.547622   8.102354   7.689076
    29  H    5.941781   4.259371   6.705711   8.508578   8.447313
    30  H    4.655350   2.571399   3.878561   6.120367   5.843421
    31  H    2.857092   2.064833   3.114728   4.339272   3.805743
                   16         17         18         19         20
    16  H    0.000000
    17  H    5.773426   0.000000
    18  H    4.133640   1.745453   0.000000
    19  H    4.387450   3.805245   2.661817   0.000000
    20  H    6.026271   4.280899   3.793894   1.747997   0.000000
    21  H    3.049145   6.615603   5.432868   5.602796   6.727445
    22  H    2.441551   7.368245   5.969664   6.243369   7.641717
    23  H    2.613949   6.262121   4.643056   3.254726   4.600018
    24  H    3.778167   5.761886   4.443216   2.586471   3.397493
    25  H    6.019503   2.410324   3.041902   4.046314   4.054822
    26  H    4.718653   2.534099   2.490246   4.153004   4.830215
    27  H    5.251356   4.226876   3.926334   3.821869   3.913305
    28  H    2.653926   7.843891   6.241598   5.490556   6.812319
    29  H    3.802028   8.359836   6.953535   6.252496   7.311385
    30  H    1.750220   4.898003   3.567987   4.590606   6.050542
    31  H    2.373937   3.930609   2.294796   2.126075   3.731223
                   21         22         23         24         25
    21  H    0.000000
    22  H    1.749458   0.000000
    23  H    3.973568   4.028040   0.000000
    24  H    4.115996   4.849799   1.759717   0.000000
    25  H    5.722217   6.972079   6.161710   5.148874   0.000000
    26  H    4.503865   5.562961   5.509586   4.925995   1.745946
    27  H    4.207785   5.720016   4.933142   3.664015   2.273570
    28  H    3.044501   2.451110   2.414365   3.571933   7.491946
    29  H    2.441054   2.527067   3.577967   4.011538   7.508663
    30  H    2.472508   2.548095   3.771849   4.273781   4.892978
    31  H    3.851950   4.263117   2.401445   2.531982   4.144718
                   26         27         28         29         30
    26  H    0.000000
    27  H    2.562599   0.000000
    28  H    6.469455   5.968065   0.000000
    29  H    6.559075   5.657432   1.759072   0.000000
    30  H    3.349784   4.334921   3.807780   4.295230   0.000000
    31  H    3.354063   3.642442   4.016503   4.845379   2.511497
                   31
    31  H    0.000000
 Stoichiometry    C10H18O3
 Framework group  C1[X(C10H18O3)]
 Deg. of freedom    87
 Full point group                 C1      NOp   1
 Largest Abelian subgroup         C1      NOp   1
 Largest concise Abelian subgroup C1      NOp   1
                         Standard orientation:                         
 ---------------------------------------------------------------------
 Center     Atomic      Atomic             Coordinates (Angstroms)
 Number     Number       Type             X           Y           Z
 ---------------------------------------------------------------------
      1          6           0        3.325972   -0.362615   -0.717250
      2          6           0        1.140167    0.204036    1.146090
      3          6           0       -1.773854    1.215259   -0.857474
      4          6           0        2.770644    1.057254   -0.657104
      5          6           0       -3.542826   -0.309043    0.039479
      6          8           0       -2.530000   -1.223103    0.417703
      7          6           0        2.226898   -1.363940   -0.413212
      8          6           0       -0.741662    0.146427   -0.501609
      9          6           0       -3.014167    1.116375    0.033096
     10          6           0       -1.416247   -1.219178   -0.450644
     11          8           0        1.558755   -1.090855    0.815589
     12          8           0       -0.186555    0.486102    0.760457
     13          6           0        2.136932    1.282571    0.714736
     14          1           0        4.129689   -0.472927    0.006949
     15          1           0        3.736455   -0.587128   -1.697445
     16          1           0       -2.064338    1.064616   -1.894520
     17          1           0        3.561035    1.784863   -0.813378
     18          1           0        2.042967    1.204806   -1.450253
     19          1           0        1.507720   -1.392653   -1.222250
     20          1           0        2.628132   -2.360638   -0.293177
     21          1           0       -2.775985    1.414368    1.049715
     22          1           0       -3.791074    1.785270   -0.326014
     23          1           0       -1.737252   -1.491099   -1.453990
     24          1           0       -0.741483   -1.978181   -0.087315
     25          1           0        2.930133    1.283893    1.458329
     26          1           0        1.642118    2.245309    0.776403
     27          1           0        1.080061    0.205950    2.222784
     28          1           0       -3.915751   -0.583020   -0.945369
     29          1           0       -4.345970   -0.431209    0.753513
     30          1           0       -1.319454    2.197936   -0.788173
     31          1           0        0.024252    0.129813   -1.262450
 ---------------------------------------------------------------------
 Rotational constants (GHZ):           1.7338566           0.4773575           0.4376048
 Standard basis: 6-311++G(2d,2p) (5D, 7F)
 There are   557 symmetry adapted cartesian basis functions of A   symmetry.
 There are   531 symmetry adapted basis functions of A   symmetry.
   531 basis functions,   762 primitive gaussians,   557 cartesian basis functions
    51 alpha electrons       51 beta electrons
       nuclear repulsion energy       909.4205210112 Hartrees.
 NAtoms=   31 NActive=   31 NUniq=   31 SFac= 1.00D+00 NAtFMM=   60 NAOKFM=F Big=F
 Integral buffers will be    131072 words long.
 Raffenetti 2 integral format.
 Two-electron integral symmetry is turned on.
 ------------------------------------------------------------------------------
 Polarizable Continuum Model (PCM)
 =================================
 Model                : PCM.
 Atomic radii         : UFF (Universal Force Field).
 Polarization charges : Total charges.
 Charge compensation  : None.
 Solution method      : On-the-fly selection.
 Cavity type          : Scaled VdW (van der Waals Surface) (Alpha=1.100).
 Cavity algorithm     : GePol (No added spheres)
                        Default sphere list used, NSphG=   31.
                        Lebedev-Laikov grids with approx.  5.0 points / Ang**2.
                        Smoothing algorithm: York/Karplus (Gamma=1.0000).
                        Polarization charges: spherical gaussians, with
                                              point-specific exponents (IZeta= 3).
                        Self-potential: point-specific (ISelfS= 7).
                        Self-field    : sphere-specific E.n sum rule (ISelfD= 2).
 1st derivatives      : Analytical E(r).r(x)/FMM algorithm (CHGder, D1EAlg=3).
                        Cavity 1st derivative terms included.
 Solvent              : Water, Eps=  78.355300 Eps(inf)=   1.777849
 ------------------------------------------------------------------------------
 One-electron integrals computed using PRISM.
 NBasis=   531 RedAO= T EigKep=  5.44D-06  NBF=   531
 NBsUse=   531 1.00D-06 EigRej= -1.00D+00 NBFU=   531
 ExpMin= 3.60D-02 ExpMax= 8.59D+03 ExpMxC= 1.30D+03 IAcc=3 IRadAn=         5 AccDes= 0.00D+00
 Harris functional with IExCor= 1009 and IRadAn=       5 diagonalized for initial guess.
 HarFok:  IExCor= 1009 AccDes= 0.00D+00 IRadAn=         5 IDoV= 1 UseB2=F ITyADJ=14
 ICtDFT=  3500011 ScaDFX=  1.000000  1.000000  1.000000  1.000000
 FoFCou: FMM=F IPFlag=           0 FMFlag=      100000 FMFlg1=           0
         NFxFlg=           0 DoJE=T BraDBF=F KetDBF=T FulRan=T
         wScrn=  0.000000 ICntrl=       500 IOpCl=  0 I1Cent=   200000004 NGrid=           0
         NMat0=    1 NMatS0=      1 NMatT0=    0 NMatD0=    1 NMtDS0=    0 NMtDT0=    0
 Petite list used in FoFCou.
 Requested convergence on RMS density matrix=1.00D-08 within 128 cycles.
 Requested convergence on MAX density matrix=1.00D-06.
 Requested convergence on             energy=1.00D-06.
 No special actions if energy rises.
 Inv3:  Mode=1 IEnd=    12204867.
 Iteration    1 A*A^-1 deviation from unit magnitude is 3.44D-15 for   2004.
 Iteration    1 A*A^-1 deviation from orthogonality  is 1.91D-15 for   1535    299.
 Iteration    1 A^-1*A deviation from unit magnitude is 3.44D-15 for   2004.
 Iteration    1 A^-1*A deviation from orthogonality  is 1.93D-15 for   2013   1986.
 Error on total polarization charges =  0.01462
 SCF Done:  E(RM062X) =  -617.488623441     A.U. after   12 cycles
            NFock= 12  Conv=0.74D-08     -V/T= 2.0035

 **********************************************************************

            Population analysis using the SCF density.

 **********************************************************************

 Orbital symmetries:
       Occupied  (A) (A) (A) (A) (A) (A) (A) (A) (A) (A) (A) (A)
                 (A) (A) (A) (A) (A) (A) (A) (A) (A) (A) (A) (A)
                 (A) (A) (A) (A) (A) (A) (A) (A) (A) (A) (A) (A)
                 (A) (A) (A) (A) (A) (A) (A) (A) (A) (A) (A) (A)
                 (A) (A) (A)
       Virtual   (A) (A) (A) (A) (A) (A) (A) (A) (A) (A) (A) (A)
                 (A) (A) (A) (A) (A) (A) (A) (A) (A) (A) (A) (A)
                 (A) (A) (A) (A) (A) (A) (A) (A) (A) (A) (A) (A)
                 (A) (A) (A) (A) (A) (A) (A) (A) (A) (A) (A) (A)
                 (A) (A) (A) (A) (A) (A) (A) (A) (A) (A) (A) (A)
                 (A) (A) (A) (A) (A) (A) (A) (A) (A) (A) (A) (A)
                 (A) (A) (A) (A) (A) (A) (A) (A) (A) (A) (A) (A)
                 (A) (A) (A) (A) (A) (A) (A) (A) (A) (A) (A) (A)
                 (A) (A) (A) (A) (A) (A) (A) (A) (A) (A) (A) (A)
                 (A) (A) (A) (A) (A) (A) (A) (A) (A) (A) (A) (A)
                 (A) (A) (A) (A) (A) (A) (A) (A) (A) (A) (A) (A)
                 (A) (A) (A) (A) (A) (A) (A) (A) (A) (A) (A) (A)
                 (A) (A) (A) (A) (A) (A) (A) (A) (A) (A) (A) (A)
                 (A) (A) (A) (A) (A) (A) (A) (A) (A) (A) (A) (A)
                 (A) (A) (A) (A) (A) (A) (A) (A) (A) (A) (A) (A)
                 (A) (A) (A) (A) (A) (A) (A) (A) (A) (A) (A) (A)
                 (A) (A) (A) (A) (A) (A) (A) (A) (A) (A) (A) (A)
                 (A) (A) (A) (A) (A) (A) (A) (A) (A) (A) (A) (A)
                 (A) (A) (A) (A) (A) (A) (A) (A) (A) (A) (A) (A)
                 (A) (A) (A) (A) (A) (A) (A) (A) (A) (A) (A) (A)
                 (A) (A) (A) (A) (A) (A) (A) (A) (A) (A) (A) (A)
                 (A) (A) (A) (A) (A) (A) (A) (A) (A) (A) (A) (A)
                 (A) (A) (A) (A) (A) (A) (A) (A) (A) (A) (A) (A)
                 (A) (A) (A) (A) (A) (A) (A) (A) (A) (A) (A) (A)
                 (A) (A) (A) (A) (A) (A) (A) (A) (A) (A) (A) (A)
                 (A) (A) (A) (A) (A) (A) (A) (A) (A) (A) (A) (A)
                 (A) (A) (A) (A) (A) (A) (A) (A) (A) (A) (A) (A)
                 (A) (A) (A) (A) (A) (A) (A) (A) (A) (A) (A) (A)
                 (A) (A) (A) (A) (A) (A) (A) (A) (A) (A) (A) (A)
                 (A) (A) (A) (A) (A) (A) (A) (A) (A) (A) (A) (A)
                 (A) (A) (A) (A) (A) (A) (A) (A) (A) (A) (A) (A)
                 (A) (A) (A) (A) (A) (A) (A) (A) (A) (A) (A) (A)
                 (A) (A) (A) (A) (A) (A) (A) (A) (A) (A) (A) (A)
                 (A) (A) (A) (A) (A) (A) (A) (A) (A) (A) (A) (A)
                 (A) (A) (A) (A) (A) (A) (A) (A) (A) (A) (A) (A)
                 (A) (A) (A) (A) (A) (A) (A) (A) (A) (A) (A) (A)
                 (A) (A) (A) (A) (A) (A) (A) (A) (A) (A) (A) (A)
                 (A) (A) (A) (A) (A) (A) (A) (A) (A) (A) (A) (A)
                 (A) (A) (A) (A) (A) (A) (A) (A) (A) (A) (A) (A)
                 (A) (A) (A) (A) (A) (A) (A) (A) (A) (A) (A) (A)
 The electronic state is 1-A.
 Alpha  occ. eigenvalues --  -19.63141 -19.62546 -19.62119 -10.63724 -10.58798
 Alpha  occ. eigenvalues --  -10.58166 -10.57636 -10.57547 -10.53245 -10.53126
 Alpha  occ. eigenvalues --  -10.53047 -10.52977 -10.52748  -1.19479  -1.16400
 Alpha  occ. eigenvalues --   -1.13167  -0.90799  -0.90314  -0.87478  -0.84733
 Alpha  occ. eigenvalues --   -0.75141  -0.74161  -0.73855  -0.71391  -0.66230
 Alpha  occ. eigenvalues --   -0.62813  -0.59737  -0.57938  -0.57513  -0.55353
 Alpha  occ. eigenvalues --   -0.54588  -0.53715  -0.52866  -0.51117  -0.50066
 Alpha  occ. eigenvalues --   -0.48905  -0.47178  -0.46433  -0.45489  -0.45146
 Alpha  occ. eigenvalues --   -0.43625  -0.41965  -0.41144  -0.40286  -0.38975
 Alpha  occ. eigenvalues --   -0.38855  -0.38053  -0.36334  -0.34102  -0.33321
 Alpha  occ. eigenvalues --   -0.31089
 Alpha virt. eigenvalues --   -0.00245   0.00725   0.00872   0.01164   0.02250
 Alpha virt. eigenvalues --    0.02546   0.02684   0.03205   0.03571   0.04596
 Alpha virt. eigenvalues --    0.04661   0.04828   0.05524   0.05996   0.07315
 Alpha virt. eigenvalues --    0.07508   0.08114   0.08471   0.08784   0.09262
 Alpha virt. eigenvalues --    0.09759   0.10589   0.11189   0.11516   0.12017
 Alpha virt. eigenvalues --    0.12316   0.12644   0.13083   0.13331   0.13481
 Alpha virt. eigenvalues --    0.13795   0.13851   0.14181   0.14630   0.14890
 Alpha virt. eigenvalues --    0.14995   0.15326   0.15713   0.15932   0.16121
 Alpha virt. eigenvalues --    0.16605   0.16648   0.17170   0.17398   0.17680
 Alpha virt. eigenvalues --    0.17902   0.18311   0.18652   0.19132   0.19400
 Alpha virt. eigenvalues --    0.19694   0.20092   0.20575   0.21057   0.21619
 Alpha virt. eigenvalues --    0.21983   0.22265   0.23182   0.23747   0.23957
 Alpha virt. eigenvalues --    0.24859   0.25222   0.25911   0.26441   0.27133
 Alpha virt. eigenvalues --    0.28080   0.28618   0.28720   0.29210   0.29676
 Alpha virt. eigenvalues --    0.30683   0.30751   0.30842   0.31917   0.32236
 Alpha virt. eigenvalues --    0.32445   0.33567   0.33891   0.34482   0.34672
 Alpha virt. eigenvalues --    0.34948   0.35054   0.35994   0.36067   0.36539
 Alpha virt. eigenvalues --    0.36963   0.37356   0.37858   0.38024   0.38821
 Alpha virt. eigenvalues --    0.38918   0.39427   0.39627   0.39897   0.40398
 Alpha virt. eigenvalues --    0.41650   0.42106   0.42363   0.44313   0.45424
 Alpha virt. eigenvalues --    0.47417   0.48410   0.49475   0.50048   0.50721
 Alpha virt. eigenvalues --    0.51399   0.51766   0.52707   0.54226   0.54590
 Alpha virt. eigenvalues --    0.56244   0.57058   0.57825   0.58083   0.59626
 Alpha virt. eigenvalues --    0.60500   0.60910   0.61114   0.61877   0.62120
 Alpha virt. eigenvalues --    0.62404   0.63159   0.63309   0.63426   0.64104
 Alpha virt. eigenvalues --    0.64675   0.65169   0.66719   0.66889   0.68269
 Alpha virt. eigenvalues --    0.68371   0.68663   0.68983   0.70122   0.70544
 Alpha virt. eigenvalues --    0.70860   0.71558   0.72166   0.73002   0.73526
 Alpha virt. eigenvalues --    0.73614   0.74185   0.74771   0.75277   0.75909
 Alpha virt. eigenvalues --    0.76762   0.77024   0.77623   0.78341   0.80196
 Alpha virt. eigenvalues --    0.80832   0.81460   0.82924   0.85261   0.86137
 Alpha virt. eigenvalues --    0.86913   0.87430   0.87822   0.89229   0.90340
 Alpha virt. eigenvalues --    0.90509   0.91060   0.92833   0.95026   0.95827
 Alpha virt. eigenvalues --    0.97414   0.98667   1.00045   1.00597   1.01470
 Alpha virt. eigenvalues --    1.02867   1.03184   1.04297   1.04861   1.06183
 Alpha virt. eigenvalues --    1.06966   1.08570   1.09021   1.11905   1.12657
 Alpha virt. eigenvalues --    1.13190   1.14198   1.16077   1.16332   1.16906
 Alpha virt. eigenvalues --    1.17390   1.18600   1.18962   1.19313   1.20317
 Alpha virt. eigenvalues --    1.21164   1.22712   1.23550   1.23759   1.24479
 Alpha virt. eigenvalues --    1.25271   1.25846   1.26643   1.26811   1.27793
 Alpha virt. eigenvalues --    1.28213   1.29346   1.29707   1.31791   1.32233
 Alpha virt. eigenvalues --    1.33194   1.33332   1.34391   1.34611   1.35472
 Alpha virt. eigenvalues --    1.36383   1.36841   1.37202   1.37403   1.38193
 Alpha virt. eigenvalues --    1.38391   1.39873   1.40733   1.40926   1.41352
 Alpha virt. eigenvalues --    1.42829   1.43704   1.43877   1.44577   1.45112
 Alpha virt. eigenvalues --    1.45993   1.47145   1.47255   1.48791   1.48921
 Alpha virt. eigenvalues --    1.49329   1.50151   1.50818   1.52359   1.52509
 Alpha virt. eigenvalues --    1.53343   1.53817   1.53946   1.55744   1.56069
 Alpha virt. eigenvalues --    1.56433   1.57184   1.57598   1.58213   1.58531
 Alpha virt. eigenvalues --    1.60382   1.61224   1.61773   1.62873   1.63284
 Alpha virt. eigenvalues --    1.63956   1.64733   1.65129   1.65873   1.67010
 Alpha virt. eigenvalues --    1.68319   1.69036   1.69846   1.71588   1.72961
 Alpha virt. eigenvalues --    1.73160   1.74820   1.75916   1.77045   1.77407
 Alpha virt. eigenvalues --    1.78368   1.79076   1.80077   1.80538   1.83386
 Alpha virt. eigenvalues --    1.85706   1.87530   1.89363   1.95785   1.99630
 Alpha virt. eigenvalues --    2.04987   2.06682   2.12856   2.14808   2.23139
 Alpha virt. eigenvalues --    2.23962   2.28105   2.28669   2.31992   2.39380
 Alpha virt. eigenvalues --    2.42175   2.44202   2.45713   2.48009   2.53959
 Alpha virt. eigenvalues --    2.55591   2.76568   2.77997   2.80157   2.81930
 Alpha virt. eigenvalues --    2.83940   2.86133   2.92515   2.93097   2.93834
 Alpha virt. eigenvalues --    2.95672   2.98710   2.99341   3.02498   3.03427
 Alpha virt. eigenvalues --    3.06346   3.07559   3.08132   3.09674   3.11952
 Alpha virt. eigenvalues --    3.12700   3.13472   3.15699   3.18228   3.21199
 Alpha virt. eigenvalues --    3.23085   3.27921   3.31592   3.33232   3.33905
 Alpha virt. eigenvalues --    3.34941   3.37270   3.38598   3.39226   3.40137
 Alpha virt. eigenvalues --    3.41441   3.44544   3.44754   3.46320   3.47251
 Alpha virt. eigenvalues --    3.48530   3.49134   3.50136   3.50701   3.52269
 Alpha virt. eigenvalues --    3.52704   3.54240   3.54939   3.55351   3.55414
 Alpha virt. eigenvalues --    3.57176   3.58217   3.58698   3.59252   3.59934
 Alpha virt. eigenvalues --    3.60852   3.62051   3.63000   3.64357   3.64993
 Alpha virt. eigenvalues --    3.66328   3.67171   3.67468   3.68873   3.70300
 Alpha virt. eigenvalues --    3.70652   3.70863   3.72017   3.72944   3.74394
 Alpha virt. eigenvalues --    3.75198   3.75433   3.76209   3.77145   3.78608
 Alpha virt. eigenvalues --    3.79444   3.80517   3.81627   3.82381   3.83741
 Alpha virt. eigenvalues --    3.85850   3.86837   3.89342   3.89980   3.92245
 Alpha virt. eigenvalues --    3.92857   3.94037   3.95615   3.96405   3.97586
 Alpha virt. eigenvalues --    3.99715   4.00389   4.01986   4.03966   4.04722
 Alpha virt. eigenvalues --    4.05117   4.05879   4.05883   4.07060   4.07931
 Alpha virt. eigenvalues --    4.08503   4.08718   4.09900   4.10825   4.11967
 Alpha virt. eigenvalues --    4.12819   4.13280   4.13566   4.14823   4.15593
 Alpha virt. eigenvalues --    4.16597   4.17015   4.18693   4.19244   4.19792
 Alpha virt. eigenvalues --    4.21290   4.23900   4.25266   4.26795   4.27908
 Alpha virt. eigenvalues --    4.28504   4.28855   4.30476   4.31141   4.32449
 Alpha virt. eigenvalues --    4.33682   4.34581   4.35037   4.37971   4.40462
 Alpha virt. eigenvalues --    4.41772   4.44840   4.46632   4.47077   4.51231
 Alpha virt. eigenvalues --    4.59181   4.60918   4.74569   4.75367   4.82096
 Alpha virt. eigenvalues --    4.86228   4.93080   4.94305   4.99188   5.04308
 Alpha virt. eigenvalues --    5.07060   5.07773   5.07894   5.08446   5.11734
 Alpha virt. eigenvalues --    5.13814   5.14449   5.15193   5.31861   5.38322
 Alpha virt. eigenvalues --    5.42825   5.58212   5.59555   5.62686   5.86697
 Alpha virt. eigenvalues --    5.87962   6.02298   7.01150   7.03685   7.06455
 Alpha virt. eigenvalues --    7.09507   7.10637   7.11958   7.13862   7.17430
 Alpha virt. eigenvalues --    7.27793   7.37261   7.43517   7.49533   7.52550
 Alpha virt. eigenvalues --    7.55089   7.61754  23.95488  23.98139  24.06511
 Alpha virt. eigenvalues --   24.07044  24.08503  24.13010  24.13644  24.15691
 Alpha virt. eigenvalues --   24.16798  24.18541  50.16561  50.19267  50.24784
          Condensed to atoms (all electrons):
               1          2          3          4          5          6
     1  C    6.330781   0.009923   0.109803  -0.125091  -0.004900  -0.000326
     2  C    0.009923   7.459900   0.276733   0.066110  -0.012544  -0.012011
     3  C    0.109803   0.276733   7.370992   0.030801  -0.138335  -0.000202
     4  C   -0.125091   0.066110   0.030801   5.799708  -0.003835   0.000252
     5  C   -0.004900  -0.012544  -0.138335  -0.003835   5.450353   0.072522
     6  O   -0.000326  -0.012011  -0.000202   0.000252   0.072522   8.277084
     7  C   -0.358179  -0.378929  -0.153077   0.046788   0.006201   0.003496
     8  C    0.094517  -0.705166  -1.059940  -0.023217   0.185981   0.022621
     9  C   -0.013304   0.106024  -0.131865   0.010784   0.092819   0.001609
    10  C   -0.031757  -0.109424  -0.269733  -0.048592  -0.245171   0.136160
    11  O   -0.100758   0.251510   0.001846  -0.009543  -0.002726  -0.003534
    12  O   -0.043376   0.120261  -0.083068  -0.014945   0.000923   0.023609
    13  C   -0.087606  -1.169652  -0.225029  -0.291489   0.011173  -0.000784
    14  H    0.441928   0.041062   0.001440   0.007420  -0.000000  -0.000028
    15  H    0.451355  -0.017379   0.001384  -0.054200  -0.000043   0.000067
    16  H   -0.003797  -0.008116   0.454443   0.001322  -0.017123   0.000035
    17  H   -0.022387  -0.004941  -0.004244   0.411803  -0.000045   0.000053
    18  H   -0.140252   0.050824  -0.003178   0.559599   0.001197  -0.000758
    19  H   -0.183306   0.038909  -0.029545   0.036791  -0.003819   0.001261
    20  H   -0.002460  -0.014510  -0.002578   0.003804   0.000394   0.000497
    21  H    0.001902  -0.013355  -0.006105   0.000580  -0.102239  -0.009782
    22  H    0.000013   0.009270  -0.023903   0.000234  -0.017221   0.009268
    23  H    0.005135   0.001867  -0.008727   0.000807  -0.012765  -0.046312
    24  H   -0.002972  -0.002865   0.022160  -0.004370   0.028566  -0.075540
    25  H   -0.017374  -0.064474   0.006447  -0.004477  -0.000142  -0.000010
    26  H   -0.018253  -0.083713  -0.019900  -0.044189   0.002727   0.000014
    27  H    0.002702   0.508298   0.001326  -0.014887  -0.000702  -0.000190
    28  H    0.000494   0.000963  -0.007855   0.000130   0.458617  -0.054182
    29  H   -0.000352   0.000721  -0.004673  -0.000162   0.440770  -0.068484
    30  H    0.006489   0.010267   0.422756  -0.001497  -0.001502  -0.002209
    31  H    0.112888  -0.108412   0.096066  -0.053950  -0.012135   0.020119
               7          8          9         10         11         12
     1  C   -0.358179   0.094517  -0.013304  -0.031757  -0.100758  -0.043376
     2  C   -0.378929  -0.705166   0.106024  -0.109424   0.251510   0.120261
     3  C   -0.153077  -1.059940  -0.131865  -0.269733   0.001846  -0.083068
     4  C    0.046788  -0.023217   0.010784  -0.048592  -0.009543  -0.014945
     5  C    0.006201   0.185981   0.092819  -0.245171  -0.002726   0.000923
     6  O    0.003496   0.022621   0.001609   0.136160  -0.003534   0.023609
     7  C    5.650785  -0.003439   0.000999   0.064910   0.203305   0.067163
     8  C   -0.003439   7.634106  -0.281651  -0.516403  -0.002508   0.133630
     9  C    0.000999  -0.281651   5.620061   0.160954  -0.010011  -0.035833
    10  C    0.064910  -0.516403   0.160954   6.428199   0.000717  -0.084737
    11  O    0.203305  -0.002508  -0.010011   0.000717   8.127579  -0.012141
    12  O    0.067163   0.133630  -0.035833  -0.084737  -0.012141   8.264870
    13  C    0.231538   0.235512  -0.016784   0.117338  -0.022686  -0.036427
    14  H   -0.073611  -0.004707   0.000277  -0.000052  -0.006103   0.000109
    15  H   -0.032656   0.001146  -0.000266  -0.000554   0.009146  -0.001193
    16  H    0.001788  -0.051258  -0.015145   0.007929   0.000492   0.005299
    17  H    0.015737  -0.000362   0.000908   0.002562  -0.001300  -0.001528
    18  H    0.018993  -0.011429   0.005967  -0.003861  -0.003659   0.004175
    19  H    0.529343  -0.070921   0.011200   0.060335  -0.045283   0.009481
    20  H    0.411635   0.005218  -0.000326   0.003173  -0.056254   0.000920
    21  H   -0.000991  -0.021761   0.499798   0.020866   0.001609  -0.000065
    22  H   -0.000906  -0.024792   0.432158  -0.008883  -0.000320   0.000696
    23  H   -0.001537  -0.057437   0.023707   0.433101   0.003150   0.010648
    24  H    0.004410  -0.020454  -0.011077   0.390943  -0.000210  -0.014622
    25  H    0.005704   0.003579  -0.000673  -0.002461  -0.014025  -0.000767
    26  H    0.022173   0.007724   0.002811   0.001230   0.011573  -0.001700
    27  H   -0.035814  -0.029060   0.008465   0.017947  -0.059267  -0.074350
    28  H   -0.000590   0.018575  -0.028611  -0.036716  -0.000031   0.001606
    29  H    0.000511   0.012861  -0.053506   0.008570  -0.000138   0.000893
    30  H   -0.005270  -0.006667  -0.024600  -0.014636  -0.001352   0.003170
    31  H   -0.042458   0.410133  -0.084680  -0.067045   0.018239  -0.023233
              13         14         15         16         17         18
     1  C   -0.087606   0.441928   0.451355  -0.003797  -0.022387  -0.140252
     2  C   -1.169652   0.041062  -0.017379  -0.008116  -0.004941   0.050824
     3  C   -0.225029   0.001440   0.001384   0.454443  -0.004244  -0.003178
     4  C   -0.291489   0.007420  -0.054200   0.001322   0.411803   0.559599
     5  C    0.011173  -0.000000  -0.000043  -0.017123  -0.000045   0.001197
     6  O   -0.000784  -0.000028   0.000067   0.000035   0.000053  -0.000758
     7  C    0.231538  -0.073611  -0.032656   0.001788   0.015737   0.018993
     8  C    0.235512  -0.004707   0.001146  -0.051258  -0.000362  -0.011429
     9  C   -0.016784   0.000277  -0.000266  -0.015145   0.000908   0.005967
    10  C    0.117338  -0.000052  -0.000554   0.007929   0.002562  -0.003861
    11  O   -0.022686  -0.006103   0.009146   0.000492  -0.001300  -0.003659
    12  O   -0.036427   0.000109  -0.001193   0.005299  -0.001528   0.004175
    13  C    6.670234  -0.045909   0.018990   0.007171  -0.032372  -0.089600
    14  H   -0.045909   0.473971  -0.006960   0.000016  -0.001002   0.002061
    15  H    0.018990  -0.006960   0.474361  -0.000300  -0.006203  -0.006411
    16  H    0.007171   0.000016  -0.000300   0.436627   0.000036   0.001692
    17  H   -0.032372  -0.001002  -0.006203   0.000036   0.456456  -0.006766
    18  H   -0.089600   0.002061  -0.006411   0.001692  -0.006766   0.479251
    19  H   -0.001966   0.005775  -0.004426   0.004404  -0.000785   0.010783
    20  H    0.003771  -0.005224  -0.008536  -0.000108   0.002125  -0.002572
    21  H    0.002654  -0.000026   0.000015   0.004556  -0.000005  -0.000417
    22  H   -0.002839   0.000017  -0.000018  -0.009453  -0.000038   0.000509
    23  H   -0.006160  -0.000151   0.000090  -0.005049  -0.000043   0.002072
    24  H    0.007067   0.000543  -0.000084  -0.003182  -0.000117  -0.001280
    25  H    0.461730  -0.004554  -0.001079  -0.000040  -0.007045   0.002098
    26  H    0.486307  -0.002341   0.000786   0.000738  -0.005641  -0.001496
    27  H   -0.035773   0.004361  -0.000095  -0.000463   0.001586   0.001719
    28  H   -0.001556   0.000006   0.000042  -0.006040  -0.000002  -0.000184
    29  H    0.001181  -0.000003  -0.000015  -0.001034   0.000008   0.000078
    30  H   -0.006580   0.000057   0.000175  -0.003545   0.000138  -0.002138
    31  H    0.011701  -0.003447   0.005598  -0.023217   0.002652  -0.045368
              19         20         21         22         23         24
     1  C   -0.183306  -0.002460   0.001902   0.000013   0.005135  -0.002972
     2  C    0.038909  -0.014510  -0.013355   0.009270   0.001867  -0.002865
     3  C   -0.029545  -0.002578  -0.006105  -0.023903  -0.008727   0.022160
     4  C    0.036791   0.003804   0.000580   0.000234   0.000807  -0.004370
     5  C   -0.003819   0.000394  -0.102239  -0.017221  -0.012765   0.028566
     6  O    0.001261   0.000497  -0.009782   0.009268  -0.046312  -0.075540
     7  C    0.529343   0.411635  -0.000991  -0.000906  -0.001537   0.004410
     8  C   -0.070921   0.005218  -0.021761  -0.024792  -0.057437  -0.020454
     9  C    0.011200  -0.000326   0.499798   0.432158   0.023707  -0.011077
    10  C    0.060335   0.003173   0.020866  -0.008883   0.433101   0.390943
    11  O   -0.045283  -0.056254   0.001609  -0.000320   0.003150  -0.000210
    12  O    0.009481   0.000920  -0.000065   0.000696   0.010648  -0.014622
    13  C   -0.001966   0.003771   0.002654  -0.002839  -0.006160   0.007067
    14  H    0.005775  -0.005224  -0.000026   0.000017  -0.000151   0.000543
    15  H   -0.004426  -0.008536   0.000015  -0.000018   0.000090  -0.000084
    16  H    0.004404  -0.000108   0.004556  -0.009453  -0.005049  -0.003182
    17  H   -0.000785   0.002125  -0.000005  -0.000038  -0.000043  -0.000117
    18  H    0.010783  -0.002572  -0.000417   0.000509   0.002072  -0.001280
    19  H    0.566933  -0.025028   0.000617  -0.000122  -0.006376  -0.005602
    20  H   -0.025028   0.459652  -0.000031  -0.000036   0.000818  -0.002986
    21  H    0.000617  -0.000031   0.477264  -0.013609  -0.000104  -0.002656
    22  H   -0.000122  -0.000036  -0.013609   0.479149  -0.000092   0.002056
    23  H   -0.006376   0.000818  -0.000104  -0.000092   0.488097  -0.012287
    24  H   -0.005602  -0.002986  -0.002656   0.002056  -0.012287   0.466101
    25  H   -0.001998   0.001325   0.000136   0.000034   0.000465  -0.000404
    26  H    0.002442   0.000396  -0.000885   0.000051  -0.000941   0.000547
    27  H   -0.000373   0.000144  -0.002996   0.000447  -0.000113  -0.002151
    28  H   -0.000605  -0.000027   0.000370   0.005040   0.008211  -0.001550
    29  H    0.000132   0.000040  -0.003786  -0.009284  -0.001955   0.001072
    30  H   -0.002459   0.000017  -0.001029  -0.008532  -0.000540   0.000851
    31  H   -0.066992   0.006737  -0.001027  -0.000284  -0.014104   0.004801
              25         26         27         28         29         30
     1  C   -0.017374  -0.018253   0.002702   0.000494  -0.000352   0.006489
     2  C   -0.064474  -0.083713   0.508298   0.000963   0.000721   0.010267
     3  C    0.006447  -0.019900   0.001326  -0.007855  -0.004673   0.422756
     4  C   -0.004477  -0.044189  -0.014887   0.000130  -0.000162  -0.001497
     5  C   -0.000142   0.002727  -0.000702   0.458617   0.440770  -0.001502
     6  O   -0.000010   0.000014  -0.000190  -0.054182  -0.068484  -0.002209
     7  C    0.005704   0.022173  -0.035814  -0.000590   0.000511  -0.005270
     8  C    0.003579   0.007724  -0.029060   0.018575   0.012861  -0.006667
     9  C   -0.000673   0.002811   0.008465  -0.028611  -0.053506  -0.024600
    10  C   -0.002461   0.001230   0.017947  -0.036716   0.008570  -0.014636
    11  O   -0.014025   0.011573  -0.059267  -0.000031  -0.000138  -0.001352
    12  O   -0.000767  -0.001700  -0.074350   0.001606   0.000893   0.003170
    13  C    0.461730   0.486307  -0.035773  -0.001556   0.001181  -0.006580
    14  H   -0.004554  -0.002341   0.004361   0.000006  -0.000003   0.000057
    15  H   -0.001079   0.000786  -0.000095   0.000042  -0.000015   0.000175
    16  H   -0.000040   0.000738  -0.000463  -0.006040  -0.001034  -0.003545
    17  H   -0.007045  -0.005641   0.001586  -0.000002   0.000008   0.000138
    18  H    0.002098  -0.001496   0.001719  -0.000184   0.000078  -0.002138
    19  H   -0.001998   0.002442  -0.000373  -0.000605   0.000132  -0.002459
    20  H    0.001325   0.000396   0.000144  -0.000027   0.000040   0.000017
    21  H    0.000136  -0.000885  -0.002996   0.000370  -0.003786  -0.001029
    22  H    0.000034   0.000051   0.000447   0.005040  -0.009284  -0.008532
    23  H    0.000465  -0.000941  -0.000113   0.008211  -0.001955  -0.000540
    24  H   -0.000404   0.000547  -0.002151  -0.001550   0.001072   0.000851
    25  H    0.455487  -0.009096  -0.004757  -0.000008  -0.000005   0.000215
    26  H   -0.009096   0.485761  -0.016508  -0.000228   0.000186  -0.006171
    27  H   -0.004757  -0.016508   0.487875   0.000083   0.000096   0.001489
    28  H   -0.000008  -0.000228   0.000083   0.502479  -0.006659   0.001682
    29  H   -0.000005   0.000186   0.000096  -0.006659   0.480805  -0.000120
    30  H    0.000215  -0.006171   0.001489   0.001682  -0.000120   0.480996
    31  H   -0.000356  -0.002048  -0.005380   0.003181   0.000080  -0.002389
              31
     1  C    0.112888
     2  C   -0.108412
     3  C    0.096066
     4  C   -0.053950
     5  C   -0.012135
     6  O    0.020119
     7  C   -0.042458
     8  C    0.410133
     9  C   -0.084680
    10  C   -0.067045
    11  O    0.018239
    12  O   -0.023233
    13  C    0.011701
    14  H   -0.003447
    15  H    0.005598
    16  H   -0.023217
    17  H    0.002652
    18  H   -0.045368
    19  H   -0.066992
    20  H    0.006737
    21  H   -0.001027
    22  H   -0.000284
    23  H   -0.014104
    24  H    0.004801
    25  H   -0.000356
    26  H   -0.002048
    27  H   -0.005380
    28  H    0.003181
    29  H    0.000080
    30  H   -0.002389
    31  H    0.646837
 Mulliken charges:
               1
     1  C   -0.411478
     2  C   -0.247151
     3  C   -0.624240
     4  C   -0.282488
     5  C   -0.176996
     6  O   -0.294315
     7  C   -0.198022
     8  C    0.125570
     9  C   -0.270207
    10  C   -0.414906
    11  O   -0.277314
    12  O   -0.219469
    13  C   -0.193157
    14  H    0.175077
    15  H    0.177263
    16  H    0.221321
    17  H    0.200761
    18  H    0.178351
    19  H    0.171200
    20  H    0.220008
    21  H    0.170502
    22  H    0.181390
    23  H    0.196526
    24  H    0.235291
    25  H    0.196525
    26  H    0.187644
    27  H    0.246344
    28  H    0.143364
    29  H    0.202174
    30  H    0.162937
    31  H    0.217495
 Sum of Mulliken charges =  -0.00000
 Mulliken charges with hydrogens summed into heavy atoms:
               1
     1  C   -0.059139
     2  C   -0.000807
     3  C   -0.239982
     4  C    0.096625
     5  C    0.168542
     6  O   -0.294315
     7  C    0.193186
     8  C    0.343065
     9  C    0.081684
    10  C    0.016911
    11  O   -0.277314
    12  O   -0.219469
    13  C    0.191012
 Electronic spatial extent (au):  <R**2>=           2761.7340
 Charge=              0.0000 electrons
 Dipole moment (field-independent basis, Debye):
    X=              1.8884    Y=              2.0233    Z=             -3.8651  Tot=              4.7538
 Quadrupole moment (field-independent basis, Debye-Ang):
   XX=            -71.5595   YY=            -82.1220   ZZ=            -79.8383
   XY=             -3.2825   XZ=              2.4092   YZ=              4.0250
 Traceless Quadrupole moment (field-independent basis, Debye-Ang):
   XX=              6.2804   YY=             -4.2820   ZZ=             -1.9984
   XY=             -3.2825   XZ=              2.4092   YZ=              4.0250
 Octapole moment (field-independent basis, Debye-Ang**2):
  XXX=             -4.5062  YYY=             -2.0137  ZZZ=              5.1924  XYY=              8.9419
  XXY=             11.9033  XXZ=             -8.8727  XZZ=              1.1693  YZZ=              0.5469
  YYZ=             -5.0995  XYZ=              1.7357
 Hexadecapole moment (field-independent basis, Debye-Ang**3):
 XXXX=          -2544.8847 YYYY=           -620.0924 ZZZZ=           -357.4415 XXXY=            -29.7761
 XXXZ=             -0.5624 YYYX=            -17.3604 YYYZ=              4.5147 ZZZX=              5.5516
 ZZZY=              4.3210 XXYY=           -562.0848 XXZZ=           -504.0846 YYZZ=           -173.0102
 XXYZ=             16.5275 YYXZ=              2.6576 ZZXY=              3.6928
 N-N= 9.094205210112D+02 E-N=-3.260834352383D+03  KE= 6.153148793365D+02
 D1PCM: PCM CHGder 1st derivatives, ID1Alg=3 FixD1E=F DoIter=F DoCFld=F I1PDM=0.
 Calling FoFJK, ICntrl=      2127 FMM=F ISym2X=0 I1Cent= 0 IOpClX= 0 NMat=1 NMatS=1 NMatT=0.
 ***** Axes restored to original set *****
 -------------------------------------------------------------------
 Center     Atomic                   Forces (Hartrees/Bohr)
 Number     Number              X              Y              Z
 -------------------------------------------------------------------
      1        6          -0.002647151    0.000464444   -0.001168133
      2        6           0.003995124    0.001608769   -0.014209433
      3        6          -0.001170923   -0.002707882    0.002169094
      4        6          -0.001230782   -0.003406670    0.003319579
      5        6           0.006214200    0.003056684   -0.000240290
      6        8           0.000183137   -0.004898874    0.006794539
      7        6           0.002032313    0.007879635    0.002797772
      8        6           0.001865603    0.000840285    0.003146187
      9        6           0.000530758   -0.001374085   -0.002047529
     10        6          -0.003633563    0.005433327    0.000601337
     11        8          -0.001825014   -0.007825930    0.007042363
     12        8          -0.008984231    0.003793624    0.007203473
     13        6          -0.000061110   -0.001519735   -0.002263932
     14        1           0.001848861   -0.000293114    0.002711736
     15        1           0.001229686   -0.000272894   -0.002487870
     16        1          -0.001193717   -0.000862316   -0.003375252
     17        1           0.001719634    0.001715523   -0.000636628
     18        1          -0.002946140    0.000269767   -0.002803810
     19        1          -0.004312367    0.000174609   -0.005919232
     20        1           0.001801827   -0.004212576    0.000231690
     21        1           0.001709054    0.000118515    0.003047305
     22        1          -0.001763786    0.002025341   -0.001096445
     23        1          -0.001409396   -0.000940426   -0.006452445
     24        1           0.005224432   -0.002938416    0.002545938
     25        1           0.002933992   -0.000192524    0.002177066
     26        1          -0.002020203    0.002528806    0.000156375
     27        1          -0.000373236    0.000068250    0.007042414
     28        1          -0.001999982   -0.000475460   -0.005972504
     29        1          -0.003197999   -0.000406439    0.002922563
     30        1           0.001893161    0.002434776    0.000536340
     31        1           0.005587815   -0.000085014   -0.005772269
 -------------------------------------------------------------------
 Cartesian Forces:  Max     0.014209433 RMS     0.003644376

 GradGradGradGradGradGradGradGradGradGradGradGradGradGradGradGradGradGrad
 Berny optimization.
 FormGI is forming the generalized inverse of G from B-inverse, IUseBI=4.
 Internal  Forces:  Max     0.023014017 RMS     0.002536796
 Search for a local minimum.
 Step number   1 out of a maximum of  186
 All quantities printed in internal units (Hartrees-Bohrs-Radians)
 Mixed Optimization -- RFO/linear search
 Second derivative matrix not updated -- first step.
 ITU=  0
     Eigenvalues ---    0.00575   0.00608   0.00720   0.00729   0.01259
     Eigenvalues ---    0.01428   0.01432   0.02582   0.02826   0.03006
     Eigenvalues ---    0.03099   0.03973   0.04371   0.04503   0.04713
     Eigenvalues ---    0.04740   0.04904   0.05011   0.05063   0.05131
     Eigenvalues ---    0.05311   0.05688   0.05825   0.05854   0.06156
     Eigenvalues ---    0.06215   0.06637   0.06686   0.07444   0.07748
     Eigenvalues ---    0.07943   0.07952   0.07955   0.08169   0.08524
     Eigenvalues ---    0.08668   0.09272   0.09395   0.10815   0.11708
     Eigenvalues ---    0.11720   0.11780   0.11871   0.12532   0.12603
     Eigenvalues ---    0.14550   0.15594   0.16230   0.16930   0.17522
     Eigenvalues ---    0.19773   0.21826   0.21910   0.25000   0.28296
     Eigenvalues ---    0.28567   0.28782   0.28951   0.28972   0.29156
     Eigenvalues ---    0.30131   0.30176   0.35028   0.35048   0.35106
     Eigenvalues ---    0.35109   0.35133   0.35226   0.35248   0.35263
     Eigenvalues ---    0.35298   0.35325   0.35413   0.35491   0.35651
     Eigenvalues ---    0.35804   0.35860   0.36029   0.36163   0.36192
     Eigenvalues ---    0.40490   0.41547   0.42145   0.42464   0.43982
     Eigenvalues ---    0.442101000.000001000.000001000.000001000.00000
     Eigenvalues --- 1000.000001000.000001000.000001000.000001000.00000
     Eigenvalues --- 1000.000001000.000001000.000001000.000001000.00000
     Eigenvalues --- 1000.000001000.000001000.000001000.000001000.00000
     Eigenvalues --- 1000.000001000.000001000.000001000.000001000.00000
     Eigenvalues --- 1000.000001000.000001000.000001000.000001000.00000
     Eigenvalues --- 1000.000001000.000001000.000001000.000001000.00000
     Eigenvalues --- 1000.000001000.000001000.000001000.000001000.00000
     Eigenvalues --- 1000.000001000.000001000.000001000.000001000.00000
     Eigenvalues --- 1000.000001000.000001000.000001000.000001000.00000
     Eigenvalues --- 1000.000001000.000001000.000001000.000001000.00000
     Eigenvalues --- 1000.000001000.000001000.000001000.000001000.00000
     Eigenvalues --- 1000.000001000.000001000.000001000.000001000.00000
     Eigenvalues --- 1000.000001000.000001000.000001000.000001000.00000
     Eigenvalues --- 1000.000001000.000001000.000001000.000001000.00000
     Eigenvalues --- 1000.000001000.000001000.000001000.000001000.00000
     Eigenvalues --- 1000.000001000.000001000.000001000.000001000.00000
     Eigenvalues --- 1000.000001000.000001000.000001000.000001000.00000
     Eigenvalues --- 1000.000001000.000001000.000001000.000001000.00000
     Eigenvalues --- 1000.000001000.000001000.000001000.000001000.00000
 RFO step:  Lambda=-5.46213482D-03 EMin= 5.74586128D-03
 Linear search not attempted -- first point.
 Iteration  1 RMS(Cart)=  0.12952826 RMS(Int)=  0.00289368
 Iteration  2 RMS(Cart)=  0.00848363 RMS(Int)=  0.00008467
 Iteration  3 RMS(Cart)=  0.00002211 RMS(Int)=  0.00008385
 Iteration  4 RMS(Cart)=  0.00000000 RMS(Int)=  0.00008385
 Iteration  1 RMS(Cart)=  0.00011981 RMS(Int)=  0.00002486
 Iteration  2 RMS(Cart)=  0.00006307 RMS(Int)=  0.00002779
 Iteration  3 RMS(Cart)=  0.00003320 RMS(Int)=  0.00003126
 Iteration  4 RMS(Cart)=  0.00001748 RMS(Int)=  0.00003346
 Iteration  5 RMS(Cart)=  0.00000920 RMS(Int)=  0.00003470
 Iteration  6 RMS(Cart)=  0.00000484 RMS(Int)=  0.00003537
 Iteration  7 RMS(Cart)=  0.00000255 RMS(Int)=  0.00003573
 Iteration  8 RMS(Cart)=  0.00000134 RMS(Int)=  0.00003592
 Iteration  9 RMS(Cart)=  0.00000071 RMS(Int)=  0.00003602
 Variable       Old X    -DE/DX   Delta X   Delta X   Delta X     New X
                                 (Linear)    (Quad)   (Total)
    R1        2.88332  -0.00085   0.00000  -0.00398  -0.00408   2.87924
    R2        2.86781  -0.00011   0.00000  -0.00175  -0.00183   2.86599
    R3        2.05502   0.00320   0.00000   0.00898   0.00898   2.06401
    R4        2.05249   0.00276   0.00000   0.00772   0.00772   2.06021
    R5        2.64642   0.00328   0.00000   0.00799   0.00810   2.65452
    R6        2.66476  -0.00036   0.00000  -0.00080  -0.00080   2.66395
    R7        2.89248  -0.00086   0.00000  -0.00145  -0.00136   2.89112
    R8        2.03783   0.00705   0.00000   0.01920   0.01920   2.05703
    R9        2.88730  -0.00170   0.00000  -0.00619  -0.00622   2.88109
   R10        2.89151  -0.00124   0.00000  -0.00467  -0.00468   2.88683
   R11        2.05498   0.00366   0.00000   0.01026   0.01026   2.06523
   R12        2.05010   0.00303   0.00000   0.00843   0.00843   2.05853
   R13        2.88720  -0.00081   0.00000  -0.00319  -0.00319   2.88401
   R14        2.05151   0.00249   0.00000   0.00695   0.00695   2.05846
   R15        2.05309   0.00406   0.00000   0.01134   0.01134   2.06443
   R16        2.67540   0.00317   0.00000   0.00765   0.00767   2.68307
   R17        2.87297   0.00061   0.00000   0.00188   0.00187   2.87483
   R18        2.05630   0.00621   0.00000   0.01747   0.01747   2.07376
   R19        2.04388   0.00435   0.00000   0.01196   0.01196   2.05585
   R20        2.66879   0.00199   0.00000   0.00486   0.00488   2.67367
   R21        2.69307   0.00271   0.00000   0.00678   0.00679   2.69986
   R22        2.04631   0.00728   0.00000   0.02011   0.02011   2.06642
   R23        2.04301   0.00458   0.00000   0.01257   0.01257   2.05558
   R24        2.87992  -0.00001   0.00000   0.00014   0.00016   2.88008
   R25        2.68337  -0.00041   0.00000  -0.00095  -0.00095   2.68241
   R26        2.04036   0.00803   0.00000   0.02196   0.02196   2.06232
   R27        2.05194   0.00326   0.00000   0.00909   0.00909   2.06103
   R28        2.05274   0.00287   0.00000   0.00802   0.00802   2.06076
   R29        2.05597   0.00660   0.00000   0.01855   0.01855   2.07452
   R30        2.03828   0.00619   0.00000   0.01687   0.01687   2.05515
   R31        2.05459   0.00363   0.00000   0.01017   0.01017   2.06477
   R32        2.04886   0.00318   0.00000   0.00882   0.00882   2.05768
    A1        1.92040  -0.00095   0.00000  -0.00654  -0.00670   1.91369
    A2        1.91467   0.00068   0.00000   0.00023   0.00026   1.91494
    A3        1.94495  -0.00033   0.00000   0.00008   0.00013   1.94508
    A4        1.91230   0.00020   0.00000  -0.00164  -0.00162   1.91068
    A5        1.89454   0.00041   0.00000   0.00431   0.00438   1.89892
    A6        1.87623   0.00002   0.00000   0.00379   0.00376   1.87999
    A7        1.98410  -0.00159   0.00000  -0.02235  -0.02264   1.96146
    A8        1.97184   0.00386   0.00000   0.00643   0.00581   1.97765
    A9        1.82754  -0.00179   0.00000   0.01024   0.01033   1.83787
   A10        1.97651  -0.00304   0.00000  -0.02486  -0.02523   1.95128
   A11        1.79287   0.00207   0.00000   0.02521   0.02555   1.81842
   A12        1.89275   0.00052   0.00000   0.01287   0.01286   1.90561
   A13        1.94641  -0.00001   0.00000  -0.01163  -0.01169   1.93472
   A14        1.88144  -0.00004   0.00000   0.00526   0.00526   1.88670
   A15        1.91326  -0.00039   0.00000  -0.00558  -0.00555   1.90771
   A16        1.90664  -0.00012   0.00000   0.00411   0.00415   1.91079
   A17        1.94001   0.00032   0.00000   0.00279   0.00270   1.94270
   A18        1.87369   0.00024   0.00000   0.00587   0.00586   1.87955
   A19        1.90032   0.00183   0.00000  -0.00131  -0.00135   1.89897
   A20        1.93162  -0.00013   0.00000   0.00009   0.00010   1.93172
   A21        1.91918  -0.00100   0.00000  -0.00016  -0.00015   1.91903
   A22        1.90964  -0.00068   0.00000   0.00093   0.00095   1.91059
   A23        1.93656  -0.00039   0.00000  -0.00018  -0.00018   1.93638
   A24        1.86662   0.00033   0.00000   0.00068   0.00067   1.86729
   A25        1.93659   0.00125   0.00000   0.00806   0.00798   1.94457
   A26        1.90118   0.00105   0.00000   0.00799   0.00805   1.90924
   A27        1.85661  -0.00116   0.00000  -0.00497  -0.00494   1.85166
   A28        1.92991  -0.00126   0.00000  -0.00837  -0.00837   1.92154
   A29        1.94646  -0.00034   0.00000  -0.00361  -0.00360   1.94285
   A30        1.89081   0.00050   0.00000   0.00124   0.00120   1.89201
   A31        1.98027  -0.00377   0.00000  -0.02422  -0.02414   1.95613
   A32        1.96693   0.00241   0.00000   0.00860   0.00854   1.97547
   A33        1.92709  -0.00157   0.00000  -0.00624  -0.00624   1.92085
   A34        1.94095  -0.00037   0.00000  -0.00437  -0.00438   1.93657
   A35        1.91550   0.00020   0.00000   0.00445   0.00449   1.91999
   A36        1.82857  -0.00111   0.00000  -0.00136  -0.00133   1.82724
   A37        1.88073   0.00041   0.00000  -0.00107  -0.00111   1.87962
   A38        1.91304   0.00083   0.00000   0.00387   0.00379   1.91683
   A39        1.87944   0.00041   0.00000   0.00035   0.00038   1.87982
   A40        1.90272  -0.00047   0.00000   0.00265   0.00268   1.90540
   A41        1.93657  -0.00073   0.00000  -0.00461  -0.00457   1.93200
   A42        1.90051  -0.00046   0.00000  -0.00538  -0.00538   1.89513
   A43        1.93123   0.00044   0.00000   0.00338   0.00335   1.93457
   A44        1.92293  -0.00023   0.00000  -0.00578  -0.00582   1.91711
   A45        1.92771   0.00035   0.00000  -0.00282  -0.00281   1.92490
   A46        1.92574  -0.00074   0.00000  -0.00141  -0.00141   1.92433
   A47        1.90673  -0.00035   0.00000  -0.00128  -0.00134   1.90539
   A48        1.90713   0.00070   0.00000   0.00533   0.00537   1.91250
   A49        1.87278   0.00030   0.00000   0.00637   0.00636   1.87913
   A50        1.95210   0.00081   0.00000   0.00268   0.00270   1.95481
   A51        1.91098   0.00111   0.00000   0.01071   0.01069   1.92167
   A52        1.85906  -0.00003   0.00000   0.00185   0.00180   1.86086
   A53        1.90045  -0.00104   0.00000  -0.00298  -0.00305   1.89740
   A54        1.94433  -0.00178   0.00000  -0.01815  -0.01818   1.92615
   A55        1.89584   0.00101   0.00000   0.00658   0.00651   1.90235
   A56        2.11860  -0.00559   0.00000  -0.02638  -0.02611   2.09248
   A57        2.16883  -0.02301   0.00000  -0.09009  -0.09009   2.07874
   A58        2.00339  -0.00201   0.00000  -0.01272  -0.01273   1.99067
   A59        1.85793   0.00056   0.00000   0.01159   0.01162   1.86956
   A60        1.88858   0.00055   0.00000  -0.00798  -0.00816   1.88041
   A61        1.88775   0.00122   0.00000   0.01066   0.01072   1.89847
   A62        1.95122  -0.00007   0.00000  -0.00508  -0.00533   1.94590
   A63        1.86813  -0.00010   0.00000   0.00580   0.00585   1.87399
    D1        0.98184   0.00033   0.00000   0.01004   0.01000   0.99184
    D2        3.08146   0.00058   0.00000   0.01040   0.01038   3.09184
    D3       -1.14328   0.00028   0.00000   0.01119   0.01118  -1.13210
    D4       -1.12320   0.00025   0.00000   0.01604   0.01603  -1.10717
    D5        0.97642   0.00050   0.00000   0.01641   0.01642   0.99283
[...]
 8,0.00007327,0.00006702,-0.00002438,-0.00006039,-0.00006190,0.00005715
 ,-0.00000509,0.00000181,0.00000735,-0.00000020,-0.00000010,0.00000677,
 0.00001935,0.00004337,0.00000413,0.00000353,0.00000263,-0.00000414,0.1
 3739048,-0.00723157,0.17633248,-0.00020624,-0.00016282,0.00302748,0.00
 763220,-0.01977128,-0.00243893,-0.00000872,0.00002361,0.00001001,-0.00
 496710,0.00939643,-0.00083527,-0.00001273,-0.00000476,-0.00000464,0.00
 001894,0.00004125,-0.00000141,-0.00072493,0.00023076,0.00114080,-0.000
 08689,-0.00017313,-0.00020570,-0.00000391,-0.00000143,0.00000472,0.000
 02993,-0.00004344,0.00001481,-0.00236335,-0.00622535,0.00034225,0.0014
 1297,-0.00077822,0.00002705,-0.09638769,0.10749686,0.00769664,0.000241
 83,-0.00046031,0.00003942,0.00009028,0.00101507,0.00022543,0.00001210,
 -0.00000069,0.00001026,-0.00006026,-0.00008149,-0.00039764,0.00055538,
 -0.00040477,0.00003830,0.00008013,-0.00000791,-0.00012851,0.00011184,0
 .00005070,-0.00014680,-0.00000038,0.00000332,0.00000620,0.00000831,-0.
 00000042,-0.00000025,0.00000900,0.00001955,0.00000766,0.00004002,0.000
 03122,0.00001435,-0.00972731,0.02180981,0.00198648,0.10391234,0.000060
 04,0.00130691,-0.00102294,0.01211272,-0.02082087,-0.00247168,-0.000048
 15,-0.00002522,-0.00001200,0.00088509,-0.00213075,-0.00037372,-0.00001
 527,-0.00000944,0.00000683,-0.00003207,0.00002918,0.00000631,-0.000258
 04,0.00092344,0.00145229,-0.00031280,0.00001058,-0.00066502,-0.0000115
 8,-0.00000045,-0.00000834,0.00009305,-0.00002597,0.00016650,-0.0035653
 4,-0.00491186,0.00116121,0.00194227,0.00273362,-0.00023548,0.10245361,
 -0.26863617,-0.01545607,0.00000363,0.00005386,0.00009031,0.00000834,-0
 .00024622,0.00017210,0.00001229,0.00000223,0.00000798,0.00015179,0.000
 28267,-0.00036347,-0.00014120,0.00018656,-0.00023477,-0.00000942,-0.00
 003341,-0.00021074,0.00007208,-0.00005867,-0.00009447,-0.00000404,0.00
 000422,0.00000767,0.00000371,0.00000039,0.00000540,0.00001613,0.000078
 46,-0.00000091,0.00005389,0.00007487,0.00000331,0.00000139,0.00042951,
 0.00066748,-0.11293583,0.29054367,0.00219761,0.00038049,-0.00631126,-0
 .00586737,0.00614234,-0.00021072,-0.00000470,-0.00001455,0.00004341,0.
 01296249,-0.02952546,-0.00077513,-0.00000279,0.00000009,-0.00000736,0.
 00002470,0.00000223,-0.00000601,0.00066604,0.00018731,-0.00080610,0.00
 004980,-0.00002186,-0.00007866,-0.00000768,0.00000998,0.00000902,-0.00
 001653,-0.00002553,0.00001260,0.00149493,0.00253094,0.00089295,-0.0004
 1816,-0.00034724,0.00055090,0.00804603,-0.01429923,-0.04876696,0.00017
 519,-0.00000729,0.00017496,0.00058647,-0.00195459,-0.00008141,0.000018
 43,-0.00000022,0.00000249,-0.00027604,0.00067549,0.00116576,-0.0009654
 4,0.00030262,0.00136745,-0.00009192,0.00000517,0.00008968,-0.00011575,
 -0.00003041,0.00016595,-0.00000197,-0.00000024,-0.00000188,0.00000413,
 -0.00000153,-0.00000079,0.00000713,0.00000130,0.00000414,-0.00001787,-
 0.00000719,-0.00000793,-0.00767040,0.01959982,0.00120002,-0.01061617,0
 .01697081,0.05147666,0.00033569,-0.00018970,-0.00023451,-0.04381916,-0
 .00430379,0.02265821,-0.00044563,-0.00073191,-0.00166634,-0.00142908,-
 0.00349918,0.00008183,0.00015364,0.00002944,0.00008278,-0.00027442,-0.
 00011601,0.00012401,0.00201176,0.00091373,0.00009452,-0.00196651,0.004
 82051,0.00058498,0.00008532,0.00004057,-0.00012876,0.00029154,0.000374
 44,-0.00029524,-0.00133988,0.00716204,0.01062525,-0.01978753,0.0006533
 1,-0.04389194,-0.00324052,-0.00207516,0.02145861,-0.00007960,0.0000265
 4,-0.00008488,-0.00000793,0.00004735,0.00000039,-0.00055337,0.00036320
 ,-0.00017985,-0.00055650,0.00016257,0.00094093,0.00007225,0.00001070,0
 .00024411,-0.00017868,0.00009517,0.00063183,-0.00001656,0.00011470,0.0
 0013151,-0.00000052,-0.00002158,0.00005575,-0.00009235,0.00001895,0.00
 005022,-0.00014004,-0.00020396,-0.00001615,-0.00002587,-0.00011946,0.0
 0006841,0.00032549,0.00043536,0.00068136,0.00030294,-0.00047803,-0.000
 21315,0.07049026,0.00014962,-0.00045548,-0.00026649,-0.00550036,-0.048
 87730,0.00955299,0.00001792,0.00007498,0.00012837,-0.00264023,-0.00375
 478,-0.00020384,-0.00004173,-0.00000258,-0.00000576,0.00005423,0.00006
 250,-0.00002604,-0.00315635,-0.00390078,0.00093282,0.00001512,0.000034
 35,-0.00046189,-0.00001004,-0.00000340,0.00001016,0.00009945,-0.000268
 56,0.00018430,0.01375690,-0.01692553,-0.04245982,0.00485846,0.00524811
 ,0.00665210,-0.00579980,0.00256812,0.02374688,0.00004799,0.00015022,0.
 00002153,0.00010813,0.00031633,0.00000296,0.00004894,-0.00006186,0.000
 01339,-0.00077250,0.00031003,0.00133874,0.00013925,-0.00004220,-0.0000
 1187,0.00032461,-0.00027823,-0.00107276,0.00060796,-0.00035310,-0.0009
 6503,0.00000423,0.00000582,-0.00000461,0.00001520,-0.00000032,-0.00000
 467,0.00000975,0.00009845,-0.00002424,0.00002544,0.00010537,-0.0000673
 1,0.00034201,0.00091813,-0.00031278,0.00083817,0.00033593,-0.00062087,
 -0.00344414,0.06478783,-0.00024398,0.00010518,-0.00003074,0.01657470,0
 .00028880,-0.31527988,-0.00022633,-0.00045191,-0.00072250,0.00115257,0
 .00165411,0.00141733,0.00012862,-0.00000865,0.00006512,-0.00029503,-0.
 00007378,0.00001760,-0.00195961,-0.00058978,0.00319927,0.00004403,0.00
 297261,0.00323917,-0.00000968,0.00008321,-0.00006344,0.00020810,0.0001
 5687,-0.00014294,0.00621877,-0.00950195,-0.00873804,-0.01281165,0.0007
 3216,-0.01394006,0.00192802,0.00084083,-0.00916757,0.00005939,-0.00000
 713,0.00003970,0.00004193,0.00000048,-0.00005686,-0.00026246,0.0001647
 2,-0.00009681,0.00025589,-0.00022704,-0.00061163,-0.00012376,0.0000060
 4,0.00016270,0.00005492,-0.00000624,-0.00020920,0.00023404,-0.00014993
 ,-0.00042022,0.00000442,-0.00001900,-0.00002825,-0.00007655,0.00000031
 ,0.00001740,-0.00008967,-0.00008743,-0.00004269,0.00004210,0.00004158,
 0.00003069,0.00024199,-0.00010613,0.00096310,0.00015467,0.00034972,-0.
 00010812,-0.01138323,0.00389403,0.34037342,-0.00000006,0.00000131,-0.0
 0000315,0.00007486,-0.00001141,0.00005848,0.00021161,0.00055888,-0.001
 04632,-0.00000266,-0.00000535,0.00000428,-0.06989499,-0.02037345,-0.05
 429738,-0.02019836,0.00630732,-0.02800234,0.00001369,-0.00000670,0.000
 00092,-0.00051061,0.00003951,0.00029635,-0.00169631,-0.00462885,-0.009
 59425,0.00285542,-0.00085384,-0.00527004,-0.00001273,0.00001904,0.0000
 1332,-0.00000079,-0.00002236,0.00016357,-0.00001232,0.00000449,-0.0000
 0245,-0.00000324,-0.00000145,-0.00000071,-0.00000202,0.00000007,0.0000
 0173,-0.00006117,-0.00012641,0.00022811,-0.00000515,-0.00000058,-0.000
 00022,0.00000023,0.00000328,-0.00000707,-0.00000159,-0.00000529,-0.000
 00953,-0.00000369,0.00000278,-0.00000120,0.00039749,-0.00174960,-0.000
 25364,0.00036644,-0.00007997,0.00017120,0.00042440,0.00001021,0.001065
 31,0.00011890,0.00012547,0.00039900,-0.00000702,-0.00000288,-0.0000003
 0,0.00000105,0.00000115,0.00000004,0.00000083,0.00000171,-0.00000591,0
 .07907614,0.00000351,-0.00000223,0.00000649,0.00002446,-0.00001603,0.0
 0005658,0.00126433,0.00141347,-0.00088907,0.00000162,0.00000093,-0.000
 00522,-0.01998973,-0.06620785,-0.06204365,0.01767650,0.00075794,0.0249
 2770,-0.00001323,0.00001001,-0.00001525,0.00007683,-0.00023713,-0.0002
 9906,-0.00962047,-0.00980961,-0.03127904,-0.00270148,0.00057279,0.0030
 4963,-0.00001674,0.00004829,0.00000893,-0.00010094,0.00014449,-0.00005
 614,-0.00000261,0.00000225,-0.00000672,0.00000199,0.00000194,0.0000000
 9,0.,0.00000047,-0.00000053,-0.00022667,0.00007054,0.00079530,0.000001
 67,0.00000039,0.00000144,0.00000152,-0.00000121,0.00000374,-0.00000331
 ,0.00000104,0.00000982,-0.00000027,-0.00000020,0.00000285,-0.00260012,
 -0.00592463,0.00038896,0.00068731,0.00112027,0.00041917,-0.00071877,-0
 .00004489,-0.00091413,-0.00012633,-0.00009547,-0.00010978,-0.00000116,
 -0.00000150,0.00000083,0.00000034,0.00000065,0.00000131,0.00000314,-0.
 00000046,0.00000131,0.01482046,0.07578117,0.00000238,0.00000329,-0.000
 00889,0.00037271,-0.00010006,0.00014344,0.00019274,0.00054514,0.000883
 50,-0.00000620,-0.00001978,0.00000904,-0.05790258,-0.06051996,-0.25873
 035,-0.01323384,0.00743361,-0.01014300,0.00006933,-0.00000626,-0.00001
 421,-0.00018135,0.00023962,0.00010672,0.00091597,-0.00098441,-0.001797
 01,0.00297895,0.00011659,0.00142157,-0.00012398,0.00005323,0.00001668,
 -0.00040220,-0.00022618,-0.00022534,-0.00002892,0.00002188,-0.00000127
 ,-0.00000948,-0.00000553,-0.00000225,-0.00000569,0.00000004,0.00000607
 ,-0.00060644,-0.00006596,0.00024407,-0.00001650,-0.00000258,0.00000077
 ,0.00000168,0.00001096,-0.00001881,0.00001705,-0.00001254,-0.00002806,
 -0.00001713,0.00000937,-0.00000323,0.00030582,-0.00023429,0.00131510,-
 0.00014394,-0.00076033,0.00016682,-0.00147785,-0.00013820,0.00067672,-
 0.00012473,0.00017154,0.00045860,-0.00002220,-0.00001026,0.00000036,0.
 00000241,0.00000216,0.00000078,-0.00003263,0.00000861,-0.00003041,0.07
 453873,0.06061300,0.28286650,-0.00000352,0.00000654,-0.00001908,0.0003
 6254,-0.00003039,0.00016227,0.00093677,-0.00186448,-0.00064394,-0.0000
 0907,-0.00002030,0.00001145,-0.19568253,-0.03259174,0.12484403,-0.0295
 0625,0.00362593,0.01659557,0.00011902,-0.00002893,-0.00001699,0.000286
 26,0.00053469,0.00037523,-0.00586796,-0.00290453,0.00633768,-0.0003820
 7,0.00312664,-0.00437142,-0.00024266,0.00000579,-0.00002075,-0.0003751
 6,-0.00011462,-0.00029250,-0.00002617,0.00002010,-0.00000252,-0.000016
 08,-0.00001037,-0.00000197,-0.00000737,-0.00000121,0.00000827,-0.00005
 205,0.00004122,0.00018805,-0.00001992,-0.00000464,0.00000033,0.0000049
 3,0.00001366,-0.00002402,0.00003308,-0.00001344,-0.00005601,-0.0000209
 3,0.00001237,-0.00000527,0.00013877,0.00047874,-0.00016289,0.00015518,
 -0.00043353,0.00004341,0.00006471,0.00001683,0.00036263,-0.00113294,-0
 .00011673,0.00090399,-0.00002576,-0.00001101,0.00000024,0.00000196,-0.
 00000193,0.00000316,-0.00003952,0.00000133,-0.00003559,0.00879522,0.00
 122984,-0.00487247,0.22293389,0.00000954,-0.00000583,0.00001562,0.0001
 1576,-0.00011642,-0.00003418,-0.00099557,-0.00669872,-0.00162500,0.000
 00926,-0.00000805,-0.00000103,-0.03837747,-0.05646887,0.03089132,0.025
 04290,0.00043158,-0.01593779,-0.00004100,0.00003564,-0.00000216,0.0007
 6339,-0.00063978,-0.00008218,-0.02465359,-0.00335435,0.02155502,0.0024
 0835,-0.00261564,0.00236007,0.00008318,0.00010932,0.00005255,-0.000190
 86,0.00021145,-0.00007407,-0.00000975,0.00001337,-0.00000605,0.0000052
 5,0.00000658,-0.00000187,0.00000021,0.00000200,-0.00000111,0.00027094,
 0.00006197,0.00002288,-0.00000168,0.00000225,0.00000108,0.00000871,-0.
 00000117,-0.00000129,-0.00003079,-0.00000768,0.00002373,-0.00000449,-0
 .00000093,-0.00000100,0.00051232,0.00151874,-0.00052134,0.00091630,0.0
 0095175,-0.00003921,-0.00018738,-0.00002110,0.00002941,0.00114554,0.00
 016201,-0.00058642,-0.00000732,-0.00000355,0.00000143,0.00000501,0.000
 00468,0.00000278,-0.00002622,0.00000692,-0.00001251,0.00603775,0.00214
 591,-0.00595541,0.02914682,0.06418031,-0.00000250,-0.00000096,-0.00000
 574,-0.00010816,0.00003310,-0.00001831,-0.00009555,0.00017048,0.001014
 95,-0.00000125,0.00000381,0.00000041,0.13459030,0.02664806,-0.16766658
 ,-0.01088854,-0.00117355,0.00901594,-0.00001366,-0.00000667,0.00002059
 ,-0.00038366,0.00007490,-0.00005932,-0.00297232,-0.00145006,0.00164921
 ,-0.00170582,0.00086971,0.00035526,0.00005036,-0.00002571,-0.00000761,
 0.00016868,0.00002099,0.00007650,0.00000889,-0.00000397,0.00000325,0.0
 0000005,-0.00000053,0.00000119,0.00000165,0.00000033,-0.00000146,-0.00
 029902,-0.00009790,0.00037832,0.00000259,0.00000039,-0.00000157,-0.000
 00062,-0.00000135,0.00000229,0.00000751,0.00000061,-0.00000062,0.00000
 476,-0.00000153,-0.00000064,-0.00012806,0.00057686,0.00073962,0.000205
 41,0.00042420,0.00000908,-0.00020239,0.00012276,0.00043804,-0.00017488
 ,0.00013646,0.00041071,0.00000675,0.00000186,-0.00000073,-0.00000187,-
 0.00000225,-0.00000042,0.00001320,-0.00000276,0.00000936,0.02134014,0.
 00502845,-0.01744334,-0.13969117,-0.03118286,0.17098371,0.00000685,0.0
 0001299,0.00000596,-0.00014154,0.00007825,0.00020431,-0.08769234,-0.09
 710445,-0.00744872,-0.00001523,-0.00000731,-0.00006028,-0.00528632,0.0
 0201850,0.00419831,0.00152638,-0.00061241,-0.00035637,0.00007481,-0.00
 002110,-0.00001363,0.00872933,0.02419063,0.00084186,-0.00993853,-0.025
 33083,-0.00335102,-0.00467836,0.00285197,-0.00130444,-0.00006823,-0.00
 010716,-0.00007995,0.00177629,-0.00055604,0.00176884,0.00000609,0.0000
 0550,0.00001371,-0.00000238,-0.00001349,0.00000015,-0.00000158,-0.0000
 0323,0.00000010,-0.00377375,-0.00739769,-0.00042630,0.00001075,-0.0000
 0678,0.00000422,0.00008892,-0.00003891,0.00005005,0.00004651,-0.000010
 19,-0.00002911,-0.00000180,-0.00000138,-0.00000538,0.00116500,0.000487
 35,-0.00009673,0.00065751,0.00034812,-0.00087375,-0.00006358,-0.000118
 00,-0.00003563,0.00069335,0.00139240,-0.00018953,0.00000064,-0.0000065
 5,0.00000146,0.00007150,-0.00004880,0.00003443,0.00003938,0.00000397,0
 .00003315,0.00015709,0.00035273,-0.00004071,-0.00034374,-0.00193529,0.
 00026386,0.09585998,0.00000605,-0.00000889,0.00003637,0.00018948,0.000
 12511,-0.00005841,-0.09503888,-0.27474429,-0.01710063,0.00001356,0.000
 00812,-0.00007124,0.00003313,0.00152521,0.00056692,-0.00070239,0.00037
 897,-0.00004805,-0.00013275,-0.00001111,-0.00004744,-0.00875855,-0.023
 39194,-0.00256735,-0.00056920,-0.00044675,0.00018306,0.00583443,-0.001
 08134,0.00113459,0.00001089,0.00018619,0.00002507,-0.00120032,0.002455
 34,-0.00101425,0.00002917,-0.00001861,0.00002819,0.00001680,0.00000946
 ,-0.00000042,0.00000329,0.00000400,-0.00000489,-0.00104776,-0.00324573
 ,-0.00080452,0.00002063,0.00000463,0.00001645,0.00010784,-0.00005575,0
 .00004979,-0.00004665,0.00002529,0.00008034,0.00002679,-0.00000212,0.0
 0002318,-0.00017386,0.00023763,0.00027238,-0.00040834,0.00029711,0.000
 25292,-0.00003188,0.00031969,-0.00013107,-0.00084969,-0.00132562,0.000
 23763,-0.00000595,0.00001590,-0.00000018,0.00005597,-0.00001393,0.0000
 2813,0.00000637,-0.00002494,-0.00001024,0.00007631,0.00006381,-0.00010
 922,0.00008635,-0.00019969,-0.00006848,0.10244791,0.29813246,-0.000003
 81,0.00000113,-0.00001671,-0.00030150,0.00015507,0.00006268,-0.0074640
 6,-0.02012923,-0.04938479,0.00001756,0.00000095,0.00003303,0.00381725,
 -0.00132780,-0.00211414,-0.00061134,-0.00033376,0.00026285,0.00001122,
 -0.00000187,0.00005244,0.00137692,0.00884908,-0.00173394,0.00805171,0.
 02000509,0.00090617,-0.00116947,0.00037257,-0.00014498,0.00006381,-0.0
 0014223,-0.00006680,0.00111875,0.00033972,0.00116236,0.00002171,0.0000
 0799,0.00001393,-0.00000272,0.00000078,0.00000069,0.00000273,-0.000001
 44,-0.00000154,-0.01076236,-0.02819365,-0.00122711,-0.00000006,-0.0000
 0063,-0.00001101,-0.00001239,0.00000578,-0.00001886,0.00001058,-0.0000
 0672,-0.00002222,0.00000015,-0.00000054,-0.00001307,-0.00093591,0.0000
 5847,0.00068222,-0.00063416,-0.00051778,0.00058238,0.00015371,0.000303
 00,0.00024510,0.00014946,0.00031149,0.00028312,0.00001942,0.00000115,-
 0.00000846,0.00002104,-0.00002673,0.00000574,0.00004977,-0.00000436,0.
 00002843,0.00018330,0.00033901,0.00016940,0.00039409,0.00115529,0.0001
 5436,0.00645945,0.01930435,0.05012602,-0.00016346,0.00013668,0.0000073
 5,0.00245418,0.00099107,-0.00012175,-0.01808145,-0.00058112,0.01361495
 ,-0.00175099,-0.00104243,0.00056912,0.00120959,-0.00004656,0.00023710,
 -0.00147719,-0.00305947,0.00024070,-0.00120119,0.00247052,0.00013290,-
 0.19548934,-0.00899106,0.13419639,-0.00123173,0.00379146,-0.00252533,-
 0.00879382,0.00233623,0.00821106,0.00019255,0.00009441,0.00074647,0.01
 251596,-0.00165768,-0.01564377,0.00094027,-0.00031842,0.00078151,0.000
 01769,-0.00009181,0.00001795,0.00000873,-0.00001429,-0.00000525,0.0002
 7184,-0.00028742,-0.00019177,-0.00031754,0.00012352,-0.00003621,-0.002
 70264,-0.00139121,-0.00025119,-0.00190794,0.00215177,-0.00095447,-0.00
 042065,-0.00003778,-0.00022329,0.00007056,0.00003452,0.00012768,-0.001
 05664,-0.00020109,0.00081008,-0.00007637,-0.00020100,-0.00027115,0.000
 26599,-0.00021680,-0.00002512,0.00010188,0.00010335,0.00005086,0.00001
 679,-0.00000869,0.00001536,-0.00011542,-0.00010523,0.00014616,-0.00008
 065,-0.00002442,-0.00014892,-0.00007862,-0.00001982,0.00000532,0.00109
 700,0.00000124,-0.00002484,0.21578261,0.00011835,0.00012018,-0.0000200
 7,0.00076574,0.00085903,0.00099819,0.01954885,0.00104516,-0.01532849,-
 0.00074445,0.00000721,-0.00017128,0.00145012,-0.00163806,0.00050221,-0
 .00596278,-0.00650670,0.00182936,0.00160441,-0.00067085,0.00074488,-0.
 01030607,-0.05200730,0.00596426,0.00264560,-0.00291783,0.00208320,-0.0
 2178952,0.00350332,0.01950466,-0.00053926,-0.00003575,-0.00062888,0.00
 630642,0.00078733,-0.01085035,0.00018967,-0.00000020,0.00003939,-0.000
 07858,-0.00015340,0.00000679,-0.00001494,-0.00003268,0.00000920,-0.000
 78080,0.00092387,0.00012120,0.00000015,-0.00004949,0.00007027,-0.00146
 343,-0.00023517,0.00029019,0.00202778,-0.00211746,0.00013356,-0.000165
 01,0.00000173,-0.00011800,-0.00021017,-0.00005273,-0.00002433,0.001191
 19,0.00022863,-0.00076211,0.00028098,0.00095997,-0.00087859,0.00111830
 ,0.00068429,0.00016360,-0.00000770,-0.00006749,0.00007143,0.00003380,-
 0.00008845,0.00001539,-0.00006894,-0.00007353,-0.00004021,-0.00014159,
 0.00020484,-0.00007809,-0.00019898,0.00029728,-0.00009435,-0.00087069,
 0.00078181,-0.00052417,0.00606155,0.05624246,-0.00014497,0.00001016,0.
 00023026,0.00451145,-0.00205482,0.00103913,-0.00716741,-0.00067014,0.0
 0728538,-0.00000297,0.00043699,-0.00095967,-0.00000581,0.00019489,-0.0
 0015055,0.00011765,-0.00034158,0.00112805,-0.00032018,-0.00075627,-0.0
 0145058,0.12797576,0.00636591,-0.16443245,-0.00131225,0.00180204,0.000
 13289,0.00228746,0.00108597,0.00004699,-0.00118847,0.00148198,0.000681
 46,0.01366503,-0.00452806,-0.03829660,-0.00108869,-0.00004599,-0.00028
 364,0.00015064,0.00001912,0.00001629,0.00001561,-0.00000985,-0.0000235
 3,0.00020596,-0.00038038,0.00065580,0.00039367,-0.00004789,0.00036137,
 0.00093980,0.00015677,0.00126714,0.00089074,-0.00013756,0.00126859,0.0
 0031375,-0.00000662,0.00047215,-0.00016785,0.00004260,0.00015422,-0.00
 052624,0.00005359,0.00027629,-0.00001258,0.00069936,0.00028115,0.00006
 549,-0.00017578,-0.00011148,-0.00011180,-0.00001760,0.00014890,0.00000
 718,0.00010852,0.00000023,-0.00045098,0.00002823,0.00012604,0.00003002
 ,-0.00003601,-0.00003998,-0.00001380,-0.00004573,-0.00005647,0.0004316
 9,-0.00020299,-0.00000729,-0.13948792,-0.00302886,0.19023993\\-0.00000
 650,0.00000501,0.00000491,-0.00124859,-0.00160420,0.00275860,0.0000086
 2,0.00001337,0.00000011,-0.00000338,-0.00000036,0.00000701,-0.00000539
 ,-0.00000043,0.00000488,0.00000039,-0.00001047,-0.00000275,0.00000472,
 0.00001320,0.00000401,-0.00066897,-0.00170590,0.00072144,-0.00000956,0
 .00000084,-0.00000965,0.00001098,-0.00001419,-0.00000757,0.00062937,0.
 00052685,-0.00169903,0.00128332,0.00279313,-0.00178981,-0.00000729,-0.
 00001044,0.00000037,0.00000185,0.00000378,0.00000049,0.00000106,0.0000
 0387,0.00000095,-0.00000287,0.00000170,0.00000034,-0.00000066,0.000003
 02,0.00000275,0.00000032,0.00000754,0.00000171,-0.00000245,-0.00000352
 ,-0.00000197,0.00001001,0.00000370,-0.00000428,-0.00000063,-0.00000801
 ,-0.00000464,-0.00000311,-0.00000458,0.00000362,0.00000551,0.00000559,
 0.00000256,0.00000560,0.00000325,-0.00000284,-0.00000597,-0.00000183,0
 .00000871,-0.00000363,-0.00000151,0.00000728,0.00000404,-0.00000371,-0
 .00000174,0.00000160,0.00000062,-0.00000382,-0.00000054,-0.00000888,-0
 .00000760,-0.00000200,-0.00000224,-0.00000295,0.00000414,-0.00000521,0
 .00000890\\\@


 THE CHYMISTS ARE A STRANGE CLASS OF MORTALS IMPELLED
 BY AN ALMOST INSANE IMPULSE TO SEEK THEIR PLEASURE
 AMONG SMOKE AND VAPOR, SOOT AND FLAME, POISONS AND
 POVERTY; YET AMONG ALL THESE EVILS I SEEM TO LIVE
 SO SWEETLY, THAT I MAY DIE IF I WOULD CHANGE PLACES
 WITH THE PERSIAN KING.
   --  JOHANN JOACHIM BECHER, 1635-1682
 ACTA LABORATORII CHYMICA MONACENSIS, 1669
 Job cpu time:       0 days 15 hours  1 minutes 18.5 seconds.
 Elapsed time:       0 days  0 hours 56 minutes 22.5 seconds.
 File lengths (MBytes):  RWF=    686 Int=      0 D2E=      0 Chk=     33 Scr=      1
 Normal termination of Gaussian 16 at Mon Nov  5 04:27:56 2018.
