 Entering Gaussian System, Link 0=g16
 Initial command:
 /apps/gaussian/g16a03/g16/l1.exe "/jobfs/local/2011889.r-man2/Gau-7637.inp" -scrdir="/jobfs/local/2011889.r-man2/"
 Entering Link 1 = /apps/gaussian/g16a03/g16/l1.exe PID=      7638.
  
 Copyright (c) 1988,1990,1992,1993,1995,1998,2003,2009,2016,
            Gaussian, Inc.  All Rights Reserved.
  
 This is part of the Gaussian(R) 16 program.  It is based on
 the Gaussian(R) 09 system (copyright 2009, Gaussian, Inc.),
 the Gaussian(R) 03 system (copyright 2003, Gaussian, Inc.),
 the Gaussian(R) 98 system (copyright 1998, Gaussian, Inc.),
 the Gaussian(R) 94 system (copyright 1995, Gaussian, Inc.),
 the Gaussian 92(TM) system (copyright 1992, Gaussian, Inc.),
 the Gaussian 90(TM) system (copyright 1990, Gaussian, Inc.),
 the Gaussian 88(TM) system (copyright 1988, Gaussian, Inc.),
 the Gaussian 86(TM) system (copyright 1986, Carnegie Mellon
 University), and the Gaussian 82(TM) system (copyright 1983,
 Carnegie Mellon University). Gaussian is a federally registered
 trademark of Gaussian, Inc.
  
 This software contains proprietary and confidential information,
 including trade secrets, belonging to Gaussian, Inc.
  
 This software is provided under written license and may be
 used, copied, transmitted, or stored only in accord with that
 written license.
  
 The following legend is applicable only to US Government
 contracts under FAR:
  
                    RESTRICTED RIGHTS LEGEND
  
 Use, reproduction and disclosure by the US Government is
 subject to restrictions as set forth in subparagraphs (a)
 and (c) of the Commercial Computer Software - Restricted
 Rights clause in FAR 52.227-19.
  
 Gaussian, Inc.
 340 Quinnipiac St., Bldg. 40, Wallingford CT 06492
  
  
 ---------------------------------------------------------------
 Warning -- This program may not be used in any manner that
 competes with the business of Gaussian, Inc. or will provide
 assistance to any competitor of Gaussian, Inc.  The licensee
 of this program is prohibited from giving any competitor of
 Gaussian, Inc. access to this program.  By using this program,
 the user acknowledges that Gaussian, Inc. is engaged in the
 business of creating and licensing software in the field of
 computational chemistry and represents and warrants to the
 licensee that it is not a competitor of Gaussian, Inc. and that
 it will not use this program in any manner prohibited above.
 ---------------------------------------------------------------
  

 Cite this work as:
 Gaussian 16, Revision A.03,
 M. J. Frisch, G. W. Trucks, H. B. Schlegel, G. E. Scuseria, 
 M. A. Robb, J. R. Cheeseman, G. Scalmani, V. Barone, 
 G. A. Petersson, H. Nakatsuji, X. Li, M. Caricato, A. V. Marenich, 
 J. Bloino, B. G. Janesko, R. Gomperts, B. Mennucci, H. P. Hratchian, 
 J. V. Ortiz, A. F. Izmaylov, J. L. Sonnenberg, D. Williams-Young, 
 F. Ding, F. Lipparini, F. Egidi, J. Goings, B. Peng, A. Petrone, 
 T. Henderson, D. Ranasinghe, V. G. Zakrzewski, J. Gao, N. Rega, 
 G. Zheng, W. Liang, M. Hada, M. Ehara, K. Toyota, R. Fukuda, 
 J. Hasegawa, M. Ishida, T. Nakajima, Y. Honda, O. Kitao, H. Nakai, 
 T. Vreven, K. Throssell, J. A. Montgomery, Jr., J. E. Peralta, 
 F. Ogliaro, M. J. Bearpark, J. J. Heyd, E. N. Brothers, K. N. Kudin, 
 V. N. Staroverov, T. A. Keith, R. Kobayashi, J. Normand, 
 K. Raghavachari, A. P. Rendell, J. C. Burant, S. S. Iyengar, 
 J. Tomasi, M. Cossi, J. M. Millam, M. Klene, C. Adamo, R. Cammi, 
 J. W. Ochterski, R. L. Martin, K. Morokuma, O. Farkas, 
 J. B. Foresman, and D. J. Fox, Gaussian, Inc., Wallingford CT, 2016.
 
 ******************************************
 Gaussian 16:  ES64L-G16RevA.03 25-Dec-2016
                 5-Nov-2018 
 ******************************************
 %mem=6000mb
 %nproc=24
 Will use up to   24 processors via shared memory.
 %chk=D_1a_4a_L_PHI.inp_extract_24.chk
 ----------------------------------------------------------------------
 #M062X/6-311++G(2d,2p) opt=ModRedundant freq=noraman SCRF=(Solvent=Wat
 er)
 ----------------------------------------------------------------------
 1/18=120,19=15,26=3,38=1/1,3;
 2/9=110,12=2,17=6,18=5,40=1/2;
 3/5=4,6=6,7=1212,11=2,25=1,30=1,70=2201,71=1,72=1,74=-55/1,2,3;
 4//1;
 5/5=2,38=5,53=1/2;
 6/7=2,8=2,9=2,10=2,28=1/1;
 7//1,2,3,16;
 1/18=20,19=15,26=3/3(2);
 2/9=110/2;
 99//99;
 2/9=110/2;
 3/5=4,6=6,7=1212,11=2,25=1,30=1,70=2205,71=1,72=1,74=-55/1,2,3;
 4/5=5,16=3,69=1/1;
 5/5=2,38=5,53=1/2;
 7//1,2,3,16;
 1/18=20,19=15,26=3/3(-5);
 2/9=110/2;
 6/7=2,8=2,9=2,10=2,19=2,28=1/1;
 99/9=1/99;
 ----------------------------
 D_1a_4a_L_PHI.inp_extract_24
 ----------------------------
 Symbolic Z-matrix:
 Charge =  0 Multiplicity = 1
 C                     3.334    -0.35078  -0.71283 
 C                     1.15363   0.23053   1.15693 
 C                    -1.75993   1.26203  -0.74879 
 C                     2.71047   1.04116  -0.75175 
 C                    -3.54741  -0.32913  -0.01944 
 O                    -2.54336  -1.27393   0.30342 
 C                     2.28379  -1.37586  -0.32909 
 C                    -0.73804   0.16295  -0.46215 
 C                    -3.01845   1.09095   0.10458 
 C                    -1.41191  -1.2009   -0.53858 
 O                     1.64305  -1.05937   0.90283 
 O                    -0.20827   0.37523   0.83917 
 C                     2.05495   1.33849   0.59787 
 H                     4.14425  -0.37298   0.01224 
 H                     3.75102  -0.62337  -1.67795 
 H                    -2.0287    1.20153  -1.8008 
 H                     3.46704   1.79353  -0.95213 
 H                     1.98919   1.09869  -1.56111 
 H                     1.54333  -1.4725   -1.11438 
 H                     2.72523  -2.3498   -0.16963 
 H                    -2.80099   1.30205   1.14731 
 H                    -3.78784   1.78904  -0.21264 
 H                    -1.71092  -1.39256  -1.56676 
 H                    -0.74187  -1.98579  -0.22175 
 H                     2.84701   1.47866   1.32882 
 H                     1.48407   2.25986   0.57094 
 H                     1.14727   0.31066   2.23186 
 H                    -3.89856  -0.5191   -1.03168 
 H                    -4.36602  -0.50867   0.66417 
 H                    -1.30545   2.23359  -0.58603 
 H                     0.04396   0.20496  -1.20433 
 
 The following ModRedundant input section has been read:
 D      11       2      12       8 F                                           
 

 GradGradGradGradGradGradGradGradGradGradGradGradGradGradGradGradGradGrad
 Berny optimization.
 Initialization pass.
                           ----------------------------
                           !    Initial Parameters    !
                           ! (Angstroms and Degrees)  !
 --------------------------                            --------------------------
 ! Name  Definition              Value          Derivative Info.                !
 --------------------------------------------------------------------------------
 ! R1    R(1,4)                  1.5257         estimate D2E/DX2                !
 ! R2    R(1,7)                  1.5169         estimate D2E/DX2                !
 ! R3    R(1,14)                 1.0875         estimate D2E/DX2                !
 ! R4    R(1,15)                 1.0861         estimate D2E/DX2                !
 ! R5    R(2,11)                 1.4028         estimate D2E/DX2                !
 ! R6    R(2,12)                 1.406          estimate D2E/DX2                !
 ! R7    R(2,13)                 1.5338         estimate D2E/DX2                !
 ! R8    R(2,27)                 1.0779         estimate D2E/DX2                !
 ! R9    R(3,8)                  1.5279         estimate D2E/DX2                !
 ! R10   R(3,9)                  1.5302         estimate D2E/DX2                !
 ! R11   R(3,16)                 1.0875         estimate D2E/DX2                !
 ! R12   R(3,30)                 1.0849         estimate D2E/DX2                !
 ! R13   R(4,13)                 1.5296         estimate D2E/DX2                !
 ! R14   R(4,17)                 1.0856         estimate D2E/DX2                !
 ! R15   R(4,18)                 1.0856         estimate D2E/DX2                !
 ! R16   R(5,6)                  1.416          estimate D2E/DX2                !
 ! R17   R(5,9)                  1.5205         estimate D2E/DX2                !
 ! R18   R(5,28)                 1.0881         estimate D2E/DX2                !
 ! R19   R(5,29)                 1.0815         estimate D2E/DX2                !
 ! R20   R(6,10)                 1.4123         estimate D2E/DX2                !
 ! R21   R(7,11)                 1.4242         estimate D2E/DX2                !
 ! R22   R(7,19)                 1.0836         estimate D2E/DX2                !
 ! R23   R(7,20)                 1.0811         estimate D2E/DX2                !
 ! R24   R(8,10)                 1.5232         estimate D2E/DX2                !
 ! R25   R(8,12)                 1.421          estimate D2E/DX2                !
 ! R26   R(8,31)                 1.0789         estimate D2E/DX2                !
 ! R27   R(9,21)                 1.0859         estimate D2E/DX2                !
 ! R28   R(9,22)                 1.0862         estimate D2E/DX2                !
 ! R29   R(10,23)                1.0878         estimate D2E/DX2                !
 ! R30   R(10,24)                1.0795         estimate D2E/DX2                !
 ! R31   R(13,25)                1.0869         estimate D2E/DX2                !
 ! R32   R(13,26)                1.0842         estimate D2E/DX2                !
 ! A1    A(4,1,7)              109.8783         estimate D2E/DX2                !
 ! A2    A(4,1,14)             109.8835         estimate D2E/DX2                !
 ! A3    A(4,1,15)             111.2981         estimate D2E/DX2                !
 ! A4    A(7,1,14)             109.4729         estimate D2E/DX2                !
 ! A5    A(7,1,15)             108.7244         estimate D2E/DX2                !
 ! A6    A(14,1,15)            107.5331         estimate D2E/DX2                !
 ! A7    A(11,2,12)            113.0569         estimate D2E/DX2                !
 ! A8    A(11,2,13)            113.1525         estimate D2E/DX2                !
 ! A9    A(11,2,27)            104.5388         estimate D2E/DX2                !
 ! A10   A(12,2,13)            114.3624         estimate D2E/DX2                !
 ! A11   A(12,2,27)            102.2406         estimate D2E/DX2                !
 ! A12   A(13,2,27)            108.2552         estimate D2E/DX2                !
 ! A13   A(8,3,9)              111.4102         estimate D2E/DX2                !
 ! A14   A(8,3,16)             107.8645         estimate D2E/DX2                !
 ! A15   A(8,3,30)             109.6258         estimate D2E/DX2                !
 ! A16   A(9,3,16)             109.2693         estimate D2E/DX2                !
 ! A17   A(9,3,30)             111.1624         estimate D2E/DX2                !
 ! A18   A(16,3,30)            107.3674         estimate D2E/DX2                !
 ! A19   A(1,4,13)             109.268          estimate D2E/DX2                !
 ! A20   A(1,4,17)             110.6195         estimate D2E/DX2                !
 ! A21   A(1,4,18)             109.809          estimate D2E/DX2                !
 ! A22   A(13,4,17)            109.0751         estimate D2E/DX2                !
 ! A23   A(13,4,18)            111.2706         estimate D2E/DX2                !
 ! A24   A(17,4,18)            106.7782         estimate D2E/DX2                !
 ! A25   A(6,5,9)              110.9715         estimate D2E/DX2                !
 ! A26   A(6,5,28)             108.9321         estimate D2E/DX2                !
 ! A27   A(6,5,29)             106.3687         estimate D2E/DX2                !
 ! A28   A(9,5,28)             110.561          estimate D2E/DX2                !
 ! A29   A(9,5,29)             111.5199         estimate D2E/DX2                !
 ! A30   A(28,5,29)            108.346          estimate D2E/DX2                !
 ! A31   A(5,6,10)             113.4311         estimate D2E/DX2                !
 ! A32   A(1,7,11)             112.3417         estimate D2E/DX2                !
 ! A33   A(1,7,19)             110.4884         estimate D2E/DX2                !
 ! A34   A(1,7,20)             111.3087         estimate D2E/DX2                !
 ! A35   A(11,7,19)            109.8306         estimate D2E/DX2                !
 ! A36   A(11,7,20)            104.8507         estimate D2E/DX2                !
 ! A37   A(19,7,20)            107.7911         estimate D2E/DX2                !
 ! A38   A(3,8,10)             109.8039         estimate D2E/DX2                !
 ! A39   A(3,8,12)             108.2824         estimate D2E/DX2                !
 ! A40   A(3,8,31)             109.1294         estimate D2E/DX2                !
 ! A41   A(10,8,12)            110.1607         estimate D2E/DX2                !
 ! A42   A(10,8,31)            108.7235         estimate D2E/DX2                !
 ! A43   A(12,8,31)            110.7273         estimate D2E/DX2                !
 ! A44   A(3,9,5)              110.1862         estimate D2E/DX2                !
 ! A45   A(3,9,21)             110.432          estimate D2E/DX2                !
 ! A46   A(3,9,22)             110.356          estimate D2E/DX2                !
 ! A47   A(5,9,21)             109.2421         estimate D2E/DX2                !
 ! A48   A(5,9,22)             109.2684         estimate D2E/DX2                !
 ! A49   A(21,9,22)            107.2977         estimate D2E/DX2                !
 ! A50   A(6,10,8)             111.7669         estimate D2E/DX2                !
 ! A51   A(6,10,23)            109.5238         estimate D2E/DX2                !
 ! A52   A(6,10,24)            106.5402         estimate D2E/DX2                !
 ! A53   A(8,10,23)            109.0744         estimate D2E/DX2                !
 ! A54   A(8,10,24)            111.2046         estimate D2E/DX2                !
 ! A55   A(23,10,24)           108.6578         estimate D2E/DX2                !
 ! A56   A(2,11,7)             121.1962         estimate D2E/DX2                !
 ! A57   A(2,12,8)             123.5558         estimate D2E/DX2                !
 ! A58   A(2,13,4)             115.6602         estimate D2E/DX2                !
 ! A59   A(2,13,25)            106.0379         estimate D2E/DX2                !
 ! A60   A(2,13,26)            108.271          estimate D2E/DX2                !
 ! A61   A(4,13,25)            107.8279         estimate D2E/DX2                !
 ! A62   A(4,13,26)            111.6492         estimate D2E/DX2                !
 ! A63   A(25,13,26)           106.9071         estimate D2E/DX2                !
 ! D1    D(7,1,4,13)            55.6609         estimate D2E/DX2                !
 ! D2    D(7,1,4,17)           175.7551         estimate D2E/DX2                !
 ! D3    D(7,1,4,18)           -66.6412         estimate D2E/DX2                !
 ! D4    D(14,1,4,13)          -64.8513         estimate D2E/DX2                !
 ! D5    D(14,1,4,17)           55.2429         estimate D2E/DX2                !
 ! D6    D(14,1,4,18)          172.8466         estimate D2E/DX2                !
 ! D7    D(15,1,4,13)          176.1472         estimate D2E/DX2                !
 ! D8    D(15,1,4,17)          -63.7586         estimate D2E/DX2                !
 ! D9    D(15,1,4,18)           53.8451         estimate D2E/DX2                !
 ! D10   D(4,1,7,11)           -55.4104         estimate D2E/DX2                !
 ! D11   D(4,1,7,19)            67.6214         estimate D2E/DX2                !
 ! D12   D(4,1,7,20)          -172.652          estimate D2E/DX2                !
 ! D13   D(14,1,7,11)           65.3497         estimate D2E/DX2                !
 ! D14   D(14,1,7,19)         -171.6185         estimate D2E/DX2                !
 ! D15   D(14,1,7,20)          -51.8918         estimate D2E/DX2                !
 ! D16   D(15,1,7,11)         -177.441          estimate D2E/DX2                !
 ! D17   D(15,1,7,19)          -54.4092         estimate D2E/DX2                !
 ! D18   D(15,1,7,20)           65.3174         estimate D2E/DX2                !
 ! D19   D(12,2,11,7)           94.3948         estimate D2E/DX2                !
 ! D20   D(13,2,11,7)          -37.6418         estimate D2E/DX2                !
 ! D21   D(27,2,11,7)         -155.2136         estimate D2E/DX2                !
 ! D22   D(11,2,12,8)          -59.4578         Frozen                          !
 ! D23   D(13,2,12,8)           71.9818         estimate D2E/DX2                !
 ! D24   D(27,2,12,8)         -171.2673         estimate D2E/DX2                !
 ! D25   D(11,2,13,4)           37.4064         estimate D2E/DX2                !
 ! D26   D(11,2,13,25)         -82.0335         estimate D2E/DX2                !
 ! D27   D(11,2,13,26)         163.5371         estimate D2E/DX2                !
 ! D28   D(12,2,13,4)          -93.987          estimate D2E/DX2                !
 ! D29   D(12,2,13,25)         146.5731         estimate D2E/DX2                !
 ! D30   D(12,2,13,26)          32.1437         estimate D2E/DX2                !
 ! D31   D(27,2,13,4)          152.7817         estimate D2E/DX2                !
 ! D32   D(27,2,13,25)          33.3418         estimate D2E/DX2                !
 ! D33   D(27,2,13,26)         -81.0876         estimate D2E/DX2                !
 ! D34   D(9,3,8,10)            50.2859         estimate D2E/DX2                !
 ! D35   D(9,3,8,12)           -70.0297         estimate D2E/DX2                !
 ! D36   D(9,3,8,31)           169.3655         estimate D2E/DX2                !
 ! D37   D(16,3,8,10)          -69.6349         estimate D2E/DX2                !
 ! D38   D(16,3,8,12)          170.0495         estimate D2E/DX2                !
 ! D39   D(16,3,8,31)           49.4446         estimate D2E/DX2                !
 ! D40   D(30,3,8,10)          173.7565         estimate D2E/DX2                !
 ! D41   D(30,3,8,12)           53.4409         estimate D2E/DX2                !
 ! D42   D(30,3,8,31)          -67.164          estimate D2E/DX2                !
 ! D43   D(8,3,9,5)            -51.0053         estimate D2E/DX2                !
 ! D44   D(8,3,9,21)            69.7694         estimate D2E/DX2                !
 ! D45   D(8,3,9,22)          -171.7636         estimate D2E/DX2                !
 ! D46   D(16,3,9,5)            68.0816         estimate D2E/DX2                !
 ! D47   D(16,3,9,21)         -171.1436         estimate D2E/DX2                !
 ! D48   D(16,3,9,22)          -52.6766         estimate D2E/DX2                !
 ! D49   D(30,3,9,5)          -173.5972         estimate D2E/DX2                !
 ! D50   D(30,3,9,21)          -52.8224         estimate D2E/DX2                !
 ! D51   D(30,3,9,22)           65.6445         estimate D2E/DX2                !
 ! D52   D(1,4,13,2)           -47.8448         estimate D2E/DX2                !
 ! D53   D(1,4,13,25)           70.6098         estimate D2E/DX2                !
 ! D54   D(1,4,13,26)         -172.2399         estimate D2E/DX2                !
 ! D55   D(17,4,13,2)         -168.883          estimate D2E/DX2                !
 ! D56   D(17,4,13,25)         -50.4284         estimate D2E/DX2                !
 ! D57   D(17,4,13,26)          66.7219         estimate D2E/DX2                !
 ! D58   D(18,4,13,2)           73.5761         estimate D2E/DX2                !
 ! D59   D(18,4,13,25)        -167.9693         estimate D2E/DX2                !
 ! D60   D(18,4,13,26)         -50.819          estimate D2E/DX2                !
 ! D61   D(9,5,6,10)           -60.5907         estimate D2E/DX2                !
 ! D62   D(28,5,6,10)           61.3539         estimate D2E/DX2                !
 ! D63   D(29,5,6,10)          177.9411         estimate D2E/DX2                !
 ! D64   D(6,5,9,3)             54.8194         estimate D2E/DX2                !
 ! D65   D(6,5,9,21)           -66.6661         estimate D2E/DX2                !
 ! D66   D(6,5,9,22)           176.2277         estimate D2E/DX2                !
 ! D67   D(28,5,9,3)           -66.1698         estimate D2E/DX2                !
 ! D68   D(28,5,9,21)          172.3447         estimate D2E/DX2                !
 ! D69   D(28,5,9,22)           55.2384         estimate D2E/DX2                !
 ! D70   D(29,5,9,3)           173.2154         estimate D2E/DX2                !
 ! D71   D(29,5,9,21)           51.7299         estimate D2E/DX2                !
 ! D72   D(29,5,9,22)          -65.3763         estimate D2E/DX2                !
 ! D73   D(5,6,10,8)            60.4875         estimate D2E/DX2                !
 ! D74   D(5,6,10,23)          -60.5059         estimate D2E/DX2                !
 ! D75   D(5,6,10,24)         -177.8535         estimate D2E/DX2                !
 ! D76   D(1,7,11,2)            47.8543         estimate D2E/DX2                !
 ! D77   D(19,7,11,2)          -75.5464         estimate D2E/DX2                !
 ! D78   D(20,7,11,2)          168.881          estimate D2E/DX2                !
 ! D79   D(3,8,10,6)           -54.094          estimate D2E/DX2                !
 ! D80   D(3,8,10,23)           67.16           estimate D2E/DX2                !
 ! D81   D(3,8,10,24)         -173.0228         estimate D2E/DX2                !
 ! D82   D(12,8,10,6)           65.0753         estimate D2E/DX2                !
 ! D83   D(12,8,10,23)        -173.6707         estimate D2E/DX2                !
 ! D84   D(12,8,10,24)         -53.8535         estimate D2E/DX2                !
 ! D85   D(31,8,10,6)         -173.4225         estimate D2E/DX2                !
 ! D86   D(31,8,10,23)         -52.1685         estimate D2E/DX2                !
 ! D87   D(31,8,10,24)          67.6486         estimate D2E/DX2                !
 ! D88   D(3,8,12,2)          -138.3126         estimate D2E/DX2                !
 ! D89   D(10,8,12,2)          101.5947         estimate D2E/DX2                !
 ! D90   D(31,8,12,2)          -18.7069         estimate D2E/DX2                !
 --------------------------------------------------------------------------------
 Trust Radius=3.00D-01 FncErr=1.00D-07 GrdErr=1.00D-06 EigMax=2.50D+02 EigMin=1.00D-04
 Number of steps in this run=    186 maximum allowed number of steps=    186.
 GradGradGradGradGradGradGradGradGradGradGradGradGradGradGradGradGradGrad

                          Input orientation:                          
 ---------------------------------------------------------------------
 Center     Atomic      Atomic             Coordinates (Angstroms)
 Number     Number       Type             X           Y           Z
 ---------------------------------------------------------------------
      1          6           0        3.334002   -0.350780   -0.712831
      2          6           0        1.153632    0.230529    1.156929
      3          6           0       -1.759929    1.262034   -0.748789
      4          6           0        2.710469    1.041158   -0.751747
      5          6           0       -3.547409   -0.329125   -0.019440
      6          8           0       -2.543357   -1.273930    0.303420
      7          6           0        2.283790   -1.375857   -0.329094
      8          6           0       -0.738041    0.162953   -0.462152
      9          6           0       -3.018446    1.090953    0.104578
     10          6           0       -1.411910   -1.200902   -0.538577
     11          8           0        1.643048   -1.059365    0.902832
     12          8           0       -0.208274    0.375229    0.839166
     13          6           0        2.054951    1.338491    0.597872
     14          1           0        4.144247   -0.372977    0.012244
     15          1           0        3.751023   -0.623370   -1.677948
     16          1           0       -2.028705    1.201530   -1.800799
     17          1           0        3.467036    1.793529   -0.952132
     18          1           0        1.989188    1.098691   -1.561107
     19          1           0        1.543333   -1.472496   -1.114384
     20          1           0        2.725227   -2.349798   -0.169629
     21          1           0       -2.800989    1.302048    1.147306
     22          1           0       -3.787840    1.789036   -0.212635
     23          1           0       -1.710924   -1.392558   -1.566759
     24          1           0       -0.741868   -1.985794   -0.221749
     25          1           0        2.847007    1.478658    1.328820
     26          1           0        1.484074    2.259864    0.570938
     27          1           0        1.147272    0.310656    2.231864
     28          1           0       -3.898560   -0.519095   -1.031683
     29          1           0       -4.366019   -0.508673    0.664168
     30          1           0       -1.305445    2.233591   -0.586026
     31          1           0        0.043959    0.204960   -1.204326
 ---------------------------------------------------------------------
                    Distance matrix (angstroms):
                    1          2          3          4          5
     1  C    0.000000
     2  C    2.930518   0.000000
     3  C    5.343276   3.631061   0.000000
     4  C    1.525713   2.593049   4.475852   0.000000
     5  C    6.916291   4.878201   2.501764   6.447867   0.000000
     6  O    6.035588   4.081618   2.855174   5.837439   1.415986
     7  C    1.516899   2.462925   4.846264   2.490512   5.932488
     8  C    4.111970   2.490867   1.527873   3.570340   2.886292
     9  C    6.565085   4.387939   1.530153   5.792775   1.520462
    10  C    4.824599   3.392011   2.496269   4.697476   2.364287
    11  O    2.443724   1.402826   4.438130   2.879100   5.322094
    12  O    3.934908   1.405951   2.390744   3.390210   3.518969
    13  C    2.491496   1.533786   4.046313   1.529569   5.877793
    14  H    1.087531   3.258574   6.173470   2.153875   7.691846
    15  H    1.086123   3.938542   5.898193   2.170542   7.490283
    16  H    5.687879   4.451771   1.087486   4.856542   2.796892
    17  H    2.161718   3.498992   5.257851   1.085638   7.387693
    18  H    2.151526   2.973143   3.839586   1.085643   5.921934
    19  H    2.150811   2.865488   4.303819   2.795026   5.331215
    20  H    2.159108   3.299660   5.787692   3.440590   6.591786
    21  H    6.620428   4.097227   2.163466   5.835292   2.139898
    22  H    7.453163   5.359365   2.162780   6.563382   2.140499
    23  H    5.221664   4.273005   2.778189   5.112332   2.626359
    24  H    4.418953   3.225796   3.444213   4.621901   3.264436
    25  H    2.784304   2.110661   5.058384   2.130448   6.780445
    26  H    3.447573   2.137938   3.641552   2.176875   5.689221
    27  H    3.726998   1.077936   4.270975   3.446615   5.245733
    28  H    7.241543   5.556672   2.797533   6.796471   1.088132
    29  H    7.823770   5.590687   3.453050   7.381292   1.081517
    30  H    5.312205   3.619007   1.084883   4.192484   3.451802
    31  H    3.372654   2.609129   2.139844   2.830959   3.819310
                    6          7          8          9         10
     6  O    0.000000
     7  C    4.869478   0.000000
     8  C    2.431028   3.393686   0.000000
     9  C    2.420314   5.864037   2.526384   0.000000
    10  C    1.412255   3.705765   1.523168   2.871795   0.000000
    11  O    4.234539   1.424205   3.004468   5.195248   3.380896
    12  O    2.908498   3.262134   1.420965   2.991479   2.414768
    13  C    5.296780   2.877380   3.210350   5.103329   4.445127
    14  H    6.754298   2.140930   4.934471   7.311346   5.644444
    15  H    6.630857   2.130356   4.716795   7.207081   5.318608
    16  H    3.289454   5.235117   2.129890   2.149948   2.783041
    17  H    6.863712   3.439950   4.536687   6.608459   5.739491
    18  H    5.445159   2.779934   3.085626   5.277401   4.230977
    19  H    4.330200   1.083649   2.881799   5.372799   3.023041
    20  H    5.398078   1.081137   4.288789   6.701025   4.309523
    21  H    2.722899   5.933457   2.853708   1.085878   3.322123
    22  H    3.346164   6.847978   3.465210   1.086237   3.832885
    23  H    2.050509   4.182085   2.141558   3.266620   1.087796
    24  H    2.006967   3.088390   2.162157   3.841311   1.079533
    25  H    6.138747   3.348753   4.217965   6.004384   5.367084
    26  H    5.364650   3.829892   3.225230   4.675097   4.647004
    27  H    4.455396   3.270245   3.291496   4.742090   4.063196
    28  H    2.046668   6.280854   3.283053   2.158227   2.625156
    29  H    2.009441   6.779273   3.857707   2.165155   3.263822
    30  H    3.824427   5.096738   2.150543   2.171849   3.436470
    31  H    3.339853   2.877821   1.078940   3.446235   2.130546
                   11         12         13         14         15
    11  O    0.000000
    12  O    2.342970   0.000000
    13  C    2.452015   2.471494   0.000000
    14  H    2.742311   4.493112   2.763556   0.000000
    15  H    3.360666   4.796780   3.450350   1.753303   0.000000
    16  H    5.089503   3.311519   4.737998   6.623559   6.062228
    17  H    3.860936   4.327612   2.145590   2.466249   2.539460
    18  H    3.293632   3.333699   2.173251   3.047215   2.466416
    19  H    2.061500   3.209139   3.330949   3.040228   2.431566
    20  H    1.996622   4.129027   3.826461   2.440188   2.511541
    21  H    5.038403   2.770580   4.887060   7.233974   7.390410
    22  H    6.233153   3.989791   5.915921   8.224529   8.049925
    23  H    4.178400   3.342380   5.130894   6.149457   5.516963
    24  H    2.794777   2.642857   4.420955   5.150733   4.915566
    25  H    2.841222   3.285127   1.086869   2.616248   3.778415
    26  H    3.339567   2.547123   1.084230   3.784245   4.302277
    27  H    1.972074   1.944552   2.133133   3.791560   4.789421
    28  H    5.894375   4.232978   6.445958   8.111589   7.677542
    29  H    6.038966   4.254263   6.681711   8.536278   8.448966
    30  H    4.664104   2.586207   3.673565   6.070524   5.909517
    31  H    2.931846   2.066028   2.928634   4.315833   3.827894
                   16         17         18         19         20
    16  H    0.000000
    17  H    5.592304   0.000000
    18  H    4.026350   1.742896   0.000000
    19  H    4.514536   3.793926   2.647518   0.000000
    20  H    6.154065   4.281326   3.790784   1.749027   0.000000
    21  H    3.049238   6.628524   5.506601   5.629074   6.753470
    22  H    2.441717   7.292469   5.972353   6.314440   7.716984
    23  H    2.623938   6.110662   4.460626   3.286521   4.748444
    24  H    3.782642   5.703649   4.332043   2.506475   3.486540
    25  H    5.800335   2.384601   3.038405   4.046989   4.113059
    26  H    4.368618   2.543491   2.479734   4.095648   4.830930
    27  H    5.209881   4.209281   3.964398   3.812331   3.916009
    28  H    2.654891   7.720529   6.128874   5.525397   6.925978
    29  H    3.803143   8.322819   6.922725   6.246010   7.373651
    30  H    1.750408   4.806689   3.618479   4.704230   6.117774
    31  H    2.375893   3.782143   2.170245   2.251682   3.845333
                   21         22         23         24         25
    21  H    0.000000
    22  H    1.749420   0.000000
    23  H    3.976844   4.033581   0.000000
    24  H    4.113903   4.850502   1.760696   0.000000
    25  H    5.653671   6.818622   6.115799   5.223669   0.000000
    26  H    4.428473   5.350583   5.302636   4.858887   1.744206
    27  H    4.212824   5.702325   5.049729   3.855224   2.251403
    28  H    3.044539   2.451646   2.415573   3.573780   7.420624
    29  H    2.441608   2.526369   3.578801   4.012631   7.511258
    30  H    2.471612   2.549379   3.778254   4.272415   4.634589
    31  H    3.850650   4.263265   2.400632   2.526338   3.987006
                   26         27         28         29         30
    26  H    0.000000
    27  H    2.582929   0.000000
    28  H    6.266080   6.066271   0.000000
    29  H    6.472795   5.790108   1.759130   0.000000
    30  H    3.020045   4.201667   3.807904   4.295359   0.000000
    31  H    3.073780   3.610523   4.012171   4.842360   2.513669
                   31
    31  H    0.000000
 Stoichiometry    C10H18O3
 Framework group  C1[X(C10H18O3)]
 Deg. of freedom    87
 Full point group                 C1      NOp   1
 Largest Abelian subgroup         C1      NOp   1
 Largest concise Abelian subgroup C1      NOp   1
                         Standard orientation:                         
 ---------------------------------------------------------------------
 Center     Atomic      Atomic             Coordinates (Angstroms)
 Number     Number       Type             X           Y           Z
 ---------------------------------------------------------------------
      1          6           0        3.334002   -0.350780   -0.712831
      2          6           0        1.153632    0.230529    1.156929
      3          6           0       -1.759929    1.262034   -0.748789
      4          6           0        2.710469    1.041158   -0.751747
      5          6           0       -3.547409   -0.329125   -0.019440
      6          8           0       -2.543357   -1.273930    0.303420
      7          6           0        2.283790   -1.375857   -0.329094
      8          6           0       -0.738041    0.162953   -0.462152
      9          6           0       -3.018446    1.090953    0.104578
     10          6           0       -1.411910   -1.200902   -0.538577
     11          8           0        1.643048   -1.059365    0.902832
     12          8           0       -0.208274    0.375229    0.839166
     13          6           0        2.054951    1.338491    0.597872
     14          1           0        4.144247   -0.372977    0.012244
     15          1           0        3.751023   -0.623370   -1.677948
     16          1           0       -2.028705    1.201530   -1.800799
     17          1           0        3.467036    1.793529   -0.952132
     18          1           0        1.989188    1.098691   -1.561107
     19          1           0        1.543333   -1.472496   -1.114384
     20          1           0        2.725227   -2.349798   -0.169629
     21          1           0       -2.800989    1.302048    1.147306
     22          1           0       -3.787840    1.789036   -0.212635
     23          1           0       -1.710924   -1.392558   -1.566759
     24          1           0       -0.741868   -1.985794   -0.221749
     25          1           0        2.847007    1.478658    1.328820
     26          1           0        1.484074    2.259864    0.570938
     27          1           0        1.147272    0.310656    2.231864
     28          1           0       -3.898560   -0.519095   -1.031683
     29          1           0       -4.366019   -0.508673    0.664168
     30          1           0       -1.305445    2.233591   -0.586026
     31          1           0        0.043959    0.204960   -1.204326
 ---------------------------------------------------------------------
 Rotational constants (GHZ):           1.7194646           0.4769910           0.4366219
 Standard basis: 6-311++G(2d,2p) (5D, 7F)
 There are   557 symmetry adapted cartesian basis functions of A   symmetry.
 There are   531 symmetry adapted basis functions of A   symmetry.
   531 basis functions,   762 primitive gaussians,   557 cartesian basis functions
    51 alpha electrons       51 beta electrons
       nuclear repulsion energy       908.5944960395 Hartrees.
 NAtoms=   31 NActive=   31 NUniq=   31 SFac= 1.00D+00 NAtFMM=   60 NAOKFM=F Big=F
 Integral buffers will be    131072 words long.
 Raffenetti 2 integral format.
 Two-electron integral symmetry is turned on.
 ------------------------------------------------------------------------------
 Polarizable Continuum Model (PCM)
 =================================
 Model                : PCM.
 Atomic radii         : UFF (Universal Force Field).
 Polarization charges : Total charges.
 Charge compensation  : None.
 Solution method      : On-the-fly selection.
 Cavity type          : Scaled VdW (van der Waals Surface) (Alpha=1.100).
 Cavity algorithm     : GePol (No added spheres)
                        Default sphere list used, NSphG=   31.
                        Lebedev-Laikov grids with approx.  5.0 points / Ang**2.
                        Smoothing algorithm: York/Karplus (Gamma=1.0000).
                        Polarization charges: spherical gaussians, with
                                              point-specific exponents (IZeta= 3).
                        Self-potential: point-specific (ISelfS= 7).
                        Self-field    : sphere-specific E.n sum rule (ISelfD= 2).
 1st derivatives      : Analytical E(r).r(x)/FMM algorithm (CHGder, D1EAlg=3).
                        Cavity 1st derivative terms included.
 Solvent              : Water, Eps=  78.355300 Eps(inf)=   1.777849
 ------------------------------------------------------------------------------
 One-electron integrals computed using PRISM.
 NBasis=   531 RedAO= T EigKep=  5.36D-06  NBF=   531
 NBsUse=   531 1.00D-06 EigRej= -1.00D+00 NBFU=   531
 ExpMin= 3.60D-02 ExpMax= 8.59D+03 ExpMxC= 1.30D+03 IAcc=3 IRadAn=         5 AccDes= 0.00D+00
 Harris functional with IExCor= 1009 and IRadAn=       5 diagonalized for initial guess.
 HarFok:  IExCor= 1009 AccDes= 0.00D+00 IRadAn=         5 IDoV= 1 UseB2=F ITyADJ=14
 ICtDFT=  3500011 ScaDFX=  1.000000  1.000000  1.000000  1.000000
 FoFCou: FMM=F IPFlag=           0 FMFlag=      100000 FMFlg1=           0
         NFxFlg=           0 DoJE=T BraDBF=F KetDBF=T FulRan=T
         wScrn=  0.000000 ICntrl=       500 IOpCl=  0 I1Cent=   200000004 NGrid=           0
         NMat0=    1 NMatS0=      1 NMatT0=    0 NMatD0=    1 NMtDS0=    0 NMtDT0=    0
 Petite list used in FoFCou.
 Requested convergence on RMS density matrix=1.00D-08 within 128 cycles.
 Requested convergence on MAX density matrix=1.00D-06.
 Requested convergence on             energy=1.00D-06.
 No special actions if energy rises.
 Inv3:  Mode=1 IEnd=    12558348.
 Iteration    1 A*A^-1 deviation from unit magnitude is 4.11D-15 for   2025.
 Iteration    1 A*A^-1 deviation from orthogonality  is 2.12D-15 for   2025    891.
 Iteration    1 A^-1*A deviation from unit magnitude is 4.11D-15 for   2025.
 Iteration    1 A^-1*A deviation from orthogonality  is 3.50D-15 for   1741   1721.
 Error on total polarization charges =  0.01466
 SCF Done:  E(RM062X) =  -617.489513404     A.U. after   12 cycles
            NFock= 12  Conv=0.67D-08     -V/T= 2.0035

 **********************************************************************

            Population analysis using the SCF density.

 **********************************************************************

 Orbital symmetries:
       Occupied  (A) (A) (A) (A) (A) (A) (A) (A) (A) (A) (A) (A)
                 (A) (A) (A) (A) (A) (A) (A) (A) (A) (A) (A) (A)
                 (A) (A) (A) (A) (A) (A) (A) (A) (A) (A) (A) (A)
                 (A) (A) (A) (A) (A) (A) (A) (A) (A) (A) (A) (A)
                 (A) (A) (A)
       Virtual   (A) (A) (A) (A) (A) (A) (A) (A) (A) (A) (A) (A)
                 (A) (A) (A) (A) (A) (A) (A) (A) (A) (A) (A) (A)
                 (A) (A) (A) (A) (A) (A) (A) (A) (A) (A) (A) (A)
                 (A) (A) (A) (A) (A) (A) (A) (A) (A) (A) (A) (A)
                 (A) (A) (A) (A) (A) (A) (A) (A) (A) (A) (A) (A)
                 (A) (A) (A) (A) (A) (A) (A) (A) (A) (A) (A) (A)
                 (A) (A) (A) (A) (A) (A) (A) (A) (A) (A) (A) (A)
                 (A) (A) (A) (A) (A) (A) (A) (A) (A) (A) (A) (A)
                 (A) (A) (A) (A) (A) (A) (A) (A) (A) (A) (A) (A)
                 (A) (A) (A) (A) (A) (A) (A) (A) (A) (A) (A) (A)
                 (A) (A) (A) (A) (A) (A) (A) (A) (A) (A) (A) (A)
                 (A) (A) (A) (A) (A) (A) (A) (A) (A) (A) (A) (A)
                 (A) (A) (A) (A) (A) (A) (A) (A) (A) (A) (A) (A)
                 (A) (A) (A) (A) (A) (A) (A) (A) (A) (A) (A) (A)
                 (A) (A) (A) (A) (A) (A) (A) (A) (A) (A) (A) (A)
                 (A) (A) (A) (A) (A) (A) (A) (A) (A) (A) (A) (A)
                 (A) (A) (A) (A) (A) (A) (A) (A) (A) (A) (A) (A)
                 (A) (A) (A) (A) (A) (A) (A) (A) (A) (A) (A) (A)
                 (A) (A) (A) (A) (A) (A) (A) (A) (A) (A) (A) (A)
                 (A) (A) (A) (A) (A) (A) (A) (A) (A) (A) (A) (A)
                 (A) (A) (A) (A) (A) (A) (A) (A) (A) (A) (A) (A)
                 (A) (A) (A) (A) (A) (A) (A) (A) (A) (A) (A) (A)
                 (A) (A) (A) (A) (A) (A) (A) (A) (A) (A) (A) (A)
                 (A) (A) (A) (A) (A) (A) (A) (A) (A) (A) (A) (A)
                 (A) (A) (A) (A) (A) (A) (A) (A) (A) (A) (A) (A)
                 (A) (A) (A) (A) (A) (A) (A) (A) (A) (A) (A) (A)
                 (A) (A) (A) (A) (A) (A) (A) (A) (A) (A) (A) (A)
                 (A) (A) (A) (A) (A) (A) (A) (A) (A) (A) (A) (A)
                 (A) (A) (A) (A) (A) (A) (A) (A) (A) (A) (A) (A)
                 (A) (A) (A) (A) (A) (A) (A) (A) (A) (A) (A) (A)
                 (A) (A) (A) (A) (A) (A) (A) (A) (A) (A) (A) (A)
                 (A) (A) (A) (A) (A) (A) (A) (A) (A) (A) (A) (A)
                 (A) (A) (A) (A) (A) (A) (A) (A) (A) (A) (A) (A)
                 (A) (A) (A) (A) (A) (A) (A) (A) (A) (A) (A) (A)
                 (A) (A) (A) (A) (A) (A) (A) (A) (A) (A) (A) (A)
                 (A) (A) (A) (A) (A) (A) (A) (A) (A) (A) (A) (A)
                 (A) (A) (A) (A) (A) (A) (A) (A) (A) (A) (A) (A)
                 (A) (A) (A) (A) (A) (A) (A) (A) (A) (A) (A) (A)
                 (A) (A) (A) (A) (A) (A) (A) (A) (A) (A) (A) (A)
                 (A) (A) (A) (A) (A) (A) (A) (A) (A) (A) (A) (A)
 The electronic state is 1-A.
 Alpha  occ. eigenvalues --  -19.62995 -19.62582 -19.62261 -10.63734 -10.58783
 Alpha  occ. eigenvalues --  -10.58122 -10.57688 -10.57665 -10.53272 -10.53135
 Alpha  occ. eigenvalues --  -10.53134 -10.53025 -10.52773  -1.19475  -1.16439
 Alpha  occ. eigenvalues --   -1.13224  -0.90709  -0.90363  -0.87509  -0.84771
 Alpha  occ. eigenvalues --   -0.75160  -0.74200  -0.73908  -0.71413  -0.66303
 Alpha  occ. eigenvalues --   -0.62822  -0.59713  -0.57995  -0.57407  -0.55421
 Alpha  occ. eigenvalues --   -0.54761  -0.53707  -0.52818  -0.50995  -0.50226
 Alpha  occ. eigenvalues --   -0.49258  -0.47058  -0.46376  -0.45512  -0.45146
 Alpha  occ. eigenvalues --   -0.43696  -0.41755  -0.41408  -0.40328  -0.38938
 Alpha  occ. eigenvalues --   -0.38447  -0.38211  -0.36446  -0.34074  -0.33469
 Alpha  occ. eigenvalues --   -0.31285
 Alpha virt. eigenvalues --   -0.00238   0.00704   0.00874   0.01182   0.02262
 Alpha virt. eigenvalues --    0.02548   0.02693   0.03203   0.03623   0.04590
 Alpha virt. eigenvalues --    0.04674   0.04832   0.05515   0.06022   0.07464
 Alpha virt. eigenvalues --    0.07566   0.08080   0.08476   0.08844   0.09264
 Alpha virt. eigenvalues --    0.09795   0.10733   0.10986   0.11400   0.11923
 Alpha virt. eigenvalues --    0.12281   0.12679   0.13013   0.13204   0.13378
 Alpha virt. eigenvalues --    0.13844   0.13972   0.14287   0.14588   0.14919
 Alpha virt. eigenvalues --    0.15114   0.15468   0.15627   0.16039   0.16121
 Alpha virt. eigenvalues --    0.16460   0.16751   0.17012   0.17191   0.17713
 Alpha virt. eigenvalues --    0.17899   0.18407   0.18575   0.19073   0.19600
 Alpha virt. eigenvalues --    0.19673   0.19741   0.20700   0.21128   0.21619
 Alpha virt. eigenvalues --    0.22081   0.22187   0.23334   0.23669   0.23846
 Alpha virt. eigenvalues --    0.24622   0.25293   0.25902   0.26400   0.26969
 Alpha virt. eigenvalues --    0.28256   0.28386   0.28905   0.29360   0.29712
 Alpha virt. eigenvalues --    0.30434   0.30801   0.31023   0.31869   0.32145
 Alpha virt. eigenvalues --    0.32466   0.33671   0.33863   0.34381   0.34708
 Alpha virt. eigenvalues --    0.34918   0.35108   0.35946   0.36363   0.36695
 Alpha virt. eigenvalues --    0.36827   0.37328   0.37670   0.37830   0.38397
 Alpha virt. eigenvalues --    0.38696   0.39600   0.39641   0.40025   0.40492
 Alpha virt. eigenvalues --    0.41004   0.42092   0.42662   0.44632   0.44754
 Alpha virt. eigenvalues --    0.47402   0.48631   0.49285   0.49899   0.50966
 Alpha virt. eigenvalues --    0.51139   0.52260   0.52466   0.54014   0.55060
 Alpha virt. eigenvalues --    0.55875   0.57276   0.57831   0.58171   0.59428
 Alpha virt. eigenvalues --    0.60416   0.60819   0.61145   0.61661   0.61855
 Alpha virt. eigenvalues --    0.62208   0.62852   0.63233   0.63764   0.64333
 Alpha virt. eigenvalues --    0.64697   0.65202   0.66404   0.66681   0.68074
 Alpha virt. eigenvalues --    0.68264   0.68581   0.68999   0.70202   0.70851
 Alpha virt. eigenvalues --    0.71174   0.71674   0.72419   0.72614   0.72977
 Alpha virt. eigenvalues --    0.73913   0.74197   0.74629   0.75447   0.76329
 Alpha virt. eigenvalues --    0.76890   0.76978   0.77783   0.77977   0.79407
 Alpha virt. eigenvalues --    0.80780   0.81614   0.83071   0.85343   0.85627
 Alpha virt. eigenvalues --    0.86493   0.87247   0.88231   0.88785   0.90126
 Alpha virt. eigenvalues --    0.90436   0.91137   0.92886   0.94885   0.96663
 Alpha virt. eigenvalues --    0.97109   0.98601   0.99762   1.00540   1.01870
 Alpha virt. eigenvalues --    1.03019   1.03610   1.04190   1.05106   1.06112
 Alpha virt. eigenvalues --    1.07246   1.07870   1.08919   1.11349   1.12891
 Alpha virt. eigenvalues --    1.13317   1.14677   1.15680   1.16298   1.16526
 Alpha virt. eigenvalues --    1.17678   1.18440   1.19130   1.19849   1.20482
 Alpha virt. eigenvalues --    1.21327   1.22613   1.23641   1.23941   1.24764
 Alpha virt. eigenvalues --    1.25003   1.25357   1.26377   1.26899   1.27176
 Alpha virt. eigenvalues --    1.27999   1.29125   1.30096   1.31804   1.32384
 Alpha virt. eigenvalues --    1.32933   1.33077   1.33938   1.34550   1.35675
 Alpha virt. eigenvalues --    1.35692   1.36411   1.37079   1.37529   1.37958
 Alpha virt. eigenvalues --    1.38374   1.40232   1.40796   1.41405   1.41652
 Alpha virt. eigenvalues --    1.42631   1.43226   1.43639   1.44618   1.45267
 Alpha virt. eigenvalues --    1.45749   1.46298   1.47484   1.47997   1.48973
 Alpha virt. eigenvalues --    1.49348   1.49936   1.50893   1.52580   1.53015
 Alpha virt. eigenvalues --    1.53688   1.53834   1.54405   1.55875   1.55933
 Alpha virt. eigenvalues --    1.56719   1.56939   1.57684   1.58293   1.58385
 Alpha virt. eigenvalues --    1.60160   1.60617   1.61632   1.62230   1.62659
 Alpha virt. eigenvalues --    1.63609   1.64516   1.65391   1.66486   1.67161
 Alpha virt. eigenvalues --    1.68080   1.68891   1.70189   1.71822   1.72814
 Alpha virt. eigenvalues --    1.74127   1.74364   1.75910   1.76476   1.76931
 Alpha virt. eigenvalues --    1.78985   1.79565   1.80138   1.80701   1.82854
 Alpha virt. eigenvalues --    1.85402   1.87436   1.89422   1.95135   1.98619
 Alpha virt. eigenvalues --    2.04395   2.06941   2.13539   2.14795   2.22057
 Alpha virt. eigenvalues --    2.24328   2.27272   2.28585   2.31664   2.39684
 Alpha virt. eigenvalues --    2.41157   2.44577   2.45585   2.47389   2.54809
 Alpha virt. eigenvalues --    2.56593   2.76928   2.77945   2.79738   2.81804
 Alpha virt. eigenvalues --    2.85189   2.86236   2.91975   2.93106   2.93749
 Alpha virt. eigenvalues --    2.95110   2.98349   2.99248   3.02367   3.03190
 Alpha virt. eigenvalues --    3.06398   3.07519   3.08168   3.10086   3.11478
 Alpha virt. eigenvalues --    3.12763   3.13322   3.15470   3.18782   3.20418
 Alpha virt. eigenvalues --    3.23636   3.28164   3.31289   3.33340   3.33653
 Alpha virt. eigenvalues --    3.34854   3.38153   3.38599   3.39359   3.40484
 Alpha virt. eigenvalues --    3.42936   3.43257   3.44860   3.45549   3.47754
 Alpha virt. eigenvalues --    3.48802   3.48916   3.49838   3.50998   3.51638
 Alpha virt. eigenvalues --    3.52745   3.54056   3.54511   3.55166   3.55428
 Alpha virt. eigenvalues --    3.57150   3.57971   3.58441   3.58979   3.59750
 Alpha virt. eigenvalues --    3.60832   3.61511   3.63227   3.64482   3.64886
 Alpha virt. eigenvalues --    3.66016   3.67498   3.67934   3.68929   3.69836
 Alpha virt. eigenvalues --    3.70504   3.71232   3.71691   3.72764   3.74452
 Alpha virt. eigenvalues --    3.75186   3.75786   3.76957   3.77559   3.78473
 Alpha virt. eigenvalues --    3.79271   3.80674   3.81792   3.82485   3.84282
 Alpha virt. eigenvalues --    3.85516   3.87698   3.89340   3.90311   3.91274
 Alpha virt. eigenvalues --    3.92285   3.93746   3.94830   3.96577   3.97589
 Alpha virt. eigenvalues --    3.98982   4.00597   4.02163   4.03432   4.04742
 Alpha virt. eigenvalues --    4.04979   4.06391   4.06501   4.06946   4.07306
 Alpha virt. eigenvalues --    4.08334   4.08684   4.09711   4.10656   4.11899
 Alpha virt. eigenvalues --    4.12778   4.13018   4.13421   4.15174   4.15652
 Alpha virt. eigenvalues --    4.16399   4.17342   4.19060   4.19614   4.20312
 Alpha virt. eigenvalues --    4.21006   4.24181   4.25083   4.27029   4.27760
 Alpha virt. eigenvalues --    4.28096   4.28844   4.29469   4.31567   4.32115
 Alpha virt. eigenvalues --    4.33206   4.34689   4.36686   4.38786   4.41090
 Alpha virt. eigenvalues --    4.41818   4.44396   4.45534   4.47534   4.50777
 Alpha virt. eigenvalues --    4.59017   4.60155   4.74218   4.75392   4.82117
 Alpha virt. eigenvalues --    4.86126   4.93028   4.94157   4.99321   5.04403
 Alpha virt. eigenvalues --    5.07117   5.07573   5.08209   5.08707   5.11652
 Alpha virt. eigenvalues --    5.13729   5.14232   5.15259   5.32054   5.36809
 Alpha virt. eigenvalues --    5.43103   5.58007   5.59556   5.62922   5.87051
 Alpha virt. eigenvalues --    5.87909   6.01607   7.00999   7.04508   7.06252
 Alpha virt. eigenvalues --    7.08677   7.10117   7.11900   7.13751   7.16179
 Alpha virt. eigenvalues --    7.28868   7.37318   7.42817   7.47787   7.52677
 Alpha virt. eigenvalues --    7.54738   7.63986  23.95755  23.97822  24.06706
 Alpha virt. eigenvalues --   24.06937  24.08039  24.13190  24.13423  24.15647
 Alpha virt. eigenvalues --   24.16793  24.18880  50.16897  50.18882  50.24648
          Condensed to atoms (all electrons):
               1          2          3          4          5          6
     1  C    6.290045  -0.107593   0.112606  -0.182251  -0.001896  -0.000210
     2  C   -0.107593   7.282226   0.196367   0.142193  -0.020858  -0.006639
     3  C    0.112606   0.196367   7.245212   0.002551  -0.171618  -0.005996
     4  C   -0.182251   0.142193   0.002551   5.813159  -0.004708   0.000087
     5  C   -0.001896  -0.020858  -0.171618  -0.004708   5.475863   0.079875
     6  O   -0.000210  -0.006639  -0.005996   0.000087   0.079875   8.282714
     7  C   -0.296140  -0.263617  -0.130193   0.046407   0.003078   0.002464
     8  C    0.106024  -0.816577  -0.998182  -0.057238   0.246688   0.025770
     9  C   -0.010443   0.148401  -0.098288   0.014349   0.067555   0.004710
    10  C   -0.063653   0.028223  -0.207474  -0.013826  -0.262980   0.129135
    11  O   -0.112434   0.248288   0.005358  -0.000893  -0.001670  -0.003566
    12  O   -0.030659   0.108195  -0.071834  -0.010959  -0.000579   0.023041
    13  C    0.052167  -1.025803  -0.163740  -0.304609   0.012418   0.000699
    14  H    0.431065   0.036963   0.001134   0.014461   0.000006  -0.000011
    15  H    0.452872  -0.010328   0.001429  -0.056762   0.000013   0.000058
    16  H   -0.004926  -0.006322   0.462850   0.001982  -0.016975  -0.000384
    17  H   -0.016899  -0.002811  -0.005106   0.409887   0.000006   0.000070
    18  H   -0.149871   0.048450  -0.003440   0.571888   0.001204  -0.000955
    19  H   -0.175692   0.045355  -0.021306   0.047323  -0.004906   0.001655
    20  H    0.001691  -0.012376  -0.003481   0.001224   0.000432   0.000446
    21  H    0.001188  -0.012310  -0.003624   0.000567  -0.102905  -0.011084
    22  H    0.000166   0.009403  -0.020188   0.000115  -0.021160   0.009203
    23  H    0.004637   0.003749  -0.012664  -0.000400  -0.010275  -0.048440
    24  H   -0.002647  -0.012177   0.021875  -0.002718   0.027143  -0.080266
    25  H   -0.014377  -0.059855   0.004565  -0.014686  -0.000147  -0.000010
    26  H   -0.018391  -0.105659  -0.028581  -0.047459   0.004220  -0.000136
    27  H    0.004705   0.515777  -0.002366  -0.007913  -0.000656   0.000856
    28  H    0.000328   0.001215  -0.010011   0.000115   0.456135  -0.055205
    29  H   -0.000160   0.000742  -0.002250  -0.000211   0.443328  -0.067429
    30  H    0.006555   0.009163   0.420525  -0.002825  -0.004242  -0.002096
    31  H    0.114617  -0.130442   0.066294  -0.066599  -0.007384   0.021473
               7          8          9         10         11         12
     1  C   -0.296140   0.106024  -0.010443  -0.063653  -0.112434  -0.030659
     2  C   -0.263617  -0.816577   0.148401   0.028223   0.248288   0.108195
     3  C   -0.130193  -0.998182  -0.098288  -0.207474   0.005358  -0.071834
     4  C    0.046407  -0.057238   0.014349  -0.013826  -0.000893  -0.010959
     5  C    0.003078   0.246688   0.067555  -0.262980  -0.001670  -0.000579
     6  O    0.002464   0.025770   0.004710   0.129135  -0.003566   0.023041
     7  C    5.557179   0.025301  -0.004472   0.044240   0.213546   0.055396
     8  C    0.025301   7.679352  -0.340983  -0.621289   0.016705   0.164332
     9  C   -0.004472  -0.340983   5.652636   0.175721  -0.010740  -0.039430
    10  C    0.044240  -0.621289   0.175721   6.434513  -0.013049  -0.117737
    11  O    0.213546   0.016705  -0.010740  -0.013049   8.123497  -0.009635
    12  O    0.055396   0.164332  -0.039430  -0.117737  -0.009635   8.268196
    13  C    0.146783   0.255346  -0.041359   0.072072  -0.028060  -0.034772
    14  H   -0.064616  -0.007474   0.000381   0.001489  -0.005225   0.000028
    15  H   -0.034931   0.001332  -0.000297  -0.001785   0.008593  -0.000955
    16  H    0.001959  -0.061332  -0.017740   0.012162   0.000431   0.004721
    17  H    0.014276  -0.001976   0.000702   0.003266  -0.000805  -0.001770
    18  H    0.022907  -0.014294   0.008331   0.000545  -0.004475   0.002468
    19  H    0.516012  -0.087226   0.010544   0.075916  -0.044550   0.006677
    20  H    0.408512   0.010790  -0.000804  -0.000962  -0.056969   0.000287
    21  H   -0.000840  -0.027777   0.503599   0.019966   0.001443   0.000362
    22  H   -0.000800  -0.025577   0.430704  -0.006917  -0.000281   0.000280
    23  H   -0.000209  -0.054453   0.031539   0.426222   0.002131   0.010863
    24  H    0.003086  -0.019616  -0.012333   0.403081   0.004170  -0.013283
    25  H    0.007424   0.009710  -0.000556  -0.004368  -0.014527  -0.000297
    26  H    0.017717   0.028304  -0.000497   0.003251   0.012183  -0.003316
    27  H   -0.028473  -0.040899   0.008162   0.022711  -0.057180  -0.071949
    28  H   -0.000356   0.017103  -0.022313  -0.036499  -0.000105   0.001887
    29  H    0.000331   0.014469  -0.058130   0.007151  -0.000116   0.000855
    30  H   -0.003940  -0.007867  -0.019155  -0.017384  -0.001463   0.006333
    31  H   -0.040601   0.461884  -0.103261  -0.093492   0.016531  -0.014147
              13         14         15         16         17         18
     1  C    0.052167   0.431065   0.452872  -0.004926  -0.016899  -0.149871
     2  C   -1.025803   0.036963  -0.010328  -0.006322  -0.002811   0.048450
     3  C   -0.163740   0.001134   0.001429   0.462850  -0.005106  -0.003440
     4  C   -0.304609   0.014461  -0.056762   0.001982   0.409887   0.571888
     5  C    0.012418   0.000006   0.000013  -0.016975   0.000006   0.001204
     6  O    0.000699  -0.000011   0.000058  -0.000384   0.000070  -0.000955
     7  C    0.146783  -0.064616  -0.034931   0.001959   0.014276   0.022907
     8  C    0.255346  -0.007474   0.001332  -0.061332  -0.001976  -0.014294
     9  C   -0.041359   0.000381  -0.000297  -0.017740   0.000702   0.008331
    10  C    0.072072   0.001489  -0.001785   0.012162   0.003266   0.000545
    11  O   -0.028060  -0.005225   0.008593   0.000431  -0.000805  -0.004475
    12  O   -0.034772   0.000028  -0.000955   0.004721  -0.001770   0.002468
    13  C    6.462961  -0.045429   0.017694   0.006055  -0.035526  -0.095469
    14  H   -0.045429   0.472831  -0.006617   0.000047  -0.001088   0.002682
    15  H    0.017694  -0.006617   0.474582  -0.000343  -0.005684  -0.006938
    16  H    0.006055   0.000047  -0.000343   0.437440  -0.000059   0.001876
    17  H   -0.035526  -0.001088  -0.005684  -0.000059   0.459857  -0.009776
    18  H   -0.095469   0.002682  -0.006938   0.001876  -0.009776   0.485354
    19  H   -0.014573   0.006123  -0.003927   0.003963  -0.000743   0.009423
    20  H    0.006682  -0.005288  -0.009294  -0.000076   0.002058  -0.002779
    21  H    0.002959  -0.000011  -0.000007   0.004455   0.000012  -0.000376
    22  H   -0.003369   0.000018  -0.000013  -0.009044  -0.000067   0.000603
    23  H   -0.002663  -0.000160   0.000074  -0.005116  -0.000014   0.002831
    24  H    0.003315   0.000606  -0.000112  -0.003015  -0.000159  -0.000424
    25  H    0.460493  -0.003908  -0.001291  -0.000090  -0.009362   0.003851
    26  H    0.498220  -0.002184   0.000816   0.001521  -0.005549  -0.003048
    27  H   -0.041809   0.003530   0.000371  -0.000465   0.001763   0.000823
    28  H   -0.001139   0.000004   0.000041  -0.005687   0.000006  -0.000140
    29  H    0.000851  -0.000004  -0.000010  -0.001406   0.000004   0.000063
    30  H   -0.003994  -0.000054   0.000180  -0.003949   0.000182  -0.001340
    31  H    0.046946  -0.004197   0.005929  -0.023538   0.006090  -0.052931
              19         20         21         22         23         24
     1  C   -0.175692   0.001691   0.001188   0.000166   0.004637  -0.002647
     2  C    0.045355  -0.012376  -0.012310   0.009403   0.003749  -0.012177
     3  C   -0.021306  -0.003481  -0.003624  -0.020188  -0.012664   0.021875
     4  C    0.047323   0.001224   0.000567   0.000115  -0.000400  -0.002718
     5  C   -0.004906   0.000432  -0.102905  -0.021160  -0.010275   0.027143
     6  O    0.001655   0.000446  -0.011084   0.009203  -0.048440  -0.080266
     7  C    0.516012   0.408512  -0.000840  -0.000800  -0.000209   0.003086
     8  C   -0.087226   0.010790  -0.027777  -0.025577  -0.054453  -0.019616
     9  C    0.010544  -0.000804   0.503599   0.430704   0.031539  -0.012333
    10  C    0.075916  -0.000962   0.019966  -0.006917   0.426222   0.403081
    11  O   -0.044550  -0.056969   0.001443  -0.000281   0.002131   0.004170
    12  O    0.006677   0.000287   0.000362   0.000280   0.010863  -0.013283
    13  C   -0.014573   0.006682   0.002959  -0.003369  -0.002663   0.003315
    14  H    0.006123  -0.005288  -0.000011   0.000018  -0.000160   0.000606
    15  H   -0.003927  -0.009294  -0.000007  -0.000013   0.000074  -0.000112
    16  H    0.003963  -0.000076   0.004455  -0.009044  -0.005116  -0.003015
    17  H   -0.000743   0.002058   0.000012  -0.000067  -0.000014  -0.000159
    18  H    0.009423  -0.002779  -0.000376   0.000603   0.002831  -0.000424
    19  H    0.566767  -0.023850   0.000782  -0.000109  -0.007244  -0.004487
    20  H   -0.023850   0.457844  -0.000043  -0.000042   0.001058  -0.003637
    21  H    0.000782  -0.000043   0.474641  -0.011989  -0.000726  -0.002484
    22  H   -0.000109  -0.000042  -0.011989   0.478590   0.000304   0.002074
    23  H   -0.007244   0.001058  -0.000726   0.000304   0.488357  -0.012152
    24  H   -0.004487  -0.003637  -0.002484   0.002074  -0.012152   0.480771
    25  H   -0.001996   0.001303  -0.000006   0.000044   0.000586  -0.000624
    26  H    0.002552   0.000247  -0.000602  -0.000240  -0.001362   0.000825
    27  H   -0.000744   0.000470  -0.002514   0.000357   0.000396  -0.002435
    28  H   -0.000450  -0.000028   0.000032   0.005992   0.007650  -0.001645
    29  H   -0.000035   0.000052  -0.003575  -0.009872  -0.001447   0.001032
    30  H   -0.002379   0.000141  -0.000793  -0.009102  -0.000285   0.000215
    31  H   -0.061018   0.005681  -0.001328  -0.001179  -0.022414   0.001858
              25         26         27         28         29         30
     1  C   -0.014377  -0.018391   0.004705   0.000328  -0.000160   0.006555
     2  C   -0.059855  -0.105659   0.515777   0.001215   0.000742   0.009163
     3  C    0.004565  -0.028581  -0.002366  -0.010011  -0.002250   0.420525
     4  C   -0.014686  -0.047459  -0.007913   0.000115  -0.000211  -0.002825
     5  C   -0.000147   0.004220  -0.000656   0.456135   0.443328  -0.004242
     6  O   -0.000010  -0.000136   0.000856  -0.055205  -0.067429  -0.002096
     7  C    0.007424   0.017717  -0.028473  -0.000356   0.000331  -0.003940
     8  C    0.009710   0.028304  -0.040899   0.017103   0.014469  -0.007867
     9  C   -0.000556  -0.000497   0.008162  -0.022313  -0.058130  -0.019155
    10  C   -0.004368   0.003251   0.022711  -0.036499   0.007151  -0.017384
    11  O   -0.014527   0.012183  -0.057180  -0.000105  -0.000116  -0.001463
    12  O   -0.000297  -0.003316  -0.071949   0.001887   0.000855   0.006333
    13  C    0.460493   0.498220  -0.041809  -0.001139   0.000851  -0.003994
    14  H   -0.003908  -0.002184   0.003530   0.000004  -0.000004  -0.000054
    15  H   -0.001291   0.000816   0.000371   0.000041  -0.000010   0.000180
    16  H   -0.000090   0.001521  -0.000465  -0.005687  -0.001406  -0.003949
    17  H   -0.009362  -0.005549   0.001763   0.000006   0.000004   0.000182
    18  H    0.003851  -0.003048   0.000823  -0.000140   0.000063  -0.001340
    19  H   -0.001996   0.002552  -0.000744  -0.000450  -0.000035  -0.002379
    20  H    0.001303   0.000247   0.000470  -0.000028   0.000052   0.000141
    21  H   -0.000006  -0.000602  -0.002514   0.000032  -0.003575  -0.000793
    22  H    0.000044  -0.000240   0.000357   0.005992  -0.009872  -0.009102
    23  H    0.000586  -0.001362   0.000396   0.007650  -0.001447  -0.000285
    24  H   -0.000624   0.000825  -0.002435  -0.001645   0.001032   0.000215
    25  H    0.450772  -0.009322  -0.006218  -0.000006   0.000010   0.000915
    26  H   -0.009322   0.491137  -0.014084  -0.000307   0.000168  -0.008847
    27  H   -0.006218  -0.014084   0.470930   0.000102   0.000111   0.001420
    28  H   -0.000006  -0.000307   0.000102   0.501983  -0.005984   0.001599
    29  H    0.000010   0.000168   0.000111  -0.005984   0.479589   0.000133
    30  H    0.000915  -0.008847   0.001420   0.001599   0.000133   0.486857
    31  H   -0.002699  -0.001637  -0.002724   0.001997   0.000725  -0.002992
              31
     1  C    0.114617
     2  C   -0.130442
     3  C    0.066294
     4  C   -0.066599
     5  C   -0.007384
     6  O    0.021473
     7  C   -0.040601
     8  C    0.461884
     9  C   -0.103261
    10  C   -0.093492
    11  O    0.016531
    12  O   -0.014147
    13  C    0.046946
    14  H   -0.004197
    15  H    0.005929
    16  H   -0.023538
    17  H    0.006090
    18  H   -0.052931
    19  H   -0.061018
    20  H    0.005681
    21  H   -0.001328
    22  H   -0.001179
    23  H   -0.022414
    24  H    0.001858
    25  H   -0.002699
    26  H   -0.001637
    27  H   -0.002724
    28  H    0.001997
    29  H    0.000725
    30  H   -0.002992
    31  H    0.668633
 Mulliken charges:
               1
     1  C   -0.390421
     2  C   -0.231345
     3  C   -0.580425
     4  C   -0.292251
     5  C   -0.185004
     6  O   -0.299828
     7  C   -0.217430
     8  C    0.119651
     9  C   -0.276533
    10  C   -0.398248
    11  O   -0.287134
    12  O   -0.232598
    13  C   -0.203347
    14  H    0.174900
    15  H    0.175310
    16  H    0.221007
    17  H    0.199215
    18  H    0.182957
    19  H    0.162143
    20  H    0.220710
    21  H    0.172984
    22  H    0.182098
    23  H    0.199628
    24  H    0.224165
    25  H    0.204675
    26  H    0.190059
    27  H    0.247945
    28  H    0.143686
    29  H    0.201017
    30  H    0.158488
    31  H    0.213925
 Sum of Mulliken charges =  -0.00000
 Mulliken charges with hydrogens summed into heavy atoms:
               1
     1  C   -0.040212
     2  C    0.016600
     3  C   -0.200929
     4  C    0.089921
     5  C    0.159700
     6  O   -0.299828
     7  C    0.165422
     8  C    0.333576
     9  C    0.078549
    10  C    0.025545
    11  O   -0.287134
    12  O   -0.232598
    13  C    0.191387
 Electronic spatial extent (au):  <R**2>=           2765.6564
 Charge=             -0.0000 electrons
 Dipole moment (field-independent basis, Debye):
    X=              1.8219    Y=              2.4736    Z=             -3.9924  Tot=              5.0376
 Quadrupole moment (field-independent basis, Debye-Ang):
   XX=            -71.9222   YY=            -81.9146   ZZ=            -80.2644
   XY=             -3.4455   XZ=              1.8909   YZ=              4.2463
 Traceless Quadrupole moment (field-independent basis, Debye-Ang):
   XX=              6.1115   YY=             -3.8809   ZZ=             -2.2306
   XY=             -3.4455   XZ=              1.8909   YZ=              4.2463
 Octapole moment (field-independent basis, Debye-Ang**2):
  XXX=             -5.0763  YYY=             -1.3223  ZZZ=              4.6270  XYY=             10.1411
  XXY=             12.7158  XXZ=             -8.6577  XZZ=              0.1235  YZZ=              0.9791
  YYZ=             -4.5646  XYZ=              2.6189
 Hexadecapole moment (field-independent basis, Debye-Ang**3):
 XXXX=          -2541.8637 YYYY=           -627.5251 ZZZZ=           -355.8107 XXXY=            -29.9252
 XXXZ=             -2.5862 YYYX=            -19.6629 YYYZ=              4.0517 ZZZX=              6.9386
 ZZZY=              5.6784 XXYY=           -563.0485 XXZZ=           -503.8939 YYZZ=           -173.9662
 XXYZ=             15.5939 YYXZ=              2.2849 ZZXY=              6.3653
 N-N= 9.085944960395D+02 E-N=-3.259138417843D+03  KE= 6.153121508736D+02
 D1PCM: PCM CHGder 1st derivatives, ID1Alg=3 FixD1E=F DoIter=F DoCFld=F I1PDM=0.
 Calling FoFJK, ICntrl=      2127 FMM=F ISym2X=0 I1Cent= 0 IOpClX= 0 NMat=1 NMatS=1 NMatT=0.
 ***** Axes restored to original set *****
 -------------------------------------------------------------------
 Center     Atomic                   Forces (Hartrees/Bohr)
 Number     Number              X              Y              Z
 -------------------------------------------------------------------
      1        6          -0.002768687    0.000364642   -0.001316698
      2        6           0.002347488    0.001550982   -0.014605583
      3        6          -0.001369048   -0.003047379    0.001755969
      4        6          -0.000469733   -0.003061634    0.003598549
      5        6           0.006312784    0.003066299    0.000052808
      6        8           0.000076960   -0.005556681    0.006259241
      7        6           0.001167801    0.008306315    0.002345181
      8        6           0.001350393    0.001034768    0.003057198
      9        6           0.000578216   -0.001200002   -0.002153136
     10        6          -0.003651230    0.005626115    0.001264613
     11        8          -0.000459708   -0.007121519    0.007306378
     12        8          -0.008253942    0.001764010    0.008036530
     13        6          -0.000100596   -0.002240810   -0.002393500
     14        1           0.001855380   -0.000058325    0.002716834
     15        1           0.001240232   -0.000375845   -0.002477384
     16        1          -0.001170804   -0.000523740   -0.003500351
     17        1           0.001746137    0.001781435   -0.000764715
     18        1          -0.002834983   -0.000102021   -0.002798173
     19        1          -0.004600617   -0.000013963   -0.005896847
     20        1           0.001929802   -0.004110377    0.000359923
     21        1           0.001617060   -0.000134027    0.003047089
     22        1          -0.001733514    0.002111511   -0.000938862
     23        1          -0.001255758   -0.000506755   -0.006492545
     24        1           0.004943787   -0.003111442    0.002404871
     25        1           0.002900766    0.000381700    0.002137956
     26        1          -0.002361219    0.002569707   -0.000094565
     27        1          -0.000174997    0.000584842    0.007021382
     28        1          -0.001923741   -0.000000763   -0.006013433
     29        1          -0.003268360   -0.000658377    0.002819282
     30        1           0.001967453    0.002433525    0.000828523
     31        1           0.006362676    0.000247809   -0.005566535
 -------------------------------------------------------------------
 Cartesian Forces:  Max     0.014605583 RMS     0.003638005

 GradGradGradGradGradGradGradGradGradGradGradGradGradGradGradGradGradGrad
 Berny optimization.
 FormGI is forming the generalized inverse of G from B-inverse, IUseBI=4.
 Internal  Forces:  Max     0.024776820 RMS     0.002621573
 Search for a local minimum.
 Step number   1 out of a maximum of  186
 All quantities printed in internal units (Hartrees-Bohrs-Radians)
 Mixed Optimization -- RFO/linear search
 Second derivative matrix not updated -- first step.
 ITU=  0
     Eigenvalues ---    0.00525   0.00609   0.00723   0.00732   0.01259
     Eigenvalues ---    0.01414   0.01435   0.02535   0.02825   0.02994
     Eigenvalues ---    0.03103   0.03909   0.04370   0.04424   0.04731
     Eigenvalues ---    0.04756   0.04902   0.04999   0.05069   0.05101
     Eigenvalues ---    0.05311   0.05645   0.05728   0.05858   0.06175
     Eigenvalues ---    0.06216   0.06647   0.06689   0.07491   0.07811
     Eigenvalues ---    0.07930   0.07940   0.07956   0.08152   0.08602
     Eigenvalues ---    0.08791   0.09356   0.09402   0.10800   0.11702
     Eigenvalues ---    0.11717   0.11767   0.11918   0.12530   0.12583
     Eigenvalues ---    0.14573   0.15727   0.16240   0.17029   0.17516
     Eigenvalues ---    0.19872   0.21818   0.21889   0.25000   0.28118
     Eigenvalues ---    0.28587   0.28787   0.28887   0.28960   0.29133
     Eigenvalues ---    0.30104   0.30200   0.35029   0.35069   0.35100
     Eigenvalues ---    0.35105   0.35177   0.35251   0.35265   0.35293
     Eigenvalues ---    0.35321   0.35322   0.35411   0.35488   0.35557
     Eigenvalues ---    0.35812   0.35857   0.36051   0.36123   0.36245
     Eigenvalues ---    0.40589   0.41513   0.42147   0.42315   0.43851
     Eigenvalues ---    0.446481000.000001000.000001000.000001000.00000
     Eigenvalues --- 1000.000001000.000001000.000001000.000001000.00000
     Eigenvalues --- 1000.000001000.000001000.000001000.000001000.00000
     Eigenvalues --- 1000.000001000.000001000.000001000.000001000.00000
     Eigenvalues --- 1000.000001000.000001000.000001000.000001000.00000
     Eigenvalues --- 1000.000001000.000001000.000001000.000001000.00000
     Eigenvalues --- 1000.000001000.000001000.000001000.000001000.00000
     Eigenvalues --- 1000.000001000.000001000.000001000.000001000.00000
     Eigenvalues --- 1000.000001000.000001000.000001000.000001000.00000
     Eigenvalues --- 1000.000001000.000001000.000001000.000001000.00000
     Eigenvalues --- 1000.000001000.000001000.000001000.000001000.00000
     Eigenvalues --- 1000.000001000.000001000.000001000.000001000.00000
     Eigenvalues --- 1000.000001000.000001000.000001000.000001000.00000
     Eigenvalues --- 1000.000001000.000001000.000001000.000001000.00000
     Eigenvalues --- 1000.000001000.000001000.000001000.000001000.00000
     Eigenvalues --- 1000.000001000.000001000.000001000.000001000.00000
     Eigenvalues --- 1000.000001000.000001000.000001000.000001000.00000
     Eigenvalues --- 1000.000001000.000001000.000001000.000001000.00000
     Eigenvalues --- 1000.000001000.000001000.000001000.000001000.00000
     Eigenvalues --- 1000.000001000.000001000.000001000.000001000.00000
 RFO step:  Lambda=-5.75804299D-03 EMin= 5.25011608D-03
 Linear search not attempted -- first point.
 Iteration  1 RMS(Cart)=  0.13484370 RMS(Int)=  0.00325563
 Iteration  2 RMS(Cart)=  0.01015779 RMS(Int)=  0.00008777
 Iteration  3 RMS(Cart)=  0.00002579 RMS(Int)=  0.00008673
 Iteration  4 RMS(Cart)=  0.00000000 RMS(Int)=  0.00008673
 Iteration  1 RMS(Cart)=  0.00012197 RMS(Int)=  0.00002564
 Iteration  2 RMS(Cart)=  0.00006446 RMS(Int)=  0.00002866
 Iteration  3 RMS(Cart)=  0.00003407 RMS(Int)=  0.00003225
 Iteration  4 RMS(Cart)=  0.00001800 RMS(Int)=  0.00003454
 Iteration  5 RMS(Cart)=  0.00000952 RMS(Int)=  0.00003583
 Iteration  6 RMS(Cart)=  0.00000503 RMS(Int)=  0.00003654
 Iteration  7 RMS(Cart)=  0.00000266 RMS(Int)=  0.00003692
 Iteration  8 RMS(Cart)=  0.00000140 RMS(Int)=  0.00003712
 Iteration  9 RMS(Cart)=  0.00000074 RMS(Int)=  0.00003722
 Variable       Old X    -DE/DX   Delta X   Delta X   Delta X     New X
                                 (Linear)    (Quad)   (Total)
    R1        2.88318  -0.00126   0.00000  -0.00458  -0.00467   2.87851
    R2        2.86652   0.00004   0.00000  -0.00139  -0.00147   2.86505
    R3        2.05514   0.00319   0.00000   0.00895   0.00895   2.06409
    R4        2.05247   0.00277   0.00000   0.00774   0.00774   2.06021
    R5        2.65096   0.00289   0.00000   0.00665   0.00674   2.65769
    R6        2.65686  -0.00151   0.00000  -0.00333  -0.00333   2.65353
    R7        2.89844  -0.00052   0.00000  -0.00021  -0.00011   2.89832
    R8        2.03700   0.00705   0.00000   0.01914   0.01914   2.05614
    R9        2.88726  -0.00161   0.00000  -0.00584  -0.00586   2.88140
   R10        2.89157  -0.00123   0.00000  -0.00467  -0.00469   2.88688
   R11        2.05505   0.00370   0.00000   0.01038   0.01038   2.06543
   R12        2.05013   0.00313   0.00000   0.00869   0.00869   2.05882
   R13        2.89047  -0.00091   0.00000  -0.00265  -0.00262   2.88784
   R14        2.05156   0.00259   0.00000   0.00722   0.00722   2.05878
   R15        2.05157   0.00396   0.00000   0.01104   0.01104   2.06261
   R16        2.67583   0.00313   0.00000   0.00752   0.00755   2.68338
   R17        2.87326   0.00060   0.00000   0.00185   0.00183   2.87509
   R18        2.05627   0.00622   0.00000   0.01746   0.01746   2.07373
   R19        2.04377   0.00436   0.00000   0.01200   0.01200   2.05577
   R20        2.66878   0.00184   0.00000   0.00454   0.00455   2.67333
   R21        2.69136   0.00278   0.00000   0.00628   0.00626   2.69761
   R22        2.04780   0.00742   0.00000   0.02053   0.02053   2.06834
   R23        2.04305   0.00454   0.00000   0.01247   0.01247   2.05552
   R24        2.87837   0.00001   0.00000   0.00019   0.00021   2.87858
   R25        2.68524  -0.00036   0.00000  -0.00083  -0.00083   2.68441
   R26        2.03890   0.00845   0.00000   0.02303   0.02303   2.06193
   R27        2.05201   0.00323   0.00000   0.00899   0.00899   2.06100
   R28        2.05269   0.00286   0.00000   0.00798   0.00798   2.06067
   R29        2.05564   0.00657   0.00000   0.01844   0.01844   2.07408
   R30        2.04002   0.00604   0.00000   0.01648   0.01648   2.05650
   R31        2.05388   0.00360   0.00000   0.01007   0.01007   2.06396
   R32        2.04890   0.00343   0.00000   0.00951   0.00951   2.05840
    A1        1.91774  -0.00109   0.00000  -0.00652  -0.00672   1.91102
    A2        1.91783   0.00094   0.00000   0.00147   0.00154   1.91936
    A3        1.94252  -0.00049   0.00000  -0.00093  -0.00089   1.94163
    A4        1.91066   0.00003   0.00000  -0.00228  -0.00226   1.90840
    A5        1.89760   0.00064   0.00000   0.00474   0.00483   1.90243
    A6        1.87681  -0.00000   0.00000   0.00373   0.00370   1.88051
    A7        1.97322  -0.00186   0.00000  -0.02466  -0.02487   1.94835
    A8        1.97488   0.00364   0.00000   0.00742   0.00676   1.98164
    A9        1.82455  -0.00129   0.00000   0.01057   0.01064   1.83518
   A10        1.99600  -0.00288   0.00000  -0.02251  -0.02291   1.97309
   A11        1.78444   0.00215   0.00000   0.02403   0.02437   1.80881
   A12        1.88941   0.00032   0.00000   0.01296   0.01295   1.90237
   A13        1.94447   0.00005   0.00000  -0.01101  -0.01108   1.93340
   A14        1.88259   0.00001   0.00000   0.00568   0.00568   1.88827
   A15        1.91333  -0.00047   0.00000  -0.00619  -0.00616   1.90717
   A16        1.90711  -0.00018   0.00000   0.00373   0.00377   1.91088
   A17        1.94015   0.00033   0.00000   0.00278   0.00269   1.94284
   A18        1.87391   0.00025   0.00000   0.00580   0.00579   1.87970
   A19        1.90709   0.00173   0.00000  -0.00041  -0.00035   1.90674
   A20        1.93067  -0.00001   0.00000   0.00137   0.00136   1.93204
   A21        1.91653  -0.00111   0.00000  -0.00245  -0.00249   1.91404
   A22        1.90372  -0.00046   0.00000   0.00253   0.00254   1.90626
   A23        1.94204  -0.00051   0.00000  -0.00165  -0.00170   1.94033
   A24        1.86363   0.00032   0.00000   0.00069   0.00071   1.86434
   A25        1.93682   0.00126   0.00000   0.00785   0.00777   1.94459
   A26        1.90122   0.00105   0.00000   0.00837   0.00843   1.90965
   A27        1.85648  -0.00118   0.00000  -0.00534  -0.00531   1.85117
   A28        1.92965  -0.00125   0.00000  -0.00779  -0.00781   1.92185
   A29        1.94639  -0.00032   0.00000  -0.00375  -0.00375   1.94264
   A30        1.89099   0.00047   0.00000   0.00098   0.00095   1.89195
   A31        1.97975  -0.00383   0.00000  -0.02413  -0.02405   1.95569
   A32        1.96073   0.00268   0.00000   0.00892   0.00873   1.96946
   A33        1.92839  -0.00160   0.00000  -0.00642  -0.00639   1.92199
   A34        1.94270  -0.00057   0.00000  -0.00524  -0.00521   1.93749
   A35        1.91691   0.00025   0.00000   0.00495   0.00505   1.92196
   A36        1.82999  -0.00131   0.00000  -0.00211  -0.00205   1.82794
   A37        1.88131   0.00053   0.00000  -0.00005  -0.00010   1.88121
   A38        1.91644   0.00064   0.00000   0.00372   0.00365   1.92009
   A39        1.88988   0.00075   0.00000   0.00284   0.00287   1.89276
   A40        1.90467  -0.00036   0.00000   0.00409   0.00411   1.90878
   A41        1.92267  -0.00082   0.00000  -0.00512  -0.00509   1.91758
   A42        1.89758  -0.00031   0.00000  -0.00448  -0.00450   1.89308
   A43        1.93256   0.00012   0.00000  -0.00087  -0.00091   1.93164
   A44        1.92311  -0.00025   0.00000  -0.00566  -0.00570   1.91741
   A45        1.92740   0.00036   0.00000  -0.00268  -0.00267   1.92473
   A46        1.92608  -0.00073   0.00000  -0.00143  -0.00143   1.92465
   A47        1.90663  -0.00034   0.00000  -0.00132  -0.00138   1.90526
   A48        1.90709   0.00070   0.00000   0.00536   0.00541   1.91250
   A49        1.87270   0.00029   0.00000   0.00611   0.00610   1.87880
   A50        1.95070   0.00101   0.00000   0.00375   0.00378   1.95448
   A51        1.91155   0.00099   0.00000   0.01008   0.01005   1.92160
   A52        1.85948  -0.00018   0.00000   0.00068   0.00064   1.86012
   A53        1.90371  -0.00101   0.00000  -0.00284  -0.00291   1.90080
   A54        1.94089  -0.00170   0.00000  -0.01708  -0.01710   1.92378
   A55        1.89644   0.00096   0.00000   0.00595   0.00589   1.90232
   A56        2.11527  -0.00585   0.00000  -0.03180  -0.03152   2.08375
   A57        2.15646  -0.02478   0.00000  -0.09688  -0.09688   2.05958
   A58        2.01865  -0.00155   0.00000  -0.00841  -0.00841   2.01024
   A59        1.85071   0.00036   0.00000   0.00996   0.00995   1.86066
   A60        1.88968   0.00049   0.00000  -0.00787  -0.00798   1.88170
   A61        1.88195   0.00116   0.00000   0.00916   0.00923   1.89118
   A62        1.94865  -0.00027   0.00000  -0.00548  -0.00569   1.94296
   A63        1.86588  -0.00006   0.00000   0.00475   0.00480   1.87068
    D1        0.97147  -0.00007   0.00000   0.00279   0.00271   0.97418
    D2        3.06751   0.00046   0.00000   0.00650   0.00648   3.07398
    D3       -1.16311   0.00016   0.00000   0.00667   0.00664  -1.15647
    D4       -1.13187  -0.00001   0.00000   0.00881   0.00877  -1.12310
    D5        0.96417   0.00052   0.00000   0.01252   0.01254   0.97671
[...]
 00006660,-0.00002105,-0.00005277,-0.00005261,0.00006702,-0.00000764,0.
 00000215,0.00001251,0.00000101,-0.00000067,0.00000918,0.00002693,0.000
 04707,0.00001022,0.00000359,-0.00000063,-0.00000380,0.13537215,0.02198
 277,0.17852663,-0.00026184,-0.00028603,0.00304222,0.00821444,-0.017258
 08,0.00028521,-0.00006286,0.00000737,-0.00000596,-0.00591544,0.0094256
 2,-0.00187233,-0.00001678,-0.00000148,-0.00001919,0.00006021,0.0000576
 9,-0.00001165,-0.00060960,0.00023753,0.00099885,-0.00000961,-0.0000857
 1,-0.00010477,-0.00000528,0.00000346,0.00001709,0.00002306,-0.00009326
 ,-0.00001421,-0.00163176,-0.00562433,0.00076091,0.00131523,-0.00069433
 ,0.00018594,-0.11815501,0.12175922,-0.00650444,0.00020479,-0.00043006,
 0.00001440,0.00003707,0.00102938,0.00010458,0.00000880,0.00000643,0.00
 000897,-0.00010951,-0.00016977,-0.00029527,0.00067872,-0.00041332,0.00
 007363,0.00007327,-0.00000930,-0.00010830,0.00009821,0.00005314,-0.000
 14415,0.00000042,0.00000232,0.00000488,0.00001372,-0.00000106,-0.00000
 297,0.00000575,0.00001595,0.00001218,0.00002516,0.00002447,0.00001032,
 -0.01191064,0.02056645,-0.00074775,0.12771335,0.00027124,0.00116517,-0
 .00155017,0.01393104,-0.02057067,0.00013999,-0.00005988,-0.00008507,-0
 .00003789,0.00245098,-0.00437790,-0.00002062,-0.00001707,-0.00000886,-
 0.00001352,0.00002125,0.00005744,0.00000533,-0.00021181,0.00098700,0.0
 0137117,-0.00055814,-0.00025563,-0.00066917,-0.00000891,0.00001686,0.0
 0002465,0.00003928,-0.00008791,0.00008356,-0.00303892,-0.00508152,0.00
 178343,0.00195672,0.00308862,-0.00073113,0.11717961,-0.24561895,0.0114
 3156,0.00002109,0.00002833,0.00009531,0.00009080,-0.00035686,0.0001818
 3,0.00003189,0.00001739,0.00001710,0.00011922,0.00017095,-0.00032871,-
 0.00028650,0.00026983,-0.00004926,-0.00002192,-0.00004048,-0.00021264,
 0.00006255,-0.00005733,-0.00009415,-0.00000566,0.00000516,0.00000293,0
 .00001319,-0.00000179,0.00000234,0.00002169,0.00005845,0.00001081,0.00
 004506,0.00006854,0.00000561,-0.00242124,0.00483602,0.00038109,-0.1289
 6272,0.26580711,0.00251515,-0.00003727,-0.00596574,-0.00765690,0.00767
 610,-0.00091891,-0.00001004,-0.00001166,0.00003137,0.01540020,-0.02766
 733,0.00236054,-0.00001656,0.00000383,-0.00001755,0.00005832,0.0000262
 5,-0.00002212,0.00054645,0.00005691,-0.00086794,0.00005384,0.00009398,
 0.00011627,-0.00000688,0.00000217,0.00002078,-0.00000513,-0.00007685,-
 0.00000056,0.00148457,0.00278083,0.00025844,-0.00041185,-0.00049967,0.
 00083265,-0.00571878,0.01240006,-0.04813250,0.00015881,-0.00001458,0.0
 0013760,0.00060315,-0.00187056,0.00001617,0.00002449,0.00000410,0.0000
 0700,-0.00026450,0.00069979,0.00089817,-0.00102099,0.00028138,0.001510
 14,-0.00008821,0.00000731,0.00009349,-0.00011849,-0.00001726,0.0001580
 9,0.,0.00000140,-0.00000323,0.00001133,-0.00000200,-0.00000334,0.00000
 774,0.00001031,0.00000830,-0.00001739,-0.00000178,-0.00001117,-0.00990
 010,0.01890237,-0.00120954,0.00417047,-0.01218347,0.05098994,0.0002947
 3,-0.00016384,-0.00019842,-0.04205602,-0.00385742,0.00065129,-0.000322
 60,-0.00061408,-0.00161018,-0.00057941,-0.00284040,0.00051532,0.000177
 05,0.00000662,0.00009539,-0.00030406,-0.00010203,0.00010815,0.00202052
 ,0.00130902,0.00003300,-0.00352099,0.00268452,0.00169134,0.00009286,0.
 00005156,-0.00012978,0.00017698,0.00046799,-0.00068544,-0.00113505,0.0
 0853265,0.01207033,-0.02338637,-0.00187493,-0.04522316,-0.00195953,-0.
 00168599,0.01881275,-0.00007920,0.00000981,-0.00008618,-0.00000291,0.0
 0002613,0.00000364,-0.00049778,0.00038126,-0.00015848,-0.00044218,0.00
 011235,0.00063210,0.00001347,0.00006802,0.00033232,-0.00015757,0.00008
 952,0.00064789,-0.00006519,0.00013406,0.00018239,-0.00000118,-0.000028
 16,0.00004572,-0.00009471,0.00001412,0.00004765,-0.00018020,-0.0003213
 3,-0.00004872,-0.00001282,-0.00010805,0.00007670,0.00013383,0.00016256
 ,0.00123852,0.00007869,-0.00058899,0.00009277,0.07176408,0.00016191,-0
 .00041090,-0.00021120,-0.00444434,-0.04905705,-0.00904726,-0.00006120,
 0.00000274,-0.00016731,-0.00160428,-0.00377673,0.00029145,-0.00003631,
 0.00000523,-0.00000691,0.00004074,0.00005284,-0.00004650,-0.00311108,-
 0.00407499,0.00145669,0.00039323,0.00172182,-0.00025091,-0.00000155,-0
 .00000274,0.00001455,0.00020844,-0.00026154,0.00039219,0.01219508,-0.0
 1968993,-0.04147341,0.00207682,0.00420379,0.00331532,-0.00500752,0.003
 36927,0.02335693,0.00003606,0.00014980,0.00000736,0.00009293,0.0002879
 4,-0.00002745,-0.00003026,-0.00000258,-0.00000476,-0.00074032,0.000317
 44,0.00111403,0.00004665,0.00000088,0.00016959,0.00027267,-0.00029568,
 -0.00102313,0.00062428,-0.00038827,-0.00102957,-0.00000057,0.00000206,
 -0.00000098,0.00000871,-0.00000012,-0.00000237,0.00002351,0.00013999,-
 0.00000279,0.00003057,0.00008817,-0.00004292,0.00010823,0.00093536,0.0
 0018753,0.00071779,0.00008211,-0.00063792,-0.00189574,0.06673692,-0.00
 027905,0.00011524,-0.00001861,-0.00626289,-0.01793380,-0.31728986,-0.0
 0017186,-0.00035510,-0.00052764,0.00103321,0.00214385,0.00116512,0.000
 11655,-0.00001823,0.00006292,-0.00026965,-0.00007393,0.00001353,-0.001
 72293,-0.00039460,0.00313136,-0.00038140,0.00160201,0.00363487,-0.0000
 1489,0.00007931,-0.00006274,0.00011691,0.00018875,-0.00018375,0.005548
 57,-0.00907463,-0.00641713,-0.01111189,-0.00017874,-0.01140075,0.00144
 577,0.00018036,-0.01199366,0.00005786,-0.00001813,0.00005034,0.0000424
 2,-0.00002022,-0.00005571,-0.00018393,0.00013308,-0.00007313,0.0003390
 3,-0.00025010,-0.00067245,-0.00009208,0.00001883,0.00009170,0.00002137
 ,0.00001541,-0.00016065,0.00019556,-0.00014051,-0.00037374,0.00000771,
 -0.00001587,-0.00002510,-0.00006841,-0.00000167,0.00001674,-0.00007303
 ,-0.00008871,-0.00004634,0.00003348,0.00004558,0.00002550,0.00026412,-
 0.00015004,0.00120311,0.00018925,0.00037161,-0.00020774,0.01105984,0.0
 2383250,0.33980591,-0.00000082,0.00000113,-0.00000357,0.00005296,-0.00
 002139,0.00005794,0.00019823,0.00058346,-0.00102307,-0.00000341,-0.000
 00465,0.00000375,-0.06633026,-0.01424414,-0.04927335,-0.01908293,0.008
 32107,-0.02793460,0.00000972,-0.00000605,0.00000537,-0.00053401,0.0000
 2035,0.00027128,-0.00116489,-0.00357528,-0.00959804,0.00294849,-0.0004
 0312,-0.00525926,-0.00001171,0.00001602,0.00000940,0.00002031,-0.00003
 011,0.00014991,-0.00001397,0.00000531,-0.00000162,-0.00000286,-0.00000
 125,-0.00000054,-0.00000190,0.00000018,0.00000149,-0.00006048,-0.00020
 306,0.00020774,-0.00000485,-0.00000062,0.00000005,0.00000037,0.0000017
 2,-0.00000680,-0.00000449,-0.00000468,-0.00000981,-0.00000298,0.000002
 20,-0.00000131,0.00044234,-0.00162377,-0.00042744,0.00035220,-0.000092
 22,0.00015557,0.00046387,-0.00002776,0.00102471,0.00011444,0.00008807,
 0.00040124,-0.00000665,-0.00000335,0.00000058,0.00000051,0.00000136,-0
 .00000037,0.00000273,0.00000083,-0.00000433,0.07433207,0.00000354,-0.0
 0000218,0.00000912,-0.00001196,0.00001405,0.00003578,0.00122407,0.0014
 1638,-0.00082856,0.00000284,0.00000258,-0.00000484,-0.01348067,-0.0571
 4111,-0.04471388,0.01777078,-0.00195180,0.02600439,-0.00001881,0.00000
 856,-0.00002041,0.00009698,-0.00022659,-0.00032037,-0.00858396,-0.0068
 5698,-0.03208802,-0.00304491,0.00028874,0.00278569,-0.00000980,0.00003
 453,0.00000675,-0.00005493,0.00015219,-0.00000688,0.00000501,-0.000001
 20,-0.00000618,0.00000329,0.00000273,0.00000013,0.00000055,0.00000008,
 -0.00000127,-0.00020159,-0.00000411,0.00078428,0.00000357,0.00000064,0
 .00000079,0.00000052,-0.00000115,0.00000607,-0.00000226,0.00000307,0.0
 0001338,0.00000223,-0.00000118,0.00000370,-0.00255306,-0.00587839,-0.0
 0034490,0.00068035,0.00113712,0.00052251,-0.00054307,0.00004133,-0.000
 97724,-0.00010416,-0.00009737,-0.00015658,0.00000278,-0.00000062,0.000
 00063,-0.00000087,-0.00000139,0.00000087,0.00000870,-0.00000015,0.0000
 0360,0.00697650,0.06669810,-0.00000033,0.00000225,-0.00001105,0.000375
 12,-0.00009126,0.00012038,0.00029486,0.00062182,0.00081767,-0.00000941
 ,-0.00002115,0.00000970,-0.05285192,-0.04322744,-0.27156179,-0.0119941
 2,0.00822421,-0.00834215,0.00005998,-0.00000718,-0.00000536,-0.0002179
 0,0.00020685,0.00008883,0.00017480,-0.00154507,-0.00499573,0.00273491,
 0.00005854,0.00161586,-0.00011639,0.00006378,0.00002682,-0.00037660,-0
 .00021006,-0.00025169,-0.00003009,0.00002299,0.00000382,-0.00000931,-0
 .00000546,-0.00000186,-0.00000554,0.00000090,0.00000592,-0.00062317,-0
 .00010842,0.00031807,-0.00001766,-0.00000234,0.00000147,0.00000098,0.0
 0000788,-0.00001922,0.00001338,-0.00001215,-0.00002513,-0.00001670,0.0
 0000910,-0.00000286,0.00006528,-0.00091346,0.00126364,-0.00007887,-0.0
 0067594,0.00013624,-0.00157728,-0.00017922,0.00058820,-0.00015227,0.00
 012286,0.00044875,-0.00001967,-0.00001061,0.00000112,0.00000471,0.0000
 0499,0.00000345,-0.00003539,0.00000627,-0.00002583,0.06848610,0.041940
 25,0.29644159,-0.00000877,0.00000554,-0.00002648,0.00038471,-0.0000353
 1,0.00012818,0.00099047,-0.00171120,-0.00079384,-0.00001233,-0.0000213
 6,0.00001208,-0.20271157,-0.04595921,0.11966032,-0.02995427,0.00197636
 ,0.01582909,0.00010489,-0.00002808,0.00001569,0.00026245,0.00049266,0.
 00041622,-0.00567396,-0.00339188,0.00561936,-0.00025924,0.00345325,-0.
 00415001,-0.00020637,0.00002852,-0.00000193,-0.00037256,-0.00010877,-0
 .00029877,-0.00002682,0.00002191,0.00000324,-0.00001718,-0.00001193,-0
 .00000081,-0.00000688,0.00000049,0.00000828,-0.00004908,0.00002497,0.0
 0017752,-0.00002166,-0.00000478,0.00000078,0.00000365,0.00001028,-0.00
 002584,0.00002236,-0.00001449,-0.00006100,-0.00002235,0.00001251,-0.00
 000691,0.00013574,0.00044664,-0.00012391,0.00015134,-0.00044630,0.0000
 0368,0.00005313,-0.00001133,0.00035546,-0.00117468,-0.00019448,0.00082
 542,-0.00002420,-0.00001137,0.00000091,0.00000621,0.00000379,0.0000063
 5,-0.00004280,-0.00000008,-0.00003090,0.00820805,0.00149496,-0.0039336
 4,0.23067084,0.00001230,-0.00000629,0.00002391,0.00013740,-0.00009380,
 -0.00002752,-0.00087524,-0.00649191,-0.00234118,0.00000889,-0.00000981
 ,-0.00000080,-0.05275140,-0.06330871,0.03959552,0.02618769,0.00220288,
 -0.01561972,-0.00003074,0.00003144,-0.00003374,0.00081138,-0.00062673,
 -0.00009855,-0.02491373,-0.00535147,0.02024153,0.00250444,-0.00280430,
 0.00214357,0.00003837,0.00010056,0.00004194,-0.00021278,0.00019187,-0.
 00007398,-0.00000602,0.00000253,-0.00000684,0.00000664,0.00000831,-0.0
 0000294,-0.00000091,0.00000191,-0.00000078,0.00030486,0.00007866,0.000
 00333,-0.00000303,0.00000254,0.00000133,0.00000590,-0.00000163,-0.0000
 0175,-0.00002133,-0.00000433,0.00003156,-0.00000256,-0.00000092,0.0000
 0218,0.00053135,0.00148069,-0.00043824,0.00088447,0.00092128,0.0000701
 1,-0.00016567,-0.00002826,-0.00001915,0.00117475,0.00020101,-0.0005452
 9,-0.00000844,-0.00000029,0.00000130,0.00000674,0.00001202,0.00000402,
 -0.00002628,0.00000276,-0.00001028,0.00430163,0.00210206,-0.00411080,0
 .04411389,0.07139745,-0.00000195,-0.00000104,-0.00000491,-0.00009178,0
 .00001835,-0.00000916,-0.00016264,-0.00055651,0.00078810,-0.00000034,0
 .00000335,0.00000035,0.12888946,0.03565026,-0.15377546,-0.00977755,-0.
 00182219,0.00768708,-0.00001262,-0.00000436,0.00002081,-0.00031500,0.0
 0004370,-0.00006295,-0.00544283,-0.00220037,0.00344679,-0.00153945,0.0
 0068507,0.00044385,0.00004508,-0.00001792,-0.00000560,0.00013638,0.000
 03829,0.00006661,0.00000739,-0.00000082,0.00000119,0.,-0.00000052,0.00
 000088,0.00000114,0.00000020,-0.00000128,-0.00028602,-0.00013758,0.000
 35870,0.00000193,0.00000013,-0.00000154,0.00000036,-0.00000073,0.00000
 118,0.00000255,-0.00000104,-0.00000104,0.00000325,-0.00000108,-0.00000
 123,-0.00010045,0.00065256,0.00074002,0.00028632,0.00049722,0.00006311
 ,-0.00024014,0.00008345,0.00044303,-0.00011602,0.00011182,0.00038592,0
 .00000456,0.00000074,-0.00000080,-0.00000099,-0.00000321,0.00000003,0.
 00001049,-0.00000130,0.00000590,0.02256621,0.00702175,-0.01679977,-0.1
 3394525,-0.03988475,0.15601197,0.00000252,0.00001427,-0.00001173,-0.00
 023081,0.00010078,0.00015061,-0.08565494,-0.09372104,-0.01694426,-0.00
 001001,-0.00001870,-0.00001677,-0.00558275,0.00160047,0.00429017,0.001
 56159,-0.00058338,-0.00037831,0.00006421,-0.00001288,0.00001737,0.0085
 0108,0.02422734,0.00342783,-0.00977331,-0.02546207,-0.00603579,-0.0047
 3008,0.00294565,-0.00117228,-0.00001424,-0.00013137,-0.00007812,0.0018
 4585,-0.00084919,0.00179720,-0.00001260,0.00005272,0.00002973,-0.00000
 305,-0.00001059,0.00000141,0.00000065,-0.00000532,-0.00000054,-0.00341
 962,-0.00660463,-0.00111465,0.00000617,-0.00000278,-0.00000063,0.00004
 037,-0.00001895,0.00002485,0.00004626,-0.00000998,-0.00003136,-0.00000
 192,-0.00000266,-0.00000845,0.00122279,0.00050331,-0.00007086,0.000690
 99,0.00044700,-0.00083421,-0.00005829,-0.00012094,-0.00004309,0.000686
 46,0.00141841,-0.00006604,0.00001603,-0.00002126,0.00000191,0.00001318
 ,-0.00006826,-0.00001129,0.00003738,0.00000704,0.00002989,0.00015256,0
 .00034649,-0.00000064,-0.00034203,-0.00198695,0.00007323,0.09384565,0.
 00000842,-0.00000655,0.00005575,0.00022152,0.00003301,0.00005729,-0.09
 177332,-0.26993115,-0.04021828,0.00002967,0.00000591,-0.00008344,-0.00
 040732,0.00157024,0.00092369,-0.00062176,0.00040729,-0.00006030,-0.000
 11993,-0.00001940,-0.00008575,-0.00855027,-0.02381310,-0.00483742,-0.0
 0132948,-0.00244491,-0.00016993,0.00581339,-0.00106136,0.00116478,-0.0
 0003972,0.00018747,0.00001919,-0.00116644,0.00272055,-0.00090498,0.000
 02999,-0.00011325,-0.00002554,0.00001743,0.00000815,-0.00000217,0.0000
 0001,0.00000655,-0.00000240,-0.00000600,-0.00062205,-0.00072193,0.0000
 2093,0.00000412,0.00002024,0.00007215,-0.00003959,0.00005663,-0.000045
 41,0.00002341,0.00007814,0.00002609,0.00000082,0.00002455,-0.00009079,
 0.00022022,0.00021628,-0.00034419,0.00032020,0.00021254,-0.00005547,0.
 00027075,-0.00014300,-0.00080623,-0.00135051,0.00008580,-0.00002969,0.
 00005024,0.00000024,0.00006453,0.00008125,0.00003630,0.00004287,-0.000
 02752,0.00000113,0.00006546,0.00004933,-0.00011478,0.00005548,-0.00031
 040,-0.00010451,0.09891594,0.29294458,-0.00000437,-0.00000189,-0.00001
 840,-0.00035368,0.00013470,0.00011093,-0.01672248,-0.04331926,-0.05578
 560,0.00001741,0.00000576,0.00003120,0.00375470,-0.00090649,-0.0019517
 5,-0.00063262,-0.00035808,0.00019206,0.00000075,-0.00000311,0.00004832
 ,0.00073459,0.00751488,-0.00121220,0.00748150,0.01904468,0.00281804,-0
 .00077003,0.00042985,-0.00002528,0.00008015,-0.00012703,-0.00006453,0.
 00116574,0.00038774,0.00112179,0.00001986,0.00003050,0.00000516,-0.000
 00216,0.00000258,0.00000045,0.00000330,-0.00000101,-0.00000162,-0.0106
 6104,-0.02837521,-0.00420746,0.00000129,-0.00000026,-0.00000884,-0.000
 00843,-0.00000156,-0.00001951,0.00000767,-0.00000628,-0.00001519,0.000
 00284,-0.00000086,-0.00001098,-0.00095576,0.00002571,0.00068497,-0.000
 65922,-0.00053605,0.00051296,0.00012632,0.00032390,0.00022764,0.000085
 71,0.00020507,0.00031005,0.00001686,-0.00000206,-0.00001022,0.00004420
 ,-0.00002417,0.00000147,0.00006249,-0.00000653,0.00002411,0.00018707,0
 .00034232,0.00020766,0.00037333,0.00106870,0.00026349,0.01658783,0.044
 63127,0.05681804,-0.00018841,0.00012973,-0.00000866,0.00257991,0.00110
 486,-0.00047749,-0.01822078,-0.00192125,0.01291070,-0.00273520,-0.0012
 4530,0.00038473,0.00115929,-0.00001971,0.00024566,-0.00126399,-0.00296
 704,-0.00012597,-0.00053389,0.00191436,0.00039352,-0.20345683,-0.02143
 487,0.13300859,-0.00117719,0.00395626,-0.00220841,-0.00899364,0.001303
 60,0.00779800,0.00023408,-0.00013707,0.00054359,0.01167851,-0.00010016
 ,-0.01494641,0.00071876,-0.00019124,0.00097987,0.00002427,-0.00009096,
 0.00003193,0.00001950,-0.00002883,-0.00001378,0.00027997,-0.00023761,-
 0.00022537,-0.00042777,0.00014218,-0.00002065,-0.00327993,-0.00152139,
 0.00002806,-0.00158355,0.00183765,-0.00083724,-0.00033352,-0.00007192,
 -0.00018285,0.00006659,0.00002083,0.00012132,-0.00106079,-0.00029307,0
 .00074543,-0.00001663,-0.00018177,-0.00029337,0.00026775,-0.00019559,-
 0.00002466,0.00012988,0.00012000,0.00010541,0.00011754,-0.00001076,0.0
 0011384,0.00004826,-0.00011224,0.00016572,-0.00007263,-0.00001308,-0.0
 0014319,-0.00006711,-0.00002563,0.00000466,0.00109991,0.00000216,0.000
 01617,0.22498765,0.00017600,0.00011291,0.00000083,0.00035423,0.0014345
 4,0.00091844,0.02048437,0.00279151,-0.01528448,-0.00089638,-0.00012426
 ,-0.00016725,0.00143238,-0.00165033,0.00039557,-0.00580369,-0.00669372
 ,0.00093397,0.00118983,-0.00031676,0.00061321,-0.02231453,-0.05432524,
 0.01545504,0.00274345,-0.00324915,0.00190025,-0.02263574,0.00170965,0.
 01926957,-0.00052574,-0.00009585,-0.00065915,0.00493139,0.00148486,-0.
 00656543,0.00012558,0.00013600,0.00009303,-0.00006843,-0.00013996,0.00
 001354,-0.00001474,-0.00003512,0.00001153,-0.00078556,0.00091665,0.000
 14187,-0.00004836,-0.00003629,0.00002121,-0.00146130,0.00006652,0.0003
 3829,0.00163679,-0.00204652,-0.00001530,-0.00018475,0.00000250,-0.0001
 3910,-0.00019924,-0.00005414,-0.00004829,0.00127112,0.00030613,-0.0007
 2985,0.00032100,0.00101488,-0.00080326,0.00113436,0.00077536,0.0002628
 7,0.00009546,-0.00006759,0.00007271,0.00005220,-0.00020790,0.00003237,
 0.00000547,-0.00011092,-0.00000674,-0.00014386,0.00021270,-0.00005737,
 -0.00019069,0.00030085,-0.00006895,-0.00094849,0.00083569,-0.00047779,
 0.02026785,0.05705302,-0.00007773,0.00004057,0.00017821,0.00503672,-0.
 00132266,0.00096271,-0.00599813,-0.00118307,0.00605064,0.00027847,0.00
 032893,-0.00074047,0.00019765,0.00004342,-0.00007462,-0.00060113,-0.00
 119751,0.00123621,-0.00041622,-0.00053522,-0.00124666,0.12533221,0.015
 12760,-0.15694087,-0.00112161,0.00160414,0.00035074,-0.00020131,0.0014
 9577,0.00213351,-0.00112521,0.00129445,0.00048672,0.01556854,-0.000070
 88,-0.03905426,-0.00137811,-0.00029870,-0.00019027,0.00012475,0.000005
 40,0.00001615,0.00002090,-0.00002540,-0.00001411,0.00013115,-0.0003498
 6,0.00061593,0.00042399,-0.00003110,0.00034249,0.00138208,0.00033784,0
 .00106987,0.00071785,-0.00020677,0.00083645,0.00025254,0.00000996,0.00
 037358,-0.00018106,0.00002013,0.00014983,-0.00046058,0.00004798,0.0002
 2052,-0.00007376,0.00067691,0.00025870,0.00020752,-0.00011874,-0.00007
 067,0.00001379,0.00004955,0.00012313,-0.00009584,0.00000479,-0.0000835
 6,-0.00023436,-0.00016117,0.00030374,0.00001566,-0.00001292,-0.0000567
 5,-0.00003662,-0.00001270,-0.00006526,0.00038701,-0.00010940,-0.000046
 78,-0.13808914,-0.01545135,0.18287515\\-0.00000387,-0.00000269,-0.0000
 0750,-0.00050093,-0.00094596,0.00167021,0.00000227,0.00000793,0.000009
 66,0.00000824,-0.00000073,-0.00000827,0.00000464,0.00000438,0.00000284
 ,0.00000328,-0.00000098,0.00000855,0.00000132,0.00000194,0.00001108,-0
 .00024869,-0.00117234,0.00026398,-0.00000684,0.00000412,-0.00000283,0.
 00000187,0.00001214,0.00001370,0.00025666,0.00027294,-0.00111744,0.000
 47332,0.00182845,-0.00084416,0.00000600,-0.00000300,0.00000399,0.00000
 323,-0.00000201,-0.00000408,-0.00000105,-0.00000504,-0.00000531,-0.000
 00282,-0.00000036,-0.00000213,-0.00000111,-0.00000138,-0.00000545,0.00
 000071,-0.00000351,-0.00000219,-0.00000990,-0.00000119,-0.00000690,0.0
 0000014,-0.00000201,0.00000287,0.00000422,0.00000328,0.00000624,0.0000
 0393,0.00000521,0.00000499,-0.00000288,0.00000289,-0.00000026,0.000002
 84,-0.00000311,0.00000581,0.00000566,0.00000284,-0.00000804,-0.0000011
 0,0.00000359,-0.00000365,0.00000541,-0.00000261,-0.00000179,-0.0000044
 1,0.00000114,0.00000243,0.00000137,0.00000013,0.00000881,0.00000198,0.
 00000272,-0.00000075,-0.00000351,-0.00000677,0.00000559\\\@


 WE'RE IN THE POSITION OF A VISITOR FROM ANOTHER
 DIMENSION WHO COMES TO EARTH AND SEES A CHESS MATCH.
 ASSUMING HE KNOWS IT'S A GAME, HE'S GOT TWO PROBLEMS:
 FIRST, FIGURE OUT THE RULES, AND SECOND, FIGURE OUT HOW TO WIN.
 NINETY PERCENT OF SCIENCE (INCLUDING VIRTUALLY ALL OF CHEMISRY)
 IS IN THAT SECOND CATEGORY.  THEY'RE TRYING TO APPLY
 THE LAWS THAT ARE ALREADY KNOWN.

                     -- SHELDON GLASHOW, 1979
 Job cpu time:       0 days 16 hours 34 minutes 55.5 seconds.
 Elapsed time:       0 days  1 hours  2 minutes 12.2 seconds.
 File lengths (MBytes):  RWF=    686 Int=      0 D2E=      0 Chk=     33 Scr=      1
 Normal termination of Gaussian 16 at Mon Nov  5 04:59:28 2018.
