 Entering Gaussian System, Link 0=g16
 Initial command:
 /apps/gaussian/g16a03/g16/l1.exe "/jobfs/local/2011887.r-man2/Gau-29270.inp" -scrdir="/jobfs/local/2011887.r-man2/"
 Entering Link 1 = /apps/gaussian/g16a03/g16/l1.exe PID=     29271.
  
 Copyright (c) 1988,1990,1992,1993,1995,1998,2003,2009,2016,
            Gaussian, Inc.  All Rights Reserved.
  
 This is part of the Gaussian(R) 16 program.  It is based on
 the Gaussian(R) 09 system (copyright 2009, Gaussian, Inc.),
 the Gaussian(R) 03 system (copyright 2003, Gaussian, Inc.),
 the Gaussian(R) 98 system (copyright 1998, Gaussian, Inc.),
 the Gaussian(R) 94 system (copyright 1995, Gaussian, Inc.),
 the Gaussian 92(TM) system (copyright 1992, Gaussian, Inc.),
 the Gaussian 90(TM) system (copyright 1990, Gaussian, Inc.),
 the Gaussian 88(TM) system (copyright 1988, Gaussian, Inc.),
 the Gaussian 86(TM) system (copyright 1986, Carnegie Mellon
 University), and the Gaussian 82(TM) system (copyright 1983,
 Carnegie Mellon University). Gaussian is a federally registered
 trademark of Gaussian, Inc.
  
 This software contains proprietary and confidential information,
 including trade secrets, belonging to Gaussian, Inc.
  
 This software is provided under written license and may be
 used, copied, transmitted, or stored only in accord with that
 written license.
  
 The following legend is applicable only to US Government
 contracts under FAR:
  
                    RESTRICTED RIGHTS LEGEND
  
 Use, reproduction and disclosure by the US Government is
 subject to restrictions as set forth in subparagraphs (a)
 and (c) of the Commercial Computer Software - Restricted
 Rights clause in FAR 52.227-19.
  
 Gaussian, Inc.
 340 Quinnipiac St., Bldg. 40, Wallingford CT 06492
  
  
 ---------------------------------------------------------------
 Warning -- This program may not be used in any manner that
 competes with the business of Gaussian, Inc. or will provide
 assistance to any competitor of Gaussian, Inc.  The licensee
 of this program is prohibited from giving any competitor of
 Gaussian, Inc. access to this program.  By using this program,
 the user acknowledges that Gaussian, Inc. is engaged in the
 business of creating and licensing software in the field of
 computational chemistry and represents and warrants to the
 licensee that it is not a competitor of Gaussian, Inc. and that
 it will not use this program in any manner prohibited above.
 ---------------------------------------------------------------
  

 Cite this work as:
 Gaussian 16, Revision A.03,
 M. J. Frisch, G. W. Trucks, H. B. Schlegel, G. E. Scuseria, 
 M. A. Robb, J. R. Cheeseman, G. Scalmani, V. Barone, 
 G. A. Petersson, H. Nakatsuji, X. Li, M. Caricato, A. V. Marenich, 
 J. Bloino, B. G. Janesko, R. Gomperts, B. Mennucci, H. P. Hratchian, 
 J. V. Ortiz, A. F. Izmaylov, J. L. Sonnenberg, D. Williams-Young, 
 F. Ding, F. Lipparini, F. Egidi, J. Goings, B. Peng, A. Petrone, 
 T. Henderson, D. Ranasinghe, V. G. Zakrzewski, J. Gao, N. Rega, 
 G. Zheng, W. Liang, M. Hada, M. Ehara, K. Toyota, R. Fukuda, 
 J. Hasegawa, M. Ishida, T. Nakajima, Y. Honda, O. Kitao, H. Nakai, 
 T. Vreven, K. Throssell, J. A. Montgomery, Jr., J. E. Peralta, 
 F. Ogliaro, M. J. Bearpark, J. J. Heyd, E. N. Brothers, K. N. Kudin, 
 V. N. Staroverov, T. A. Keith, R. Kobayashi, J. Normand, 
 K. Raghavachari, A. P. Rendell, J. C. Burant, S. S. Iyengar, 
 J. Tomasi, M. Cossi, J. M. Millam, M. Klene, C. Adamo, R. Cammi, 
 J. W. Ochterski, R. L. Martin, K. Morokuma, O. Farkas, 
 J. B. Foresman, and D. J. Fox, Gaussian, Inc., Wallingford CT, 2016.
 
 ******************************************
 Gaussian 16:  ES64L-G16RevA.03 25-Dec-2016
                 5-Nov-2018 
 ******************************************
 %mem=6000mb
 %nproc=24
 Will use up to   24 processors via shared memory.
 %chk=D_1a_4a_L_PHI.inp_extract_22.chk
 ----------------------------------------------------------------------
 #M062X/6-311++G(2d,2p) opt=ModRedundant freq=noraman SCRF=(Solvent=Wat
 er)
 ----------------------------------------------------------------------
 1/18=120,19=15,26=3,38=1/1,3;
 2/9=110,12=2,17=6,18=5,40=1/2;
 3/5=4,6=6,7=1212,11=2,25=1,30=1,70=2201,71=1,72=1,74=-55/1,2,3;
 4//1;
 5/5=2,38=5,53=1/2;
 6/7=2,8=2,9=2,10=2,28=1/1;
 7//1,2,3,16;
 1/18=20,19=15,26=3/3(2);
 2/9=110/2;
 99//99;
 2/9=110/2;
 3/5=4,6=6,7=1212,11=2,25=1,30=1,70=2205,71=1,72=1,74=-55/1,2,3;
 4/5=5,16=3,69=1/1;
 5/5=2,38=5,53=1/2;
 7//1,2,3,16;
 1/18=20,19=15,26=3/3(-5);
 2/9=110/2;
 6/7=2,8=2,9=2,10=2,19=2,28=1/1;
 99/9=1/99;
 ----------------------------
 D_1a_4a_L_PHI.inp_extract_22
 ----------------------------
 Symbolic Z-matrix:
 Charge =  0 Multiplicity = 1
 C                     3.35573  -0.32436  -0.70782 
 C                     1.16436   0.28394   1.14263 
 C                    -1.74674   1.31847  -0.53725 
 C                     2.61242   0.99387  -0.90747 
 C                    -3.56851  -0.32918  -0.04991 
 O                    -2.58673  -1.33824   0.10104 
 C                     2.40733  -1.36404  -0.14225 
 C                    -0.75337   0.16046  -0.45026 
 C                    -2.99994   1.03814   0.2955 
 C                    -1.46378  -1.15469  -0.73496 
 O                     1.86032  -0.93574   1.0972 
 O                    -0.19805   0.10588   0.85793 
 C                     1.89185   1.40323   0.38355 
 H                     4.18601  -0.18804  -0.01877 
 H                     3.76534  -0.68441  -1.64713 
 H                    -2.02791   1.44031  -1.58085 
 H                     3.30401   1.78349  -1.18468 
 H                     1.91562   0.89073  -1.73234 
 H                     1.60822  -1.57909  -0.84389 
 H                     2.91862  -2.29134   0.07636 
 H                    -2.76411   1.06912   1.35512 
 H                    -3.75442   1.7974    0.11066 
 H                    -1.77936  -1.17292  -1.77568 
 H                    -0.80509  -1.9925   -0.55746 
 H                     2.64119   1.77581   1.07598 
 H                     1.199     2.21808   0.2073 
 H                     1.15596   0.53768   2.19006 
 H                    -3.93513  -0.34361  -1.0743 
 H                    -4.38449  -0.59697   0.60744 
 H                    -1.26802   2.23902  -0.22163 
 H                     0.02405   0.28698  -1.18615 
 
 The following ModRedundant input section has been read:
 D      11       2      12       8 F                                           
 

 GradGradGradGradGradGradGradGradGradGradGradGradGradGradGradGradGradGrad
 Berny optimization.
 Initialization pass.
                           ----------------------------
                           !    Initial Parameters    !
                           ! (Angstroms and Degrees)  !
 --------------------------                            --------------------------
 ! Name  Definition              Value          Derivative Info.                !
 --------------------------------------------------------------------------------
 ! R1    R(1,4)                  1.5265         estimate D2E/DX2                !
 ! R2    R(1,7)                  1.5167         estimate D2E/DX2                !
 ! R3    R(1,14)                 1.0875         estimate D2E/DX2                !
 ! R4    R(1,15)                 1.0862         estimate D2E/DX2                !
 ! R5    R(2,11)                 1.405          estimate D2E/DX2                !
 ! R6    R(2,12)                 1.4032         estimate D2E/DX2                !
 ! R7    R(2,13)                 1.5357         estimate D2E/DX2                !
 ! R8    R(2,27)                 1.0778         estimate D2E/DX2                !
 ! R9    R(3,8)                  1.5282         estimate D2E/DX2                !
 ! R10   R(3,9)                  1.5305         estimate D2E/DX2                !
 ! R11   R(3,16)                 1.0877         estimate D2E/DX2                !
 ! R12   R(3,30)                 1.0845         estimate D2E/DX2                !
 ! R13   R(4,13)                 1.5341         estimate D2E/DX2                !
 ! R14   R(4,17)                 1.0857         estimate D2E/DX2                !
 ! R15   R(4,18)                 1.0847         estimate D2E/DX2                !
 ! R16   R(5,6)                  1.4159         estimate D2E/DX2                !
 ! R17   R(5,9)                  1.5206         estimate D2E/DX2                !
 ! R18   R(5,28)                 1.0881         estimate D2E/DX2                !
 ! R19   R(5,29)                 1.0815         estimate D2E/DX2                !
 ! R20   R(6,10)                 1.4119         estimate D2E/DX2                !
 ! R21   R(7,11)                 1.4209         estimate D2E/DX2                !
 ! R22   R(7,19)                 1.085          estimate D2E/DX2                !
 ! R23   R(7,20)                 1.0812         estimate D2E/DX2                !
 ! R24   R(8,10)                 1.5216         estimate D2E/DX2                !
 ! R25   R(8,12)                 1.4222         estimate D2E/DX2                !
 ! R26   R(8,31)                 1.0779         estimate D2E/DX2                !
 ! R27   R(9,21)                 1.086          estimate D2E/DX2                !
 ! R28   R(9,22)                 1.0862         estimate D2E/DX2                !
 ! R29   R(10,23)                1.0877         estimate D2E/DX2                !
 ! R30   R(10,24)                1.0804         estimate D2E/DX2                !
 ! R31   R(13,25)                1.0862         estimate D2E/DX2                !
 ! R32   R(13,26)                1.084          estimate D2E/DX2                !
 ! A1    A(4,1,7)              109.6494         estimate D2E/DX2                !
 ! A2    A(4,1,14)             110.2663         estimate D2E/DX2                !
 ! A3    A(4,1,15)             110.9037         estimate D2E/DX2                !
 ! A4    A(7,1,14)             109.0906         estimate D2E/DX2                !
 ! A5    A(7,1,15)             109.3338         estimate D2E/DX2                !
 ! A6    A(14,1,15)            107.5515         estimate D2E/DX2                !
 ! A7    A(11,2,12)            111.3599         estimate D2E/DX2                !
 ! A8    A(11,2,13)            112.463          estimate D2E/DX2                !
 ! A9    A(11,2,27)            103.8669         estimate D2E/DX2                !
 ! A10   A(12,2,13)            116.8828         estimate D2E/DX2                !
 ! A11   A(12,2,27)            102.6792         estimate D2E/DX2                !
 ! A12   A(13,2,27)            108.209          estimate D2E/DX2                !
 ! A13   A(8,3,9)              111.2531         estimate D2E/DX2                !
 ! A14   A(8,3,16)             107.911          estimate D2E/DX2                !
 ! A15   A(8,3,30)             109.8587         estimate D2E/DX2                !
 ! A16   A(9,3,16)             109.323          estimate D2E/DX2                !
 ! A17   A(9,3,30)             111.0112         estimate D2E/DX2                !
 ! A18   A(16,3,30)            107.3528         estimate D2E/DX2                !
 ! A19   A(1,4,13)             110.4315         estimate D2E/DX2                !
 ! A20   A(1,4,17)             110.5666         estimate D2E/DX2                !
 ! A21   A(1,4,18)             109.2786         estimate D2E/DX2                !
 ! A22   A(13,4,17)            108.6634         estimate D2E/DX2                !
 ! A23   A(13,4,18)            111.3216         estimate D2E/DX2                !
 ! A24   A(17,4,18)            106.511          estimate D2E/DX2                !
 ! A25   A(6,5,9)              110.9369         estimate D2E/DX2                !
 ! A26   A(6,5,28)             108.937          estimate D2E/DX2                !
 ! A27   A(6,5,29)             106.3731         estimate D2E/DX2                !
 ! A28   A(9,5,28)             110.5952         estimate D2E/DX2                !
 ! A29   A(9,5,29)             111.5125         estimate D2E/DX2                !
 ! A30   A(28,5,29)            108.344          estimate D2E/DX2                !
 ! A31   A(5,6,10)             113.3096         estimate D2E/DX2                !
 ! A32   A(1,7,11)             111.0627         estimate D2E/DX2                !
 ! A33   A(1,7,19)             110.8114         estimate D2E/DX2                !
 ! A34   A(1,7,20)             111.5679         estimate D2E/DX2                !
 ! A35   A(11,7,19)            109.8966         estimate D2E/DX2                !
 ! A36   A(11,7,20)            105.3193         estimate D2E/DX2                !
 ! A37   A(19,7,20)            108.0015         estimate D2E/DX2                !
 ! A38   A(3,8,10)             109.9261         estimate D2E/DX2                !
 ! A39   A(3,8,12)             109.5878         estimate D2E/DX2                !
 ! A40   A(3,8,31)             109.9389         estimate D2E/DX2                !
 ! A41   A(10,8,12)            108.7369         estimate D2E/DX2                !
 ! A42   A(10,8,31)            108.0854         estimate D2E/DX2                !
 ! A43   A(12,8,31)            110.5393         estimate D2E/DX2                !
 ! A44   A(3,9,5)              110.3204         estimate D2E/DX2                !
 ! A45   A(3,9,21)             110.3549         estimate D2E/DX2                !
 ! A46   A(3,9,22)             110.3721         estimate D2E/DX2                !
 ! A47   A(5,9,21)             109.1776         estimate D2E/DX2                !
 ! A48   A(5,9,22)             109.2796         estimate D2E/DX2                !
 ! A49   A(21,9,22)            107.2729         estimate D2E/DX2                !
 ! A50   A(6,10,8)             111.8938         estimate D2E/DX2                !
 ! A51   A(6,10,23)            109.4869         estimate D2E/DX2                !
 ! A52   A(6,10,24)            106.6666         estimate D2E/DX2                !
 ! A53   A(8,10,23)            109.2061         estimate D2E/DX2                !
 ! A54   A(8,10,24)            110.7839         estimate D2E/DX2                !
 ! A55   A(23,10,24)           108.7297         estimate D2E/DX2                !
 ! A56   A(2,11,7)             118.7229         estimate D2E/DX2                !
 ! A57   A(2,12,8)             124.1161         estimate D2E/DX2                !
 ! A58   A(2,13,4)             116.3586         estimate D2E/DX2                !
 ! A59   A(2,13,25)            105.172          estimate D2E/DX2                !
 ! A60   A(2,13,26)            108.9938         estimate D2E/DX2                !
 ! A61   A(4,13,25)            107.6965         estimate D2E/DX2                !
 ! A62   A(4,13,26)            111.3436         estimate D2E/DX2                !
 ! A63   A(25,13,26)           106.6639         estimate D2E/DX2                !
 ! D1    D(7,1,4,13)            52.1113         estimate D2E/DX2                !
 ! D2    D(7,1,4,17)           172.4102         estimate D2E/DX2                !
 ! D3    D(7,1,4,18)           -70.6651         estimate D2E/DX2                !
 ! D4    D(14,1,4,13)          -68.0241         estimate D2E/DX2                !
 ! D5    D(14,1,4,17)           52.2748         estimate D2E/DX2                !
 ! D6    D(14,1,4,18)          169.1994         estimate D2E/DX2                !
 ! D7    D(15,1,4,13)          172.9541         estimate D2E/DX2                !
 ! D8    D(15,1,4,17)          -66.747          estimate D2E/DX2                !
 ! D9    D(15,1,4,18)           50.1777         estimate D2E/DX2                !
 ! D10   D(4,1,7,11)           -58.8558         estimate D2E/DX2                !
 ! D11   D(4,1,7,19)            63.5916         estimate D2E/DX2                !
 ! D12   D(4,1,7,20)          -176.0275         estimate D2E/DX2                !
 ! D13   D(14,1,7,11)           61.9937         estimate D2E/DX2                !
 ! D14   D(14,1,7,19)         -175.5589         estimate D2E/DX2                !
 ! D15   D(14,1,7,20)          -55.1781         estimate D2E/DX2                !
 ! D16   D(15,1,7,11)          179.3561         estimate D2E/DX2                !
 ! D17   D(15,1,7,19)          -58.1965         estimate D2E/DX2                !
 ! D18   D(15,1,7,20)           62.1843         estimate D2E/DX2                !
 ! D19   D(12,2,11,7)           88.8435         estimate D2E/DX2                !
 ! D20   D(13,2,11,7)          -44.5557         estimate D2E/DX2                !
 ! D21   D(27,2,11,7)         -161.3223         estimate D2E/DX2                !
 ! D22   D(11,2,12,8)          -89.4578         Frozen                          !
 ! D23   D(13,2,12,8)           41.7079         estimate D2E/DX2                !
 ! D24   D(27,2,12,8)          159.9471         estimate D2E/DX2                !
 ! D25   D(11,2,13,4)           37.0179         estimate D2E/DX2                !
 ! D26   D(11,2,13,25)         -82.051          estimate D2E/DX2                !
 ! D27   D(11,2,13,26)         163.8974         estimate D2E/DX2                !
 ! D28   D(12,2,13,4)          -93.6357         estimate D2E/DX2                !
 ! D29   D(12,2,13,25)         147.2953         estimate D2E/DX2                !
 ! D30   D(12,2,13,26)          33.2438         estimate D2E/DX2                !
 ! D31   D(27,2,13,4)          151.1615         estimate D2E/DX2                !
 ! D32   D(27,2,13,25)          32.0926         estimate D2E/DX2                !
 ! D33   D(27,2,13,26)         -81.959          estimate D2E/DX2                !
 ! D34   D(9,3,8,10)            50.0756         estimate D2E/DX2                !
 ! D35   D(9,3,8,12)           -69.3743         estimate D2E/DX2                !
 ! D36   D(9,3,8,31)           168.9416         estimate D2E/DX2                !
 ! D37   D(16,3,8,10)          -69.8471         estimate D2E/DX2                !
 ! D38   D(16,3,8,12)          170.703          estimate D2E/DX2                !
 ! D39   D(16,3,8,31)           49.019          estimate D2E/DX2                !
 ! D40   D(30,3,8,10)          173.4094         estimate D2E/DX2                !
 ! D41   D(30,3,8,12)           53.9595         estimate D2E/DX2                !
 ! D42   D(30,3,8,31)          -67.7245         estimate D2E/DX2                !
 ! D43   D(8,3,9,5)            -50.8927         estimate D2E/DX2                !
 ! D44   D(8,3,9,21)            69.8388         estimate D2E/DX2                !
 ! D45   D(8,3,9,22)          -171.763          estimate D2E/DX2                !
 ! D46   D(16,3,9,5)            68.1892         estimate D2E/DX2                !
 ! D47   D(16,3,9,21)         -171.0792         estimate D2E/DX2                !
 ! D48   D(16,3,9,22)          -52.681          estimate D2E/DX2                !
 ! D49   D(30,3,9,5)          -173.5654         estimate D2E/DX2                !
 ! D50   D(30,3,9,21)          -52.8339         estimate D2E/DX2                !
 ! D51   D(30,3,9,22)           65.5643         estimate D2E/DX2                !
 ! D52   D(1,4,13,2)           -42.5677         estimate D2E/DX2                !
 ! D53   D(1,4,13,25)           75.1227         estimate D2E/DX2                !
 ! D54   D(1,4,13,26)         -168.2718         estimate D2E/DX2                !
 ! D55   D(17,4,13,2)         -164.0016         estimate D2E/DX2                !
 ! D56   D(17,4,13,25)         -46.3112         estimate D2E/DX2                !
 ! D57   D(17,4,13,26)          70.2943         estimate D2E/DX2                !
 ! D58   D(18,4,13,2)           79.0073         estimate D2E/DX2                !
 ! D59   D(18,4,13,25)        -163.3022         estimate D2E/DX2                !
 ! D60   D(18,4,13,26)         -46.6967         estimate D2E/DX2                !
 ! D61   D(9,5,6,10)           -60.5917         estimate D2E/DX2                !
 ! D62   D(28,5,6,10)           61.3767         estimate D2E/DX2                !
 ! D63   D(29,5,6,10)          177.9664         estimate D2E/DX2                !
 ! D64   D(6,5,9,3)             54.9253         estimate D2E/DX2                !
 ! D65   D(6,5,9,21)           -66.5081         estimate D2E/DX2                !
 ! D66   D(6,5,9,22)           176.446          estimate D2E/DX2                !
 ! D67   D(28,5,9,3)           -66.07           estimate D2E/DX2                !
 ! D68   D(28,5,9,21)          172.4967         estimate D2E/DX2                !
 ! D69   D(28,5,9,22)           55.4508         estimate D2E/DX2                !
 ! D70   D(29,5,9,3)           173.2994         estimate D2E/DX2                !
 ! D71   D(29,5,9,21)           51.866          estimate D2E/DX2                !
 ! D72   D(29,5,9,22)          -65.1799         estimate D2E/DX2                !
 ! D73   D(5,6,10,8)            60.4835         estimate D2E/DX2                !
 ! D74   D(5,6,10,23)          -60.7338         estimate D2E/DX2                !
 ! D75   D(5,6,10,24)         -178.2172         estimate D2E/DX2                !
 ! D76   D(1,7,11,2)            56.9764         estimate D2E/DX2                !
 ! D77   D(19,7,11,2)          -65.9994         estimate D2E/DX2                !
 ! D78   D(20,7,11,2)          177.9024         estimate D2E/DX2                !
 ! D79   D(3,8,10,6)           -54.0711         estimate D2E/DX2                !
 ! D80   D(3,8,10,23)           67.3084         estimate D2E/DX2                !
 ! D81   D(3,8,10,24)         -172.9616         estimate D2E/DX2                !
 ! D82   D(12,8,10,6)           65.8971         estimate D2E/DX2                !
 ! D83   D(12,8,10,23)        -172.7234         estimate D2E/DX2                !
 ! D84   D(12,8,10,24)         -52.9934         estimate D2E/DX2                !
 ! D85   D(31,8,10,6)         -174.0691         estimate D2E/DX2                !
 ! D86   D(31,8,10,23)         -52.6896         estimate D2E/DX2                !
 ! D87   D(31,8,10,24)          67.0404         estimate D2E/DX2                !
 ! D88   D(3,8,12,2)          -117.3629         estimate D2E/DX2                !
 ! D89   D(10,8,12,2)          122.4591         estimate D2E/DX2                !
 ! D90   D(31,8,12,2)            3.9599         estimate D2E/DX2                !
 --------------------------------------------------------------------------------
 Trust Radius=3.00D-01 FncErr=1.00D-07 GrdErr=1.00D-06 EigMax=2.50D+02 EigMin=1.00D-04
 Number of steps in this run=    186 maximum allowed number of steps=    186.
 GradGradGradGradGradGradGradGradGradGradGradGradGradGradGradGradGradGrad

                          Input orientation:                          
 ---------------------------------------------------------------------
 Center     Atomic      Atomic             Coordinates (Angstroms)
 Number     Number       Type             X           Y           Z
 ---------------------------------------------------------------------
      1          6           0        3.355728   -0.324356   -0.707815
      2          6           0        1.164364    0.283941    1.142630
      3          6           0       -1.746738    1.318466   -0.537245
      4          6           0        2.612418    0.993865   -0.907468
      5          6           0       -3.568509   -0.329177   -0.049908
      6          8           0       -2.586730   -1.338237    0.101036
      7          6           0        2.407330   -1.364036   -0.142249
      8          6           0       -0.753367    0.160462   -0.450263
      9          6           0       -2.999944    1.038135    0.295496
     10          6           0       -1.463778   -1.154694   -0.734962
     11          8           0        1.860319   -0.935737    1.097202
     12          8           0       -0.198045    0.105877    0.857929
     13          6           0        1.891854    1.403233    0.383553
     14          1           0        4.186013   -0.188035   -0.018766
     15          1           0        3.765342   -0.684407   -1.647126
     16          1           0       -2.027908    1.440307   -1.580850
     17          1           0        3.304014    1.783488   -1.184683
     18          1           0        1.915621    0.890726   -1.732336
     19          1           0        1.608222   -1.579092   -0.843892
     20          1           0        2.918619   -2.291336    0.076356
     21          1           0       -2.764110    1.069122    1.355116
     22          1           0       -3.754415    1.797399    0.110662
     23          1           0       -1.779363   -1.172915   -1.775677
     24          1           0       -0.805086   -1.992495   -0.557458
     25          1           0        2.641186    1.775806    1.075982
     26          1           0        1.198996    2.218081    0.207297
     27          1           0        1.155959    0.537682    2.190055
     28          1           0       -3.935128   -0.343609   -1.074297
     29          1           0       -4.384492   -0.596970    0.607443
     30          1           0       -1.268020    2.239016   -0.221627
     31          1           0        0.024047    0.286983   -1.186147
 ---------------------------------------------------------------------
                    Distance matrix (angstroms):
                    1          2          3          4          5
     1  C    0.000000
     2  C    2.931936   0.000000
     3  C    5.363126   3.516637   0.000000
     4  C    1.526459   2.608401   4.386875   0.000000
     5  C    6.955424   4.919161   2.504211   6.378848   0.000000
     6  O    6.082352   4.217474   2.858507   5.786788   1.415937
     7  C    1.516660   2.431400   4.960657   2.487432   6.065485
     8  C    4.145605   2.496046   1.528177   3.497443   2.885317
     9  C    6.577050   4.316006   1.530545   5.740008   1.520563
    10  C    4.890586   3.535838   2.497134   4.611013   2.362344
    11  O    2.422421   1.405002   4.556721   2.882311   5.581752
    12  O    3.907167   1.403182   2.411500   3.435673   3.517594
    13  C    2.513678   1.535661   3.754252   1.534122   5.744971
    14  H    1.087541   3.271386   6.142955   2.159370   7.755869
    15  H    1.086152   3.935165   5.968782   2.166316   7.514164
    16  H    5.732344   4.352600   1.087664   4.710136   2.801483
    17  H    2.161732   3.499018   5.113269   1.085660   7.278918
    18  H    2.144755   3.032821   3.876090   1.084699   5.864675
    19  H    2.155610   2.759379   4.443606   2.762709   5.384352
    20  H    2.162175   3.293388   5.930660   3.442995   6.778557
    21  H    6.606806   4.011804   2.162926   5.833696   2.139250
    22  H    7.464977   5.248800   2.163314   6.497601   2.140717
    23  H    5.313148   4.393686   2.782401   4.973576   2.625113
    24  H    4.485272   3.457050   3.442322   4.551943   3.265079
    25  H    2.846609   2.100263   4.697397   2.132213   6.652736
    26  H    3.457298   2.148708   3.168753   2.176963   5.411449
    27  H    3.738950   1.077754   4.058748   3.453118   5.299951
    28  H    7.300086   5.595838   2.799994   6.684836   1.088113
    29  H    7.855904   5.643778   3.454989   7.333653   1.081504
    30  H    5.309077   3.405878   1.084527   4.132624   3.452152
    31  H    3.420911   2.592978   2.149584   2.697593   3.818004
                    6          7          8          9         10
     6  O    0.000000
     7  C    5.000049   0.000000
     8  C    2.431306   3.522637   0.000000
     9  C    2.419856   5.933014   2.524594   0.000000
    10  C    1.411950   3.921812   1.521635   2.868824   0.000000
    11  O    4.574997   1.420880   3.229188   5.306700   3.801893
    12  O    2.892087   3.154200   1.422227   3.006006   2.393412
    13  C    5.258630   2.863557   3.039231   4.906194   4.365127
    14  H    6.870762   2.135870   4.970424   7.296590   5.776461
    15  H    6.620603   2.137931   4.750265   7.246380   5.328875
    16  H    3.295653   5.441071   2.130888   2.151109   2.787077
    17  H    6.789632   3.434766   4.431244   6.518157   5.618452
    18  H    5.347962   2.802518   3.049671   5.319456   4.074167
    19  H    4.306800   1.084954   2.959408   5.420634   3.103089
    20  H    5.587296   1.081245   4.446585   6.794320   4.599521
    21  H    2.720213   5.908143   2.850990   1.085989   3.317325
    22  H    3.346012   6.930060   3.464172   1.086219   3.831051
    23  H    2.049689   4.498112   2.141795   3.266239   1.087664
    24  H    2.008961   3.299542   2.156244   3.837923   1.080414
    25  H    6.162701   3.376001   4.057308   5.742444   5.358925
    26  H    5.195230   3.796553   2.911684   4.362470   4.399299
    27  H    4.678760   3.259157   3.280107   4.594707   4.275849
    28  H    2.046673   6.491283   3.281327   2.158731   2.623086
    29  H    2.009446   6.875993   3.857138   2.165145   3.262465
    30  H    3.826205   5.147473   2.153492   2.170044   3.437892
    31  H    3.333817   3.081497   1.077917   3.450220   2.120289
                   11         12         13         14         15
    11  O    0.000000
    12  O    2.319283   0.000000
    13  C    2.445623   2.505163   0.000000
    14  H    2.685758   4.480507   2.820844   0.000000
    15  H    3.350166   4.754817   3.462926   1.753541   0.000000
    16  H    5.285438   3.328174   4.384608   6.610932   6.170944
    17  H    3.832159   4.387603   2.144331   2.454422   2.552877
    18  H    3.368280   3.434100   2.177203   3.042158   2.431002
    19  H    2.060414   2.999653   3.237488   3.043169   2.469577
    20  H    1.999944   4.008875   3.846876   2.457481   2.503907
    21  H    5.046912   2.785628   4.767973   7.195290   7.397436
    22  H    6.322067   4.008419   5.666585   8.185908   8.111469
    23  H    4.642949   3.327425   4.977615   6.296224   5.567667
    24  H    3.310441   2.602880   4.437337   5.334542   4.877221
    25  H    2.821820   3.301127   1.086171   2.727936   3.838189
    26  H    3.343030   2.614661   1.084018   3.842235   4.295283
    27  H    1.965048   1.947907   2.134050   3.819265   4.798577
    28  H    6.217172   4.230996   6.255438   8.190927   7.729264
    29  H    6.273140   4.252420   6.591165   8.603076   8.456389
    30  H    4.648104   2.619269   3.324091   5.973124   5.992761
    31  H    3.174999   2.064067   2.683035   4.348607   3.892735
                   16         17         18         19         20
    16  H    0.000000
    17  H    5.357622   0.000000
    18  H    3.984521   1.739133   0.000000
    19  H    4.783442   3.781375   2.642693   0.000000
    20  H    6.414018   4.282866   3.795114   1.752509   0.000000
    21  H    3.049536   6.616874   5.609284   5.564707   6.724679
    22  H    2.443267   7.176317   6.030589   6.408568   7.826130
    23  H    2.632235   5.910187   4.232422   3.536797   5.172226
    24  H    3.785070   5.615707   4.134676   2.465158   3.789064
    25  H    5.382542   2.355845   3.032567   4.001034   4.197364
    26  H    3.770320   2.560777   2.457153   3.961185   4.827949
    27  H    5.017117   4.189872   4.010845   3.726944   3.946902
    28  H    2.660158   7.545986   6.015635   5.684033   7.217444
    29  H    3.806916   8.245691   6.883257   6.243681   7.515874
    30  H    1.750101   4.694516   3.773022   4.820574   6.175826
    31  H    2.386727   3.605234   2.059340   2.471636   4.076787
                   21         22         23         24         25
    21  H    0.000000
    22  H    1.749216   0.000000
    23  H    3.974710   4.035080   0.000000
    24  H    4.107215   4.848528   1.762097   0.000000
    25  H    5.458438   6.468077   6.030603   5.361437   0.000000
    26  H    4.282967   4.972182   4.929672   4.725478   1.740728
    27  H    4.043080   5.479282   5.222000   4.218569   2.231593
    28  H    3.044526   2.453712   2.413919   3.575348   7.236265
    29  H    2.441417   2.525231   3.577383   4.014552   7.430326
    30  H    2.468412   2.547077   3.783889   4.269985   4.144906
    31  H    3.852736   4.270813   2.393979   2.505740   3.766064
                   26         27         28         29         30
    26  H    0.000000
    27  H    2.599408   0.000000
    28  H    5.879113   6.111615   0.000000
    29  H    6.265777   5.872707   1.759082   0.000000
    30  H    2.504113   3.819217   3.809260   4.294482   0.000000
    31  H    2.655434   3.569708   4.010639   4.840822   2.531831
                   31
    31  H    0.000000
 Stoichiometry    C10H18O3
 Framework group  C1[X(C10H18O3)]
 Deg. of freedom    87
 Full point group                 C1      NOp   1
 Largest Abelian subgroup         C1      NOp   1
 Largest concise Abelian subgroup C1      NOp   1
                         Standard orientation:                         
 ---------------------------------------------------------------------
 Center     Atomic      Atomic             Coordinates (Angstroms)
 Number     Number       Type             X           Y           Z
 ---------------------------------------------------------------------
      1          6           0        3.355728   -0.324356   -0.707815
      2          6           0        1.164364    0.283941    1.142630
      3          6           0       -1.746738    1.318466   -0.537245
      4          6           0        2.612418    0.993865   -0.907468
      5          6           0       -3.568509   -0.329177   -0.049908
      6          8           0       -2.586730   -1.338237    0.101036
      7          6           0        2.407330   -1.364036   -0.142249
      8          6           0       -0.753367    0.160462   -0.450263
      9          6           0       -2.999944    1.038135    0.295496
     10          6           0       -1.463778   -1.154694   -0.734962
     11          8           0        1.860319   -0.935737    1.097202
     12          8           0       -0.198045    0.105877    0.857929
     13          6           0        1.891854    1.403233    0.383553
     14          1           0        4.186013   -0.188035   -0.018766
     15          1           0        3.765342   -0.684407   -1.647126
     16          1           0       -2.027908    1.440307   -1.580850
     17          1           0        3.304014    1.783488   -1.184683
     18          1           0        1.915621    0.890726   -1.732336
     19          1           0        1.608222   -1.579092   -0.843892
     20          1           0        2.918619   -2.291336    0.076356
     21          1           0       -2.764110    1.069122    1.355116
     22          1           0       -3.754415    1.797399    0.110662
     23          1           0       -1.779363   -1.172915   -1.775677
     24          1           0       -0.805086   -1.992495   -0.557458
     25          1           0        2.641186    1.775806    1.075982
     26          1           0        1.198996    2.218081    0.207297
     27          1           0        1.155959    0.537682    2.190055
     28          1           0       -3.935128   -0.343609   -1.074297
     29          1           0       -4.384492   -0.596970    0.607443
     30          1           0       -1.268020    2.239016   -0.221627
     31          1           0        0.024047    0.286983   -1.186147
 ---------------------------------------------------------------------
 Rotational constants (GHZ):           1.7122654           0.4698648           0.4336404
 Standard basis: 6-311++G(2d,2p) (5D, 7F)
 There are   557 symmetry adapted cartesian basis functions of A   symmetry.
 There are   531 symmetry adapted basis functions of A   symmetry.
   531 basis functions,   762 primitive gaussians,   557 cartesian basis functions
    51 alpha electrons       51 beta electrons
       nuclear repulsion energy       906.7650720253 Hartrees.
 NAtoms=   31 NActive=   31 NUniq=   31 SFac= 1.00D+00 NAtFMM=   60 NAOKFM=F Big=F
 Integral buffers will be    131072 words long.
 Raffenetti 2 integral format.
 Two-electron integral symmetry is turned on.
 ------------------------------------------------------------------------------
 Polarizable Continuum Model (PCM)
 =================================
 Model                : PCM.
 Atomic radii         : UFF (Universal Force Field).
 Polarization charges : Total charges.
 Charge compensation  : None.
 Solution method      : On-the-fly selection.
 Cavity type          : Scaled VdW (van der Waals Surface) (Alpha=1.100).
 Cavity algorithm     : GePol (No added spheres)
                        Default sphere list used, NSphG=   31.
                        Lebedev-Laikov grids with approx.  5.0 points / Ang**2.
                        Smoothing algorithm: York/Karplus (Gamma=1.0000).
                        Polarization charges: spherical gaussians, with
                                              point-specific exponents (IZeta= 3).
                        Self-potential: point-specific (ISelfS= 7).
                        Self-field    : sphere-specific E.n sum rule (ISelfD= 2).
 1st derivatives      : Analytical E(r).r(x)/FMM algorithm (CHGder, D1EAlg=3).
                        Cavity 1st derivative terms included.
 Solvent              : Water, Eps=  78.355300 Eps(inf)=   1.777849
 ------------------------------------------------------------------------------
 One-electron integrals computed using PRISM.
 NBasis=   531 RedAO= T EigKep=  4.69D-06  NBF=   531
 NBsUse=   531 1.00D-06 EigRej= -1.00D+00 NBFU=   531
 ExpMin= 3.60D-02 ExpMax= 8.59D+03 ExpMxC= 1.30D+03 IAcc=3 IRadAn=         5 AccDes= 0.00D+00
 Harris functional with IExCor= 1009 and IRadAn=       5 diagonalized for initial guess.
 HarFok:  IExCor= 1009 AccDes= 0.00D+00 IRadAn=         5 IDoV= 1 UseB2=F ITyADJ=14
 ICtDFT=  3500011 ScaDFX=  1.000000  1.000000  1.000000  1.000000
 FoFCou: FMM=F IPFlag=           0 FMFlag=      100000 FMFlg1=           0
         NFxFlg=           0 DoJE=T BraDBF=F KetDBF=T FulRan=T
         wScrn=  0.000000 ICntrl=       500 IOpCl=  0 I1Cent=   200000004 NGrid=           0
         NMat0=    1 NMatS0=      1 NMatT0=    0 NMatD0=    1 NMtDS0=    0 NMtDT0=    0
 Petite list used in FoFCou.
 Requested convergence on RMS density matrix=1.00D-08 within 128 cycles.
 Requested convergence on MAX density matrix=1.00D-06.
 Requested convergence on             energy=1.00D-06.
 No special actions if energy rises.
 Inv3:  Mode=1 IEnd=    12144432.
 Iteration    1 A*A^-1 deviation from unit magnitude is 6.77D-15 for   1990.
 Iteration    1 A*A^-1 deviation from orthogonality  is 2.23D-15 for   1850   1150.
 Iteration    1 A^-1*A deviation from unit magnitude is 6.33D-15 for   1990.
 Iteration    1 A^-1*A deviation from orthogonality  is 1.52D-13 for   1670   1640.
 Error on total polarization charges =  0.01469
 SCF Done:  E(RM062X) =  -617.489822598     A.U. after   12 cycles
            NFock= 12  Conv=0.65D-08     -V/T= 2.0035

 **********************************************************************

            Population analysis using the SCF density.

 **********************************************************************

 Orbital symmetries:
       Occupied  (A) (A) (A) (A) (A) (A) (A) (A) (A) (A) (A) (A)
                 (A) (A) (A) (A) (A) (A) (A) (A) (A) (A) (A) (A)
                 (A) (A) (A) (A) (A) (A) (A) (A) (A) (A) (A) (A)
                 (A) (A) (A) (A) (A) (A) (A) (A) (A) (A) (A) (A)
                 (A) (A) (A)
       Virtual   (A) (A) (A) (A) (A) (A) (A) (A) (A) (A) (A) (A)
                 (A) (A) (A) (A) (A) (A) (A) (A) (A) (A) (A) (A)
                 (A) (A) (A) (A) (A) (A) (A) (A) (A) (A) (A) (A)
                 (A) (A) (A) (A) (A) (A) (A) (A) (A) (A) (A) (A)
                 (A) (A) (A) (A) (A) (A) (A) (A) (A) (A) (A) (A)
                 (A) (A) (A) (A) (A) (A) (A) (A) (A) (A) (A) (A)
                 (A) (A) (A) (A) (A) (A) (A) (A) (A) (A) (A) (A)
                 (A) (A) (A) (A) (A) (A) (A) (A) (A) (A) (A) (A)
                 (A) (A) (A) (A) (A) (A) (A) (A) (A) (A) (A) (A)
                 (A) (A) (A) (A) (A) (A) (A) (A) (A) (A) (A) (A)
                 (A) (A) (A) (A) (A) (A) (A) (A) (A) (A) (A) (A)
                 (A) (A) (A) (A) (A) (A) (A) (A) (A) (A) (A) (A)
                 (A) (A) (A) (A) (A) (A) (A) (A) (A) (A) (A) (A)
                 (A) (A) (A) (A) (A) (A) (A) (A) (A) (A) (A) (A)
                 (A) (A) (A) (A) (A) (A) (A) (A) (A) (A) (A) (A)
                 (A) (A) (A) (A) (A) (A) (A) (A) (A) (A) (A) (A)
                 (A) (A) (A) (A) (A) (A) (A) (A) (A) (A) (A) (A)
                 (A) (A) (A) (A) (A) (A) (A) (A) (A) (A) (A) (A)
                 (A) (A) (A) (A) (A) (A) (A) (A) (A) (A) (A) (A)
                 (A) (A) (A) (A) (A) (A) (A) (A) (A) (A) (A) (A)
                 (A) (A) (A) (A) (A) (A) (A) (A) (A) (A) (A) (A)
                 (A) (A) (A) (A) (A) (A) (A) (A) (A) (A) (A) (A)
                 (A) (A) (A) (A) (A) (A) (A) (A) (A) (A) (A) (A)
                 (A) (A) (A) (A) (A) (A) (A) (A) (A) (A) (A) (A)
                 (A) (A) (A) (A) (A) (A) (A) (A) (A) (A) (A) (A)
                 (A) (A) (A) (A) (A) (A) (A) (A) (A) (A) (A) (A)
                 (A) (A) (A) (A) (A) (A) (A) (A) (A) (A) (A) (A)
                 (A) (A) (A) (A) (A) (A) (A) (A) (A) (A) (A) (A)
                 (A) (A) (A) (A) (A) (A) (A) (A) (A) (A) (A) (A)
                 (A) (A) (A) (A) (A) (A) (A) (A) (A) (A) (A) (A)
                 (A) (A) (A) (A) (A) (A) (A) (A) (A) (A) (A) (A)
                 (A) (A) (A) (A) (A) (A) (A) (A) (A) (A) (A) (A)
                 (A) (A) (A) (A) (A) (A) (A) (A) (A) (A) (A) (A)
                 (A) (A) (A) (A) (A) (A) (A) (A) (A) (A) (A) (A)
                 (A) (A) (A) (A) (A) (A) (A) (A) (A) (A) (A) (A)
                 (A) (A) (A) (A) (A) (A) (A) (A) (A) (A) (A) (A)
                 (A) (A) (A) (A) (A) (A) (A) (A) (A) (A) (A) (A)
                 (A) (A) (A) (A) (A) (A) (A) (A) (A) (A) (A) (A)
                 (A) (A) (A) (A) (A) (A) (A) (A) (A) (A) (A) (A)
                 (A) (A) (A) (A) (A) (A) (A) (A) (A) (A) (A) (A)
 The electronic state is 1-A.
 Alpha  occ. eigenvalues --  -19.62719 -19.62645 -19.62472 -10.63736 -10.58845
 Alpha  occ. eigenvalues --  -10.57955 -10.57877 -10.57705 -10.53493 -10.53350
 Alpha  occ. eigenvalues --  -10.53156 -10.52948 -10.52811  -1.19537  -1.16542
 Alpha  occ. eigenvalues --   -1.13278  -0.90574  -0.90335  -0.87588  -0.84915
 Alpha  occ. eigenvalues --   -0.75195  -0.74289  -0.73869  -0.71397  -0.66500
 Alpha  occ. eigenvalues --   -0.62778  -0.59721  -0.58287  -0.57377  -0.55550
 Alpha  occ. eigenvalues --   -0.54969  -0.53587  -0.52695  -0.50838  -0.50399
 Alpha  occ. eigenvalues --   -0.49601  -0.46905  -0.46311  -0.45586  -0.45142
 Alpha  occ. eigenvalues --   -0.43957  -0.42099  -0.41247  -0.40321  -0.39023
 Alpha  occ. eigenvalues --   -0.38546  -0.37558  -0.36539  -0.34538  -0.33345
 Alpha  occ. eigenvalues --   -0.31582
 Alpha virt. eigenvalues --   -0.00227   0.00711   0.00866   0.01200   0.02270
 Alpha virt. eigenvalues --    0.02574   0.02696   0.03230   0.03660   0.04585
 Alpha virt. eigenvalues --    0.04708   0.04837   0.05541   0.06050   0.07516
 Alpha virt. eigenvalues --    0.07688   0.08145   0.08319   0.08853   0.09252
 Alpha virt. eigenvalues --    0.09904   0.10548   0.11064   0.11172   0.11864
 Alpha virt. eigenvalues --    0.12387   0.12656   0.12903   0.13171   0.13376
 Alpha virt. eigenvalues --    0.13957   0.14278   0.14356   0.14591   0.15049
 Alpha virt. eigenvalues --    0.15388   0.15499   0.15635   0.15730   0.16212
 Alpha virt. eigenvalues --    0.16262   0.16576   0.16877   0.17377   0.17499
 Alpha virt. eigenvalues --    0.18099   0.18375   0.18562   0.19261   0.19643
 Alpha virt. eigenvalues --    0.19744   0.20136   0.20894   0.21278   0.21612
 Alpha virt. eigenvalues --    0.21688   0.22203   0.23001   0.23149   0.23950
 Alpha virt. eigenvalues --    0.24420   0.25846   0.26042   0.26227   0.27164
 Alpha virt. eigenvalues --    0.27806   0.28676   0.29050   0.29309   0.29506
 Alpha virt. eigenvalues --    0.30098   0.30643   0.31216   0.31323   0.32264
 Alpha virt. eigenvalues --    0.33002   0.33657   0.34218   0.34285   0.34614
 Alpha virt. eigenvalues --    0.34885   0.35164   0.35872   0.36035   0.36517
 Alpha virt. eigenvalues --    0.36843   0.37149   0.37435   0.37592   0.38063
 Alpha virt. eigenvalues --    0.38498   0.39156   0.39636   0.39924   0.40559
 Alpha virt. eigenvalues --    0.41559   0.41699   0.42251   0.44334   0.45270
 Alpha virt. eigenvalues --    0.47026   0.48532   0.49579   0.50061   0.51361
 Alpha virt. eigenvalues --    0.51769   0.52240   0.53339   0.53997   0.55248
 Alpha virt. eigenvalues --    0.56367   0.57136   0.58015   0.58984   0.59115
 Alpha virt. eigenvalues --    0.60250   0.60679   0.60866   0.61243   0.61466
 Alpha virt. eigenvalues --    0.61966   0.62393   0.63108   0.63756   0.64721
 Alpha virt. eigenvalues --    0.65055   0.65868   0.66470   0.66577   0.66985
 Alpha virt. eigenvalues --    0.67929   0.68370   0.69155   0.69800   0.70910
 Alpha virt. eigenvalues --    0.71191   0.71465   0.71860   0.72303   0.73021
 Alpha virt. eigenvalues --    0.73593   0.74178   0.74689   0.75671   0.76035
 Alpha virt. eigenvalues --    0.76632   0.77038   0.77847   0.78514   0.79019
 Alpha virt. eigenvalues --    0.80200   0.83533   0.84106   0.84716   0.85212
 Alpha virt. eigenvalues --    0.85761   0.87025   0.88218   0.88776   0.89947
 Alpha virt. eigenvalues --    0.91136   0.91517   0.93459   0.95538   0.96143
 Alpha virt. eigenvalues --    0.97480   0.98319   0.99734   1.00063   1.02402
 Alpha virt. eigenvalues --    1.02774   1.03493   1.04198   1.04854   1.06015
 Alpha virt. eigenvalues --    1.07265   1.07733   1.08887   1.10891   1.12197
 Alpha virt. eigenvalues --    1.13313   1.14682   1.15095   1.15601   1.16842
 Alpha virt. eigenvalues --    1.17662   1.18187   1.19045   1.19795   1.20925
 Alpha virt. eigenvalues --    1.22033   1.22319   1.23074   1.23924   1.24839
 Alpha virt. eigenvalues --    1.25014   1.25513   1.26157   1.26736   1.27936
 Alpha virt. eigenvalues --    1.28772   1.29359   1.29900   1.31563   1.32156
 Alpha virt. eigenvalues --    1.32366   1.32831   1.34058   1.34612   1.35449
 Alpha virt. eigenvalues --    1.35931   1.36324   1.36975   1.37862   1.38238
 Alpha virt. eigenvalues --    1.38859   1.39155   1.40577   1.41223   1.42147
 Alpha virt. eigenvalues --    1.42332   1.43030   1.43664   1.44034   1.45688
 Alpha virt. eigenvalues --    1.45787   1.46698   1.47071   1.47539   1.47920
 Alpha virt. eigenvalues --    1.49601   1.49926   1.51055   1.51810   1.52778
 Alpha virt. eigenvalues --    1.53703   1.53933   1.54492   1.55193   1.55920
 Alpha virt. eigenvalues --    1.57394   1.57550   1.57732   1.58132   1.58636
 Alpha virt. eigenvalues --    1.59393   1.60394   1.60759   1.61798   1.62991
 Alpha virt. eigenvalues --    1.64071   1.64334   1.65298   1.67094   1.67571
 Alpha virt. eigenvalues --    1.68125   1.69167   1.70002   1.71377   1.72251
 Alpha virt. eigenvalues --    1.73407   1.73981   1.75775   1.76428   1.76926
 Alpha virt. eigenvalues --    1.78410   1.79656   1.80347   1.82197   1.83467
 Alpha virt. eigenvalues --    1.85991   1.88481   1.89701   1.95909   1.98873
 Alpha virt. eigenvalues --    2.03152   2.06338   2.10419   2.16002   2.20592
 Alpha virt. eigenvalues --    2.21417   2.26166   2.28038   2.33927   2.39744
 Alpha virt. eigenvalues --    2.40845   2.44113   2.46301   2.48706   2.55706
 Alpha virt. eigenvalues --    2.57420   2.76164   2.76639   2.79869   2.81804
 Alpha virt. eigenvalues --    2.83247   2.87845   2.91731   2.93052   2.94414
 Alpha virt. eigenvalues --    2.96575   2.97425   2.99342   3.01311   3.02301
 Alpha virt. eigenvalues --    3.05838   3.07577   3.08266   3.09416   3.11333
 Alpha virt. eigenvalues --    3.11965   3.13027   3.16463   3.18361   3.20320
 Alpha virt. eigenvalues --    3.23864   3.28784   3.31007   3.32408   3.34446
 Alpha virt. eigenvalues --    3.34950   3.36438   3.38825   3.39465   3.40283
 Alpha virt. eigenvalues --    3.41416   3.43800   3.44790   3.45619   3.47665
 Alpha virt. eigenvalues --    3.48470   3.49228   3.49375   3.50625   3.52304
 Alpha virt. eigenvalues --    3.52428   3.53854   3.54321   3.55407   3.55634
 Alpha virt. eigenvalues --    3.56637   3.57572   3.58137   3.58512   3.59370
 Alpha virt. eigenvalues --    3.61364   3.62400   3.64031   3.64369   3.64909
 Alpha virt. eigenvalues --    3.65639   3.66717   3.68063   3.68961   3.69711
 Alpha virt. eigenvalues --    3.71010   3.71270   3.72580   3.74078   3.74465
 Alpha virt. eigenvalues --    3.75593   3.76058   3.76451   3.77114   3.78341
 Alpha virt. eigenvalues --    3.78895   3.80828   3.81286   3.82949   3.84834
 Alpha virt. eigenvalues --    3.86799   3.88347   3.89031   3.90232   3.91677
 Alpha virt. eigenvalues --    3.93688   3.94037   3.95572   3.96741   3.97425
 Alpha virt. eigenvalues --    3.98688   4.00994   4.02105   4.03613   4.04973
 Alpha virt. eigenvalues --    4.05432   4.06054   4.06432   4.06893   4.07580
 Alpha virt. eigenvalues --    4.08475   4.09146   4.10169   4.10806   4.11569
 Alpha virt. eigenvalues --    4.12635   4.13108   4.13526   4.14488   4.15823
 Alpha virt. eigenvalues --    4.16804   4.17121   4.18092   4.19982   4.20317
 Alpha virt. eigenvalues --    4.20464   4.23562   4.25426   4.26777   4.27593
 Alpha virt. eigenvalues --    4.28603   4.29860   4.31025   4.31502   4.33416
 Alpha virt. eigenvalues --    4.33775   4.36106   4.36795   4.37460   4.39182
 Alpha virt. eigenvalues --    4.41081   4.43190   4.45483   4.47707   4.51424
 Alpha virt. eigenvalues --    4.58551   4.59189   4.74333   4.75435   4.82048
 Alpha virt. eigenvalues --    4.85280   4.93108   4.94217   4.99762   5.04262
 Alpha virt. eigenvalues --    5.06562   5.07286   5.08106   5.09166   5.11151
 Alpha virt. eigenvalues --    5.12943   5.13835   5.16322   5.32137   5.34705
 Alpha virt. eigenvalues --    5.44939   5.57976   5.59411   5.62893   5.86979
 Alpha virt. eigenvalues --    5.88157   6.00975   7.01020   7.06196   7.06348
 Alpha virt. eigenvalues --    7.08773   7.09351   7.11403   7.12522   7.14020
 Alpha virt. eigenvalues --    7.31961   7.37655   7.41374   7.47189   7.52938
 Alpha virt. eigenvalues --    7.54446   7.62075  23.96066  23.97290  24.06786
 Alpha virt. eigenvalues --   24.07253  24.08822  24.12731  24.13770  24.15193
 Alpha virt. eigenvalues --   24.16658  24.19480  50.16634  50.19220  50.25024
          Condensed to atoms (all electrons):
               1          2          3          4          5          6
     1  C    6.379044  -0.329964   0.097855  -0.447416   0.004076  -0.000078
     2  C   -0.329964   7.191058   0.031271   0.465453  -0.036878   0.005864
     3  C    0.097855   0.031271   7.025610  -0.060775  -0.168337  -0.009295
     4  C   -0.447416   0.465453  -0.060775   5.994216  -0.007013   0.000555
     5  C    0.004076  -0.036878  -0.168337  -0.007013   5.530019   0.102055
     6  O   -0.000078   0.005864  -0.009295   0.000555   0.102055   8.300383
     7  C   -0.235728  -0.162045  -0.095095   0.125373  -0.003031   0.001258
     8  C    0.202418  -1.151844  -0.901697  -0.203091   0.423036   0.029389
     9  C   -0.015495   0.278128  -0.107506   0.040129  -0.040172  -0.013813
    10  C   -0.130814   0.295844  -0.131561   0.057810  -0.341975   0.117376
    11  O   -0.128342   0.267082   0.006102  -0.002480   0.002362  -0.001512
    12  O   -0.018712   0.135864  -0.019779   0.003579  -0.010078   0.022141
    13  C    0.380453  -1.122318   0.000835  -0.542567   0.016930  -0.000415
    14  H    0.426871   0.038587   0.001506   0.022069   0.000051  -0.000007
    15  H    0.441335  -0.000187   0.000121  -0.054503  -0.000015   0.000038
    16  H   -0.005854   0.002376   0.479385   0.003608  -0.016452  -0.000797
    17  H   -0.020744   0.016283  -0.006088   0.413191  -0.000083   0.000044
    18  H   -0.152546   0.051455  -0.010238   0.599962   0.002009  -0.001000
    19  H   -0.187516   0.080717  -0.016147   0.070018  -0.004800   0.001600
    20  H   -0.003910  -0.016765  -0.003887  -0.002588   0.000184   0.000326
    21  H    0.000375  -0.008181  -0.009919   0.000205  -0.099425  -0.010915
    22  H   -0.000122   0.009963  -0.014918   0.000499  -0.030282   0.008210
    23  H    0.002019   0.008883  -0.041159  -0.001369  -0.001279  -0.050616
    24  H   -0.001556  -0.015776   0.028358   0.000430   0.019222  -0.093292
    25  H   -0.014854  -0.066285  -0.002589  -0.019912   0.000220   0.000064
    26  H   -0.024992  -0.127042  -0.044348  -0.051600   0.007715  -0.000718
    27  H    0.003499   0.523247  -0.005800   0.003957  -0.001224   0.000744
    28  H    0.000400  -0.001240  -0.019507  -0.000208   0.455052  -0.056520
    29  H   -0.000058   0.002818   0.004228   0.000044   0.443071  -0.065406
    30  H    0.008221  -0.009847   0.395165  -0.006147  -0.011079  -0.001104
    31  H    0.111589  -0.203530   0.070417  -0.099411  -0.011400   0.022736
               7          8          9         10         11         12
     1  C   -0.235728   0.202418  -0.015495  -0.130814  -0.128342  -0.018712
     2  C   -0.162045  -1.151844   0.278128   0.295844   0.267082   0.135864
     3  C   -0.095095  -0.901697  -0.107506  -0.131561   0.006102  -0.019779
     4  C    0.125373  -0.203091   0.040129   0.057810  -0.002480   0.003579
     5  C   -0.003031   0.423036  -0.040172  -0.341975   0.002362  -0.010078
     6  O    0.001258   0.029389  -0.013813   0.117376  -0.001512   0.022141
     7  C    5.439337   0.022045  -0.007319   0.033567   0.206330   0.037949
     8  C    0.022045   8.299889  -0.659602  -1.016481   0.076090   0.101801
     9  C   -0.007319  -0.659602   5.883915   0.327694  -0.012730  -0.040171
    10  C    0.033567  -1.016481   0.327694   6.586827  -0.043624  -0.120927
    11  O    0.206330   0.076090  -0.012730  -0.043624   8.149137  -0.027355
    12  O    0.037949   0.101801  -0.040171  -0.120927  -0.027355   8.291733
    13  C    0.024550   0.458767  -0.116730  -0.094353  -0.049176  -0.019862
    14  H   -0.057233  -0.008698   0.000485   0.001874  -0.006890   0.000194
    15  H   -0.033190   0.001029  -0.000333  -0.002329   0.008222  -0.000773
    16  H    0.001919  -0.083649  -0.017704   0.009561  -0.000080   0.005884
    17  H    0.016268  -0.004138   0.000483   0.003744  -0.000704  -0.001462
    18  H    0.022277  -0.016531   0.014997   0.009751  -0.003630  -0.000361
    19  H    0.491011  -0.107700   0.012151   0.090432  -0.049815   0.007013
    20  H    0.419401   0.015231  -0.001235  -0.004244  -0.053568  -0.000785
    21  H   -0.000545  -0.026595   0.507809   0.014125   0.000815   0.002205
    22  H   -0.000399  -0.034351   0.436956  -0.000074  -0.000304  -0.000027
    23  H    0.001967  -0.052625   0.040374   0.442877   0.000289   0.012274
    24  H   -0.001660  -0.018148  -0.006986   0.401168   0.003421  -0.007276
    25  H    0.017867   0.018765  -0.000394  -0.007495  -0.017646   0.001151
    26  H    0.007332   0.075307  -0.013679   0.005443   0.013293  -0.007337
    27  H   -0.015539  -0.043206   0.013310   0.019947  -0.055410  -0.080626
    28  H   -0.000172   0.023789  -0.020395  -0.035620   0.000023   0.001653
    29  H    0.000171   0.008850  -0.058921   0.007688  -0.000100   0.000846
    30  H   -0.000256   0.011730  -0.009690  -0.014663  -0.000256   0.002952
    31  H   -0.033502   0.546236  -0.162090  -0.119314   0.014375  -0.008419
              13         14         15         16         17         18
     1  C    0.380453   0.426871   0.441335  -0.005854  -0.020744  -0.152546
     2  C   -1.122318   0.038587  -0.000187   0.002376   0.016283   0.051455
     3  C    0.000835   0.001506   0.000121   0.479385  -0.006088  -0.010238
     4  C   -0.542567   0.022069  -0.054503   0.003608   0.413191   0.599962
     5  C    0.016930   0.000051  -0.000015  -0.016452  -0.000083   0.002009
     6  O   -0.000415  -0.000007   0.000038  -0.000797   0.000044  -0.001000
     7  C    0.024550  -0.057233  -0.033190   0.001919   0.016268   0.022277
     8  C    0.458767  -0.008698   0.001029  -0.083649  -0.004138  -0.016531
     9  C   -0.116730   0.000485  -0.000333  -0.017704   0.000483   0.014997
    10  C   -0.094353   0.001874  -0.002329   0.009561   0.003744   0.009751
    11  O   -0.049176  -0.006890   0.008222  -0.000080  -0.000704  -0.003630
    12  O   -0.019862   0.000194  -0.000773   0.005884  -0.001462  -0.000361
    13  C    6.531037  -0.054571   0.016922  -0.000058  -0.049344  -0.125870
    14  H   -0.054571   0.469350  -0.005589   0.000027  -0.000766   0.002833
    15  H    0.016922  -0.005589   0.480944  -0.000253  -0.005631  -0.007769
    16  H   -0.000058   0.000027  -0.000253   0.434501  -0.000103   0.001836
    17  H   -0.049344  -0.000766  -0.005631  -0.000103   0.463530  -0.013213
    18  H   -0.125870   0.002833  -0.007769   0.001836  -0.013213   0.495655
    19  H   -0.042000   0.003881  -0.000897   0.002598  -0.000380   0.006368
    20  H    0.013590  -0.003558  -0.011767  -0.000017   0.001858  -0.002759
    21  H    0.000949  -0.000010  -0.000014   0.003181  -0.000007  -0.000305
    22  H   -0.003960   0.000020  -0.000017  -0.007801  -0.000091   0.000688
    23  H    0.001493  -0.000099  -0.000109  -0.003490   0.000057   0.004116
    24  H   -0.003668   0.000765   0.000062  -0.003559  -0.000218   0.001746
    25  H    0.458880  -0.003066  -0.001361  -0.000210  -0.010023   0.005062
    26  H    0.509577  -0.001900   0.000621   0.002758  -0.006633  -0.002292
    27  H   -0.057618   0.002712   0.001016  -0.000373   0.002306  -0.000033
    28  H    0.000607  -0.000003   0.000038  -0.004663   0.000028  -0.000248
    29  H   -0.000539  -0.000004  -0.000006  -0.001810  -0.000003   0.000167
    30  H    0.007292  -0.000235   0.000129  -0.002810   0.000629  -0.001880
    31  H    0.129579  -0.003551   0.004607  -0.016044   0.009037  -0.062439
              19         20         21         22         23         24
     1  C   -0.187516  -0.003910   0.000375  -0.000122   0.002019  -0.001556
     2  C    0.080717  -0.016765  -0.008181   0.009963   0.008883  -0.015776
     3  C   -0.016147  -0.003887  -0.009919  -0.014918  -0.041159   0.028358
     4  C    0.070018  -0.002588   0.000205   0.000499  -0.001369   0.000430
     5  C   -0.004800   0.000184  -0.099425  -0.030282  -0.001279   0.019222
     6  O    0.001600   0.000326  -0.010915   0.008210  -0.050616  -0.093292
     7  C    0.491011   0.419401  -0.000545  -0.000399   0.001967  -0.001660
     8  C   -0.107700   0.015231  -0.026595  -0.034351  -0.052625  -0.018148
     9  C    0.012151  -0.001235   0.507809   0.436956   0.040374  -0.006986
    10  C    0.090432  -0.004244   0.014125  -0.000074   0.442877   0.401168
    11  O   -0.049815  -0.053568   0.000815  -0.000304   0.000289   0.003421
    12  O    0.007013  -0.000785   0.002205  -0.000027   0.012274  -0.007276
    13  C   -0.042000   0.013590   0.000949  -0.003960   0.001493  -0.003668
    14  H    0.003881  -0.003558  -0.000010   0.000020  -0.000099   0.000765
    15  H   -0.000897  -0.011767  -0.000014  -0.000017  -0.000109   0.000062
    16  H    0.002598  -0.000017   0.003181  -0.007801  -0.003490  -0.003559
    17  H   -0.000380   0.001858  -0.000007  -0.000091   0.000057  -0.000218
    18  H    0.006368  -0.002759  -0.000305   0.000688   0.004116   0.001746
    19  H    0.593623  -0.020607   0.000710  -0.000041  -0.003777  -0.003883
    20  H   -0.020607   0.450510  -0.000021  -0.000041   0.000763  -0.003036
    21  H    0.000710  -0.000021   0.469791  -0.011657  -0.000974  -0.002545
    22  H   -0.000041  -0.000041  -0.011657   0.483831   0.000220   0.002331
    23  H   -0.003777   0.000763  -0.000974   0.000220   0.488952  -0.010862
    24  H   -0.003883  -0.003036  -0.002545   0.002331  -0.010862   0.509358
    25  H   -0.002566   0.001372  -0.000137   0.000021   0.000531  -0.000832
    26  H    0.004165   0.000066  -0.000568  -0.000800  -0.001378   0.000621
    27  H    0.000822  -0.000656  -0.002160   0.000295   0.000505   0.000092
    28  H   -0.000558  -0.000018   0.000251   0.004850   0.007070  -0.002055
    29  H   -0.000040   0.000044  -0.003341  -0.009835  -0.000892   0.001192
    30  H   -0.002140   0.000275   0.001428  -0.012531  -0.001231  -0.000758
    31  H   -0.050493   0.003324   0.001436  -0.003938  -0.037525  -0.004752
              25         26         27         28         29         30
     1  C   -0.014854  -0.024992   0.003499   0.000400  -0.000058   0.008221
     2  C   -0.066285  -0.127042   0.523247  -0.001240   0.002818  -0.009847
     3  C   -0.002589  -0.044348  -0.005800  -0.019507   0.004228   0.395165
     4  C   -0.019912  -0.051600   0.003957  -0.000208   0.000044  -0.006147
     5  C    0.000220   0.007715  -0.001224   0.455052   0.443071  -0.011079
     6  O    0.000064  -0.000718   0.000744  -0.056520  -0.065406  -0.001104
     7  C    0.017867   0.007332  -0.015539  -0.000172   0.000171  -0.000256
     8  C    0.018765   0.075307  -0.043206   0.023789   0.008850   0.011730
     9  C   -0.000394  -0.013679   0.013310  -0.020395  -0.058921  -0.009690
    10  C   -0.007495   0.005443   0.019947  -0.035620   0.007688  -0.014663
    11  O   -0.017646   0.013293  -0.055410   0.000023  -0.000100  -0.000256
    12  O    0.001151  -0.007337  -0.080626   0.001653   0.000846   0.002952
    13  C    0.458880   0.509577  -0.057618   0.000607  -0.000539   0.007292
    14  H   -0.003066  -0.001900   0.002712  -0.000003  -0.000004  -0.000235
    15  H   -0.001361   0.000621   0.001016   0.000038  -0.000006   0.000129
    16  H   -0.000210   0.002758  -0.000373  -0.004663  -0.001810  -0.002810
    17  H   -0.010023  -0.006633   0.002306   0.000028  -0.000003   0.000629
    18  H    0.005062  -0.002292  -0.000033  -0.000248   0.000167  -0.001880
    19  H   -0.002566   0.004165   0.000822  -0.000558  -0.000040  -0.002140
    20  H    0.001372   0.000066  -0.000656  -0.000018   0.000044   0.000275
    21  H   -0.000137  -0.000568  -0.002160   0.000251  -0.003341   0.001428
    22  H    0.000021  -0.000800   0.000295   0.004850  -0.009835  -0.012531
    23  H    0.000531  -0.001378   0.000505   0.007070  -0.000892  -0.001231
    24  H   -0.000832   0.000621   0.000092  -0.002055   0.001192  -0.000758
    25  H    0.443869  -0.008944  -0.009064  -0.000011   0.000050   0.001713
    26  H   -0.008944   0.507591  -0.012735  -0.000539   0.000028  -0.007492
    27  H   -0.009064  -0.012735   0.464350   0.000057   0.000211  -0.000093
    28  H   -0.000011  -0.000539   0.000057   0.503284  -0.005051   0.002217
    29  H    0.000050   0.000028   0.000211  -0.005051   0.477277   0.000764
    30  H    0.001713  -0.007492  -0.000093   0.002217   0.000764   0.493629
    31  H   -0.004155  -0.007228  -0.004276   0.002176  -0.000346   0.001942
              31
     1  C    0.111589
     2  C   -0.203530
     3  C    0.070417
     4  C   -0.099411
     5  C   -0.011400
     6  O    0.022736
     7  C   -0.033502
     8  C    0.546236
     9  C   -0.162090
    10  C   -0.119314
    11  O    0.014375
    12  O   -0.008419
    13  C    0.129579
    14  H   -0.003551
    15  H    0.004607
    16  H   -0.016044
    17  H    0.009037
    18  H   -0.062439
    19  H   -0.050493
    20  H    0.003324
    21  H    0.001436
    22  H   -0.003938
    23  H   -0.037525
    24  H   -0.004752
    25  H   -0.004155
    26  H   -0.007228
    27  H   -0.004276
    28  H    0.002176
    29  H   -0.000346
    30  H    0.001942
    31  H    0.678287
 Mulliken charges:
               1
     1  C   -0.339454
     2  C   -0.152992
     3  C   -0.472210
     4  C   -0.302019
     5  C   -0.222478
     6  O   -0.307294
     7  C   -0.222906
     8  C    0.013980
     9  C   -0.251466
    10  C   -0.362254
    11  O   -0.293918
    12  O   -0.263289
    13  C   -0.268410
    14  H    0.174955
    15  H    0.169658
    16  H    0.218092
    17  H    0.192174
    18  H    0.182189
    19  H    0.128252
    20  H    0.222516
    21  H    0.174037
    22  H    0.183308
    23  H    0.194995
    24  H    0.212094
    25  H    0.219977
    26  H    0.185708
    27  H    0.251740
    28  H    0.145315
    29  H    0.198902
    30  H    0.154126
    31  H    0.236670
 Sum of Mulliken charges =  -0.00000
 Mulliken charges with hydrogens summed into heavy atoms:
               1
     1  C    0.005159
     2  C    0.098749
     3  C   -0.099992
     4  C    0.072343
     5  C    0.121739
     6  O   -0.307294
     7  C    0.127862
     8  C    0.250650
     9  C    0.105879
    10  C    0.044835
    11  O   -0.293918
    12  O   -0.263289
    13  C    0.137276
 Electronic spatial extent (au):  <R**2>=           2786.7734
 Charge=              0.0000 electrons
 Dipole moment (field-independent basis, Debye):
    X=              1.3551    Y=              3.2386    Z=             -4.1043  Tot=              5.4009
 Quadrupole moment (field-independent basis, Debye-Ang):
   XX=            -73.1775   YY=            -81.3309   ZZ=            -81.0045
   XY=             -3.8812   XZ=              0.0100   YZ=              4.7678
 Traceless Quadrupole moment (field-independent basis, Debye-Ang):
   XX=              5.3268   YY=             -2.8266   ZZ=             -2.5002
   XY=             -3.8812   XZ=              0.0100   YZ=              4.7678
 Octapole moment (field-independent basis, Debye-Ang**2):
  XXX=             -7.6480  YYY=             -0.7182  ZZZ=              2.3622  XYY=             12.6559
  XXY=             14.3949  XXZ=             -9.1429  XZZ=             -3.6422  YZZ=              2.4000
  YYZ=             -2.8452  XYZ=              4.0164
 Hexadecapole moment (field-independent basis, Debye-Ang**3):
 XXXX=          -2568.5595 YYYY=           -621.8966 ZZZZ=           -368.1858 XXXY=            -31.9066
 XXXZ=            -12.3458 YYYX=            -22.3341 YYYZ=              3.1049 ZZZX=              5.6215
 ZZZY=              8.8067 XXYY=           -564.3627 XXZZ=           -513.7143 YYZZ=           -172.9450
 XXYZ=             12.8951 YYXZ=              2.2234 ZZXY=             10.8340
 N-N= 9.067650720253D+02 E-N=-3.255410280976D+03  KE= 6.153164511774D+02
 D1PCM: PCM CHGder 1st derivatives, ID1Alg=3 FixD1E=F DoIter=F DoCFld=F I1PDM=0.
 Calling FoFJK, ICntrl=      2127 FMM=F ISym2X=0 I1Cent= 0 IOpClX= 0 NMat=1 NMatS=1 NMatT=0.
 ***** Axes restored to original set *****
 -------------------------------------------------------------------
 Center     Atomic                   Forces (Hartrees/Bohr)
 Number     Number              X              Y              Z
 -------------------------------------------------------------------
      1        6          -0.002719175    0.000092433   -0.001316185
      2        6           0.001499118   -0.001073205   -0.011732911
      3        6          -0.001608662   -0.003497097    0.000895293
      4        6          -0.000418007   -0.002236132    0.004073837
      5        6           0.006348213    0.003025222    0.000340859
      6        8           0.000264546   -0.006647933    0.005292192
      7        6           0.000869309    0.008126400    0.001498983
      8        6           0.000935398    0.000146185    0.003255042
      9        6           0.000489050   -0.000768186   -0.002232982
     10        6          -0.003812798    0.005583469    0.002338996
     11        8           0.002908488   -0.004669221    0.007650835
     12        8          -0.007388652    0.000758729    0.006139578
     13        6          -0.000231996   -0.003293286   -0.002212454
     14        1           0.001807493    0.000346010    0.002625167
     15        1           0.001175239   -0.000521843   -0.002490070
     16        1          -0.001211503    0.000255512   -0.003524404
     17        1           0.001639192    0.001833983   -0.000918165
     18        1          -0.002858603   -0.000764663   -0.002899500
     19        1          -0.004838259   -0.000881707   -0.005403733
     20        1           0.001962109   -0.003841902    0.000503576
     21        1           0.001664646   -0.000715297    0.002987810
     22        1          -0.001664342    0.002264099   -0.000586506
     23        1          -0.001223586    0.000542760   -0.006314993
     24        1           0.003941079   -0.003649683    0.001537696
     25        1           0.002560015    0.001255285    0.002007788
     26        1          -0.002946275    0.002676705   -0.000714585
     27        1           0.000072523    0.001509086    0.006842068
     28        1          -0.001934969    0.001052292   -0.005897907
     29        1          -0.003222526   -0.001000304    0.002726683
     30        1           0.002040452    0.002516229    0.001208841
     31        1           0.005902483    0.001576060   -0.005680847
 -------------------------------------------------------------------
 Cartesian Forces:  Max     0.011732911 RMS     0.003413702

 GradGradGradGradGradGradGradGradGradGradGradGradGradGradGradGradGradGrad
 Berny optimization.
 FormGI is forming the generalized inverse of G from B-inverse, IUseBI=4.
 Internal  Forces:  Max     0.019640579 RMS     0.002377448
 Search for a local minimum.
 Step number   1 out of a maximum of  186
 All quantities printed in internal units (Hartrees-Bohrs-Radians)
 Mixed Optimization -- RFO/linear search
 Second derivative matrix not updated -- first step.
 ITU=  0
     Eigenvalues ---    0.00465   0.00605   0.00716   0.00728   0.01333
     Eigenvalues ---    0.01398   0.01441   0.02483   0.02814   0.03012
     Eigenvalues ---    0.03110   0.03797   0.04353   0.04435   0.04771
     Eigenvalues ---    0.04773   0.04896   0.05028   0.05072   0.05087
     Eigenvalues ---    0.05312   0.05521   0.05599   0.05866   0.06215
     Eigenvalues ---    0.06247   0.06612   0.06764   0.07601   0.07893
     Eigenvalues ---    0.07943   0.07977   0.07986   0.08131   0.08619
     Eigenvalues ---    0.08886   0.09406   0.09407   0.10791   0.11665
     Eigenvalues ---    0.11701   0.11718   0.11980   0.12485   0.12532
     Eigenvalues ---    0.14598   0.15481   0.16277   0.16941   0.17482
     Eigenvalues ---    0.19934   0.21800   0.21808   0.25000   0.27984
     Eigenvalues ---    0.28550   0.28606   0.28777   0.28956   0.29076
     Eigenvalues ---    0.30073   0.30260   0.35032   0.35084   0.35084
     Eigenvalues ---    0.35098   0.35253   0.35259   0.35261   0.35280
     Eigenvalues ---    0.35319   0.35402   0.35433   0.35453   0.35513
     Eigenvalues ---    0.35813   0.35844   0.35944   0.36247   0.36267
     Eigenvalues ---    0.40911   0.41522   0.42127   0.42190   0.43433
     Eigenvalues ---    0.450971000.000001000.000001000.000001000.00000
     Eigenvalues --- 1000.000001000.000001000.000001000.000001000.00000
     Eigenvalues --- 1000.000001000.000001000.000001000.000001000.00000
     Eigenvalues --- 1000.000001000.000001000.000001000.000001000.00000
     Eigenvalues --- 1000.000001000.000001000.000001000.000001000.00000
     Eigenvalues --- 1000.000001000.000001000.000001000.000001000.00000
     Eigenvalues --- 1000.000001000.000001000.000001000.000001000.00000
     Eigenvalues --- 1000.000001000.000001000.000001000.000001000.00000
     Eigenvalues --- 1000.000001000.000001000.000001000.000001000.00000
     Eigenvalues --- 1000.000001000.000001000.000001000.000001000.00000
     Eigenvalues --- 1000.000001000.000001000.000001000.000001000.00000
     Eigenvalues --- 1000.000001000.000001000.000001000.000001000.00000
     Eigenvalues --- 1000.000001000.000001000.000001000.000001000.00000
     Eigenvalues --- 1000.000001000.000001000.000001000.000001000.00000
     Eigenvalues --- 1000.000001000.000001000.000001000.000001000.00000
     Eigenvalues --- 1000.000001000.000001000.000001000.000001000.00000
     Eigenvalues --- 1000.000001000.000001000.000001000.000001000.00000
     Eigenvalues --- 1000.000001000.000001000.000001000.000001000.00000
     Eigenvalues --- 1000.000001000.000001000.000001000.000001000.00000
     Eigenvalues --- 1000.000001000.000001000.000001000.000001000.00000
 RFO step:  Lambda=-4.53026852D-03 EMin= 4.64570824D-03
 Linear search not attempted -- first point.
 Iteration  1 RMS(Cart)=  0.10405922 RMS(Int)=  0.00219354
 Iteration  2 RMS(Cart)=  0.00573503 RMS(Int)=  0.00006099
 Iteration  3 RMS(Cart)=  0.00001027 RMS(Int)=  0.00006083
 Iteration  4 RMS(Cart)=  0.00000000 RMS(Int)=  0.00006083
 Iteration  1 RMS(Cart)=  0.00003310 RMS(Int)=  0.00000699
 Iteration  2 RMS(Cart)=  0.00001755 RMS(Int)=  0.00000781
 Iteration  3 RMS(Cart)=  0.00000931 RMS(Int)=  0.00000879
 Iteration  4 RMS(Cart)=  0.00000494 RMS(Int)=  0.00000942
 Iteration  5 RMS(Cart)=  0.00000262 RMS(Int)=  0.00000978
 Iteration  6 RMS(Cart)=  0.00000139 RMS(Int)=  0.00000997
 Iteration  7 RMS(Cart)=  0.00000074 RMS(Int)=  0.00001008
 Variable       Old X    -DE/DX   Delta X   Delta X   Delta X     New X
                                 (Linear)    (Quad)   (Total)
    R1        2.88459  -0.00121   0.00000  -0.00397  -0.00401   2.88058
    R2        2.86607  -0.00006   0.00000  -0.00051  -0.00052   2.86555
    R3        2.05515   0.00308   0.00000   0.00868   0.00868   2.06383
    R4        2.05253   0.00277   0.00000   0.00776   0.00776   2.06029
    R5        2.65507   0.00289   0.00000   0.00631   0.00635   2.66142
    R6        2.65163  -0.00022   0.00000  -0.00048  -0.00048   2.65115
    R7        2.90198  -0.00043   0.00000  -0.00108  -0.00107   2.90091
    R8        2.03666   0.00700   0.00000   0.01907   0.01907   2.05573
    R9        2.88784  -0.00121   0.00000  -0.00450  -0.00453   2.88330
   R10        2.89231  -0.00133   0.00000  -0.00518  -0.00520   2.88711
   R11        2.05539   0.00372   0.00000   0.01047   0.01047   2.06586
   R12        2.04946   0.00339   0.00000   0.00943   0.00943   2.05889
   R13        2.89907  -0.00136   0.00000  -0.00405  -0.00406   2.89501
   R14        2.05160   0.00261   0.00000   0.00731   0.00731   2.05891
   R15        2.04978   0.00412   0.00000   0.01147   0.01147   2.06125
   R16        2.67573   0.00317   0.00000   0.00762   0.00766   2.68339
   R17        2.87345   0.00035   0.00000   0.00093   0.00091   2.87436
   R18        2.05624   0.00619   0.00000   0.01744   0.01744   2.07367
   R19        2.04375   0.00434   0.00000   0.01196   0.01196   2.05571
   R20        2.66820   0.00168   0.00000   0.00428   0.00430   2.67250
   R21        2.68507   0.00306   0.00000   0.00676   0.00677   2.69184
   R22        2.05027   0.00723   0.00000   0.02017   0.02017   2.07044
   R23        2.04326   0.00432   0.00000   0.01191   0.01191   2.05516
   R24        2.87547   0.00059   0.00000   0.00219   0.00221   2.87769
   R25        2.68762   0.00066   0.00000   0.00154   0.00154   2.68916
   R26        2.03697   0.00832   0.00000   0.02267   0.02267   2.05964
   R27        2.05222   0.00326   0.00000   0.00912   0.00912   2.06134
   R28        2.05266   0.00284   0.00000   0.00794   0.00794   2.06060
   R29        2.05539   0.00639   0.00000   0.01797   0.01797   2.07336
   R30        2.04169   0.00549   0.00000   0.01508   0.01508   2.05676
   R31        2.05257   0.00348   0.00000   0.00973   0.00973   2.06230
   R32        2.04850   0.00401   0.00000   0.01116   0.01116   2.05966
    A1        1.91374  -0.00115   0.00000  -0.00635  -0.00653   1.90722
    A2        1.92451   0.00112   0.00000   0.00171   0.00176   1.92627
    A3        1.93564  -0.00062   0.00000  -0.00130  -0.00127   1.93436
    A4        1.90399  -0.00016   0.00000  -0.00336  -0.00334   1.90065
    A5        1.90824   0.00084   0.00000   0.00537   0.00544   1.91367
    A6        1.87713   0.00001   0.00000   0.00415   0.00412   1.88125
    A7        1.94360   0.00174   0.00000  -0.00223  -0.00241   1.94119
    A8        1.96285   0.00297   0.00000   0.00791   0.00749   1.97034
    A9        1.81282  -0.00124   0.00000   0.00485   0.00476   1.81757
   A10        2.03999  -0.00634   0.00000  -0.03493  -0.03498   2.00501
   A11        1.79209   0.00272   0.00000   0.02065   0.02082   1.81291
   A12        1.88860   0.00061   0.00000   0.01066   0.01078   1.89938
   A13        1.94173   0.00022   0.00000  -0.01049  -0.01059   1.93115
   A14        1.88340   0.00009   0.00000   0.00706   0.00708   1.89048
   A15        1.91740  -0.00052   0.00000  -0.00628  -0.00626   1.91114
   A16        1.90805  -0.00021   0.00000   0.00435   0.00441   1.91245
   A17        1.93751   0.00021   0.00000   0.00140   0.00132   1.93883
   A18        1.87366   0.00021   0.00000   0.00476   0.00475   1.87841
   A19        1.92739   0.00136   0.00000  -0.00276  -0.00276   1.92463
   A20        1.92975  -0.00009   0.00000   0.00144   0.00148   1.93123
   A21        1.90727  -0.00084   0.00000  -0.00187  -0.00191   1.90536
   A22        1.89653  -0.00022   0.00000   0.00304   0.00306   1.89959
   A23        1.94293  -0.00053   0.00000  -0.00127  -0.00129   1.94164
   A24        1.85897   0.00029   0.00000   0.00163   0.00163   1.86060
   A25        1.93621   0.00148   0.00000   0.00752   0.00744   1.94366
   A26        1.90131   0.00096   0.00000   0.00835   0.00841   1.90972
   A27        1.85656  -0.00123   0.00000  -0.00504  -0.00501   1.85155
   A28        1.93025  -0.00135   0.00000  -0.00812  -0.00813   1.92212
   A29        1.94626  -0.00036   0.00000  -0.00372  -0.00371   1.94255
   A30        1.89096   0.00052   0.00000   0.00137   0.00133   1.89229
   A31        1.97763  -0.00385   0.00000  -0.02432  -0.02425   1.95338
   A32        1.93841   0.00277   0.00000   0.00963   0.00952   1.94793
   A33        1.93402  -0.00184   0.00000  -0.00828  -0.00831   1.92571
   A34        1.94723  -0.00034   0.00000  -0.00368  -0.00365   1.94358
   A35        1.91806   0.00041   0.00000   0.00536   0.00544   1.92350
   A36        1.83817  -0.00148   0.00000  -0.00151  -0.00149   1.83668
   A37        1.88498   0.00047   0.00000  -0.00127  -0.00132   1.88366
   A38        1.91857   0.00023   0.00000  -0.00027  -0.00035   1.91822
   A39        1.91267   0.00031   0.00000  -0.00117  -0.00114   1.91153
   A40        1.91880  -0.00078   0.00000  -0.00383  -0.00380   1.91499
   A41        1.89782  -0.00019   0.00000   0.00014   0.00018   1.89799
   A42        1.88645   0.00019   0.00000   0.00234   0.00235   1.88880
   A43        1.92928   0.00023   0.00000   0.00287   0.00285   1.93212
   A44        1.92545  -0.00035   0.00000  -0.00710  -0.00718   1.91828
   A45        1.92606   0.00038   0.00000  -0.00236  -0.00234   1.92371
   A46        1.92636  -0.00070   0.00000  -0.00130  -0.00129   1.92507
   A47        1.90551  -0.00026   0.00000  -0.00101  -0.00106   1.90445
   A48        1.90729   0.00066   0.00000   0.00541   0.00546   1.91275
   A49        1.87226   0.00029   0.00000   0.00683   0.00681   1.87908
   A50        1.95291   0.00110   0.00000   0.00432   0.00434   1.95725
   A51        1.91091   0.00099   0.00000   0.00967   0.00966   1.92056
   A52        1.86168  -0.00069   0.00000  -0.00295  -0.00296   1.85872
   A53        1.90601  -0.00113   0.00000  -0.00396  -0.00401   1.90199
   A54        1.93354  -0.00093   0.00000  -0.01062  -0.01063   1.92291
   A55        1.89769   0.00070   0.00000   0.00387   0.00383   1.90152
   A56        2.07210  -0.00566   0.00000  -0.03592  -0.03579   2.03632
   A57        2.16623  -0.01964   0.00000  -0.07716  -0.07716   2.08907
   A58        2.03084  -0.00081   0.00000  -0.00829  -0.00844   2.02240
   A59        1.83560   0.00028   0.00000   0.01051   0.01052   1.84612
   A60        1.90230   0.00021   0.00000  -0.00716  -0.00722   1.89508
   A61        1.87966   0.00088   0.00000   0.00942   0.00951   1.88917
   A62        1.94331  -0.00043   0.00000  -0.00592  -0.00607   1.93724
   A63        1.86164  -0.00001   0.00000   0.00392   0.00395   1.86559
    D1        0.90951  -0.00030   0.00000   0.00355   0.00351   0.91302
    D2        3.00913   0.00025   0.00000   0.00650   0.00649   3.01562
    D3       -1.23334   0.00004   0.00000   0.00820   0.00819  -1.22515
    D4       -1.18725  -0.00007   0.00000   0.01067   0.01065  -1.17660
    D5        0.91237   0.00047   0.00000   0.01362   0.01364   0.92600
    D6        2.95309   0.00027   0.00000   0.01532   0.01534   2.96842
    D7        3.01862  -0.00041   0.00000   0.00524   0.00519   3.02381
[...]
 48737,-0.00019299,0.00401150,0.00283302,-0.00029287,-0.11768249,-0.059
 40671,-0.14307469,0.00035766,-0.00042758,0.00029437,0.00035539,0.00015
 360,0.00015631,0.00002257,-0.00002483,0.00000922,-0.00042972,0.0004039
 6,0.00110387,0.00310637,-0.00227701,-0.00396747,0.00003749,0.00005777,
 -0.00004192,-0.00003628,-0.00005025,0.00006562,-0.00000936,0.00000231,
 0.00001720,0.00000092,-0.00000176,0.00001095,0.00005430,0.00005230,0.0
 0002114,-0.00000194,-0.00001889,-0.00000305,0.11948983,0.06203978,0.16
 451143,-0.00012748,-0.00048927,0.00317059,0.00905068,-0.01142810,0.001
 72165,-0.00067713,-0.00029007,-0.00013245,-0.00815702,0.00889251,-0.00
 301069,0.00000614,-0.00005837,-0.00007218,0.00008056,0.00006678,0.0000
 0153,-0.00049083,0.00005742,0.00071757,0.00012149,-0.00034082,-0.00012
 875,-0.00001259,0.00007099,0.00007896,-0.00007456,-0.00005587,-0.00007
 145,0.00008322,-0.00459835,0.00145049,0.00095827,0.00019547,-0.0000631
 6,-0.16460125,0.13231344,-0.02950233,0.00015557,-0.00034688,-0.0000327
 7,-0.00015444,0.00103497,-0.00009960,0.00003205,0.00005966,0.00000999,
 -0.00015364,-0.00023968,-0.00013172,0.00080327,-0.00037679,0.00003228,
 0.00007347,-0.00000272,-0.00007700,0.00006255,0.00005400,-0.00015455,0
 .00000646,0.00000249,-0.00000152,0.00003217,-0.00000791,-0.00001031,0.
 00000962,0.00001603,0.00001701,0.00000960,0.00004087,-0.00000119,-0.01
 478210,0.01668840,-0.00363575,0.17877712,0.00044144,0.00086305,-0.0019
 4208,0.01800093,-0.01783098,0.00255477,0.00000623,-0.00023784,-0.00015
 601,0.00491168,-0.00592306,0.00087659,0.00000741,0.00000412,-0.0000896
 9,0.00017114,0.00011147,-0.00001726,-0.00025528,0.00114264,0.00132606,
 -0.00072520,-0.00078779,-0.00028669,0.00000514,0.00009727,0.00017811,-
 0.00007759,-0.00020068,-0.00012270,-0.00165280,-0.00597462,0.00290710,
 0.00090139,0.00266906,-0.00082600,0.12855058,-0.19190976,0.03366377,0.
 00007891,-0.00005244,0.00007661,0.00025723,-0.00037880,0.00020847,0.00
 010530,0.00006757,0.00007229,0.00005741,0.00010330,-0.00027765,-0.0003
 9213,0.00030483,0.00020406,-0.00002285,-0.00006773,-0.00020696,0.00004
 861,-0.00005506,-0.00011476,-0.00000303,0.00001078,-0.00001739,0.00004
 280,-0.00001046,-0.00000957,0.00002814,0.00001579,0.00002590,0.0000202
 7,0.00006717,0.00000359,-0.00803127,0.01004412,-0.00161259,-0.14195647
 ,0.20776267,0.00244911,-0.00030698,-0.00551291,-0.01194355,0.00834416,
 -0.00220340,-0.00009687,-0.00002480,-0.00004834,0.01929401,-0.02319966
 ,0.00550012,-0.00002006,-0.00000075,-0.00003185,0.00007816,0.00004458,
 -0.00002863,0.00046800,-0.00010215,-0.00111763,-0.00000860,0.00017263,
 0.00044646,-0.00000403,0.00000691,0.00004254,-0.00000044,-0.00009816,-
 0.00002649,0.00109181,0.00420623,-0.00073199,-0.00026807,-0.00089522,0
 .00062475,-0.02864969,0.03484019,-0.05439973,0.00014479,-0.00001548,0.
 00009356,0.00076032,-0.00165912,0.00014034,0.00001212,-0.00001514,-0.0
 0000820,-0.00031058,0.00070135,0.00069333,-0.00096859,0.00016697,0.001
 50797,-0.00009615,0.00001793,0.00014453,-0.00011901,0.00000473,0.00018
 332,0.00000610,0.00000612,-0.00000866,0.00001853,-0.00000303,-0.000007
 78,0.00001534,0.00001867,0.00001311,-0.00000527,0.00001683,-0.00000229
 ,-0.01227491,0.01508376,-0.00371412,0.03014893,-0.03656946,0.05865065,
 0.00028612,-0.00006888,-0.00019691,-0.03981707,-0.00280143,0.00363329,
 0.00004021,-0.00030803,-0.00051508,0.00022620,-0.00191984,0.00070540,0
 .00023197,-0.00010354,0.00009576,-0.00037703,-0.00001387,0.00020470,0.
 00141421,0.00282775,-0.00111648,-0.00269465,-0.00425260,0.00194884,0.0
 0005231,0.00007277,-0.00011412,-0.00020689,0.00068183,-0.00194018,-0.0
 0493433,0.01413497,0.01853729,-0.02438586,-0.00703340,-0.04347378,-0.0
 0091152,-0.00024912,0.01398496,-0.00008204,-0.00002653,-0.00007374,-0.
 00001819,-0.00002728,0.00000585,-0.00022393,0.00020941,-0.00005014,-0.
 00026260,0.00003065,0.00037346,-0.00004023,0.00011192,0.00034546,-0.00
 005100,0.00011918,0.00057642,-0.00027177,0.00029239,0.00056795,0.00001
 053,-0.00002747,0.00002606,-0.00008292,0.00001930,0.00003522,-0.000418
 37,-0.00057832,-0.00019290,0.00003890,-0.00002861,0.00005143,0.0001574
 1,0.00012149,0.00131953,-0.00003082,-0.00052364,0.00033336,0.07236125,
 0.00022518,-0.00049327,-0.00028670,-0.00417130,-0.06244506,-0.05086387
 ,-0.00011496,-0.00009519,-0.00040852,-0.00056007,-0.00381604,0.0010882
 6,0.00000981,0.00000508,0.00000747,-0.00000051,0.00004124,-0.00001246,
 0.00012168,-0.00417972,0.00314522,-0.00044951,0.00146143,0.00103650,0.
 00001139,0.00001018,0.00000261,0.00015671,-0.00006719,0.00004000,0.014
 59910,-0.02232509,-0.03750423,-0.00419141,0.00265113,-0.00778578,-0.00
 536780,0.00566153,0.02360620,-0.00001327,0.00013222,-0.00002357,0.0000
 7595,0.00031589,-0.00010556,-0.00008910,0.00010026,-0.00000381,-0.0007
 2854,0.00028426,0.00097728,-0.00004034,0.00008227,0.00033955,-0.000041
 71,-0.00017533,-0.00044252,0.00070645,-0.00052172,-0.00138460,-0.00001
 223,-0.00000590,-0.00000326,-0.00001035,0.00000008,0.00000407,-0.00000
 329,0.00000461,0.00001095,0.00001322,0.00001299,-0.00000197,-0.0000197
 2,0.00101434,0.00063059,0.00070951,-0.00000233,-0.00058793,-0.00076866
 ,0.08240956,-0.00034306,0.00010922,0.00007497,0.00006985,-0.06184150,-
 0.30596279,-0.00004376,-0.00017870,-0.00016399,0.00054107,0.00290969,0
 .00069210,0.00013692,-0.00005264,0.00005641,-0.00030168,-0.00007683,0.
 00005032,-0.00060593,0.00024932,0.00321485,-0.00008655,-0.00147171,0.0
 0351160,-0.00001310,0.00005981,-0.00004643,-0.00006035,0.00037415,-0.0
 0053700,0.00396624,-0.00517462,-0.00104319,-0.01124574,-0.00139448,-0.
 00959886,0.00216845,-0.00213734,-0.01525524,0.00006029,-0.00003394,0.0
 0003891,0.00001624,-0.00006513,-0.00004279,-0.00008775,0.00008141,-0.0
 0004510,0.00044347,-0.00028852,-0.00076322,-0.00002799,0.00000778,-0.0
 0001268,-0.00009980,0.00012013,0.00005906,0.00013903,-0.00007543,-0.00
 026821,0.00000587,-0.00001417,-0.00003443,-0.00005827,0.00000550,0.000
 00837,-0.00012520,-0.00017535,-0.00007618,0.00002767,0.00002607,0.0000
 2692,0.00028214,-0.00005480,0.00120248,0.00003819,0.00037240,-0.000217
 65,0.00504286,0.06866723,0.32483106,-0.00000028,-0.00000079,-0.0000014
 1,0.00006567,-0.00002574,0.00007678,0.00035238,0.00081864,-0.00091352,
 -0.00000263,-0.00000565,0.00000479,-0.06961336,-0.00529042,-0.05673082
 ,-0.01761709,0.01332876,-0.02397563,0.00001027,-0.00000082,0.00000003,
 -0.00051680,-0.00001019,0.00026683,-0.00234273,-0.00215860,-0.01244470
 ,0.00262809,0.00021253,-0.00510370,-0.00002968,0.00001649,-0.00000213,
 0.00000535,-0.00002065,0.00013415,-0.00001749,0.00000585,-0.00000610,-
 0.00000190,-0.00000015,-0.00000080,-0.00000133,0.00000018,0.00000174,-
 0.00009697,-0.00018381,0.00020633,-0.00000554,-0.00000093,0.00000012,0
 .00000021,0.00000018,-0.00000836,0.00000472,-0.00000487,-0.00000496,-0
 .00000327,0.00000130,-0.00000095,0.00009062,-0.00199008,-0.00076118,0.
 00039441,-0.00006997,0.00018293,0.00032371,-0.00025318,0.00098766,0.00
 011952,0.00000976,0.00038714,-0.00000706,-0.00000622,0.00000221,0.0000
 0081,0.00000099,-0.00000024,0.00000112,0.00000094,-0.00000673,0.077285
 82,0.00000305,0.00000020,0.00000747,-0.00005913,0.00005537,0.00000025,
 0.00124963,0.00131718,-0.00063525,0.00000319,0.00000612,-0.00000425,-0
 .00410417,-0.04804007,-0.00713101,0.02075376,-0.00952085,0.02744734,-0
 .00001550,-0.00000247,-0.00002295,0.00015759,-0.00021598,-0.00038154,-
 0.00929123,-0.00101006,-0.03056870,-0.00354119,0.00012075,0.00297914,-
 0.00001020,-0.00000091,0.00000069,-0.00000882,0.00019120,0.00008100,0.
 00001993,0.00000173,-0.00000038,0.00000330,0.00000201,-0.00000006,0.00
 000095,-0.00000086,-0.00000163,-0.00007710,-0.00006424,0.00063726,0.00
 000621,0.00000098,0.00000019,0.00000003,-0.00000026,0.00000955,-0.0000
 0507,0.00000521,0.00000931,0.00000552,-0.00000081,0.00000354,-0.002959
 01,-0.00521975,-0.00125579,0.00075798,0.00109777,0.00065579,-0.0003326
 4,0.00024674,-0.00101170,-0.00009341,-0.00007420,-0.00025647,0.0000093
 3,0.00000156,-0.00000052,0.00000109,-0.00000842,-0.00000015,0.00001197
 ,0.00000031,0.00000549,-0.00459497,0.05982407,0.00000015,-0.00000187,-
 0.00000403,0.00041617,-0.00003882,0.00011387,0.00051148,0.00062541,0.0
 0085306,-0.00000602,-0.00002271,0.00001038,-0.06001709,-0.00535685,-0.
 27740371,-0.00817773,0.00869399,-0.00231964,0.00004070,0.00000344,-0.0
 0000318,-0.00016485,0.00012886,0.00008723,-0.00139431,-0.00089041,-0.0
 0964954,0.00227222,-0.00039066,0.00209308,-0.00011891,0.00008427,0.000
 01325,-0.00043613,-0.00015411,-0.00025973,-0.00003131,0.00001417,-0.00
 000305,-0.00000736,-0.00000257,-0.00000175,-0.00000552,0.00000245,0.00
 000547,-0.00063893,-0.00012983,0.00038466,-0.00001925,-0.00000309,0.00
 000140,0.00000098,0.00000329,-0.00002342,0.00000822,-0.00001454,-0.000
 01334,-0.00001733,0.00000567,-0.00000240,-0.00042231,-0.00186513,0.000
 94582,-0.00002017,-0.00052103,0.00013059,-0.00161515,-0.00008875,0.000
 34458,-0.00017428,0.00006265,0.00041609,-0.00001966,-0.00001141,0.0000
 0230,0.00001558,0.00001308,0.00000783,-0.00004535,-0.00000370,-0.00002
 810,0.07454090,0.00110455,0.30060264,-0.00000887,-0.00000151,-0.000015
 61,0.00043206,-0.00003941,0.00010950,0.00075298,-0.00207881,-0.0013103
 6,-0.00000782,-0.00002128,0.00001137,-0.20615661,-0.05280763,0.1166832
 1,-0.02753604,0.00185652,0.01550333,0.00006431,0.00000486,0.00004022,0
 .00033363,0.00032015,0.00047176,-0.00777106,-0.00430289,0.00670132,0.0
 0007831,0.00381560,-0.00342704,-0.00013208,0.00008728,-0.00000150,-0.0
 0040487,-0.00009659,-0.00029535,-0.00002908,0.00000228,-0.00000307,-0.
 00001259,-0.00000744,-0.00000016,-0.00000609,0.00000366,0.00000680,-0.
 00002840,0.00000507,0.00018629,-0.00002337,-0.00000510,0.00000077,0.00
 000295,0.00000351,-0.00003150,0.00001813,-0.00001981,-0.00003532,-0.00
 002525,0.00000674,-0.00000781,0.00020812,0.00056757,-0.00007458,0.0001
 9875,-0.00038357,-0.00005100,0.00004671,-0.00006330,0.00034425,-0.0011
 4592,-0.00019578,0.00074955,-0.00002832,-0.00000867,0.00000116,0.00001
 999,0.00002613,0.00000975,-0.00005009,-0.00000507,-0.00003157,0.008870
 83,0.00174935,-0.00436929,0.23288377,0.00001104,-0.00000360,0.00002982
 ,0.00013231,-0.00001838,0.00004279,-0.00142176,-0.00561351,-0.00325365
 ,0.00000520,-0.00000023,-0.00001225,-0.06082998,-0.06736051,0.04475420
 ,0.02927633,0.00279611,-0.01784916,-0.00001337,-0.00000168,-0.00006594
 ,0.00084629,-0.00068215,-0.00019954,-0.02334396,-0.00582059,0.01869323
 ,0.00250045,-0.00363270,0.00178416,-0.00005703,0.00006965,0.00001418,-
 0.00019479,0.00016255,-0.00010032,0.00000282,-0.00004371,-0.00000641,0
 .00000413,0.00000672,-0.00000412,-0.00000332,0.00000439,0.00000052,0.0
 0034689,0.00007552,-0.00005088,-0.00000445,0.00000118,0.00000266,0.000
 00497,-0.00000287,0.00000026,-0.00002128,-0.00000116,0.00002282,0.0000
 0325,0.00000233,0.00000576,0.00061423,0.00135420,-0.00034998,0.0008725
 0,0.00075772,0.00016848,-0.00013349,-0.00001551,-0.00011171,0.00132785
 ,0.00018249,-0.00062422,-0.00002086,0.00001377,-0.00000286,0.00002493,
 0.00004375,0.00000742,-0.00000672,-0.00000188,-0.00000507,0.00031797,0
 .00107478,-0.00110995,0.05174219,0.07664976,0.00000114,-0.00000055,0.0
 0000165,-0.00008393,0.00000462,-0.00000519,-0.00042539,-0.00151251,0.0
 0024851,-0.00000031,0.00000260,-0.00000152,0.12446729,0.04006484,-0.14
 653474,-0.00507281,-0.00185007,0.00471558,-0.00000886,-0.00000130,0.00
 000059,-0.00020024,-0.00003643,-0.00008686,-0.00909078,-0.00315676,0.0
 0601792,-0.00111538,0.00013918,0.00088349,0.00002712,-0.00001288,-0.00
 000316,0.00011926,0.00007045,0.00006009,0.00000775,0.00000188,0.000001
 57,0.00000155,0.00000100,-0.00000006,0.00000057,-0.00000026,-0.0000010
 7,-0.00023451,-0.00014208,0.00032340,0.00000173,0.00000038,-0.00000086
 ,0.00000131,-0.00000090,0.00000215,0.00000022,0.00000062,0.00000655,0.
 00000388,-0.00000090,0.00000005,0.00004303,0.00073779,0.00078613,0.000
 45744,0.00058689,0.00015906,-0.00023924,0.00001709,0.00045075,0.000118
 19,0.00008569,0.00030748,0.00000357,0.00000136,-0.00000125,0.00000507,
 -0.00000284,0.00000208,0.00001083,0.00000172,0.00000468,0.02297524,0.0
 0801498,-0.01644276,-0.13154689,-0.04279986,0.14879895,0.00000359,0.00
 002370,-0.00006934,-0.00030121,0.00016003,-0.00017757,-0.09940978,-0.1
 0132328,-0.03592819,0.00000503,-0.00007004,0.00009342,-0.00536350,0.00
 146226,0.00470938,0.00144727,-0.00066215,-0.00053183,0.00001060,0.0000
 3235,0.00007113,0.00972989,0.02111155,0.00652844,-0.01176623,-0.023548
 32,-0.00955025,-0.00420680,0.00334883,-0.00038285,0.00013262,-0.000227
 67,-0.00000003,0.00185983,-0.00149649,0.00151834,-0.00032753,0.0002805
 0,0.00003585,0.00000234,-0.00000688,0.00000764,0.00001420,-0.00002404,
 -0.00000327,-0.00405429,-0.00652773,-0.00222919,0.00001644,0.00000546,
 -0.00001044,0.00000454,-0.00001708,0.00001032,0.00003667,-0.00000758,-
 0.00001973,-0.00000025,-0.00001170,-0.00000929,0.00123988,0.00043921,0
 .00000324,0.00067094,0.00052650,-0.00075714,-0.00005983,-0.00009415,-0
 .00005362,0.00072824,0.00129224,0.00011455,0.00009462,-0.00006595,0.00
 001919,-0.00106138,-0.00012632,-0.00020348,0.00000861,0.00000847,0.000
 03612,0.00017970,0.00033669,0.00002523,-0.00048941,-0.00195824,-0.0002
 2849,0.10989010,0.00000310,-0.00000495,0.00012372,0.00020959,-0.000342
 23,0.00038973,-0.09987421,-0.23919896,-0.06654868,0.00003131,0.0000670
 2,-0.00018964,-0.00047892,0.00149610,0.00116486,-0.00058513,0.00051106
 ,0.00003061,-0.00006356,-0.00008187,-0.00015173,-0.01141021,-0.0244164
 4,-0.00876204,-0.00214475,-0.00348327,-0.00071297,0.00612885,-0.001862
 15,0.00085536,-0.00011190,0.00019229,-0.00004241,-0.00089330,0.0030791
 0,-0.00053265,-0.00001331,-0.00042909,-0.00010975,0.00001305,0.0000025
 5,-0.00000947,-0.00001812,0.00003317,0.00000517,0.00217496,0.00407063,
 0.00063507,0.00001202,0.00000176,0.00003552,0.00005766,-0.00002662,0.0
 0007946,-0.00003207,0.00002841,0.00005599,0.00002516,0.00001518,0.0000
 2292,-0.00001838,0.00016924,0.00013479,-0.00024967,0.00036100,0.000252
 01,-0.00005122,0.00026064,-0.00013452,-0.00090715,-0.00143851,-0.00011
 712,-0.00016627,0.00016724,-0.00003565,0.00002402,0.00052467,-0.000022
 74,0.00008899,0.00001654,0.00000811,0.00002232,-0.00000815,-0.00014698
 ,-0.00000926,-0.00031310,-0.00019601,0.10825220,0.25969898,-0.00000683
 ,-0.00000640,-0.00000581,-0.00051597,0.00001358,0.00013820,-0.03548449
 ,-0.06950739,-0.07194499,0.00001916,0.00002053,0.00001975,0.00366370,-
 0.00065005,-0.00202058,-0.00076890,-0.00028281,0.00014289,-0.00001998,
 -0.00000466,0.00002722,-0.00059035,0.00378851,-0.00148194,0.00888186,0
 .01772527,0.00551293,0.00017710,0.00023696,0.00028559,0.00013411,-0.00
 008495,-0.00003366,0.00124727,0.00040009,0.00093902,-0.00003620,-0.000
 00747,-0.00003501,-0.00000001,0.00000497,-0.00000073,0.00000227,0.0000
 0267,-0.00000172,-0.01251700,-0.02616895,-0.00830919,0.00000223,-0.000
 00041,-0.00000549,-0.00000659,-0.00001207,-0.00001564,0.00000454,0.000
 00005,0.00000048,0.00000671,-0.00000123,-0.00000531,-0.00095797,0.0000
 2219,0.00074314,-0.00075322,-0.00051282,0.00049831,0.00016346,0.000318
 44,0.00025979,-0.00002313,-0.00008032,0.00033197,0.00000179,0.00002271
 ,-0.00002097,-0.00013998,-0.00001487,0.00015692,0.00008235,0.00002393,
 0.00003304,0.00020404,0.00027911,0.00021027,0.00045867,0.00095911,0.00
 037836,0.03682408,0.07385922,0.07431447,-0.00018529,0.00016751,0.00005
 525,0.00250679,0.00070487,-0.00069176,-0.01613031,-0.00226721,0.011624
 44,-0.00391219,-0.00188564,-0.00016521,0.00115554,-0.00014327,0.000187
 55,-0.00156387,-0.00323898,-0.00058091,0.00007075,0.00129631,0.0004970
 7,-0.20619763,-0.02657642,0.13618584,-0.00073164,0.00394373,-0.0014542
 5,-0.01084160,0.00036195,0.00944801,0.00028012,-0.00024084,0.00014449,
 0.01132520,0.00172843,-0.01635892,-0.00031447,-0.00047567,0.00033352,0
 .00005745,-0.00010441,0.00005464,0.00001507,-0.00003316,-0.00001503,0.
 00020985,-0.00008819,-0.00022729,-0.00044011,0.00008425,0.00003172,-0.
 00388395,-0.00175752,0.00079956,-0.00107848,0.00100019,-0.00069588,-0.
 00023085,-0.00011278,-0.00005206,0.00005152,-0.00000596,0.00011693,-0.
 00095544,-0.00031803,0.00065501,-0.00001055,-0.00000630,-0.00031357,0.
 00047112,-0.00013578,-0.00007052,-0.00002930,0.00019424,0.00018849,0.0
 0004019,0.00010486,0.00013921,0.00003047,-0.00005056,0.00016304,-0.000
 07710,0.00002285,-0.00013068,-0.00005463,-0.00002411,0.00000166,0.0009
 6511,-0.00001581,-0.00005270,0.22945822,0.00022308,0.00014091,0.000013
 68,-0.00070860,0.00148807,-0.00023888,0.02271227,0.00424350,-0.0169302
 1,-0.00110427,-0.00031072,-0.00021420,0.00104225,-0.00173932,0.0000841
 8,-0.00576323,-0.00567881,-0.00021864,0.00070408,0.00014234,0.00038688
 ,-0.02578600,-0.05456886,0.02054068,0.00275332,-0.00439641,0.00142728,
 -0.02171743,-0.00022018,0.01891122,-0.00025519,-0.00032425,-0.00022988
 ,0.00044418,0.00027004,0.00133187,-0.00041872,0.00000798,-0.00040677,-
 0.00003004,-0.00013603,0.00004148,0.00000241,-0.00003911,0.00000498,-0
 .00073671,0.00100955,0.00029555,-0.00002485,-0.00004370,-0.00003022,-0
 .00156871,0.00049270,0.00055017,0.00090238,-0.00121956,0.00013047,-0.0
 0016689,-0.00004002,-0.00013532,-0.00018604,-0.00003415,-0.00009348,0.
 00147619,0.00034775,-0.00083998,0.00042638,0.00104960,-0.00058517,0.00
 118140,0.00069452,0.00038794,0.00014927,-0.00001061,0.00008109,-0.0000
 6128,-0.00039230,-0.00013767,0.00001531,-0.00007520,0.00004391,-0.0001
 1886,0.00022105,0.00001059,-0.00014479,0.00031668,-0.00001777,-0.00111
 236,0.00090978,-0.00034293,0.02787144,0.05789472,-0.00006133,0.0000694
 1,0.00007437,0.00542491,0.00046365,0.00119189,-0.00210281,-0.00084212,
 0.00336045,0.00071222,0.00032057,-0.00032812,0.00041538,-0.00030335,-0
 .00002800,-0.00183148,-0.00233188,0.00110279,-0.00049284,-0.00062128,-
 0.00116952,0.12655429,0.01876801,-0.15942200,-0.00054966,0.00091148,0.
 00082931,-0.00369496,0.00135615,0.00513005,-0.00135975,0.00090872,0.00
 031448,0.01499871,0.00443811,-0.03775025,-0.00155831,-0.00071351,-0.00
 037668,0.00010732,0.00001172,0.00001202,0.00002510,-0.00004490,-0.0000
 0318,0.00011596,-0.00031840,0.00049869,0.00044597,0.00006002,0.0003072
 2,0.00218322,0.00078181,0.00102011,0.00048118,0.00016360,0.00050980,0.
 00022847,0.00006168,0.00026654,-0.00019867,0.00000854,0.00012561,-0.00
 023510,0.00011335,0.00010388,-0.00007258,0.00065757,0.00030661,0.00037
 490,0.00005214,-0.00000719,0.00014102,0.00007411,0.00007422,-0.0001424
 3,-0.00021629,-0.00014781,-0.00016234,-0.00016313,0.00029109,-0.000009
 65,0.00003475,-0.00006788,-0.00007690,0.00006051,-0.00007156,0.0001577
 7,0.00005981,-0.00011131,-0.13981765,-0.02382085,0.18396439\\-0.000003
 75,-0.00000030,-0.00000370,0.00003903,0.00027701,-0.00047069,0.0000095
 3,0.00000026,0.00001467,0.00000430,-0.00000981,-0.00000884,-0.00001274
 ,0.00000578,0.00000285,0.00001371,-0.00000433,-0.00000366,0.00000025,-
 0.00000741,-0.00001440,-0.00008496,0.00039595,0.00000279,-0.00001516,0
 .,-0.00000967,0.00000310,-0.00000544,0.00000611,-0.00004792,-0.0000291
 5,0.00035742,0.00009790,-0.00061887,0.00009071,-0.00000696,0.00000771,
 0.00001740,0.00000258,0.00000333,-0.00000047,-0.00000045,0.00001525,-0
 .00000239,-0.00000309,0.00000053,-0.00000447,-0.00000039,0.00000265,-0
 .00000127,-0.00000354,0.00000660,0.00000666,0.00000189,-0.00000033,0.0
 0000452,0.00000431,0.00000205,0.00000022,0.00000296,-0.00000658,0.0000
 0654,0.00000520,-0.00000745,0.00000551,0.00000180,-0.00000138,0.000004
 56,0.00000591,0.00000149,0.00000144,-0.00000640,0.00000352,-0.00000155
 ,0.00000067,0.00000411,-0.00000781,-0.00000116,-0.00000687,-0.00000119
 ,0.00000117,-0.00000969,0.00000380,0.00000269,-0.00000762,0.00000114,-
 0.00000678,-0.00000563,-0.00000084,-0.00000367,-0.00000537,0.00000462\
 \\@


 THAT'S WHAT MAKES US A GREAT COUNTRY.
 THE LITTLE THINGS ARE SERIOUS AND THE BIG ONES ARE NOT.
           WILL ROGERS
 Job cpu time:       0 days 15 hours 43 minutes 35.9 seconds.
 Elapsed time:       0 days  0 hours 59 minutes  1.1 seconds.
 File lengths (MBytes):  RWF=    690 Int=      0 D2E=      0 Chk=     33 Scr=      1
 Normal termination of Gaussian 16 at Mon Nov  5 04:41:27 2018.
