 Entering Gaussian System, Link 0=g16
 Initial command:
 /apps/gaussian/g16a03/g16/l1.exe "/jobfs/local/2011898.r-man2/Gau-2171.inp" -scrdir="/jobfs/local/2011898.r-man2/"
 Entering Link 1 = /apps/gaussian/g16a03/g16/l1.exe PID=      2172.
  
 Copyright (c) 1988,1990,1992,1993,1995,1998,2003,2009,2016,
            Gaussian, Inc.  All Rights Reserved.
  
 This is part of the Gaussian(R) 16 program.  It is based on
 the Gaussian(R) 09 system (copyright 2009, Gaussian, Inc.),
 the Gaussian(R) 03 system (copyright 2003, Gaussian, Inc.),
 the Gaussian(R) 98 system (copyright 1998, Gaussian, Inc.),
 the Gaussian(R) 94 system (copyright 1995, Gaussian, Inc.),
 the Gaussian 92(TM) system (copyright 1992, Gaussian, Inc.),
 the Gaussian 90(TM) system (copyright 1990, Gaussian, Inc.),
 the Gaussian 88(TM) system (copyright 1988, Gaussian, Inc.),
 the Gaussian 86(TM) system (copyright 1986, Carnegie Mellon
 University), and the Gaussian 82(TM) system (copyright 1983,
 Carnegie Mellon University). Gaussian is a federally registered
 trademark of Gaussian, Inc.
  
 This software contains proprietary and confidential information,
 including trade secrets, belonging to Gaussian, Inc.
  
 This software is provided under written license and may be
 used, copied, transmitted, or stored only in accord with that
 written license.
  
 The following legend is applicable only to US Government
 contracts under FAR:
  
                    RESTRICTED RIGHTS LEGEND
  
 Use, reproduction and disclosure by the US Government is
 subject to restrictions as set forth in subparagraphs (a)
 and (c) of the Commercial Computer Software - Restricted
 Rights clause in FAR 52.227-19.
  
 Gaussian, Inc.
 340 Quinnipiac St., Bldg. 40, Wallingford CT 06492
  
  
 ---------------------------------------------------------------
 Warning -- This program may not be used in any manner that
 competes with the business of Gaussian, Inc. or will provide
 assistance to any competitor of Gaussian, Inc.  The licensee
 of this program is prohibited from giving any competitor of
 Gaussian, Inc. access to this program.  By using this program,
 the user acknowledges that Gaussian, Inc. is engaged in the
 business of creating and licensing software in the field of
 computational chemistry and represents and warrants to the
 licensee that it is not a competitor of Gaussian, Inc. and that
 it will not use this program in any manner prohibited above.
 ---------------------------------------------------------------
  

 Cite this work as:
 Gaussian 16, Revision A.03,
 M. J. Frisch, G. W. Trucks, H. B. Schlegel, G. E. Scuseria, 
 M. A. Robb, J. R. Cheeseman, G. Scalmani, V. Barone, 
 G. A. Petersson, H. Nakatsuji, X. Li, M. Caricato, A. V. Marenich, 
 J. Bloino, B. G. Janesko, R. Gomperts, B. Mennucci, H. P. Hratchian, 
 J. V. Ortiz, A. F. Izmaylov, J. L. Sonnenberg, D. Williams-Young, 
 F. Ding, F. Lipparini, F. Egidi, J. Goings, B. Peng, A. Petrone, 
 T. Henderson, D. Ranasinghe, V. G. Zakrzewski, J. Gao, N. Rega, 
 G. Zheng, W. Liang, M. Hada, M. Ehara, K. Toyota, R. Fukuda, 
 J. Hasegawa, M. Ishida, T. Nakajima, Y. Honda, O. Kitao, H. Nakai, 
 T. Vreven, K. Throssell, J. A. Montgomery, Jr., J. E. Peralta, 
 F. Ogliaro, M. J. Bearpark, J. J. Heyd, E. N. Brothers, K. N. Kudin, 
 V. N. Staroverov, T. A. Keith, R. Kobayashi, J. Normand, 
 K. Raghavachari, A. P. Rendell, J. C. Burant, S. S. Iyengar, 
 J. Tomasi, M. Cossi, J. M. Millam, M. Klene, C. Adamo, R. Cammi, 
 J. W. Ochterski, R. L. Martin, K. Morokuma, O. Farkas, 
 J. B. Foresman, and D. J. Fox, Gaussian, Inc., Wallingford CT, 2016.
 
 ******************************************
 Gaussian 16:  ES64L-G16RevA.03 25-Dec-2016
                 5-Nov-2018 
 ******************************************
 %mem=6000mb
 %nproc=24
 Will use up to   24 processors via shared memory.
 %chk=D_1a_4a_L_PHI.inp_extract_9.chk
 ----------------------------------------------------------------------
 #M062X/6-311++G(2d,2p) opt=ModRedundant freq=noraman SCRF=(Solvent=Wat
 er)
 ----------------------------------------------------------------------
 1/18=120,19=15,26=3,38=1/1,3;
 2/9=110,12=2,17=6,18=5,40=1/2;
 3/5=4,6=6,7=1212,11=2,25=1,30=1,70=2201,71=1,72=1,74=-55/1,2,3;
 4//1;
 5/5=2,38=5,53=1/2;
 6/7=2,8=2,9=2,10=2,28=1/1;
 7//1,2,3,16;
 1/18=20,19=15,26=3/3(2);
 2/9=110/2;
 99//99;
 2/9=110/2;
 3/5=4,6=6,7=1212,11=2,25=1,30=1,70=2205,71=1,72=1,74=-55/1,2,3;
 4/5=5,16=3,69=1/1;
 5/5=2,38=5,53=1/2;
 7//1,2,3,16;
 1/18=20,19=15,26=3/3(-5);
 2/9=110/2;
 6/7=2,8=2,9=2,10=2,19=2,28=1/1;
 99/9=1/99;
 ---------------------------
 D_1a_4a_L_PHI.inp_extract_9
 ---------------------------
 Symbolic Z-matrix:
 Charge =  0 Multiplicity = 1
 C                     3.4535    0.46952   0.59527 
 C                     1.10965  -0.65755  -0.67409 
 C                    -1.7604    1.49122  -0.09613 
 C                     2.65485  -0.61022   1.32539 
 C                    -3.44518  -0.16487   0.72902 
 O                    -2.7012   -1.19945   0.11115 
 C                     2.55276   1.23111  -0.36269 
 C                    -1.06436   0.34037  -0.81579 
 C                    -2.54278   0.99421   1.12153 
 C                    -2.04958  -0.79167  -1.07288 
 O                     1.88966   0.35257  -1.26249 
 O                     0.011    -0.11453  -0.00471 
 C                     1.92467  -1.4866    0.30652 
 H                     4.26527   0.01123   0.03503 
 H                     3.89662   1.17026   1.29721 
 H                    -2.44676   1.95694  -0.79902 
 H                     3.31069  -1.22401   1.93519 
 H                     1.94     -0.1445    1.99851 
 H                     1.81641   1.81101   0.18313 
 H                     3.12026   1.90897  -0.98527 
 H                    -1.86166   0.66857   1.90218 
 H                    -3.14817   1.79596   1.53441 
 H                    -2.78727  -0.463    -1.80138 
 H                    -1.54771  -1.66489  -1.46538 
 H                     2.65147  -2.05118  -0.27114 
 H                     1.26849  -2.20068   0.79227 
 H                     0.77371  -1.2645   -1.50263 
 H                    -4.22129   0.16971   0.04371 
 H                    -3.92167  -0.60694   1.59335 
 H                    -1.02924   2.24082   0.18712 
 H                    -0.67355   0.68433  -1.76591 
 
 The following ModRedundant input section has been read:
 D      11       2      12       8 F                                           
 

 GradGradGradGradGradGradGradGradGradGradGradGradGradGradGradGradGradGrad
 Berny optimization.
 Initialization pass.
                           ----------------------------
                           !    Initial Parameters    !
                           ! (Angstroms and Degrees)  !
 --------------------------                            --------------------------
 ! Name  Definition              Value          Derivative Info.                !
 --------------------------------------------------------------------------------
 ! R1    R(1,4)                  1.5286         estimate D2E/DX2                !
 ! R2    R(1,7)                  1.5196         estimate D2E/DX2                !
 ! R3    R(1,14)                 1.0876         estimate D2E/DX2                !
 ! R4    R(1,15)                 1.0863         estimate D2E/DX2                !
 ! R5    R(2,11)                 1.4053         estimate D2E/DX2                !
 ! R6    R(2,12)                 1.3964         estimate D2E/DX2                !
 ! R7    R(2,13)                 1.5209         estimate D2E/DX2                !
 ! R8    R(2,27)                 1.0806         estimate D2E/DX2                !
 ! R9    R(3,8)                  1.5254         estimate D2E/DX2                !
 ! R10   R(3,9)                  1.5303         estimate D2E/DX2                !
 ! R11   R(3,16)                 1.0872         estimate D2E/DX2                !
 ! R12   R(3,30)                 1.0848         estimate D2E/DX2                !
 ! R13   R(4,13)                 1.5295         estimate D2E/DX2                !
 ! R14   R(4,17)                 1.0857         estimate D2E/DX2                !
 ! R15   R(4,18)                 1.0867         estimate D2E/DX2                !
 ! R16   R(5,6)                  1.4162         estimate D2E/DX2                !
 ! R17   R(5,9)                  1.5205         estimate D2E/DX2                !
 ! R18   R(5,28)                 1.0881         estimate D2E/DX2                !
 ! R19   R(5,29)                 1.0815         estimate D2E/DX2                !
 ! R20   R(6,10)                 1.4117         estimate D2E/DX2                !
 ! R21   R(7,11)                 1.4217         estimate D2E/DX2                !
 ! R22   R(7,19)                 1.0846         estimate D2E/DX2                !
 ! R23   R(7,20)                 1.0813         estimate D2E/DX2                !
 ! R24   R(8,10)                 1.5226         estimate D2E/DX2                !
 ! R25   R(8,12)                 1.4217         estimate D2E/DX2                !
 ! R26   R(8,31)                 1.0834         estimate D2E/DX2                !
 ! R27   R(9,21)                 1.086          estimate D2E/DX2                !
 ! R28   R(9,22)                 1.0862         estimate D2E/DX2                !
 ! R29   R(10,23)                1.0876         estimate D2E/DX2                !
 ! R30   R(10,24)                1.0809         estimate D2E/DX2                !
 ! R31   R(13,25)                1.0866         estimate D2E/DX2                !
 ! R32   R(13,26)                1.0846         estimate D2E/DX2                !
 ! A1    A(4,1,7)              110.2074         estimate D2E/DX2                !
 ! A2    A(4,1,14)             109.7772         estimate D2E/DX2                !
 ! A3    A(4,1,15)             111.1074         estimate D2E/DX2                !
 ! A4    A(7,1,14)             109.2012         estimate D2E/DX2                !
 ! A5    A(7,1,15)             109.0164         estimate D2E/DX2                !
 ! A6    A(14,1,15)            107.4698         estimate D2E/DX2                !
 ! A7    A(11,2,12)            110.9695         estimate D2E/DX2                !
 ! A8    A(11,2,13)            111.3659         estimate D2E/DX2                !
 ! A9    A(11,2,27)            104.7881         estimate D2E/DX2                !
 ! A10   A(12,2,13)            108.9361         estimate D2E/DX2                !
 ! A11   A(12,2,27)            109.9606         estimate D2E/DX2                !
 ! A12   A(13,2,27)            110.7795         estimate D2E/DX2                !
 ! A13   A(8,3,9)              111.3248         estimate D2E/DX2                !
 ! A14   A(8,3,16)             107.8319         estimate D2E/DX2                !
 ! A15   A(8,3,30)             109.693          estimate D2E/DX2                !
 ! A16   A(9,3,16)             109.3164         estimate D2E/DX2                !
 ! A17   A(9,3,30)             111.1779         estimate D2E/DX2                !
 ! A18   A(16,3,30)            107.3567         estimate D2E/DX2                !
 ! A19   A(1,4,13)             109.6319         estimate D2E/DX2                !
 ! A20   A(1,4,17)             110.6084         estimate D2E/DX2                !
 ! A21   A(1,4,18)             109.6827         estimate D2E/DX2                !
 ! A22   A(13,4,17)            109.792          estimate D2E/DX2                !
 ! A23   A(13,4,18)            110.1292         estimate D2E/DX2                !
 ! A24   A(17,4,18)            106.9629         estimate D2E/DX2                !
 ! A25   A(6,5,9)              110.9613         estimate D2E/DX2                !
 ! A26   A(6,5,28)             108.9384         estimate D2E/DX2                !
 ! A27   A(6,5,29)             106.3518         estimate D2E/DX2                !
 ! A28   A(9,5,28)             110.58           estimate D2E/DX2                !
 ! A29   A(9,5,29)             111.5181         estimate D2E/DX2                !
 ! A30   A(28,5,29)            108.3488         estimate D2E/DX2                !
 ! A31   A(5,6,10)             113.4159         estimate D2E/DX2                !
 ! A32   A(1,7,11)             111.4544         estimate D2E/DX2                !
 ! A33   A(1,7,19)             110.6801         estimate D2E/DX2                !
 ! A34   A(1,7,20)             111.4739         estimate D2E/DX2                !
 ! A35   A(11,7,19)            109.4049         estimate D2E/DX2                !
 ! A36   A(11,7,20)            105.532          estimate D2E/DX2                !
 ! A37   A(19,7,20)            108.1133         estimate D2E/DX2                !
 ! A38   A(3,8,10)             110.203          estimate D2E/DX2                !
 ! A39   A(3,8,12)             108.505          estimate D2E/DX2                !
 ! A40   A(3,8,31)             109.8049         estimate D2E/DX2                !
 ! A41   A(10,8,12)            110.3571         estimate D2E/DX2                !
 ! A42   A(10,8,31)            108.7466         estimate D2E/DX2                !
 ! A43   A(12,8,31)            109.2115         estimate D2E/DX2                !
 ! A44   A(3,9,5)              110.219          estimate D2E/DX2                !
 ! A45   A(3,9,21)             110.4085         estimate D2E/DX2                !
 ! A46   A(3,9,22)             110.3461         estimate D2E/DX2                !
 ! A47   A(5,9,21)             109.2212         estimate D2E/DX2                !
 ! A48   A(5,9,22)             109.2705         estimate D2E/DX2                !
 ! A49   A(21,9,22)            107.3165         estimate D2E/DX2                !
 ! A50   A(6,10,8)             111.8286         estimate D2E/DX2                !
 ! A51   A(6,10,23)            109.6335         estimate D2E/DX2                !
 ! A52   A(6,10,24)            106.5901         estimate D2E/DX2                !
 ! A53   A(8,10,23)            109.1045         estimate D2E/DX2                !
 ! A54   A(8,10,24)            111.1927         estimate D2E/DX2                !
 ! A55   A(23,10,24)           108.4102         estimate D2E/DX2                !
 ! A56   A(2,11,7)             115.9803         estimate D2E/DX2                !
 ! A57   A(2,12,8)             116.4907         estimate D2E/DX2                !
 ! A58   A(2,13,4)             111.9002         estimate D2E/DX2                !
 ! A59   A(2,13,25)            107.3912         estimate D2E/DX2                !
 ! A60   A(2,13,26)            108.8704         estimate D2E/DX2                !
 ! A61   A(4,13,25)            109.4231         estimate D2E/DX2                !
 ! A62   A(4,13,26)            111.5748         estimate D2E/DX2                !
 ! A63   A(25,13,26)           107.4983         estimate D2E/DX2                !
 ! D1    D(7,1,4,13)            53.0103         estimate D2E/DX2                !
 ! D2    D(7,1,4,17)           174.2233         estimate D2E/DX2                !
 ! D3    D(7,1,4,18)           -68.0306         estimate D2E/DX2                !
 ! D4    D(14,1,4,13)          -67.3062         estimate D2E/DX2                !
 ! D5    D(14,1,4,17)           53.9068         estimate D2E/DX2                !
 ! D6    D(14,1,4,18)          171.653          estimate D2E/DX2                !
 ! D7    D(15,1,4,13)          173.9585         estimate D2E/DX2                !
 ! D8    D(15,1,4,17)          -64.8285         estimate D2E/DX2                !
 ! D9    D(15,1,4,18)           52.9177         estimate D2E/DX2                !
 ! D10   D(4,1,7,11)           -54.74           estimate D2E/DX2                !
 ! D11   D(4,1,7,19)            67.259          estimate D2E/DX2                !
 ! D12   D(4,1,7,20)          -172.3707         estimate D2E/DX2                !
 ! D13   D(14,1,7,11)           65.9226         estimate D2E/DX2                !
 ! D14   D(14,1,7,19)         -172.0784         estimate D2E/DX2                !
 ! D15   D(14,1,7,20)          -51.708          estimate D2E/DX2                !
 ! D16   D(15,1,7,11)         -176.9311         estimate D2E/DX2                !
 ! D17   D(15,1,7,19)          -54.9321         estimate D2E/DX2                !
 ! D18   D(15,1,7,20)           65.4383         estimate D2E/DX2                !
 ! D19   D(12,2,11,7)           66.5898         estimate D2E/DX2                !
 ! D20   D(13,2,11,7)          -54.9513         estimate D2E/DX2                !
 ! D21   D(27,2,11,7)         -174.7715         estimate D2E/DX2                !
 ! D22   D(11,2,12,8)           75.5423         Frozen                          !
 ! D23   D(13,2,12,8)         -161.5032         estimate D2E/DX2                !
 ! D24   D(27,2,12,8)          -39.9261         estimate D2E/DX2                !
 ! D25   D(11,2,13,4)           51.8452         estimate D2E/DX2                !
 ! D26   D(11,2,13,25)         -68.2532         estimate D2E/DX2                !
 ! D27   D(11,2,13,26)         175.6408         estimate D2E/DX2                !
 ! D28   D(12,2,13,4)          -70.8714         estimate D2E/DX2                !
 ! D29   D(12,2,13,25)         169.0302         estimate D2E/DX2                !
 ! D30   D(12,2,13,26)          52.9242         estimate D2E/DX2                !
 ! D31   D(27,2,13,4)          168.051          estimate D2E/DX2                !
 ! D32   D(27,2,13,25)          47.9526         estimate D2E/DX2                !
 ! D33   D(27,2,13,26)         -68.1534         estimate D2E/DX2                !
 ! D34   D(9,3,8,10)            49.864          estimate D2E/DX2                !
 ! D35   D(9,3,8,12)           -71.07           estimate D2E/DX2                !
 ! D36   D(9,3,8,31)           169.6327         estimate D2E/DX2                !
 ! D37   D(16,3,8,10)          -70.0431         estimate D2E/DX2                !
 ! D38   D(16,3,8,12)          169.023          estimate D2E/DX2                !
 ! D39   D(16,3,8,31)           49.7257         estimate D2E/DX2                !
 ! D40   D(30,3,8,10)          173.3431         estimate D2E/DX2                !
 ! D41   D(30,3,8,12)           52.4091         estimate D2E/DX2                !
 ! D42   D(30,3,8,31)          -66.8882         estimate D2E/DX2                !
 ! D43   D(8,3,9,5)            -50.8579         estimate D2E/DX2                !
 ! D44   D(8,3,9,21)            69.8969         estimate D2E/DX2                !
 ! D45   D(8,3,9,22)          -171.6337         estimate D2E/DX2                !
 ! D46   D(16,3,9,5)            68.1662         estimate D2E/DX2                !
 ! D47   D(16,3,9,21)         -171.079          estimate D2E/DX2                !
 ! D48   D(16,3,9,22)          -52.6097         estimate D2E/DX2                !
 ! D49   D(30,3,9,5)          -173.4867         estimate D2E/DX2                !
 ! D50   D(30,3,9,21)          -52.7319         estimate D2E/DX2                !
 ! D51   D(30,3,9,22)           65.7374         estimate D2E/DX2                !
 ! D52   D(1,4,13,2)           -51.9759         estimate D2E/DX2                !
 ! D53   D(1,4,13,25)           66.9272         estimate D2E/DX2                !
 ! D54   D(1,4,13,26)         -174.2389         estimate D2E/DX2                !
 ! D55   D(17,4,13,2)         -173.6799         estimate D2E/DX2                !
 ! D56   D(17,4,13,25)         -54.7768         estimate D2E/DX2                !
 ! D57   D(17,4,13,26)          64.0571         estimate D2E/DX2                !
 ! D58   D(18,4,13,2)           68.7948         estimate D2E/DX2                !
 ! D59   D(18,4,13,25)        -172.302          estimate D2E/DX2                !
 ! D60   D(18,4,13,26)         -53.4682         estimate D2E/DX2                !
 ! D61   D(9,5,6,10)           -60.6657         estimate D2E/DX2                !
 ! D62   D(28,5,6,10)           61.3003         estimate D2E/DX2                !
 ! D63   D(29,5,6,10)          177.8849         estimate D2E/DX2                !
 ! D64   D(6,5,9,3)             55.0403         estimate D2E/DX2                !
 ! D65   D(6,5,9,21)           -66.4235         estimate D2E/DX2                !
 ! D66   D(6,5,9,22)           176.4584         estimate D2E/DX2                !
 ! D67   D(28,5,9,3)           -65.9628         estimate D2E/DX2                !
 ! D68   D(28,5,9,21)          172.5735         estimate D2E/DX2                !
 ! D69   D(28,5,9,22)           55.4554         estimate D2E/DX2                !
 ! D70   D(29,5,9,3)           173.4071         estimate D2E/DX2                !
 ! D71   D(29,5,9,21)           51.9434         estimate D2E/DX2                !
 ! D72   D(29,5,9,22)          -65.1747         estimate D2E/DX2                !
 ! D73   D(5,6,10,8)            60.0979         estimate D2E/DX2                !
 ! D74   D(5,6,10,23)          -61.0487         estimate D2E/DX2                !
 ! D75   D(5,6,10,24)         -178.1883         estimate D2E/DX2                !
 ! D76   D(1,7,11,2)            57.0214         estimate D2E/DX2                !
 ! D77   D(19,7,11,2)          -65.7117         estimate D2E/DX2                !
 ! D78   D(20,7,11,2)          178.1836         estimate D2E/DX2                !
 ! D79   D(3,8,10,6)           -53.6135         estimate D2E/DX2                !
 ! D80   D(3,8,10,23)           67.839          estimate D2E/DX2                !
 ! D81   D(3,8,10,24)         -172.6385         estimate D2E/DX2                !
 ! D82   D(12,8,10,6)           66.2057         estimate D2E/DX2                !
 ! D83   D(12,8,10,23)        -172.3418         estimate D2E/DX2                !
 ! D84   D(12,8,10,24)         -52.8192         estimate D2E/DX2                !
 ! D85   D(31,8,10,6)         -174.0211         estimate D2E/DX2                !
 ! D86   D(31,8,10,23)         -52.5686         estimate D2E/DX2                !
 ! D87   D(31,8,10,24)          66.954          estimate D2E/DX2                !
 ! D88   D(3,8,12,2)          -150.2639         estimate D2E/DX2                !
 ! D89   D(10,8,12,2)           88.8973         estimate D2E/DX2                !
 ! D90   D(31,8,12,2)          -30.5947         estimate D2E/DX2                !
 --------------------------------------------------------------------------------
 Trust Radius=3.00D-01 FncErr=1.00D-07 GrdErr=1.00D-06 EigMax=2.50D+02 EigMin=1.00D-04
 Number of steps in this run=    186 maximum allowed number of steps=    186.
 GradGradGradGradGradGradGradGradGradGradGradGradGradGradGradGradGradGrad

                          Input orientation:                          
 ---------------------------------------------------------------------
 Center     Atomic      Atomic             Coordinates (Angstroms)
 Number     Number       Type             X           Y           Z
 ---------------------------------------------------------------------
      1          6           0        3.453503    0.469516    0.595272
      2          6           0        1.109646   -0.657551   -0.674091
      3          6           0       -1.760397    1.491220   -0.096125
      4          6           0        2.654847   -0.610217    1.325394
      5          6           0       -3.445179   -0.164867    0.729021
      6          8           0       -2.701203   -1.199451    0.111146
      7          6           0        2.552758    1.231112   -0.362686
      8          6           0       -1.064362    0.340374   -0.815790
      9          6           0       -2.542777    0.994209    1.121528
     10          6           0       -2.049578   -0.791674   -1.072880
     11          8           0        1.889659    0.352573   -1.262485
     12          8           0        0.010997   -0.114525   -0.004705
     13          6           0        1.924667   -1.486604    0.306519
     14          1           0        4.265274    0.011233    0.035033
     15          1           0        3.896619    1.170263    1.297212
     16          1           0       -2.446761    1.956939   -0.799018
     17          1           0        3.310693   -1.224006    1.935185
     18          1           0        1.940003   -0.144498    1.998506
     19          1           0        1.816406    1.811007    0.183130
     20          1           0        3.120264    1.908972   -0.985274
     21          1           0       -1.861664    0.668570    1.902179
     22          1           0       -3.148165    1.795955    1.534414
     23          1           0       -2.787270   -0.462998   -1.801377
     24          1           0       -1.547707   -1.664887   -1.465382
     25          1           0        2.651465   -2.051176   -0.271144
     26          1           0        1.268488   -2.200679    0.792270
     27          1           0        0.773710   -1.264502   -1.502632
     28          1           0       -4.221290    0.169712    0.043708
     29          1           0       -3.921672   -0.606939    1.593350
     30          1           0       -1.029239    2.240815    0.187121
     31          1           0       -0.673552    0.684334   -1.765907
 ---------------------------------------------------------------------
                    Distance matrix (angstroms):
                    1          2          3          4          5
     1  C    0.000000
     2  C    2.893999   0.000000
     3  C    5.357860   3.631585   0.000000
     4  C    1.528644   2.527415   5.092262   0.000000
     5  C    6.929080   4.791439   2.502395   6.145268   0.000000
     6  O    6.395329   3.928463   2.857934   5.523483   1.416204
     7  C    1.519557   2.397205   4.329205   2.500106   6.254265
     8  C    4.734858   2.396298   1.525395   4.395544   2.882707
     9  C    6.042154   4.392352   1.530300   5.443440   1.520476
    10  C    5.887039   3.187117   2.499856   5.283584   2.363776
    11  O    2.431161   1.405339   3.997477   2.865239   5.717896
    12  O    3.542869   1.396418   2.392616   3.000803   3.533559
    13  C    2.499425   1.520916   4.754919   1.529485   5.546237
    14  H    1.087595   3.302744   6.206148   2.155158   7.743624
    15  H    1.086332   3.872229   5.834915   2.170922   7.483810
    16  H    6.242563   4.415789   1.087220   6.093424   2.798893
    17  H    2.164204   3.460318   6.100379   1.085687   6.943948
    18  H    2.153314   2.845258   4.555877   1.086727   5.532829
    19  H    2.156281   2.707049   3.601912   2.805366   5.646800
    20  H    2.163610   3.275127   4.978549   3.449944   7.095397
    21  H    5.477100   4.150235   2.163383   4.729360   2.139728
    22  H    6.798783   5.387591   2.162735   6.285563   2.140490
    23  H    6.749871   4.061352   2.789502   6.278137   2.631471
    24  H    5.814987   2.949982   3.446899   5.153855   3.265864
    25  H    2.783492   2.117017   5.660718   2.150653   6.459687
    26  H    3.455870   2.134640   4.857315   2.176185   5.134899
    27  H    3.819596   1.080612   3.999245   3.458973   4.897805
    28  H    7.700425   5.442286   2.796772   7.037916   1.088093
    29  H    7.519848   5.518878   3.453651   6.581976   1.081452
    30  H    4.837258   3.703652   1.084764   4.795471   3.452206
    31  H    4.759611   2.484454   2.149528   4.723372   3.824621
                    6          7          8          9         10
     6  O    0.000000
     7  C    5.808292   0.000000
     8  C    2.430950   3.752636   0.000000
     9  C    2.420354   5.312579   2.523175   0.000000
    10  C    1.411671   5.077158   1.522589   2.871942   0.000000
    11  O    5.037028   1.421678   2.987629   5.073628   4.106439
    12  O    2.923442   2.898178   1.421685   3.003240   2.417746
    13  C    4.638890   2.868504   3.678549   5.174624   4.263835
    14  H    7.071305   2.139859   5.407148   6.963926   6.461384
    15  H    7.110102   2.136569   5.455715   6.444197   6.695057
    16  H    3.294835   5.070740   2.127109   2.150480   2.790632
    17  H    6.282564   3.447068   5.399653   6.312339   6.161807
    18  H    5.120141   2.800536   4.145066   4.707554   5.076318
    19  H    5.429257   1.084623   3.385178   4.533236   4.826732
    20  H    6.689836   1.081283   4.472172   6.111092   5.833389
    21  H    2.720685   4.993314   2.851449   1.085989   3.319428
    22  H    3.346330   6.034779   3.461851   1.086170   3.834149
    23  H    2.051223   5.784094   2.141308   3.275149   1.087624
    24  H    2.008139   5.139704   2.162560   3.840971   1.080941
    25  H    5.433474   3.285048   4.452361   6.180134   4.932437
    26  H    4.150281   3.841935   3.805916   4.984121   4.058773
    27  H    3.831910   3.269951   2.534933   4.794484   2.894686
    28  H    2.046905   6.868730   3.276287   2.158448   2.624379
    29  H    2.009364   7.008763   3.855590   2.165096   3.263073
    30  H    3.825790   3.761980   2.149125   2.172082   3.438704
    31  H    3.344150   3.560488   1.083404   3.453593   2.133620
                   11         12         13         14         15
    11  O    0.000000
    12  O    2.308584   0.000000
    13  C    2.417762   2.375204   0.000000
    14  H    2.728298   4.256321   2.792071   0.000000
    15  H    3.353886   4.294616   3.453840   1.752813   0.000000
    16  H    4.646862   3.310962   5.673586   7.037956   6.726924
    17  H    3.837972   3.985237   2.154664   2.459190   2.546143
    18  H    3.299042   2.781154   2.159700   3.047354   2.459422
    19  H    2.054799   2.646216   3.301694   3.042708   2.445203
    20  H    2.003400   3.837134   3.824672   2.439977   2.521539
    21  H    4.918066   2.785014   4.639742   6.438765   5.811670
    22  H    5.940174   3.999891   6.165756   7.771258   7.076492
    23  H    4.777994   3.343615   5.262447   7.303128   7.546070
    24  H    3.990839   2.639462   3.902409   6.233087   6.731321
    25  H    2.709449   3.285373   1.086587   2.636599   3.793128
    26  H    3.335711   2.562907   1.084633   3.800880   4.304101
    27  H    1.979380   2.036655   2.155704   4.022802   4.849718
    28  H    6.251662   4.242097   6.370655   8.488048   8.274831
    29  H    6.545840   4.273422   6.050572   8.356828   8.023205
    30  H    3.766534   2.581959   4.757465   5.746828   5.161634
    31  H    2.633163   2.051491   3.969718   5.299854   5.523159
                   16         17         18         19         20
    16  H    0.000000
    17  H    7.123381   0.000000
    18  H    5.611228   1.745892   0.000000
    19  H    4.377271   3.809711   2.671117   0.000000
    20  H    5.570346   4.287295   3.809554   1.753514   0.000000
    21  H    3.049377   5.507832   3.888834   4.217640   5.890296
    22  H    2.441882   7.141262   5.465363   5.145208   6.756834
    23  H    2.641357   7.192092   6.073521   5.504834   6.418039
    24  H    3.790773   5.946619   5.145311   5.110449   5.898553
    25  H    6.506577   2.446769   3.048428   3.977455   4.051238
    26  H    5.798367   2.535892   2.476655   4.094495   4.845407
    27  H    4.609142   4.272764   3.856503   3.658929   3.980567
    28  H    2.655809   7.889924   6.471591   6.258359   7.614607
    29  H    3.804242   7.266686   5.893830   6.384412   7.909992
    30  H    1.749978   5.822003   4.217491   2.877924   4.324697
    31  H    2.387188   5.763163   4.657085   3.356788   4.062286
                   21         22         23         24         25
    21  H    0.000000
    22  H    1.749666   0.000000
    23  H    3.981648   4.044826   0.000000
    24  H    4.109021   4.851564   1.758962   0.000000
    25  H    5.699885   7.190005   5.868881   4.382747   0.000000
    26  H    4.388888   6.002557   5.118175   3.648975   1.750950
    27  H    4.719608   5.828477   3.662272   2.355987   2.379366
    28  H    3.044767   2.453257   2.420966   3.576472   7.229539
    29  H    2.442526   2.525012   3.582144   4.013827   6.983430
    30  H    2.471095   2.550087   3.788852   4.272480   5.672634
    31  H    3.855738   4.272181   2.405293   2.524540   4.557748
                   26         27         28         29         30
    26  H    0.000000
    27  H    2.527411   0.000000
    28  H    6.026339   5.422007   0.000000
    29  H    5.488123   5.662518   1.759076   0.000000
    30  H    5.037125   4.288722   3.807785   4.295736   0.000000
    31  H    4.317301   2.441689   4.015718   4.847915   2.522591
                   31
    31  H    0.000000
 Stoichiometry    C10H18O3
 Framework group  C1[X(C10H18O3)]
 Deg. of freedom    87
 Full point group                 C1      NOp   1
 Largest Abelian subgroup         C1      NOp   1
 Largest concise Abelian subgroup C1      NOp   1
                         Standard orientation:                         
 ---------------------------------------------------------------------
 Center     Atomic      Atomic             Coordinates (Angstroms)
 Number     Number       Type             X           Y           Z
 ---------------------------------------------------------------------
      1          6           0        3.453503    0.469516    0.595272
      2          6           0        1.109646   -0.657551   -0.674091
      3          6           0       -1.760397    1.491220   -0.096125
      4          6           0        2.654847   -0.610217    1.325394
      5          6           0       -3.445179   -0.164867    0.729021
      6          8           0       -2.701203   -1.199451    0.111146
      7          6           0        2.552758    1.231112   -0.362686
      8          6           0       -1.064362    0.340374   -0.815790
      9          6           0       -2.542777    0.994209    1.121528
     10          6           0       -2.049578   -0.791674   -1.072880
     11          8           0        1.889659    0.352573   -1.262485
     12          8           0        0.010997   -0.114525   -0.004705
     13          6           0        1.924667   -1.486604    0.306519
     14          1           0        4.265274    0.011233    0.035033
     15          1           0        3.896619    1.170263    1.297212
     16          1           0       -2.446761    1.956939   -0.799018
     17          1           0        3.310693   -1.224006    1.935185
     18          1           0        1.940003   -0.144498    1.998506
     19          1           0        1.816406    1.811007    0.183130
     20          1           0        3.120264    1.908972   -0.985274
     21          1           0       -1.861664    0.668570    1.902179
     22          1           0       -3.148165    1.795955    1.534414
     23          1           0       -2.787270   -0.462998   -1.801377
     24          1           0       -1.547707   -1.664887   -1.465382
     25          1           0        2.651465   -2.051176   -0.271144
     26          1           0        1.268488   -2.200679    0.792270
     27          1           0        0.773710   -1.264502   -1.502632
     28          1           0       -4.221290    0.169712    0.043708
     29          1           0       -3.921672   -0.606939    1.593350
     30          1           0       -1.029239    2.240815    0.187121
     31          1           0       -0.673552    0.684334   -1.765907
 ---------------------------------------------------------------------
 Rotational constants (GHZ):           1.6802002           0.4473826           0.4345176
 Standard basis: 6-311++G(2d,2p) (5D, 7F)
 There are   557 symmetry adapted cartesian basis functions of A   symmetry.
 There are   531 symmetry adapted basis functions of A   symmetry.
   531 basis functions,   762 primitive gaussians,   557 cartesian basis functions
    51 alpha electrons       51 beta electrons
       nuclear repulsion energy       903.7463369893 Hartrees.
 NAtoms=   31 NActive=   31 NUniq=   31 SFac= 1.00D+00 NAtFMM=   60 NAOKFM=F Big=F
 Integral buffers will be    131072 words long.
 Raffenetti 2 integral format.
 Two-electron integral symmetry is turned on.
 ------------------------------------------------------------------------------
 Polarizable Continuum Model (PCM)
 =================================
 Model                : PCM.
 Atomic radii         : UFF (Universal Force Field).
 Polarization charges : Total charges.
 Charge compensation  : None.
 Solution method      : On-the-fly selection.
 Cavity type          : Scaled VdW (van der Waals Surface) (Alpha=1.100).
 Cavity algorithm     : GePol (No added spheres)
                        Default sphere list used, NSphG=   31.
                        Lebedev-Laikov grids with approx.  5.0 points / Ang**2.
                        Smoothing algorithm: York/Karplus (Gamma=1.0000).
                        Polarization charges: spherical gaussians, with
                                              point-specific exponents (IZeta= 3).
                        Self-potential: point-specific (ISelfS= 7).
                        Self-field    : sphere-specific E.n sum rule (ISelfD= 2).
 1st derivatives      : Analytical E(r).r(x)/FMM algorithm (CHGder, D1EAlg=3).
                        Cavity 1st derivative terms included.
 Solvent              : Water, Eps=  78.355300 Eps(inf)=   1.777849
 ------------------------------------------------------------------------------
 One-electron integrals computed using PRISM.
 NBasis=   531 RedAO= T EigKep=  4.94D-06  NBF=   531
 NBsUse=   531 1.00D-06 EigRej= -1.00D+00 NBFU=   531
 ExpMin= 3.60D-02 ExpMax= 8.59D+03 ExpMxC= 1.30D+03 IAcc=3 IRadAn=         5 AccDes= 0.00D+00
 Harris functional with IExCor= 1009 and IRadAn=       5 diagonalized for initial guess.
 HarFok:  IExCor= 1009 AccDes= 0.00D+00 IRadAn=         5 IDoV= 1 UseB2=F ITyADJ=14
 ICtDFT=  3500011 ScaDFX=  1.000000  1.000000  1.000000  1.000000
 FoFCou: FMM=F IPFlag=           0 FMFlag=      100000 FMFlg1=           0
         NFxFlg=           0 DoJE=T BraDBF=F KetDBF=T FulRan=T
         wScrn=  0.000000 ICntrl=       500 IOpCl=  0 I1Cent=   200000004 NGrid=           0
         NMat0=    1 NMatS0=      1 NMatT0=    0 NMatD0=    1 NMtDS0=    0 NMtDT0=    0
 Petite list used in FoFCou.
 Requested convergence on RMS density matrix=1.00D-08 within 128 cycles.
 Requested convergence on MAX density matrix=1.00D-06.
 Requested convergence on             energy=1.00D-06.
 No special actions if energy rises.
 Inv3:  Mode=1 IEnd=    12767907.
 Iteration    1 A*A^-1 deviation from unit magnitude is 3.33D-15 for   1145.
 Iteration    1 A*A^-1 deviation from orthogonality  is 2.67D-15 for   2051    945.
 Iteration    1 A^-1*A deviation from unit magnitude is 3.33D-15 for   1145.
 Iteration    1 A^-1*A deviation from orthogonality  is 1.88D-15 for   2025    932.
 Error on total polarization charges =  0.01467
 SCF Done:  E(RM062X) =  -617.502454903     A.U. after   13 cycles
            NFock= 13  Conv=0.20D-08     -V/T= 2.0035

 **********************************************************************

            Population analysis using the SCF density.

 **********************************************************************

 Orbital symmetries:
       Occupied  (A) (A) (A) (A) (A) (A) (A) (A) (A) (A) (A) (A)
                 (A) (A) (A) (A) (A) (A) (A) (A) (A) (A) (A) (A)
                 (A) (A) (A) (A) (A) (A) (A) (A) (A) (A) (A) (A)
                 (A) (A) (A) (A) (A) (A) (A) (A) (A) (A) (A) (A)
                 (A) (A) (A)
       Virtual   (A) (A) (A) (A) (A) (A) (A) (A) (A) (A) (A) (A)
                 (A) (A) (A) (A) (A) (A) (A) (A) (A) (A) (A) (A)
                 (A) (A) (A) (A) (A) (A) (A) (A) (A) (A) (A) (A)
                 (A) (A) (A) (A) (A) (A) (A) (A) (A) (A) (A) (A)
                 (A) (A) (A) (A) (A) (A) (A) (A) (A) (A) (A) (A)
                 (A) (A) (A) (A) (A) (A) (A) (A) (A) (A) (A) (A)
                 (A) (A) (A) (A) (A) (A) (A) (A) (A) (A) (A) (A)
                 (A) (A) (A) (A) (A) (A) (A) (A) (A) (A) (A) (A)
                 (A) (A) (A) (A) (A) (A) (A) (A) (A) (A) (A) (A)
                 (A) (A) (A) (A) (A) (A) (A) (A) (A) (A) (A) (A)
                 (A) (A) (A) (A) (A) (A) (A) (A) (A) (A) (A) (A)
                 (A) (A) (A) (A) (A) (A) (A) (A) (A) (A) (A) (A)
                 (A) (A) (A) (A) (A) (A) (A) (A) (A) (A) (A) (A)
                 (A) (A) (A) (A) (A) (A) (A) (A) (A) (A) (A) (A)
                 (A) (A) (A) (A) (A) (A) (A) (A) (A) (A) (A) (A)
                 (A) (A) (A) (A) (A) (A) (A) (A) (A) (A) (A) (A)
                 (A) (A) (A) (A) (A) (A) (A) (A) (A) (A) (A) (A)
                 (A) (A) (A) (A) (A) (A) (A) (A) (A) (A) (A) (A)
                 (A) (A) (A) (A) (A) (A) (A) (A) (A) (A) (A) (A)
                 (A) (A) (A) (A) (A) (A) (A) (A) (A) (A) (A) (A)
                 (A) (A) (A) (A) (A) (A) (A) (A) (A) (A) (A) (A)
                 (A) (A) (A) (A) (A) (A) (A) (A) (A) (A) (A) (A)
                 (A) (A) (A) (A) (A) (A) (A) (A) (A) (A) (A) (A)
                 (A) (A) (A) (A) (A) (A) (A) (A) (A) (A) (A) (A)
                 (A) (A) (A) (A) (A) (A) (A) (A) (A) (A) (A) (A)
                 (A) (A) (A) (A) (A) (A) (A) (A) (A) (A) (A) (A)
                 (A) (A) (A) (A) (A) (A) (A) (A) (A) (A) (A) (A)
                 (A) (A) (A) (A) (A) (A) (A) (A) (A) (A) (A) (A)
                 (A) (A) (A) (A) (A) (A) (A) (A) (A) (A) (A) (A)
                 (A) (A) (A) (A) (A) (A) (A) (A) (A) (A) (A) (A)
                 (A) (A) (A) (A) (A) (A) (A) (A) (A) (A) (A) (A)
                 (A) (A) (A) (A) (A) (A) (A) (A) (A) (A) (A) (A)
                 (A) (A) (A) (A) (A) (A) (A) (A) (A) (A) (A) (A)
                 (A) (A) (A) (A) (A) (A) (A) (A) (A) (A) (A) (A)
                 (A) (A) (A) (A) (A) (A) (A) (A) (A) (A) (A) (A)
                 (A) (A) (A) (A) (A) (A) (A) (A) (A) (A) (A) (A)
                 (A) (A) (A) (A) (A) (A) (A) (A) (A) (A) (A) (A)
                 (A) (A) (A) (A) (A) (A) (A) (A) (A) (A) (A) (A)
                 (A) (A) (A) (A) (A) (A) (A) (A) (A) (A) (A) (A)
                 (A) (A) (A) (A) (A) (A) (A) (A) (A) (A) (A) (A)
 The electronic state is 1-A.
 Alpha  occ. eigenvalues --  -19.62761 -19.62641 -19.62634 -10.63314 -10.58641
 Alpha  occ. eigenvalues --  -10.57854 -10.57711 -10.57557 -10.53202 -10.52949
 Alpha  occ. eigenvalues --  -10.52908 -10.52817 -10.52722  -1.20145  -1.16526
 Alpha  occ. eigenvalues --   -1.13293  -0.90932  -0.89680  -0.87214  -0.84823
 Alpha  occ. eigenvalues --   -0.74688  -0.74103  -0.73127  -0.71673  -0.66342
 Alpha  occ. eigenvalues --   -0.62799  -0.59501  -0.58362  -0.58022  -0.55934
 Alpha  occ. eigenvalues --   -0.54389  -0.53279  -0.52082  -0.51115  -0.50073
 Alpha  occ. eigenvalues --   -0.48348  -0.46862  -0.46155  -0.45565  -0.45073
 Alpha  occ. eigenvalues --   -0.43756  -0.42942  -0.41100  -0.40179  -0.38790
 Alpha  occ. eigenvalues --   -0.38538  -0.37473  -0.36299  -0.34978  -0.33307
 Alpha  occ. eigenvalues --   -0.31687
 Alpha virt. eigenvalues --   -0.00162   0.00825   0.00851   0.01055   0.02220
 Alpha virt. eigenvalues --    0.02529   0.02690   0.03213   0.03335   0.04602
 Alpha virt. eigenvalues --    0.04816   0.04841   0.05263   0.05900   0.07146
 Alpha virt. eigenvalues --    0.07688   0.07739   0.08139   0.09183   0.09513
 Alpha virt. eigenvalues --    0.09887   0.10518   0.10865   0.11386   0.12007
 Alpha virt. eigenvalues --    0.12260   0.12675   0.13171   0.13319   0.13413
 Alpha virt. eigenvalues --    0.13785   0.13912   0.14320   0.14720   0.14736
 Alpha virt. eigenvalues --    0.15266   0.15341   0.15446   0.15729   0.16540
 Alpha virt. eigenvalues --    0.16564   0.16771   0.17178   0.17780   0.17830
 Alpha virt. eigenvalues --    0.17974   0.18324   0.18568   0.18790   0.19445
 Alpha virt. eigenvalues --    0.19730   0.20173   0.20647   0.20772   0.21306
 Alpha virt. eigenvalues --    0.21710   0.22356   0.23033   0.23872   0.23946
 Alpha virt. eigenvalues --    0.24595   0.25611   0.26243   0.26689   0.27190
 Alpha virt. eigenvalues --    0.27355   0.27993   0.28490   0.28880   0.29142
 Alpha virt. eigenvalues --    0.29281   0.30497   0.30811   0.31656   0.32320
 Alpha virt. eigenvalues --    0.32415   0.33270   0.33549   0.34164   0.34741
 Alpha virt. eigenvalues --    0.34905   0.35246   0.35656   0.36274   0.36399
 Alpha virt. eigenvalues --    0.36989   0.37143   0.37207   0.37953   0.38280
 Alpha virt. eigenvalues --    0.38604   0.39183   0.39505   0.40273   0.40365
 Alpha virt. eigenvalues --    0.41065   0.41777   0.43897   0.44251   0.45058
 Alpha virt. eigenvalues --    0.47089   0.47940   0.49411   0.50180   0.50487
 Alpha virt. eigenvalues --    0.52051   0.52248   0.52706   0.54169   0.55123
 Alpha virt. eigenvalues --    0.56615   0.57825   0.58185   0.59317   0.60052
 Alpha virt. eigenvalues --    0.60208   0.60797   0.61318   0.61676   0.62028
 Alpha virt. eigenvalues --    0.62698   0.62895   0.63586   0.64450   0.64702
 Alpha virt. eigenvalues --    0.65022   0.65189   0.66139   0.66396   0.66557
 Alpha virt. eigenvalues --    0.67546   0.68526   0.68544   0.69379   0.69759
 Alpha virt. eigenvalues --    0.70156   0.70919   0.72164   0.72890   0.73124
 Alpha virt. eigenvalues --    0.73620   0.74451   0.74678   0.75360   0.75795
 Alpha virt. eigenvalues --    0.76700   0.77329   0.78383   0.78610   0.79635
 Alpha virt. eigenvalues --    0.80518   0.81831   0.83002   0.85527   0.86095
 Alpha virt. eigenvalues --    0.86414   0.87184   0.87835   0.88411   0.89524
 Alpha virt. eigenvalues --    0.90750   0.92607   0.92885   0.94733   0.97094
 Alpha virt. eigenvalues --    0.97532   0.98274   0.99754   1.00214   1.01677
 Alpha virt. eigenvalues --    1.02997   1.03715   1.04445   1.04817   1.06338
 Alpha virt. eigenvalues --    1.07896   1.09766   1.10221   1.11770   1.12195
 Alpha virt. eigenvalues --    1.12688   1.14515   1.14841   1.16214   1.16942
 Alpha virt. eigenvalues --    1.18121   1.18633   1.19122   1.20253   1.21319
 Alpha virt. eigenvalues --    1.21879   1.22797   1.23419   1.23618   1.24258
 Alpha virt. eigenvalues --    1.24804   1.26034   1.26897   1.27420   1.27806
 Alpha virt. eigenvalues --    1.28333   1.29443   1.30529   1.31109   1.32055
 Alpha virt. eigenvalues --    1.32241   1.32674   1.33172   1.34231   1.35070
 Alpha virt. eigenvalues --    1.36001   1.36287   1.36594   1.37355   1.37888
 Alpha virt. eigenvalues --    1.38426   1.39776   1.40146   1.40624   1.41243
 Alpha virt. eigenvalues --    1.41910   1.42354   1.43940   1.44334   1.44874
 Alpha virt. eigenvalues --    1.45470   1.46626   1.46964   1.47744   1.48027
 Alpha virt. eigenvalues --    1.48874   1.49706   1.50480   1.51565   1.52099
 Alpha virt. eigenvalues --    1.53080   1.53247   1.54458   1.55371   1.56140
 Alpha virt. eigenvalues --    1.56300   1.56428   1.57412   1.57745   1.58356
 Alpha virt. eigenvalues --    1.59420   1.59869   1.61116   1.61679   1.62958
 Alpha virt. eigenvalues --    1.63113   1.63755   1.65223   1.66186   1.66698
 Alpha virt. eigenvalues --    1.67195   1.67622   1.69583   1.71640   1.72847
 Alpha virt. eigenvalues --    1.73895   1.74677   1.75466   1.76377   1.78442
 Alpha virt. eigenvalues --    1.79613   1.80648   1.81041   1.82017   1.82722
 Alpha virt. eigenvalues --    1.84568   1.89552   1.93764   1.99186   2.00361
 Alpha virt. eigenvalues --    2.03959   2.06885   2.12625   2.19428   2.21329
 Alpha virt. eigenvalues --    2.23997   2.26683   2.31680   2.34463   2.41056
 Alpha virt. eigenvalues --    2.41893   2.43041   2.44774   2.46462   2.50399
 Alpha virt. eigenvalues --    2.60143   2.75120   2.77275   2.80590   2.80977
 Alpha virt. eigenvalues --    2.82184   2.87078   2.91715   2.92790   2.93198
 Alpha virt. eigenvalues --    2.96101   2.97600   2.98233   3.00257   3.03586
 Alpha virt. eigenvalues --    3.06370   3.06976   3.09098   3.09171   3.11529
 Alpha virt. eigenvalues --    3.13102   3.14059   3.16018   3.19082   3.22536
 Alpha virt. eigenvalues --    3.25922   3.29973   3.31369   3.33512   3.34084
 Alpha virt. eigenvalues --    3.35069   3.36032   3.37212   3.39868   3.41340
 Alpha virt. eigenvalues --    3.43693   3.44736   3.45732   3.46321   3.46965
 Alpha virt. eigenvalues --    3.47535   3.48578   3.50427   3.51490   3.52522
 Alpha virt. eigenvalues --    3.53160   3.54162   3.54590   3.55706   3.55920
 Alpha virt. eigenvalues --    3.56969   3.57597   3.58168   3.59260   3.59937
 Alpha virt. eigenvalues --    3.61023   3.61784   3.63151   3.64123   3.64839
 Alpha virt. eigenvalues --    3.66072   3.66772   3.67748   3.68884   3.69228
 Alpha virt. eigenvalues --    3.70660   3.71043   3.71977   3.72170   3.73991
 Alpha virt. eigenvalues --    3.74521   3.75104   3.75726   3.76932   3.77885
 Alpha virt. eigenvalues --    3.78917   3.79862   3.81365   3.82572   3.83725
 Alpha virt. eigenvalues --    3.85678   3.89134   3.89989   3.91127   3.92335
 Alpha virt. eigenvalues --    3.92786   3.94348   3.94798   3.96702   3.97472
 Alpha virt. eigenvalues --    3.98757   4.00937   4.02545   4.02940   4.04032
 Alpha virt. eigenvalues --    4.05648   4.05823   4.06090   4.07076   4.07332
 Alpha virt. eigenvalues --    4.08666   4.08736   4.09453   4.10251   4.10797
 Alpha virt. eigenvalues --    4.12017   4.12514   4.13853   4.14891   4.15208
 Alpha virt. eigenvalues --    4.15866   4.17135   4.18237   4.20116   4.20613
 Alpha virt. eigenvalues --    4.21884   4.22484   4.25127   4.26869   4.27035
 Alpha virt. eigenvalues --    4.28337   4.29810   4.30349   4.31261   4.32326
 Alpha virt. eigenvalues --    4.33067   4.33151   4.34346   4.35248   4.37177
 Alpha virt. eigenvalues --    4.40056   4.44709   4.45368   4.46304   4.46802
 Alpha virt. eigenvalues --    4.57682   4.62437   4.73914   4.75441   4.82036
 Alpha virt. eigenvalues --    4.85213   4.93673   4.95932   5.00657   5.04279
 Alpha virt. eigenvalues --    5.06257   5.07585   5.08121   5.08843   5.10987
 Alpha virt. eigenvalues --    5.12225   5.13722   5.14241   5.32596   5.36941
 Alpha virt. eigenvalues --    5.43833   5.58052   5.59338   5.65510   5.86811
 Alpha virt. eigenvalues --    5.87371   6.07393   7.04206   7.05948   7.06740
 Alpha virt. eigenvalues --    7.08808   7.10306   7.12605   7.13838   7.19524
 Alpha virt. eigenvalues --    7.27711   7.36001   7.38494   7.45212   7.52804
 Alpha virt. eigenvalues --    7.56172   7.66648  23.95355  23.98212  24.06093
 Alpha virt. eigenvalues --   24.07686  24.10730  24.11996  24.13755  24.16103
 Alpha virt. eigenvalues --   24.16541  24.21617  50.16512  50.18710  50.26968
          Condensed to atoms (all electrons):
               1          2          3          4          5          6
     1  C    5.677028   0.223678   0.011058   0.001849  -0.001092  -0.000521
     2  C    0.223678   7.112122   0.027677  -0.028396   0.002906  -0.012386
     3  C    0.011058   0.027677   7.006865  -0.008283  -0.224716  -0.010806
     4  C    0.001849  -0.028396  -0.008283   5.624433   0.000449   0.000350
     5  C   -0.001092   0.002906  -0.224716   0.000449   5.482274   0.110722
     6  O   -0.000521  -0.012386  -0.010806   0.000350   0.110722   8.278500
     7  C   -0.065790  -0.468662  -0.024042  -0.008019  -0.002578   0.001985
     8  C    0.056512  -0.947477  -1.062969  -0.003141   0.322856   0.054721
     9  C   -0.010861   0.135455  -0.101961  -0.006481   0.048472  -0.000437
    10  C   -0.012293   0.118196   0.222425   0.024549  -0.243821   0.098344
    11  O   -0.063237   0.333650  -0.051880  -0.008891   0.001445  -0.000336
    12  O   -0.020987   0.255222  -0.054815  -0.010636  -0.008719   0.027429
    13  C   -0.166020  -0.897969  -0.233535  -0.088667   0.016269   0.003890
    14  H    0.485083   0.005847  -0.001727  -0.019340  -0.000001  -0.000008
    15  H    0.444605   0.003153   0.004701  -0.041217  -0.000357   0.000017
    16  H    0.000136   0.006320   0.490498   0.000423  -0.011917   0.001743
    17  H   -0.018929   0.021054  -0.000562   0.430000   0.000201  -0.000093
    18  H   -0.075361  -0.010892  -0.005166   0.523680   0.001913   0.000273
    19  H   -0.100311   0.004374  -0.023479   0.002474   0.004071  -0.000535
    20  H   -0.017898  -0.009820  -0.000657   0.005904  -0.000044   0.000037
    21  H    0.002719  -0.007689   0.019766   0.002798  -0.105715  -0.012973
    22  H    0.000018   0.007845  -0.056545  -0.001056  -0.025291   0.010333
    23  H   -0.000039  -0.008175  -0.031767   0.000893  -0.008378  -0.051271
    24  H   -0.000230   0.025086  -0.005493  -0.003844   0.008926  -0.082637
    25  H   -0.021001  -0.155492  -0.004796  -0.013270   0.000434   0.000075
    26  H   -0.004110  -0.015547   0.004695  -0.045704  -0.000960  -0.001125
    27  H    0.019417   0.462611   0.040183   0.008477   0.000281   0.000756
    28  H    0.000017  -0.002226  -0.017974   0.000129   0.444574  -0.063118
    29  H   -0.000300   0.002778   0.004047  -0.000196   0.450295  -0.064525
    30  H    0.006980  -0.014733   0.403674   0.001020  -0.015997  -0.002091
    31  H   -0.001203  -0.039878   0.037229  -0.004349  -0.014280   0.008576
               7          8          9         10         11         12
     1  C   -0.065790   0.056512  -0.010861  -0.012293  -0.063237  -0.020987
     2  C   -0.468662  -0.947477   0.135455   0.118196   0.333650   0.255222
     3  C   -0.024042  -1.062969  -0.101961   0.222425  -0.051880  -0.054815
     4  C   -0.008019  -0.003141  -0.006481   0.024549  -0.008891  -0.010636
     5  C   -0.002578   0.322856   0.048472  -0.243821   0.001445  -0.008719
     6  O    0.001985   0.054721  -0.000437   0.098344  -0.000336   0.027429
     7  C    5.488467   0.066642   0.024739  -0.007931   0.111538   0.008800
     8  C    0.066642   8.084365  -0.399267  -0.612944   0.033634  -0.021724
     9  C    0.024739  -0.399267   5.659824   0.137634  -0.006521  -0.001230
    10  C   -0.007931  -0.612944   0.137634   5.959426   0.002285  -0.105455
    11  O    0.111538   0.033634  -0.006521   0.002285   8.189498  -0.043291
    12  O    0.008800  -0.021724  -0.001230  -0.105455  -0.043291   8.282653
    13  C    0.206850   0.192397   0.001490  -0.035567  -0.043257  -0.073674
    14  H   -0.085125  -0.005760   0.000280   0.000131  -0.004027  -0.001055
    15  H   -0.039733   0.000703  -0.000267   0.000315   0.010381   0.001009
    16  H   -0.002237  -0.068945  -0.035604  -0.008353  -0.000146   0.006902
    17  H    0.008322   0.005991  -0.001758   0.000743  -0.003845   0.001019
    18  H    0.004105  -0.007454   0.003180  -0.002634   0.001923  -0.004601
    19  H    0.490426  -0.017359   0.002237   0.006712  -0.035010   0.009629
    20  H    0.434389   0.009194   0.000304  -0.000403  -0.071375   0.001184
    21  H   -0.002377  -0.038802   0.499007   0.017717   0.000004  -0.000771
    22  H    0.000590  -0.009895   0.450631  -0.002208  -0.000414   0.001900
    23  H    0.001492  -0.063088   0.027740   0.464030   0.000999   0.014512
    24  H    0.003177  -0.038145   0.009924   0.416891  -0.001047  -0.011585
    25  H    0.015259   0.005843   0.000305  -0.004027  -0.007173   0.009612
    26  H    0.006781  -0.002234   0.000778  -0.006288   0.008667  -0.001453
    27  H   -0.024246   0.038780  -0.010470   0.003536  -0.061035  -0.035600
    28  H    0.000198   0.012493  -0.010506  -0.021942  -0.000002   0.001798
    29  H    0.000214   0.011949  -0.062195  -0.002556  -0.000008   0.001057
    30  H   -0.002172  -0.001146  -0.014775   0.001368   0.000557   0.002373
    31  H    0.005629   0.420180  -0.017155  -0.033263  -0.006103  -0.010591
              13         14         15         16         17         18
     1  C   -0.166020   0.485083   0.444605   0.000136  -0.018929  -0.075361
     2  C   -0.897969   0.005847   0.003153   0.006320   0.021054  -0.010892
     3  C   -0.233535  -0.001727   0.004701   0.490498  -0.000562  -0.005166
     4  C   -0.088667  -0.019340  -0.041217   0.000423   0.430000   0.523680
     5  C    0.016269  -0.000001  -0.000357  -0.011917   0.000201   0.001913
     6  O    0.003890  -0.000008   0.000017   0.001743  -0.000093   0.000273
     7  C    0.206850  -0.085125  -0.039733  -0.002237   0.008322   0.004105
     8  C    0.192397  -0.005760   0.000703  -0.068945   0.005991  -0.007454
     9  C    0.001490   0.000280  -0.000267  -0.035604  -0.001758   0.003180
    10  C   -0.035567   0.000131   0.000315  -0.008353   0.000743  -0.002634
    11  O   -0.043257  -0.004027   0.010381  -0.000146  -0.003845   0.001923
    12  O   -0.073674  -0.001055   0.001009   0.006902   0.001019  -0.004601
    13  C    6.696963  -0.006359  -0.010863   0.003992  -0.065214  -0.049745
    14  H   -0.006359   0.485282  -0.012225   0.000032  -0.002976   0.001848
    15  H   -0.010863  -0.012225   0.489757  -0.000110  -0.006326  -0.005448
    16  H    0.003992   0.000032  -0.000110   0.431890   0.000048  -0.000131
    17  H   -0.065214  -0.002976  -0.006326   0.000048   0.466918  -0.008255
    18  H   -0.049745   0.001848  -0.005448  -0.000131  -0.008255   0.467069
    19  H    0.037806   0.004053  -0.002105   0.001187  -0.002126  -0.001021
    20  H   -0.000327  -0.006546  -0.008927  -0.000199   0.001519  -0.002535
    21  H   -0.005668  -0.000023   0.000363   0.002379   0.000377  -0.003921
    22  H   -0.001325   0.000006  -0.000017  -0.006341  -0.000123   0.000305
    23  H    0.002297  -0.000052   0.000041  -0.006251   0.000080  -0.000035
    24  H    0.009362  -0.000102  -0.000056  -0.000705  -0.000431  -0.000040
    25  H    0.558526  -0.001817  -0.002934   0.000062  -0.003544   0.002322
    26  H    0.423929  -0.001616   0.001244  -0.000005  -0.008617  -0.000789
    27  H   -0.124102   0.000307   0.002083  -0.000193   0.003339  -0.003472
    28  H   -0.002410  -0.000001   0.000021  -0.006758  -0.000022  -0.000033
    29  H    0.002216   0.000005  -0.000032  -0.001339   0.000001   0.000292
    30  H   -0.004433  -0.000000   0.000920   0.000940   0.000221   0.000153
    31  H   -0.014386  -0.000394   0.000175  -0.009191   0.000080  -0.000559
              19         20         21         22         23         24
     1  C   -0.100311  -0.017898   0.002719   0.000018  -0.000039  -0.000230
     2  C    0.004374  -0.009820  -0.007689   0.007845  -0.008175   0.025086
     3  C   -0.023479  -0.000657   0.019766  -0.056545  -0.031767  -0.005493
     4  C    0.002474   0.005904   0.002798  -0.001056   0.000893  -0.003844
     5  C    0.004071  -0.000044  -0.105715  -0.025291  -0.008378   0.008926
     6  O   -0.000535   0.000037  -0.012973   0.010333  -0.051271  -0.082637
     7  C    0.490426   0.434389  -0.002377   0.000590   0.001492   0.003177
     8  C   -0.017359   0.009194  -0.038802  -0.009895  -0.063088  -0.038145
     9  C    0.002237   0.000304   0.499007   0.450631   0.027740   0.009924
    10  C    0.006712  -0.000403   0.017717  -0.002208   0.464030   0.416891
    11  O   -0.035010  -0.071375   0.000004  -0.000414   0.000999  -0.001047
    12  O    0.009629   0.001184  -0.000771   0.001900   0.014512  -0.011585
    13  C    0.037806  -0.000327  -0.005668  -0.001325   0.002297   0.009362
    14  H    0.004053  -0.006546  -0.000023   0.000006  -0.000052  -0.000102
    15  H   -0.002105  -0.008927   0.000363  -0.000017   0.000041  -0.000056
    16  H    0.001187  -0.000199   0.002379  -0.006341  -0.006251  -0.000705
    17  H   -0.002126   0.001519   0.000377  -0.000123   0.000080  -0.000431
    18  H   -0.001021  -0.002535  -0.003921   0.000305  -0.000035  -0.000040
    19  H    0.528021  -0.019382  -0.002181   0.000308  -0.000909   0.000519
    20  H   -0.019382   0.477314   0.000066   0.000006   0.000167   0.000130
    21  H   -0.002181   0.000066   0.485328  -0.013981  -0.000556  -0.001818
    22  H    0.000308   0.000006  -0.013981   0.481758   0.000148   0.001951
    23  H   -0.000909   0.000167  -0.000556   0.000148   0.478737  -0.009134
    24  H    0.000519   0.000130  -0.001818   0.001951  -0.009134   0.496743
    25  H   -0.000750   0.000388  -0.000245   0.000038  -0.000159   0.001972
    26  H    0.000044   0.001035  -0.000213   0.000195  -0.000212   0.000581
    27  H   -0.003145   0.000012   0.001411  -0.000405   0.000672  -0.014864
    28  H   -0.000278   0.000022   0.000219   0.005140   0.008229  -0.002589
    29  H    0.000207  -0.000006  -0.005626  -0.008253  -0.001692   0.001514
    30  H   -0.008921   0.001741   0.003589  -0.011448   0.001074  -0.001012
    31  H   -0.001203  -0.000828   0.000242   0.000193  -0.003173  -0.007743
              25         26         27         28         29         30
     1  C   -0.021001  -0.004110   0.019417   0.000017  -0.000300   0.006980
     2  C   -0.155492  -0.015547   0.462611  -0.002226   0.002778  -0.014733
     3  C   -0.004796   0.004695   0.040183  -0.017974   0.004047   0.403674
     4  C   -0.013270  -0.045704   0.008477   0.000129  -0.000196   0.001020
     5  C    0.000434  -0.000960   0.000281   0.444574   0.450295  -0.015997
     6  O    0.000075  -0.001125   0.000756  -0.063118  -0.064525  -0.002091
     7  C    0.015259   0.006781  -0.024246   0.000198   0.000214  -0.002172
     8  C    0.005843  -0.002234   0.038780   0.012493   0.011949  -0.001146
     9  C    0.000305   0.000778  -0.010470  -0.010506  -0.062195  -0.014775
    10  C   -0.004027  -0.006288   0.003536  -0.021942  -0.002556   0.001368
    11  O   -0.007173   0.008667  -0.061035  -0.000002  -0.000008   0.000557
    12  O    0.009612  -0.001453  -0.035600   0.001798   0.001057   0.002373
    13  C    0.558526   0.423929  -0.124102  -0.002410   0.002216  -0.004433
    14  H   -0.001817  -0.001616   0.000307  -0.000001   0.000005  -0.000000
    15  H   -0.002934   0.001244   0.002083   0.000021  -0.000032   0.000920
    16  H    0.000062  -0.000005  -0.000193  -0.006758  -0.001339   0.000940
    17  H   -0.003544  -0.008617   0.003339  -0.000022   0.000001   0.000221
    18  H    0.002322  -0.000789  -0.003472  -0.000033   0.000292   0.000153
    19  H   -0.000750   0.000044  -0.003145  -0.000278   0.000207  -0.008921
    20  H    0.000388   0.001035   0.000012   0.000022  -0.000006   0.001741
    21  H   -0.000245  -0.000213   0.001411   0.000219  -0.005626   0.003589
    22  H    0.000038   0.000195  -0.000405   0.005140  -0.008253  -0.011448
    23  H   -0.000159  -0.000212   0.000672   0.008229  -0.001692   0.001074
    24  H    0.001972   0.000581  -0.014864  -0.002589   0.001514  -0.001012
    25  H    0.452488  -0.004231  -0.017371  -0.000043   0.000036   0.000004
    26  H   -0.004231   0.475403  -0.007612   0.000074   0.000171  -0.000307
    27  H   -0.017371  -0.007612   0.463875  -0.000045  -0.000220   0.001761
    28  H   -0.000043   0.000074  -0.000045   0.499568  -0.005922   0.002108
    29  H    0.000036   0.000171  -0.000220  -0.005922   0.479331  -0.000355
    30  H    0.000004  -0.000307   0.001761   0.002108  -0.000355   0.491473
    31  H   -0.000136   0.000040  -0.000321   0.002026  -0.000015  -0.006442
              31
     1  C   -0.001203
     2  C   -0.039878
     3  C    0.037229
     4  C   -0.004349
     5  C   -0.014280
     6  O    0.008576
     7  C    0.005629
     8  C    0.420180
     9  C   -0.017155
    10  C   -0.033263
    11  O   -0.006103
    12  O   -0.010591
    13  C   -0.014386
    14  H   -0.000394
    15  H    0.000175
    16  H   -0.009191
    17  H    0.000080
    18  H   -0.000559
    19  H   -0.001203
    20  H   -0.000828
    21  H    0.000242
    22  H    0.000193
    23  H   -0.003173
    24  H   -0.007743
    25  H   -0.000136
    26  H    0.000040
    27  H   -0.000321
    28  H    0.002026
    29  H   -0.000015
    30  H   -0.006442
    31  H    0.419765
 Mulliken charges:
               1
     1  C   -0.348920
     2  C   -0.128632
     3  C   -0.351643
     4  C   -0.335938
     5  C   -0.232219
     6  O   -0.294889
     7  C   -0.146695
     8  C   -0.015910
     9  C   -0.322510
    10  C   -0.374617
    11  O   -0.286980
    12  O   -0.218913
    13  C   -0.332467
    14  H    0.166281
    15  H    0.171128
    16  H    0.211873
    17  H    0.182907
    18  H    0.175028
    19  H    0.126645
    20  H    0.205534
    21  H    0.166572
    22  H    0.175938
    23  H    0.183778
    24  H    0.204699
    25  H    0.189625
    26  H    0.177388
    27  H    0.255601
    28  H    0.157255
    29  H    0.199126
    30  H    0.163874
    31  H    0.277078
 Sum of Mulliken charges =  -0.00000
 Mulliken charges with hydrogens summed into heavy atoms:
               1
     1  C   -0.011510
     2  C    0.126970
     3  C    0.024104
     4  C    0.021997
     5  C    0.124161
     6  O   -0.294889
     7  C    0.185484
     8  C    0.261168
     9  C    0.020000
    10  C    0.013860
    11  O   -0.286980
    12  O   -0.218913
    13  C    0.034547
 Electronic spatial extent (au):  <R**2>=           2847.8181
 Charge=             -0.0000 electrons
 Dipole moment (field-independent basis, Debye):
    X=              0.0056    Y=              1.7087    Z=             -0.0303  Tot=              1.7089
 Quadrupole moment (field-independent basis, Debye-Ang):
   XX=            -73.6724   YY=            -79.4020   ZZ=            -80.0569
   XY=             -6.0054   XZ=              4.5236   YZ=              2.4281
 Traceless Quadrupole moment (field-independent basis, Debye-Ang):
   XX=              4.0380   YY=             -1.6915   ZZ=             -2.3465
   XY=             -6.0054   XZ=              4.5236   YZ=              2.4281
 Octapole moment (field-independent basis, Debye-Ang**2):
  XXX=             -3.4051  YYY=              3.5678  ZZZ=              0.1471  XYY=             12.9781
  XXY=             19.2518  XXZ=              9.3283  XZZ=            -13.6631  YZZ=             -4.1602
  YYZ=             -4.2633  XYZ=             -1.2421
 Hexadecapole moment (field-independent basis, Debye-Ang**3):
 XXXX=          -2673.8485 YYYY=           -567.2859 ZZZZ=           -478.0032 XXXY=            -24.9475
 XXXZ=            -12.5686 YYYX=             -1.5791 YYYZ=              3.1330 ZZZX=              3.4184
 ZZZY=              1.4441 XXYY=           -560.5054 XXZZ=           -528.9948 YYZZ=           -166.4857
 XXYZ=             -1.6953 YYXZ=             -3.3944 ZZXY=              5.7586
 N-N= 9.037463369893D+02 E-N=-3.249591037902D+03  KE= 6.153391590410D+02
 D1PCM: PCM CHGder 1st derivatives, ID1Alg=3 FixD1E=F DoIter=F DoCFld=F I1PDM=0.
 Calling FoFJK, ICntrl=      2127 FMM=F ISym2X=0 I1Cent= 0 IOpClX= 0 NMat=1 NMatS=1 NMatT=0.
 ***** Axes restored to original set *****
 -------------------------------------------------------------------
 Center     Atomic                   Forces (Hartrees/Bohr)
 Number     Number              X              Y              Z
 -------------------------------------------------------------------
      1        6          -0.002714056    0.000229642    0.000816905
      2        6           0.003415977    0.004240546    0.006209215
      3        6          -0.000969720   -0.004027314    0.000951827
      4        6          -0.000198273    0.000773324   -0.003897823
      5        6           0.006379092    0.002366235   -0.001854333
      6        8           0.001062722   -0.008250859    0.002717796
      7        6           0.000399398   -0.006057876    0.003007574
      8        6           0.000133169   -0.000765130    0.001102240
      9        6          -0.000796069    0.000068310   -0.002417639
     10        6          -0.000966188    0.005033766    0.005776478
     11        8           0.001020652    0.000388116   -0.011618865
     12        8          -0.002013821    0.000136006    0.012366727
     13        6          -0.000643988    0.002069724    0.001504358
     14        1           0.001972231   -0.001618749   -0.002142146
     15        1           0.001289448    0.001544745    0.002028399
     16        1          -0.002531664    0.001273911   -0.002309283
     17        1           0.001598305   -0.001496317    0.001335735
     18        1          -0.002989230    0.001730628    0.001179958
     19        1          -0.004329156    0.002597016    0.004062616
     20        1           0.002426877    0.002647390   -0.002559218
     21        1           0.002620813   -0.001694886    0.001544320
     22        1          -0.001347172    0.002378025    0.001012258
     23        1          -0.003677982    0.002391792   -0.004708794
     24        1           0.003208940   -0.004100963   -0.001717585
     25        1           0.002435061   -0.001215394   -0.002055837
     26        1          -0.002175529   -0.001810727    0.001546644
     27        1          -0.001890659   -0.004368169   -0.006688202
     28        1          -0.004125687    0.002976617   -0.003711452
     29        1          -0.001855851   -0.001756467    0.003547136
     30        1           0.002778542    0.001645029    0.000667620
     31        1           0.002483821    0.002672027   -0.005696631
 -------------------------------------------------------------------
 Cartesian Forces:  Max     0.012366727 RMS     0.003378324

 GradGradGradGradGradGradGradGradGradGradGradGradGradGradGradGradGradGrad
 Berny optimization.
 FormGI is forming the generalized inverse of G from B-inverse, IUseBI=4.
 Internal  Forces:  Max     0.011116599 RMS     0.001997625
 Search for a local minimum.
 Step number   1 out of a maximum of  186
 All quantities printed in internal units (Hartrees-Bohrs-Radians)
 Mixed Optimization -- RFO/linear search
 Second derivative matrix not updated -- first step.
 ITU=  0
     Eigenvalues ---    0.00619   0.00626   0.00727   0.00728   0.01405
     Eigenvalues ---    0.01409   0.01438   0.02698   0.02824   0.03072
     Eigenvalues ---    0.03107   0.04094   0.04349   0.04745   0.04747
     Eigenvalues ---    0.04866   0.04883   0.05068   0.05115   0.05214
     Eigenvalues ---    0.05295   0.05682   0.05846   0.06167   0.06214
     Eigenvalues ---    0.06605   0.06796   0.06840   0.07355   0.07849
     Eigenvalues ---    0.07949   0.07960   0.07962   0.08130   0.08151
     Eigenvalues ---    0.08231   0.08881   0.09459   0.10815   0.11581
     Eigenvalues ---    0.11706   0.11721   0.11760   0.12402   0.12542
     Eigenvalues ---    0.14489   0.14640   0.16065   0.16265   0.17575
     Eigenvalues ---    0.19007   0.21618   0.21817   0.25000   0.28529
     Eigenvalues ---    0.28620   0.28786   0.28838   0.28946   0.29160
     Eigenvalues ---    0.30223   0.30344   0.35034   0.35089   0.35092
     Eigenvalues ---    0.35136   0.35194   0.35210   0.35240   0.35259
     Eigenvalues ---    0.35280   0.35316   0.35425   0.35440   0.35441
     Eigenvalues ---    0.35586   0.35819   0.35840   0.35881   0.35920
     Eigenvalues ---    0.40839   0.41485   0.42208   0.42236   0.43179
     Eigenvalues ---    0.462191000.000001000.000001000.000001000.00000
     Eigenvalues --- 1000.000001000.000001000.000001000.000001000.00000
     Eigenvalues --- 1000.000001000.000001000.000001000.000001000.00000
     Eigenvalues --- 1000.000001000.000001000.000001000.000001000.00000
     Eigenvalues --- 1000.000001000.000001000.000001000.000001000.00000
     Eigenvalues --- 1000.000001000.000001000.000001000.000001000.00000
     Eigenvalues --- 1000.000001000.000001000.000001000.000001000.00000
     Eigenvalues --- 1000.000001000.000001000.000001000.000001000.00000
     Eigenvalues --- 1000.000001000.000001000.000001000.000001000.00000
     Eigenvalues --- 1000.000001000.000001000.000001000.000001000.00000
     Eigenvalues --- 1000.000001000.000001000.000001000.000001000.00000
     Eigenvalues --- 1000.000001000.000001000.000001000.000001000.00000
     Eigenvalues --- 1000.000001000.000001000.000001000.000001000.00000
     Eigenvalues --- 1000.000001000.000001000.000001000.000001000.00000
     Eigenvalues --- 1000.000001000.000001000.000001000.000001000.00000
     Eigenvalues --- 1000.000001000.000001000.000001000.000001000.00000
     Eigenvalues --- 1000.000001000.000001000.000001000.000001000.00000
     Eigenvalues --- 1000.000001000.000001000.000001000.000001000.00000
     Eigenvalues --- 1000.000001000.000001000.000001000.000001000.00000
     Eigenvalues --- 1000.000001000.000001000.000001000.000001000.00000
 RFO step:  Lambda=-3.06228992D-03 EMin= 6.19238881D-03
 Linear search not attempted -- first point.
 Iteration  1 RMS(Cart)=  0.02930673 RMS(Int)=  0.00024963
 Iteration  2 RMS(Cart)=  0.00055430 RMS(Int)=  0.00004930
 Iteration  3 RMS(Cart)=  0.00000013 RMS(Int)=  0.00004930
 Iteration  1 RMS(Cart)=  0.00001334 RMS(Int)=  0.00000302
 Iteration  2 RMS(Cart)=  0.00000700 RMS(Int)=  0.00000337
 Iteration  3 RMS(Cart)=  0.00000367 RMS(Int)=  0.00000379
 Iteration  4 RMS(Cart)=  0.00000193 RMS(Int)=  0.00000406
 Iteration  5 RMS(Cart)=  0.00000101 RMS(Int)=  0.00000420
 Iteration  6 RMS(Cart)=  0.00000053 RMS(Int)=  0.00000429
 Variable       Old X    -DE/DX   Delta X   Delta X   Delta X     New X
                                 (Linear)    (Quad)   (Total)
    R1        2.88872  -0.00089   0.00000  -0.00284  -0.00284   2.88588
    R2        2.87155   0.00012   0.00000   0.00025   0.00028   2.87183
    R3        2.05526   0.00326   0.00000   0.00920   0.00920   2.06446
    R4        2.05287   0.00283   0.00000   0.00797   0.00797   2.06084
    R5        2.65571   0.00341   0.00000   0.00747   0.00747   2.66317
    R6        2.63885   0.00332   0.00000   0.00714   0.00714   2.64599
    R7        2.87411  -0.00070   0.00000  -0.00220  -0.00223   2.87189
    R8        2.04206   0.00817   0.00000   0.02255   0.02255   2.06461
    R9        2.88258  -0.00192   0.00000  -0.00672  -0.00675   2.87583
   R10        2.89185  -0.00114   0.00000  -0.00452  -0.00455   2.88730
   R11        2.05455   0.00364   0.00000   0.01026   0.01026   2.06481
   R12        2.04991   0.00318   0.00000   0.00891   0.00891   2.05882
   R13        2.89031  -0.00155   0.00000  -0.00497  -0.00498   2.88533
   R14        2.05165   0.00256   0.00000   0.00719   0.00719   2.05884
   R15        2.05362   0.00344   0.00000   0.00968   0.00968   2.06330
   R16        2.67624   0.00304   0.00000   0.00729   0.00732   2.68356
   R17        2.87328   0.00046   0.00000   0.00105   0.00103   2.87431
   R18        2.05620   0.00620   0.00000   0.01753   0.01753   2.07373
   R19        2.04365   0.00437   0.00000   0.01210   0.01210   2.05575
   R20        2.66767   0.00206   0.00000   0.00510   0.00513   2.67280
   R21        2.68658   0.00294   0.00000   0.00676   0.00676   2.69335
   R22        2.04964   0.00637   0.00000   0.01782   0.01782   2.06747
   R23        2.04333   0.00441   0.00000   0.01219   0.01219   2.05552
   R24        2.87728   0.00065   0.00000   0.00264   0.00267   2.87994
   R25        2.68660   0.00116   0.00000   0.00273   0.00273   2.68933
   R26        2.04734   0.00674   0.00000   0.01878   0.01878   2.06611
   R27        2.05222   0.00326   0.00000   0.00917   0.00917   2.06139
   R28        2.05256   0.00289   0.00000   0.00813   0.00813   2.06069
   R29        2.05531   0.00637   0.00000   0.01800   0.01800   2.07331
   R30        2.04268   0.00543   0.00000   0.01499   0.01499   2.05768
   R31        2.05335   0.00335   0.00000   0.00944   0.00944   2.06279
   R32        2.04966   0.00320   0.00000   0.00895   0.00895   2.05861
    A1        1.92348  -0.00103   0.00000  -0.00632  -0.00652   1.91696
    A2        1.91597   0.00092   0.00000   0.00165   0.00173   1.91770
    A3        1.93919  -0.00051   0.00000  -0.00138  -0.00135   1.93784
    A4        1.90592   0.00006   0.00000  -0.00132  -0.00127   1.90465
    A5        1.90270   0.00061   0.00000   0.00407   0.00412   1.90682
    A6        1.87570  -0.00002   0.00000   0.00356   0.00353   1.87923
    A7        1.93678   0.00043   0.00000  -0.00105  -0.00092   1.93586
    A8        1.94370   0.00348   0.00000   0.00930   0.00908   1.95278
    A9        1.82890  -0.00239   0.00000  -0.00522  -0.00523   1.82367
   A10        1.90129  -0.00325   0.00000  -0.01834  -0.01826   1.88304
   A11        1.91917   0.00177   0.00000   0.01449   0.01446   1.93364
   A12        1.93347   0.00010   0.00000   0.00194   0.00203   1.93550
   A13        1.94298   0.00045   0.00000  -0.00961  -0.00971   1.93328
   A14        1.88202  -0.00005   0.00000   0.00594   0.00596   1.88798
   A15        1.91450  -0.00066   0.00000  -0.00758  -0.00755   1.90695
   A16        1.90793  -0.00029   0.00000   0.00460   0.00464   1.91257
   A17        1.94042   0.00023   0.00000   0.00147   0.00139   1.94181
   A18        1.87373   0.00031   0.00000   0.00598   0.00597   1.87970
   A19        1.91344   0.00192   0.00000  -0.00178  -0.00179   1.91165
   A20        1.93048  -0.00025   0.00000   0.00217   0.00224   1.93272
   A21        1.91432  -0.00085   0.00000  -0.00177  -0.00187   1.91246
   A22        1.91623  -0.00055   0.00000   0.00177   0.00177   1.91800
   A23        1.92212  -0.00099   0.00000  -0.00659  -0.00661   1.91551
   A24        1.86686   0.00066   0.00000   0.00631   0.00632   1.87317
   A25        1.93664   0.00138   0.00000   0.00699   0.00693   1.94357
   A26        1.90133   0.00099   0.00000   0.00820   0.00825   1.90959
   A27        1.85619  -0.00119   0.00000  -0.00451  -0.00449   1.85170
   A28        1.92998  -0.00134   0.00000  -0.00825  -0.00826   1.92172
   A29        1.94636  -0.00029   0.00000  -0.00323  -0.00323   1.94313
   A30        1.89104   0.00049   0.00000   0.00118   0.00114   1.89219
   A31        1.97948  -0.00390   0.00000  -0.02522  -0.02515   1.95433
   A32        1.94525   0.00235   0.00000   0.00567   0.00559   1.95084
   A33        1.93173  -0.00162   0.00000  -0.00733  -0.00737   1.92436
   A34        1.94559  -0.00028   0.00000  -0.00182  -0.00175   1.94384
   A35        1.90947   0.00012   0.00000   0.00109   0.00117   1.91064
   A36        1.84188  -0.00134   0.00000  -0.00195  -0.00196   1.83992
   A37        1.88693   0.00077   0.00000   0.00470   0.00468   1.89161
   A38        1.92341   0.00024   0.00000  -0.00095  -0.00103   1.92238
   A39        1.89377  -0.00028   0.00000  -0.00762  -0.00761   1.88616
   A40        1.91646  -0.00053   0.00000  -0.00042  -0.00040   1.91606
   A41        1.92610  -0.00006   0.00000  -0.00118  -0.00117   1.92493
   A42        1.89799   0.00021   0.00000   0.00467   0.00468   1.90266
   A43        1.90610   0.00041   0.00000   0.00555   0.00553   1.91163
   A44        1.92368  -0.00034   0.00000  -0.00673  -0.00681   1.91687
   A45        1.92699   0.00039   0.00000  -0.00287  -0.00286   1.92414
   A46        1.92590  -0.00065   0.00000  -0.00038  -0.00036   1.92554
   A47        1.90627  -0.00028   0.00000  -0.00173  -0.00178   1.90449
   A48        1.90713   0.00064   0.00000   0.00565   0.00570   1.91283
   A49        1.87303   0.00027   0.00000   0.00648   0.00647   1.87949
   A50        1.95178   0.00124   0.00000   0.00635   0.00638   1.95815
   A51        1.91347   0.00101   0.00000   0.01007   0.01005   1.92351
   A52        1.86035  -0.00087   0.00000  -0.00391  -0.00391   1.85644
   A53        1.90423  -0.00112   0.00000  -0.00372  -0.00379   1.90044
   A54        1.94068  -0.00074   0.00000  -0.00981  -0.00982   1.93085
   A55        1.89212   0.00051   0.00000   0.00122   0.00119   1.89330
   A56        2.02424  -0.00584   0.00000  -0.03627  -0.03624   1.98800
   A57        2.03315  -0.01112   0.00000  -0.04393  -0.04393   1.98922
   A58        1.95303  -0.00178   0.00000  -0.01454  -0.01472   1.93830
   A59        1.87433   0.00013   0.00000   0.00424   0.00426   1.87859
   A60        1.90015   0.00077   0.00000  -0.00128  -0.00125   1.89889
   A61        1.90979   0.00122   0.00000   0.00762   0.00772   1.91752
   A62        1.94735  -0.00025   0.00000  -0.00207  -0.00216   1.94519
   A63        1.87620  -0.00001   0.00000   0.00712   0.00708   1.88328
    D1        0.92520  -0.00011   0.00000   0.00875   0.00873   0.93394
    D2        3.04077   0.00030   0.00000   0.01119   0.01121   3.05198
    D3       -1.18736   0.00044   0.00000   0.01915   0.01917  -1.16819
    D4       -1.17471  -0.00011   0.00000   0.01333   0.01331  -1.16140
    D5        0.94085   0.00029   0.00000   0.01577   0.01579   0.95664
    D6        2.99591   0.00043   0.00000   0.02373   0.02375   3.01966
    D7        3.03615  -0.00037   0.00000   0.00872   0.00868   3.04483
    D8       -1.13147   0.00004   0.00000   0.01116   0.01115  -1.12032
[...]
 003458,0.00011092,-0.00006805,0.00009478,-0.00100222,0.00045178,-0.004
 44477,0.00336417,-0.00228090,0.09712372,-0.06823103,-0.11942761,-0.000
 36825,-0.00020879,0.00052116,-0.00024586,0.00026087,0.00001776,-0.0001
 0762,0.00010838,0.00005982,0.00027552,0.00072989,0.00062361,-0.0028821
 4,-0.00303701,-0.00216044,-0.00002206,-0.00000889,-0.00005957,0.000060
 11,-0.00003421,0.00006947,0.00000357,-0.00000812,-0.00000204,-0.000014
 51,0.00000084,0.00002109,-0.00005673,-0.00003403,-0.00001123,-0.000001
 94,-0.00002712,0.00000471,-0.10033260,0.07648172,0.13087384,-0.0003156
 4,-0.00169799,-0.00331288,0.00990965,0.01187980,-0.00644538,0.00005437
 ,-0.00000533,0.00003640,-0.00856303,-0.00810498,0.00737998,-0.00000071
 ,0.00000478,0.00000972,0.00005449,-0.00002617,0.00001137,-0.00076742,-
 0.00021071,-0.00085855,0.00019262,-0.00021469,0.00000284,0.00000167,-0
 .00000747,-0.00000194,-0.00000726,0.00000159,0.00003345,0.00005819,0.0
 0434157,-0.00336568,0.00077612,0.00036348,-0.00039110,-0.14687531,-0.1
 0788320,0.07490533,0.00027285,0.00034792,-0.00022181,-0.00025587,-0.00
 105439,0.00058111,0.00001512,-0.00001681,-0.00000950,0.00002318,0.0004
 5869,0.00025313,0.00076637,0.00024166,-0.00020576,0.00006053,0.0000183
 8,0.00008607,0.00012379,0.00002064,0.00018051,0.00000736,-0.00000742,0
 .00000184,0.00000255,0.00000132,-0.00000404,0.00000886,-0.00001028,-0.
 00001054,0.00002506,-0.00005095,0.00000400,-0.01251402,-0.01447683,0.0
 0929250,0.15649150,-0.00115925,-0.00092299,-0.00394982,-0.01234672,-0.
 01230649,0.00640185,-0.00003607,0.00000251,-0.00003673,-0.01053361,-0.
 01262436,0.00863781,0.00001105,-0.00000431,-0.00000259,-0.00000528,-0.
 00001355,-0.00000882,0.00026097,0.00130406,0.00028499,0.00025614,0.000
 27989,-0.00001462,0.00000582,-0.00000217,0.00000435,0.00004947,-0.0000
 2832,0.00003937,0.00147712,-0.00283994,0.00364230,-0.00034765,0.001192
 49,-0.00065328,-0.10413435,-0.16336207,0.07997895,-0.00018227,0.000029
 00,0.00017353,-0.00061076,-0.00071333,0.00069873,-0.00001450,0.0000117
 4,0.00000986,0.00021098,0.00071950,-0.00009568,0.00049646,0.00041045,0
 .00038592,0.00003659,-0.00010312,-0.00008331,-0.00003128,-0.00004545,0
 .00001618,-0.00000305,-0.00000203,-0.00000711,-0.00000261,0.00000173,0
 .00000059,-0.00000095,0.00000084,-0.00000069,0.00001961,-0.00003441,0.
 00001192,0.00942290,0.01221010,-0.00757537,0.11687772,0.17646505,-0.00
 193748,-0.00277047,-0.00356803,0.01608967,0.01150142,-0.00847152,0.000
 02262,-0.00002169,0.00002914,-0.01452313,-0.01634240,0.01243633,0.0000
 0211,0.00000404,0.00000355,-0.00001075,-0.00000592,-0.00000665,-0.0009
 5536,-0.00105315,-0.00136612,-0.00018817,-0.00025695,-0.00004456,0.000
 00054,0.00000706,0.00000559,-0.00004410,0.00004411,-0.00000915,-0.0018
 0593,0.00602974,-0.00359398,0.00055800,-0.00130542,0.00109322,0.072319
 94,0.08153290,-0.10384671,-0.00010484,0.00004638,0.00004722,-0.0007452
 1,-0.00116586,0.00063551,0.00000515,-0.00000281,-0.00001122,0.00046763
 ,0.00097045,0.00084216,0.00075893,0.00062911,0.00094074,0.00007948,0.0
 0013847,0.00019646,0.00016936,0.00013138,0.00020607,-0.00000361,0.0000
 0777,-0.00000735,-0.00000318,-0.00000104,-0.00000003,-0.00000114,-0.00
 001067,-0.00000405,-0.00001599,-0.00000092,-0.00000612,0.00823893,0.01
 044400,-0.00768392,-0.07841660,-0.08777307,0.11181229,0.00034574,0.000
 02509,0.00014041,-0.08245482,-0.04812306,-0.07338030,-0.00008699,-0.00
 000813,-0.00028163,-0.00061438,0.00308445,-0.00154431,-0.00000931,0.00
 018347,0.00008383,0.00011236,-0.00005401,-0.00020324,0.00038790,-0.000
 97597,0.00340280,0.00252749,0.00042100,0.00224913,0.00002298,-0.000012
 54,-0.00000688,-0.00060085,-0.00000021,0.00067354,-0.01170758,-0.02072
 105,-0.01172851,-0.00066781,0.02217573,0.02821437,-0.00503066,-0.00905
 497,-0.01377402,-0.00009535,0.00004660,0.00006437,-0.00006487,0.000030
 92,-0.00004648,-0.00014398,0.00002585,0.00000957,-0.00049659,-0.000609
 26,-0.00070739,0.00001210,-0.00010771,-0.00017541,-0.00017209,-0.00034
 935,-0.00028190,-0.00043195,-0.00070526,-0.00054821,0.00002627,0.00002
 149,-0.00010076,-0.00004613,0.00000222,-0.00002556,0.00026991,-0.00016
 245,-0.00010375,-0.00162748,-0.00047805,0.00006492,0.00022735,-0.00039
 713,0.00031993,0.00042905,0.00039407,-0.00002278,0.10002722,-0.0002158
 4,-0.00061141,-0.00006341,-0.04417882,-0.12578756,-0.10008576,0.000104
 63,-0.00013617,0.00035191,0.00176029,-0.00257176,0.00221171,-0.0000222
 2,-0.00009080,0.00002506,-0.00013773,0.00016717,0.00022936,-0.00118162
 ,-0.00020053,0.00506564,-0.00228302,0.00052494,-0.00249938,-0.00005856
 ,0.00003288,0.00001510,0.00033951,-0.00010314,0.00002425,-0.02150916,-
 0.02605192,-0.01669335,0.00599060,-0.00901243,-0.01694823,0.00739600,0
 .01264093,0.01367027,0.00000615,0.00007736,-0.00005677,-0.00005409,0.0
 0023495,-0.00025751,0.00011724,-0.00006621,-0.00003375,0.00066175,0.00
 068405,0.00081310,-0.00009940,0.00004452,0.00010715,0.00015750,-0.0000
 9207,-0.00016319,-0.00070911,-0.00093177,-0.00090882,-0.00000901,-0.00
 001521,0.00008190,0.00003130,-0.00000866,0.00003037,0.00012589,0.00008
 346,0.00001108,-0.00034702,0.00056823,0.00012210,-0.00044663,0.0006634
 5,-0.00064210,-0.00082683,0.00033143,-0.00074450,0.05525321,0.15000851
 ,0.00033980,0.00041936,0.00000588,-0.07400693,-0.11026457,-0.19851756,
 0.00013949,-0.00005090,0.00031136,-0.00147931,0.00364143,-0.00091119,-
 0.00007601,-0.00008942,0.00005144,-0.00007035,0.00026610,0.00012941,0.
 00141250,0.00242202,-0.00053691,-0.00268334,0.00268535,-0.00133592,-0.
 00012886,0.00003564,0.00004301,0.00044378,-0.00083244,0.00022381,0.008
 69056,0.01314584,0.01286893,0.00680468,-0.01695361,-0.01705615,-0.0082
 1710,-0.01100997,-0.01365817,-0.00004350,-0.00005937,0.00005304,0.0000
 3846,-0.00020790,0.00011600,0.00015880,-0.00010918,-0.00004453,-0.0005
 9356,-0.00085060,-0.00081287,0.00020380,-0.00000571,0.00010331,0.00006
 720,0.00023743,0.00010287,0.00032453,0.00045501,0.00038442,-0.00001233
 ,-0.00000519,0.00008075,0.00003748,-0.00001221,0.00000061,0.00010470,0
 .00038034,0.00016214,0.00002366,0.00051144,0.00036782,-0.00004695,0.00
 023131,0.00086561,0.00050341,0.00000039,0.00031086,0.06792191,0.115948
 17,0.21587029,0.00000276,-0.00000337,-0.00000516,0.00022904,-0.0000694
 7,-0.00006410,0.00061824,0.00135635,-0.00046018,0.00000119,0.00000701,
 0.00000069,-0.16331074,0.04654442,-0.10702293,-0.01870466,0.01902912,-
 0.00233981,0.00002294,0.00002203,0.00002357,-0.00035335,-0.00001024,0.
 00039901,-0.01386088,0.00465662,-0.01562395,0.00101304,0.00097983,-0.0
 0373046,-0.00010630,-0.00003971,0.00002673,-0.00014530,-0.00003644,0.0
 0009783,-0.00000638,-0.00000563,0.00000659,-0.00000175,0.00000119,0.00
 000131,-0.00000340,-0.00000138,-0.00000252,-0.00020232,-0.00045746,0.0
 0060551,-0.00000565,-0.00000084,-0.00000418,0.00000227,0.,0.00000561,0
 .00000157,0.00000204,-0.00000303,-0.00000580,-0.00000411,-0.00000019,-
 0.00140156,-0.00314297,-0.00103711,0.00053527,-0.00023504,0.00000996,-
 0.00003525,-0.00042239,0.00082448,0.00023547,-0.00015135,0.00040512,-0
 .00001082,0.00000557,-0.00000376,0.00000140,-0.00000250,0.00000036,0.0
 0000002,0.00000542,0.00001766,0.18372075,-0.00000132,0.00000306,0.0000
 0361,-0.00018033,0.00006711,0.00015637,0.00062164,0.00122826,-0.000946
 43,0.00000298,-0.00000871,-0.00000267,0.04759704,-0.07039992,0.0505850
 8,0.02996089,-0.02087599,0.00748026,-0.00002179,-0.00002122,-0.0000259
 2,-0.00006802,-0.00009390,-0.00048689,-0.01905611,0.00798563,-0.016910
 89,-0.00251477,-0.00045802,0.00392176,0.00009844,0.00003990,-0.0000136
 6,0.00023760,0.00012483,0.00003302,0.00001656,0.00000256,-0.00001450,0
 .00000163,-0.00000147,-0.00000027,0.00000388,0.00000118,0.00000299,0.0
 0031067,-0.00020039,0.00035212,0.00000460,0.00000134,0.00000510,0.0000
 0215,-0.00000055,-0.00000267,-0.00000184,-0.00000229,0.00000036,0.0000
 0603,0.00000379,0.00000036,-0.00375200,-0.00344622,-0.00112210,0.00107
 059,0.00092553,0.00044230,-0.00026612,0.00060332,-0.00099277,-0.000213
 95,0.00004439,-0.00033276,0.00001071,-0.00000708,0.00000562,-0.0000038
 5,0.00000108,-0.00000039,-0.00003165,0.00000785,0.00000611,-0.06302881
 ,0.08735729,0.00000381,-0.00000256,-0.00000361,0.00022659,-0.00007534,
 -0.00010571,0.00104526,0.00008305,0.00061904,0.00000194,0.00000753,-0.
 00000115,-0.10969637,0.05333223,-0.16142838,0.01483405,-0.00824462,0.0
 1009500,0.00002521,0.00001518,0.00001536,0.00007620,0.00013617,-0.0002
 2614,-0.00710798,0.00352790,-0.00724016,0.00187054,-0.00207255,0.00430
 231,-0.00008619,-0.00004162,0.00002225,-0.00041702,0.00012479,-0.00005
 644,-0.00001383,-0.00000642,0.00001714,-0.00000247,0.00000153,0.000001
 40,-0.00000334,-0.00000102,-0.00000255,-0.00020292,-0.00013857,0.00057
 657,-0.00000602,-0.00000044,-0.00000399,0.00000258,0.00000089,0.000007
 27,0.00000088,0.00000412,-0.00000084,-0.00000688,-0.00000352,0.0000009
 4,-0.00108955,-0.00214325,0.00069003,0.00006895,-0.00015047,0.00013802
 ,-0.00163951,0.00028044,0.00045311,-0.00016720,0.00001141,0.00017461,-
 0.00001249,0.00000871,-0.00000614,-0.00000142,-0.00000063,-0.00000168,
 -0.00000431,0.00000701,0.00001991,0.11935118,-0.05160325,0.16689125,0.
 00000207,-0.00000462,-0.00000324,0.00030272,-0.00005494,-0.00014053,-0
 .00120929,-0.00282038,-0.00241653,-0.00000224,0.00001698,-0.00000059,-
 0.10245643,-0.04886741,0.08831261,-0.01225333,-0.00261706,0.02104765,0
 .00004027,0.00002718,0.00003192,0.00046868,0.00004278,0.00010988,-0.00
 871077,-0.00964605,0.01550226,-0.00051740,0.00329706,-0.00108610,-0.00
 015445,-0.00006761,0.00002021,-0.00035838,0.00016471,0.00002906,-0.000
 03078,-0.00001556,0.00002403,-0.00000334,0.00000351,0.00000045,-0.0000
 0550,-0.00000190,-0.00000445,0.00006158,-0.00015989,0.00026873,-0.0000
 0928,-0.00000171,-0.00000850,0.00000068,-0.00000074,0.00000670,0.00000
 780,0.00000566,0.00000299,-0.00001218,-0.00000584,-0.00000025,0.000576
 37,0.00092849,0.00034755,0.00052107,0.00007099,-0.00017984,0.00011449,
 -0.00019475,0.00043627,-0.00031579,-0.00030320,0.00087301,-0.00001978,
 0.00001146,-0.00001055,0.00000183,0.00000046,-0.00000028,0.00000412,-0
 .00000860,0.00000191,0.01155299,0.00871582,-0.01707115,0.11291551,-0.0
 0000294,0.00000223,0.00000706,0.00008240,-0.00005481,-0.00014116,-0.00
 335112,-0.00348345,-0.00334976,0.00000305,-0.00000170,0.00000199,-0.05
 531748,-0.10031706,0.09938470,0.01775813,0.00887691,-0.02911113,0.0000
 1869,-0.00001190,-0.00001779,0.00049841,-0.00055551,-0.00075901,-0.009
 94877,-0.00903444,0.02081207,0.00239301,-0.00381955,-0.00120360,-0.000
 01334,0.00000613,0.00002791,-0.00014650,0.00022289,0.00014771,-0.00002
 267,0.00001760,0.00002622,-0.00000314,0.00000324,-0.00000242,-0.000000
 70,-0.00000082,-0.00000108,0.00030192,0.00016855,-0.00029834,-0.000001
 69,0.00000138,-0.00000102,-0.00000006,-0.00000046,0.00000332,0.0000090
 4,0.00000873,0.00000990,-0.00000575,0.00000213,0.00000369,0.00038976,0
 .00114721,-0.00046705,0.00074258,0.00049387,-0.00008005,-0.00015451,0.
 00005457,-0.00020116,0.00076724,0.00034778,-0.00114227,-0.00000944,0.0
 0000590,-0.00000678,0.00000114,-0.00000010,-0.00000071,-0.00001908,0.0
 0002967,0.00003802,-0.00477707,-0.00303660,0.00698354,0.05192208,0.109
 08467,-0.00000376,0.00000502,0.00000587,-0.00022092,0.00001462,0.00005
 732,-0.00134214,-0.00169030,-0.00004161,0.00000193,-0.00001512,0.00000
 151,0.09290889,0.09012136,-0.21721075,0.01107248,0.00119275,-0.0166529
 1,-0.00002412,-0.00002587,-0.00003544,-0.00035002,-0.00026323,-0.00035
 823,-0.00605274,-0.00416259,0.01017280,0.00064455,-0.00359656,0.001744
 83,0.00011540,0.00006365,-0.00000592,0.00031779,0.00001532,0.00005062,
 0.00001362,0.00001832,-0.00000911,0.00000154,-0.00000122,-0.00000119,0
 .00000414,0.00000128,0.00000316,-0.00002047,-0.00016082,0.00014354,0.0
 0000736,0.00000220,0.00000653,-0.00000099,0.00000043,-0.00000395,-0.00
 000034,-0.00000180,0.00000418,0.00000753,0.00000562,0.00000179,0.00049
 046,0.00047303,0.00062869,0.00072689,0.00079033,0.00016642,-0.00014402
 ,0.00000693,0.00026697,0.00081086,0.00027337,-0.00069073,0.00001197,-0
 .00000658,0.00000549,-0.00000188,0.00000022,0.00000048,-0.00001049,0.0
 0001928,0.00002022,0.00834395,0.00937574,-0.01506354,-0.10704205,-0.09
 227552,0.23629562,0.00001442,-0.00001111,-0.00003078,-0.00006243,0.000
 01195,0.00032102,-0.17107585,-0.12652323,-0.04842800,0.00000494,-0.000
 00703,0.00000060,-0.00084006,0.00006635,0.00449218,0.00043399,-0.00039
 795,-0.00080866,-0.00014977,0.00006798,0.00008152,0.00997843,0.0131799
 9,0.00408301,-0.01051135,-0.00978710,-0.00519143,-0.00168696,0.0024829
 8,0.00164424,0.00013179,-0.00005848,-0.00008693,0.00189774,-0.00090092
 ,0.00039936,0.00005561,-0.00000737,-0.00006276,0.00000677,-0.00001321,
 0.00000949,0.00000373,0.00000277,0.00000422,-0.01350892,-0.01396487,-0
 .00502030,0.00000483,0.00000022,0.00000777,0.00000834,-0.00000551,-0.0
 0000493,-0.00013504,0.00005287,-0.00006167,0.00002203,-0.00001687,-0.0
 0000255,0.00079467,0.00023576,0.00010866,0.00002997,0.00039084,-0.0003
 1005,0.00002687,0.00009647,0.00005994,0.00056445,0.00070593,0.00021656
 ,0.00002733,-0.00001797,0.00001401,-0.00000298,-0.00000214,0.00000187,
 0.00001775,0.00000133,-0.00003538,0.00034888,0.00036353,0.00007271,-0.
 00042109,-0.00118678,-0.00031269,0.18338195,-0.00003436,0.00002637,0.0
 0006798,0.00020066,0.00011134,-0.00017427,-0.12360054,-0.17364219,-0.0
 4747285,0.00000130,-0.00001595,0.00000375,-0.00029079,0.00094041,0.002
 59736,-0.00016230,0.00056508,0.00029860,0.00009451,-0.00016124,-0.0001
 6834,-0.01735969,-0.02048727,-0.00816594,-0.00675591,-0.00731853,-0.00
 203322,0.00498339,-0.00214941,-0.00271924,0.00006813,0.00004580,0.0000
 5949,-0.00130194,0.00244324,0.00067637,-0.00002292,0.00002285,0.000037
 27,-0.00002429,0.00002300,-0.00002261,0.00000049,-0.00000272,-0.000004
 42,0.00943260,0.01077335,0.00329601,-0.00000181,0.00001097,-0.00000401
 ,0.00000462,-0.00000852,0.00000978,0.00013904,0.00011108,0.00012417,-0
 .00005229,0.00002112,0.00003333,0.00023756,0.00015753,-0.00020336,0.00
 011511,0.00042244,0.00022043,-0.00014156,0.00020506,-0.00007817,-0.001
 07860,-0.00116251,-0.00011759,-0.00001733,0.00000745,-0.00001342,-0.00
 000049,0.00000401,-0.00000201,-0.00012917,0.00009482,0.00010960,-0.000
 16297,-0.00003319,-0.00017211,-0.00037871,-0.00043773,-0.00034574,0.13
 606035,0.18850154,-0.00001468,0.00000791,0.00002850,-0.00009159,0.0000
 5698,0.00005254,-0.04766953,-0.04911599,-0.06657377,-0.00001137,-0.000
 00954,0.00001128,0.00296764,0.00033169,-0.00598163,-0.00111615,0.00010
 945,0.00115374,0.00002242,-0.00004694,-0.00007397,-0.01306692,-0.01124
 546,-0.00563195,0.01964037,0.02052255,0.00846215,0.00337698,-0.0022325
 4,-0.00198184,0.00008479,0.00010079,-0.00002676,-0.00003305,0.00158595
 ,0.00078564,0.00000904,0.00001182,-0.00000995,-0.00000668,0.00000787,-
 0.00001050,0.00000082,0.00000127,0.00000026,-0.01231704,-0.01407865,-0
 .00560370,0.00000819,0.00000332,-0.00000009,0.00000768,-0.00000939,-0.
 00000968,0.00009168,0.00002604,0.00003616,-0.00000770,0.00000738,0.000
 00606,-0.00093477,-0.00033463,0.00118152,-0.00058627,-0.00081919,0.000
 98865,0.00028883,0.00028295,0.00020491,-0.00069361,-0.00108397,0.00016
 508,0.00000806,-0.00000999,-0.00000136,-0.00000012,-0.00000015,-0.0000
 0265,-0.00004528,0.00003527,0.00002128,0.00014791,0.00002312,0.0000713
 3,0.00100648,0.00144844,0.00047601,0.04937153,0.05385746,0.07200102,0.
 00001889,0.00012166,-0.00000045,0.00229594,0.00087462,-0.00273581,-0.0
 0629213,-0.00453928,0.01204920,0.00004013,0.00003342,-0.00002732,0.001
 21695,-0.00061214,-0.00075220,-0.00357771,-0.00446183,0.00032435,-0.00
 004636,-0.00037350,-0.00018957,-0.09173321,-0.03685465,0.09315168,-0.0
 0006600,0.00318686,0.00060640,-0.00566082,-0.00313315,0.01830159,-0.00
 018474,-0.00029905,0.00010075,0.00065328,0.01387404,-0.03204481,0.0000
 0037,-0.00001828,0.00023755,-0.00000268,-0.00002462,0.00001085,0.00001
 241,-0.00002321,0.00003034,0.00009450,-0.00016668,0.00001143,-0.000055
 18,0.00000019,0.00002074,0.00001324,0.00004631,0.00010476,0.00002231,0
 .00004404,0.00004929,0.00000162,0.00001685,0.00003253,-0.00001418,-0.0
 0006227,0.00016686,-0.00038764,-0.00030623,0.00068334,-0.00000020,0.00
 053666,-0.00011359,0.00065162,-0.00014198,-0.00045591,-0.00014063,0.00
 000689,-0.00000744,0.00002567,-0.00010637,0.00006395,-0.00015940,0.000
 13682,0.00015930,-0.00013168,0.00011580,-0.00005126,-0.00009015,0.0000
 7357,0.00004726,0.00063993,0.00017791,-0.00043767,0.10285582,-0.000014
 23,-0.00006037,-0.00005820,-0.00117233,0.00051183,0.00303966,0.0118106
 2,0.00938745,-0.02351954,-0.00005578,0.00003804,-0.00002413,0.00060938
 ,-0.00161125,-0.00086146,-0.00556747,-0.00417827,0.00101985,0.00002323
 ,0.00021650,0.00010541,-0.03573023,-0.07848312,0.06830210,0.00207428,-
 0.00451935,-0.00182363,-0.00943231,-0.00516772,0.02208789,0.00005293,0
 .00049607,-0.00075137,0.00453955,-0.00489115,0.01286474,-0.00005005,-0
 .00026489,-0.00022972,0.00000891,-0.00000100,0.00000629,-0.00001459,0.
 00001162,-0.00002022,-0.00044714,0.00104171,0.00069874,0.00000961,-0.0
 0001924,-0.00003020,-0.00001095,-0.00002510,-0.00005081,0.00004708,-0.
 00006598,-0.00003994,-0.00000188,-0.00002692,-0.00000656,-0.00014474,0
 .00001805,-0.00007078,0.00092486,0.00052043,-0.00126628,0.00005851,0.0
 0081070,-0.00062041,0.00114488,0.00044587,-0.00002141,0.00008046,-0.00
 000554,0.00002010,0.00003970,0.00003878,-0.00002883,0.00027493,-0.0005
 1456,-0.00008250,-0.00005783,0.00018844,0.00013186,-0.00005822,0.00028
 067,0.00016587,-0.00081879,0.00093183,0.00056619,0.03187760,0.08489650
 ,0.00005200,0.00005079,0.00004755,0.00462382,-0.00165195,-0.00261606,0
 .00722963,0.00416931,-0.01206327,0.00012369,-0.00000442,0.00002325,-0.
 00019876,-0.00055954,-0.00026935,-0.00161106,-0.00195879,0.00146370,-0
 .00012999,-0.00024158,-0.00013083,0.08574467,0.06966825,-0.23711064,0.
 00097934,-0.00298127,0.00041561,-0.00110255,-0.00121119,0.00579944,0.0
 0014502,-0.00137604,0.00187756,-0.00655615,0.01293359,-0.02368068,-0.0
 0013685,0.00022528,0.00024183,-0.00001918,0.00000039,0.00001158,-0.000
 00246,-0.00002510,0.00002396,0.00005321,-0.00009771,0.00073087,-0.0000
 5148,0.00001501,0.00000900,-0.00000060,0.00003311,0.00010200,-0.000072
 99,0.00006073,-0.00004652,-0.00002022,0.00000228,-0.00000375,-0.000179
 73,-0.00000372,0.00013312,0.00045668,0.00046811,-0.00065475,0.00047568
 ,0.00086482,0.00033509,0.00046286,0.00026880,0.00002456,-0.00018006,0.
 00007933,-0.00006477,-0.00003446,-0.00008510,0.00006413,-0.00015361,0.
 00032806,0.00076030,0.00002991,0.00006128,0.00004480,-0.00005766,0.000
 16428,0.00002132,-0.00053256,0.00030570,0.00026172,-0.08933616,-0.0795
 0271,0.26424927\\0.00000297,0.00000227,0.00000401,-0.00143523,-0.00073
 240,-0.00172647,0.00001160,0.00002040,0.00000240,0.00000225,-0.0000082
 2,0.00001072,-0.00000979,-0.00000662,0.00000769,-0.00000587,0.00000984
 ,-0.00000638,0.00000836,0.00002434,-0.00000035,-0.00069198,-0.00139191
 ,0.00010814,-0.00000767,0.00000825,0.00000547,0.00000810,-0.00000938,-
 0.00001754,0.00085963,0.00008425,0.00128713,0.00126120,0.00201915,0.00
 030845,-0.00001480,-0.00000262,0.00000591,-0.00000488,-0.00000079,0.00
 000217,0.00000202,-0.00000655,-0.00000157,0.00000033,0.00000314,0.0000
 0347,-0.00000705,-0.00000215,-0.00000497,0.00000263,-0.00000648,-0.000
 00290,0.00000777,-0.00000954,-0.00000438,-0.00000219,-0.00000245,0.000
 00742,0.00000068,-0.00000174,-0.00000418,0.00000539,-0.00000792,0.0000
 0223,0.00000518,-0.00000061,0.00000899,0.00000397,0.00001076,-0.000003
 42,0.00000030,0.00000194,-0.00000307,0.00000578,0.00000065,-0.00000743
 ,-0.00000159,0.00001044,0.00001470,0.00000515,-0.00000136,0.00000320,-
 0.00000303,0.00000456,-0.00000740,-0.00000663,-0.00000427,-0.00000172,
 -0.00000260,-0.00000494,0.00000967\\\@


 THERE'S NOTHING SO GREAT AS THE GREAT OUTDOORS.

                                       -- ZIGGY
 Job cpu time:       0 days 14 hours 40 minutes 41.2 seconds.
 Elapsed time:       0 days  0 hours 55 minutes  4.7 seconds.
 File lengths (MBytes):  RWF=    691 Int=      0 D2E=      0 Chk=     33 Scr=      1
 Normal termination of Gaussian 16 at Mon Nov  5 05:11:58 2018.
