 Entering Gaussian System, Link 0=g16
 Initial command:
 /apps/gaussian/g16a03/g16/l1.exe "/jobfs/local/2011921.r-man2/Gau-23433.inp" -scrdir="/jobfs/local/2011921.r-man2/"
 Entering Link 1 = /apps/gaussian/g16a03/g16/l1.exe PID=     23434.
  
 Copyright (c) 1988,1990,1992,1993,1995,1998,2003,2009,2016,
            Gaussian, Inc.  All Rights Reserved.
  
 This is part of the Gaussian(R) 16 program.  It is based on
 the Gaussian(R) 09 system (copyright 2009, Gaussian, Inc.),
 the Gaussian(R) 03 system (copyright 2003, Gaussian, Inc.),
 the Gaussian(R) 98 system (copyright 1998, Gaussian, Inc.),
 the Gaussian(R) 94 system (copyright 1995, Gaussian, Inc.),
 the Gaussian 92(TM) system (copyright 1992, Gaussian, Inc.),
 the Gaussian 90(TM) system (copyright 1990, Gaussian, Inc.),
 the Gaussian 88(TM) system (copyright 1988, Gaussian, Inc.),
 the Gaussian 86(TM) system (copyright 1986, Carnegie Mellon
 University), and the Gaussian 82(TM) system (copyright 1983,
 Carnegie Mellon University). Gaussian is a federally registered
 trademark of Gaussian, Inc.
  
 This software contains proprietary and confidential information,
 including trade secrets, belonging to Gaussian, Inc.
  
 This software is provided under written license and may be
 used, copied, transmitted, or stored only in accord with that
 written license.
  
 The following legend is applicable only to US Government
 contracts under FAR:
  
                    RESTRICTED RIGHTS LEGEND
  
 Use, reproduction and disclosure by the US Government is
 subject to restrictions as set forth in subparagraphs (a)
 and (c) of the Commercial Computer Software - Restricted
 Rights clause in FAR 52.227-19.
  
 Gaussian, Inc.
 340 Quinnipiac St., Bldg. 40, Wallingford CT 06492
  
  
 ---------------------------------------------------------------
 Warning -- This program may not be used in any manner that
 competes with the business of Gaussian, Inc. or will provide
 assistance to any competitor of Gaussian, Inc.  The licensee
 of this program is prohibited from giving any competitor of
 Gaussian, Inc. access to this program.  By using this program,
 the user acknowledges that Gaussian, Inc. is engaged in the
 business of creating and licensing software in the field of
 computational chemistry and represents and warrants to the
 licensee that it is not a competitor of Gaussian, Inc. and that
 it will not use this program in any manner prohibited above.
 ---------------------------------------------------------------
  

 Cite this work as:
 Gaussian 16, Revision A.03,
 M. J. Frisch, G. W. Trucks, H. B. Schlegel, G. E. Scuseria, 
 M. A. Robb, J. R. Cheeseman, G. Scalmani, V. Barone, 
 G. A. Petersson, H. Nakatsuji, X. Li, M. Caricato, A. V. Marenich, 
 J. Bloino, B. G. Janesko, R. Gomperts, B. Mennucci, H. P. Hratchian, 
 J. V. Ortiz, A. F. Izmaylov, J. L. Sonnenberg, D. Williams-Young, 
 F. Ding, F. Lipparini, F. Egidi, J. Goings, B. Peng, A. Petrone, 
 T. Henderson, D. Ranasinghe, V. G. Zakrzewski, J. Gao, N. Rega, 
 G. Zheng, W. Liang, M. Hada, M. Ehara, K. Toyota, R. Fukuda, 
 J. Hasegawa, M. Ishida, T. Nakajima, Y. Honda, O. Kitao, H. Nakai, 
 T. Vreven, K. Throssell, J. A. Montgomery, Jr., J. E. Peralta, 
 F. Ogliaro, M. J. Bearpark, J. J. Heyd, E. N. Brothers, K. N. Kudin, 
 V. N. Staroverov, T. A. Keith, R. Kobayashi, J. Normand, 
 K. Raghavachari, A. P. Rendell, J. C. Burant, S. S. Iyengar, 
 J. Tomasi, M. Cossi, J. M. Millam, M. Klene, C. Adamo, R. Cammi, 
 J. W. Ochterski, R. L. Martin, K. Morokuma, O. Farkas, 
 J. B. Foresman, and D. J. Fox, Gaussian, Inc., Wallingford CT, 2016.
 
 ******************************************
 Gaussian 16:  ES64L-G16RevA.03 25-Dec-2016
                 4-Nov-2018 
 ******************************************
 %mem=6000mb
 %nproc=24
 Will use up to   24 processors via shared memory.
 %chk=D_1a_4a_L_PSI.inp_extract_4.chk
 ----------------------------------------------------------------------
 #M062X/6-311++G(2d,2p) opt=ModRedundant freq=noraman SCRF=(Solvent=Wat
 er)
 ----------------------------------------------------------------------
 1/18=120,19=15,26=3,38=1/1,3;
 2/9=110,12=2,17=6,18=5,40=1/2;
 3/5=4,6=6,7=1212,11=2,25=1,30=1,70=2201,71=1,72=1,74=-55/1,2,3;
 4//1;
 5/5=2,38=5,53=1/2;
 6/7=2,8=2,9=2,10=2,28=1/1;
 7//1,2,3,16;
 1/18=20,19=15,26=3/3(2);
 2/9=110/2;
 99//99;
 2/9=110/2;
 3/5=4,6=6,7=1212,11=2,25=1,30=1,70=2205,71=1,72=1,74=-55/1,2,3;
 4/5=5,16=3,69=1/1;
 5/5=2,38=5,53=1/2;
 7//1,2,3,16;
 1/18=20,19=15,26=3/3(-5);
 2/9=110/2;
 6/7=2,8=2,9=2,10=2,19=2,28=1/1;
 99/9=1/99;
 ---------------------------
 D_1a_4a_L_PSI.inp_extract_4
 ---------------------------
 Symbolic Z-matrix:
 Charge =  0 Multiplicity = 1
 C                     2.96514  -1.11956  -0.55161 
 C                     1.11192   0.6555    0.7925 
 C                    -1.78724   0.37441   1.33137 
 C                     2.99714   0.3744   -0.87337 
 C                    -2.93773  -1.02124  -0.41165 
 O                    -2.22765  -0.30663  -1.40688 
 C                     1.57753  -1.52273  -0.08133 
 C                    -1.21234   1.22381   0.19213 
 C                    -2.15595  -1.04694   0.89167 
 C                    -2.03803   1.04941  -1.06984 
 O                     1.15004  -0.72758   1.01619 
 O                     0.15392   1.00623  -0.16106 
 C                     2.46773   1.1674    0.32225 
 H                     3.68739  -1.34351   0.23016 
 H                     3.23127  -1.71338  -1.42153 
 H                    -2.69231   0.88711   1.64835 
 H                     4.00801   0.69344  -1.10841 
 H                     2.38974   0.57232  -1.75256 
 H                     0.86051  -1.43689  -0.8902 
 H                     1.56139  -2.54313   0.27602 
 H                    -1.26578  -1.64833   0.75385 
 H                    -2.75628  -1.5278    1.65904 
 H                    -3.00553   1.52355  -0.92457 
 H                    -1.54681   1.51929  -1.91024 
 H                     3.15845   1.06655   1.15527 
 H                     2.38442   2.22459   0.09441 
 H                     0.86204   1.09286   1.74752 
 H                    -3.91124  -0.55617  -0.27147 
 H                    -3.09003  -2.01909  -0.79991 
 H                    -1.12748   0.35902   2.18883 
 H                    -1.28738   2.26672   0.48665 
 
 The following ModRedundant input section has been read:
 D       3       8      12       2 F                                           
 

 GradGradGradGradGradGradGradGradGradGradGradGradGradGradGradGradGradGrad
 Berny optimization.
 Initialization pass.
                           ----------------------------
                           !    Initial Parameters    !
                           ! (Angstroms and Degrees)  !
 --------------------------                            --------------------------
 ! Name  Definition              Value          Derivative Info.                !
 --------------------------------------------------------------------------------
 ! R1    R(1,4)                  1.5286         estimate D2E/DX2                !
 ! R2    R(1,7)                  1.5196         estimate D2E/DX2                !
 ! R3    R(1,14)                 1.0876         estimate D2E/DX2                !
 ! R4    R(1,15)                 1.0864         estimate D2E/DX2                !
 ! R5    R(2,11)                 1.4016         estimate D2E/DX2                !
 ! R6    R(2,12)                 1.3964         estimate D2E/DX2                !
 ! R7    R(2,13)                 1.5236         estimate D2E/DX2                !
 ! R8    R(2,27)                 1.0797         estimate D2E/DX2                !
 ! R9    R(3,8)                  1.5329         estimate D2E/DX2                !
 ! R10   R(3,9)                  1.5328         estimate D2E/DX2                !
 ! R11   R(3,16)                 1.0874         estimate D2E/DX2                !
 ! R12   R(3,30)                 1.082          estimate D2E/DX2                !
 ! R13   R(4,13)                 1.5293         estimate D2E/DX2                !
 ! R14   R(4,17)                 1.0858         estimate D2E/DX2                !
 ! R15   R(4,18)                 1.0868         estimate D2E/DX2                !
 ! R16   R(5,6)                  1.4161         estimate D2E/DX2                !
 ! R17   R(5,9)                  1.52           estimate D2E/DX2                !
 ! R18   R(5,28)                 1.088          estimate D2E/DX2                !
 ! R19   R(5,29)                 1.0815         estimate D2E/DX2                !
 ! R20   R(6,10)                 1.4101         estimate D2E/DX2                !
 ! R21   R(7,11)                 1.4211         estimate D2E/DX2                !
 ! R22   R(7,19)                 1.0843         estimate D2E/DX2                !
 ! R23   R(7,20)                 1.0813         estimate D2E/DX2                !
 ! R24   R(8,10)                 1.5181         estimate D2E/DX2                !
 ! R25   R(8,12)                 1.4278         estimate D2E/DX2                !
 ! R26   R(8,31)                 1.0863         estimate D2E/DX2                !
 ! R27   R(9,21)                 1.0831         estimate D2E/DX2                !
 ! R28   R(9,22)                 1.0865         estimate D2E/DX2                !
 ! R29   R(10,23)                1.0872         estimate D2E/DX2                !
 ! R30   R(10,24)                1.0809         estimate D2E/DX2                !
 ! R31   R(13,25)                1.0868         estimate D2E/DX2                !
 ! R32   R(13,26)                1.0847         estimate D2E/DX2                !
 ! A1    A(4,1,7)              110.0944         estimate D2E/DX2                !
 ! A2    A(4,1,14)             109.7942         estimate D2E/DX2                !
 ! A3    A(4,1,15)             111.1339         estimate D2E/DX2                !
 ! A4    A(7,1,14)             109.2265         estimate D2E/DX2                !
 ! A5    A(7,1,15)             109.0558         estimate D2E/DX2                !
 ! A6    A(14,1,15)            107.4782         estimate D2E/DX2                !
 ! A7    A(11,2,12)            112.0549         estimate D2E/DX2                !
 ! A8    A(11,2,13)            110.8916         estimate D2E/DX2                !
 ! A9    A(11,2,27)            105.358          estimate D2E/DX2                !
 ! A10   A(12,2,13)            108.3807         estimate D2E/DX2                !
 ! A11   A(12,2,27)            110.0892         estimate D2E/DX2                !
 ! A12   A(13,2,27)            110.0501         estimate D2E/DX2                !
 ! A13   A(8,3,9)              113.0062         estimate D2E/DX2                !
 ! A14   A(8,3,16)             105.5169         estimate D2E/DX2                !
 ! A15   A(8,3,30)             111.6009         estimate D2E/DX2                !
 ! A16   A(9,3,16)             108.7002         estimate D2E/DX2                !
 ! A17   A(9,3,30)             111.1502         estimate D2E/DX2                !
 ! A18   A(16,3,30)            106.452          estimate D2E/DX2                !
 ! A19   A(1,4,13)             109.5723         estimate D2E/DX2                !
 ! A20   A(1,4,17)             110.6246         estimate D2E/DX2                !
 ! A21   A(1,4,18)             109.6687         estimate D2E/DX2                !
 ! A22   A(13,4,17)            109.8274         estimate D2E/DX2                !
 ! A23   A(13,4,18)            110.156          estimate D2E/DX2                !
 ! A24   A(17,4,18)            106.9601         estimate D2E/DX2                !
 ! A25   A(6,5,9)              110.6852         estimate D2E/DX2                !
 ! A26   A(6,5,28)             108.8753         estimate D2E/DX2                !
 ! A27   A(6,5,29)             106.4934         estimate D2E/DX2                !
 ! A28   A(9,5,28)             110.914          estimate D2E/DX2                !
 ! A29   A(9,5,29)             111.3859         estimate D2E/DX2                !
 ! A30   A(28,5,29)            108.3403         estimate D2E/DX2                !
 ! A31   A(5,6,10)             112.6269         estimate D2E/DX2                !
 ! A32   A(1,7,11)             111.4223         estimate D2E/DX2                !
 ! A33   A(1,7,19)             110.6075         estimate D2E/DX2                !
 ! A34   A(1,7,20)             111.4865         estimate D2E/DX2                !
 ! A35   A(11,7,19)            109.445          estimate D2E/DX2                !
 ! A36   A(11,7,20)            105.5628         estimate D2E/DX2                !
 ! A37   A(19,7,20)            108.1419         estimate D2E/DX2                !
 ! A38   A(3,8,10)             110.4963         estimate D2E/DX2                !
 ! A39   A(3,8,12)             117.2752         estimate D2E/DX2                !
 ! A40   A(3,8,31)             107.7327         estimate D2E/DX2                !
 ! A41   A(10,8,12)            107.2952         estimate D2E/DX2                !
 ! A42   A(10,8,31)            107.3427         estimate D2E/DX2                !
 ! A43   A(12,8,31)            106.2278         estimate D2E/DX2                !
 ! A44   A(3,9,5)              110.7324         estimate D2E/DX2                !
 ! A45   A(3,9,21)             110.7127         estimate D2E/DX2                !
 ! A46   A(3,9,22)             109.9193         estimate D2E/DX2                !
 ! A47   A(5,9,21)             108.8444         estimate D2E/DX2                !
 ! A48   A(5,9,22)             109.2012         estimate D2E/DX2                !
 ! A49   A(21,9,22)            107.3523         estimate D2E/DX2                !
 ! A50   A(6,10,8)             112.4759         estimate D2E/DX2                !
 ! A51   A(6,10,23)            109.3701         estimate D2E/DX2                !
 ! A52   A(6,10,24)            107.0569         estimate D2E/DX2                !
 ! A53   A(8,10,23)            108.8344         estimate D2E/DX2                !
 ! A54   A(8,10,24)            110.438          estimate D2E/DX2                !
 ! A55   A(23,10,24)           108.5859         estimate D2E/DX2                !
 ! A56   A(2,11,7)             115.9168         estimate D2E/DX2                !
 ! A57   A(2,12,8)             121.7218         estimate D2E/DX2                !
 ! A58   A(2,13,4)             112.0331         estimate D2E/DX2                !
 ! A59   A(2,13,25)            107.3257         estimate D2E/DX2                !
 ! A60   A(2,13,26)            108.9019         estimate D2E/DX2                !
 ! A61   A(4,13,25)            109.3367         estimate D2E/DX2                !
 ! A62   A(4,13,26)            111.5785         estimate D2E/DX2                !
 ! A63   A(25,13,26)           107.4733         estimate D2E/DX2                !
 ! D1    D(7,1,4,13)            52.7508         estimate D2E/DX2                !
 ! D2    D(7,1,4,17)           173.9793         estimate D2E/DX2                !
 ! D3    D(7,1,4,18)           -68.2768         estimate D2E/DX2                !
 ! D4    D(14,1,4,13)          -67.5365         estimate D2E/DX2                !
 ! D5    D(14,1,4,17)           53.692          estimate D2E/DX2                !
 ! D6    D(14,1,4,18)          171.4359         estimate D2E/DX2                !
 ! D7    D(15,1,4,13)          173.6903         estimate D2E/DX2                !
 ! D8    D(15,1,4,17)          -65.0812         estimate D2E/DX2                !
 ! D9    D(15,1,4,18)           52.6627         estimate D2E/DX2                !
 ! D10   D(4,1,7,11)           -54.8366         estimate D2E/DX2                !
 ! D11   D(4,1,7,19)            67.1408         estimate D2E/DX2                !
 ! D12   D(4,1,7,20)          -172.4933         estimate D2E/DX2                !
 ! D13   D(14,1,7,11)           65.7927         estimate D2E/DX2                !
 ! D14   D(14,1,7,19)         -172.2299         estimate D2E/DX2                !
 ! D15   D(14,1,7,20)          -51.864          estimate D2E/DX2                !
 ! D16   D(15,1,7,11)         -177.0141         estimate D2E/DX2                !
 ! D17   D(15,1,7,19)          -55.0366         estimate D2E/DX2                !
 ! D18   D(15,1,7,20)           65.3293         estimate D2E/DX2                !
 ! D19   D(12,2,11,7)           65.5838         estimate D2E/DX2                !
 ! D20   D(13,2,11,7)          -55.6686         estimate D2E/DX2                !
 ! D21   D(27,2,11,7)         -174.7068         estimate D2E/DX2                !
 ! D22   D(11,2,12,8)           85.5974         estimate D2E/DX2                !
 ! D23   D(13,2,12,8)         -151.7147         estimate D2E/DX2                !
 ! D24   D(27,2,12,8)          -31.3033         estimate D2E/DX2                !
 ! D25   D(11,2,13,4)           52.2564         estimate D2E/DX2                !
 ! D26   D(11,2,13,25)         -67.7723         estimate D2E/DX2                !
 ! D27   D(11,2,13,26)         176.1698         estimate D2E/DX2                !
 ! D28   D(12,2,13,4)          -71.1351         estimate D2E/DX2                !
 ! D29   D(12,2,13,25)         168.8362         estimate D2E/DX2                !
 ! D30   D(12,2,13,26)          52.7783         estimate D2E/DX2                !
 ! D31   D(27,2,13,4)          168.4292         estimate D2E/DX2                !
 ! D32   D(27,2,13,25)          48.4005         estimate D2E/DX2                !
 ! D33   D(27,2,13,26)         -67.6574         estimate D2E/DX2                !
 ! D34   D(9,3,8,10)            44.7181         estimate D2E/DX2                !
 ! D35   D(9,3,8,12)           -78.6367         estimate D2E/DX2                !
 ! D36   D(9,3,8,31)           161.6956         estimate D2E/DX2                !
 ! D37   D(16,3,8,10)          -73.927          estimate D2E/DX2                !
 ! D38   D(16,3,8,12)          162.7181         estimate D2E/DX2                !
 ! D39   D(16,3,8,31)           43.0504         estimate D2E/DX2                !
 ! D40   D(30,3,8,10)          170.8553         estimate D2E/DX2                !
 ! D41   D(30,3,8,12)           47.5005         estimate D2E/DX2                !
 ! D42   D(30,3,8,31)          -72.1673         estimate D2E/DX2                !
 ! D43   D(8,3,9,5)            -46.5474         estimate D2E/DX2                !
 ! D44   D(8,3,9,21)            74.2733         estimate D2E/DX2                !
 ! D45   D(8,3,9,22)          -167.2913         estimate D2E/DX2                !
 ! D46   D(16,3,9,5)            70.2321         estimate D2E/DX2                !
 ! D47   D(16,3,9,21)         -168.9471         estimate D2E/DX2                !
 ! D48   D(16,3,9,22)          -50.5117         estimate D2E/DX2                !
 ! D49   D(30,3,9,5)          -172.9251         estimate D2E/DX2                !
 ! D50   D(30,3,9,21)          -52.1044         estimate D2E/DX2                !
 ! D51   D(30,3,9,22)           66.331          estimate D2E/DX2                !
 ! D52   D(1,4,13,2)           -52.0065         estimate D2E/DX2                !
 ! D53   D(1,4,13,25)           66.8414         estimate D2E/DX2                !
 ! D54   D(1,4,13,26)         -174.4092         estimate D2E/DX2                !
 ! D55   D(17,4,13,2)         -173.715          estimate D2E/DX2                !
 ! D56   D(17,4,13,25)         -54.8671         estimate D2E/DX2                !
 ! D57   D(17,4,13,26)          63.8824         estimate D2E/DX2                !
 ! D58   D(18,4,13,2)           68.7259         estimate D2E/DX2                !
 ! D59   D(18,4,13,25)        -172.4262         estimate D2E/DX2                !
 ! D60   D(18,4,13,26)         -53.6768         estimate D2E/DX2                !
 ! D61   D(9,5,6,10)           -62.8725         estimate D2E/DX2                !
 ! D62   D(28,5,6,10)           59.2912         estimate D2E/DX2                !
 ! D63   D(29,5,6,10)          175.9095         estimate D2E/DX2                !
 ! D64   D(6,5,9,3)             54.1857         estimate D2E/DX2                !
 ! D65   D(6,5,9,21)           -67.7369         estimate D2E/DX2                !
 ! D66   D(6,5,9,22)           175.3549         estimate D2E/DX2                !
 ! D67   D(28,5,9,3)           -66.7769         estimate D2E/DX2                !
 ! D68   D(28,5,9,21)          171.3005         estimate D2E/DX2                !
 ! D69   D(28,5,9,22)           54.3924         estimate D2E/DX2                !
 ! D70   D(29,5,9,3)           172.465          estimate D2E/DX2                !
 ! D71   D(29,5,9,21)           50.5424         estimate D2E/DX2                !
 ! D72   D(29,5,9,22)          -66.3658         estimate D2E/DX2                !
 ! D73   D(5,6,10,8)            61.9865         estimate D2E/DX2                !
 ! D74   D(5,6,10,23)          -59.0635         estimate D2E/DX2                !
 ! D75   D(5,6,10,24)         -176.5321         estimate D2E/DX2                !
 ! D76   D(1,7,11,2)            57.8138         estimate D2E/DX2                !
 ! D77   D(19,7,11,2)          -64.8336         estimate D2E/DX2                !
 ! D78   D(20,7,11,2)          178.9926         estimate D2E/DX2                !
 ! D79   D(3,8,10,6)           -51.4406         estimate D2E/DX2                !
 ! D80   D(3,8,10,23)           69.9158         estimate D2E/DX2                !
 ! D81   D(3,8,10,24)         -170.974          estimate D2E/DX2                !
 ! D82   D(12,8,10,6)           77.5209         estimate D2E/DX2                !
 ! D83   D(12,8,10,23)        -161.1227         estimate D2E/DX2                !
 ! D84   D(12,8,10,24)         -42.0125         estimate D2E/DX2                !
 ! D85   D(31,8,10,6)         -168.6589         estimate D2E/DX2                !
 ! D86   D(31,8,10,23)         -47.3026         estimate D2E/DX2                !
 ! D87   D(31,8,10,24)          71.8076         estimate D2E/DX2                !
 ! D88   D(3,8,12,2)           -33.518          Frozen                          !
 ! D89   D(10,8,12,2)         -158.4878         estimate D2E/DX2                !
 ! D90   D(31,8,12,2)           86.9436         estimate D2E/DX2                !
 --------------------------------------------------------------------------------
 Trust Radius=3.00D-01 FncErr=1.00D-07 GrdErr=1.00D-06 EigMax=2.50D+02 EigMin=1.00D-04
 Number of steps in this run=    186 maximum allowed number of steps=    186.
 GradGradGradGradGradGradGradGradGradGradGradGradGradGradGradGradGradGrad

                          Input orientation:                          
 ---------------------------------------------------------------------
 Center     Atomic      Atomic             Coordinates (Angstroms)
 Number     Number       Type             X           Y           Z
 ---------------------------------------------------------------------
      1          6           0        2.965143   -1.119562   -0.551609
      2          6           0        1.111920    0.655497    0.792500
      3          6           0       -1.787244    0.374407    1.331374
      4          6           0        2.997142    0.374404   -0.873365
      5          6           0       -2.937730   -1.021244   -0.411646
      6          8           0       -2.227650   -0.306632   -1.406883
      7          6           0        1.577531   -1.522731   -0.081332
      8          6           0       -1.212336    1.223805    0.192134
      9          6           0       -2.155950   -1.046942    0.891668
     10          6           0       -2.038029    1.049407   -1.069843
     11          8           0        1.150044   -0.727576    1.016195
     12          8           0        0.153923    1.006232   -0.161063
     13          6           0        2.467731    1.167400    0.322252
     14          1           0        3.687391   -1.343511    0.230158
     15          1           0        3.231274   -1.713378   -1.421533
     16          1           0       -2.692310    0.887114    1.648345
     17          1           0        4.008012    0.693440   -1.108406
     18          1           0        2.389744    0.572320   -1.752564
     19          1           0        0.860514   -1.436892   -0.890200
     20          1           0        1.561392   -2.543134    0.276024
     21          1           0       -1.265781   -1.648330    0.753854
     22          1           0       -2.756278   -1.527801    1.659038
     23          1           0       -3.005530    1.523554   -0.924572
     24          1           0       -1.546808    1.519288   -1.910238
     25          1           0        3.158447    1.066552    1.155272
     26          1           0        2.384416    2.224594    0.094407
     27          1           0        0.862042    1.092855    1.747517
     28          1           0       -3.911236   -0.556165   -0.271470
     29          1           0       -3.090029   -2.019093   -0.799907
     30          1           0       -1.127481    0.359022    2.188829
     31          1           0       -1.287377    2.266718    0.486647
 ---------------------------------------------------------------------
                    Distance matrix (angstroms):
                    1          2          3          4          5
     1  C    0.000000
     2  C    2.896877   0.000000
     3  C    5.325669   2.962186   0.000000
     4  C    1.528557   2.531439   5.267943   0.000000
     5  C    5.905351   4.545448   2.511887   6.114223   0.000000
     6  O    5.325171   4.112871   2.855840   5.295933   1.416115
     7  C    1.519596   2.392708   4.112977   2.498346   4.555017
     8  C    4.847252   2.466897   1.532927   4.424531   2.895130
     9  C    5.321082   3.686069   1.532814   5.629380   1.520022
    10  C    5.477657   3.680444   2.506863   5.084012   2.351655
    11  O    2.430277   1.401565   3.152993   2.862965   4.339916
    12  O    3.546052   1.396444   2.528774   2.998412   3.705640
    13  C    2.498249   1.523615   4.444320   1.529254   5.877736
    14  H    1.087637   3.308370   5.842563   2.155328   6.663933
    15  H    1.086375   3.873651   6.092854   2.171207   6.289319
    16  H    6.393225   3.906185   1.087421   6.244338   2.818798
    17  H    2.164388   3.464424   6.295975   1.085765   7.188112
    18  H    2.153100   2.849053   5.195871   1.086781   5.720095
    19  H    2.155181   2.696808   3.902155   2.801117   3.850771
    20  H    2.163805   3.271087   4.564994   3.448841   4.799077
    21  H    4.459209   3.310978   2.167237   4.991173   2.132379
    22  H    6.147217   4.525553   2.159812   6.567594   2.139453
    23  H    6.540191   4.544805   2.809636   6.111893   2.596861
    24  H    5.400658   3.888414   3.446246   4.799307   3.261096
    25  H    2.780270   2.118689   4.996993   2.149525   6.631553
    26  H    3.455135   2.137439   4.728216   2.176056   6.254342
    27  H    3.821492   1.079712   2.776339   3.455987   4.854860
    28  H    6.905106   5.275628   2.818939   6.996708   1.087962
    29  H    6.126656   5.229299   3.459545   6.541244   1.081501
    30  H    5.142546   2.655664   1.082013   5.137099   3.456097
    31  H    5.534329   2.906236   2.131730   4.877252   3.786989
                    6          7          8          9         10
     6  O    0.000000
     7  C    4.208965   0.000000
     8  C    2.435150   3.924487   0.000000
     9  C    2.415892   3.887414   2.556569   0.000000
    10  C    1.410104   4.545913   1.518147   2.873345   0.000000
    11  O    4.178195   1.421120   3.172980   3.323717   4.203931
    12  O    2.991249   2.903217   1.427848   3.264855   2.373268
    13  C    5.216252   2.862192   3.682799   5.158098   4.717385
    14  H    6.224366   2.140246   5.531716   5.888139   6.340070
    15  H    5.637287   2.137136   5.565666   5.900612   5.960052
    16  H    3.312908   5.199104   2.103386   2.144951   2.800530
    17  H    6.322398   3.445799   5.405990   6.709967   6.056634
    18  H    4.713001   2.800347   4.145029   5.502482   4.505429
    19  H    3.328845   1.084320   3.542240   3.525077   3.823023
    20  H    4.710728   1.081289   4.678721   4.054163   5.260565
    21  H    2.719215   2.966097   2.927037   1.083079   3.346643
    22  H    3.342241   4.670205   3.479497   1.086497   3.821606
    23  H    2.046290   5.567347   2.133642   3.260056   1.087188
    24  H    2.012684   4.728665   2.149221   3.848021   1.080902
    25  H    6.120483   3.276106   4.478405   5.725309   5.652857
    26  H    5.471026   3.837238   3.734669   5.652742   4.721712
    27  H    4.631954   3.270765   2.596037   3.797300   4.043491
    28  H    2.045945   5.576465   3.266081   2.162124   2.593100
    29  H    2.011129   4.748562   3.876373   2.163101   3.255036
    30  H    3.818719   4.001464   2.177577   2.171891   3.453212
    31  H    3.330420   4.784373   1.086295   3.449464   2.113761
                   11         12         13         14         15
    11  O    0.000000
    12  O    2.320406   0.000000
    13  C    2.410143   2.369235   0.000000
    14  H    2.726786   4.261425   2.792978   0.000000
    15  H    3.353482   4.295946   3.452921   1.752977   0.000000
    16  H    4.215510   3.374787   5.335083   6.905616   7.160695
    17  H    3.834214   3.981118   2.154968   2.458398   2.548361
    18  H    3.300396   2.778498   2.159876   3.047209   2.458083
    19  H    2.054580   2.645707   3.291736   3.042229   2.445253
    20  H    2.003325   3.843177   3.819902   2.441530   2.521646
    21  H    2.598619   3.146320   4.696140   4.990099   4.996003
    22  H    4.038930   4.266540   6.028381   6.602767   6.736107
    23  H    5.109105   3.291308   5.624767   7.372154   7.044319
    24  H    4.570057   2.493055   4.606990   6.338277   5.789562
    25  H    2.696650   3.280784   1.086822   2.635151   3.791205
    26  H    3.329966   2.554363   1.084672   3.800993   4.303820
    27  H    1.982863   2.037551   2.148296   4.027512   4.850885
    28  H    5.225325   4.356466   6.634335   7.655761   7.326475
    29  H    4.790038   4.481511   6.503974   6.888459   6.359147
    30  H    2.782604   2.753701   4.130755   5.469735   6.027296
    31  H    3.897081   2.021311   3.916167   6.152061   6.316686
                   16         17         18         19         20
    16  H    0.000000
    17  H    7.247862   0.000000
    18  H    6.123116   1.745967   0.000000
    19  H    4.946491   3.806924   2.668173   0.000000
    20  H    5.634168   4.286958   3.808857   1.753591   0.000000
    21  H    3.043612   6.063398   4.957447   2.696062   3.003648
    22  H    2.415786   7.638604   6.521586   4.425840   4.646063
    23  H    2.668907   7.064889   5.540704   4.869468   6.231866
    24  H    3.791481   5.672829   4.051919   3.946477   5.562726
    25  H    5.874238   2.446469   3.048062   3.966319   4.043945
    26  H    5.475100   2.535203   2.478173   4.086344   4.841651
    27  H    3.561683   4.267664   3.854270   3.654747   3.984319
    28  H    2.693422   8.060798   6.570348   4.891636   5.847859
    29  H    3.820754   7.604945   6.136032   3.994233   4.802912
    30  H    1.737727   6.112028   5.286865   4.081403   4.394470
    31  H    2.286195   5.749830   4.626691   4.497318   5.594151
                   21         22         23         24         25
    21  H    0.000000
    22  H    1.747989   0.000000
    23  H    3.988068   4.005987   0.000000
    24  H    4.148514   4.846370   1.760519   0.000000
    25  H    5.206296   6.478304   6.521443   5.633981   0.000000
    26  H    5.362681   6.554027   5.530036   4.468846   1.750891
    27  H    3.609583   4.468546   4.720559   4.400406   2.371692
    28  H    3.040156   2.450483   2.360525   3.547335   7.392511
    29  H    2.424772   2.529658   3.545847   4.016778   7.237913
    30  H    2.471385   2.548286   3.817914   4.280701   4.465201
    31  H    3.924215   4.234447   2.344330   2.524087   4.653258
                   26         27         28         29         30
    26  H    0.000000
    27  H    2.516193   0.000000
    28  H    6.892149   5.438728   0.000000
    29  H    6.984141   5.638480   1.758916   0.000000
    30  H    4.494484   2.165980   3.826216   4.294132   0.000000
    31  H    3.692924   2.754587   3.927855   4.824205   2.561698
                   31
    31  H    0.000000
 Stoichiometry    C10H18O3
 Framework group  C1[X(C10H18O3)]
 Deg. of freedom    87
 Full point group                 C1      NOp   1
 Largest Abelian subgroup         C1      NOp   1
 Largest concise Abelian subgroup C1      NOp   1
                         Standard orientation:                         
 ---------------------------------------------------------------------
 Center     Atomic      Atomic             Coordinates (Angstroms)
 Number     Number       Type             X           Y           Z
 ---------------------------------------------------------------------
      1          6           0       -2.965143    1.119562   -0.551609
      2          6           0       -1.111920   -0.655497    0.792500
      3          6           0        1.787244   -0.374407    1.331374
      4          6           0       -2.997142   -0.374404   -0.873365
      5          6           0        2.937730    1.021244   -0.411646
      6          8           0        2.227650    0.306632   -1.406883
      7          6           0       -1.577531    1.522731   -0.081332
      8          6           0        1.212336   -1.223805    0.192134
      9          6           0        2.155950    1.046942    0.891668
     10          6           0        2.038029   -1.049407   -1.069843
     11          8           0       -1.150044    0.727576    1.016195
     12          8           0       -0.153923   -1.006232   -0.161063
     13          6           0       -2.467731   -1.167400    0.322252
     14          1           0       -3.687391    1.343511    0.230158
     15          1           0       -3.231274    1.713378   -1.421533
     16          1           0        2.692310   -0.887114    1.648345
     17          1           0       -4.008012   -0.693440   -1.108406
     18          1           0       -2.389744   -0.572320   -1.752564
     19          1           0       -0.860514    1.436892   -0.890200
     20          1           0       -1.561392    2.543134    0.276024
     21          1           0        1.265781    1.648330    0.753854
     22          1           0        2.756278    1.527801    1.659038
     23          1           0        3.005530   -1.523554   -0.924572
     24          1           0        1.546808   -1.519288   -1.910238
     25          1           0       -3.158447   -1.066552    1.155272
     26          1           0       -2.384416   -2.224594    0.094407
     27          1           0       -0.862042   -1.092855    1.747517
     28          1           0        3.911236    0.556165   -0.271470
     29          1           0        3.090029    2.019093   -0.799907
     30          1           0        1.127481   -0.359022    2.188829
     31          1           0        1.287377   -2.266718    0.486647
 ---------------------------------------------------------------------
 Rotational constants (GHZ):           1.4960812           0.5239840           0.4994378
 Standard basis: 6-311++G(2d,2p) (5D, 7F)
 There are   557 symmetry adapted cartesian basis functions of A   symmetry.
 There are   531 symmetry adapted basis functions of A   symmetry.
   531 basis functions,   762 primitive gaussians,   557 cartesian basis functions
    51 alpha electrons       51 beta electrons
       nuclear repulsion energy       918.9679382425 Hartrees.
 NAtoms=   31 NActive=   31 NUniq=   31 SFac= 1.00D+00 NAtFMM=   60 NAOKFM=F Big=F
 Integral buffers will be    131072 words long.
 Raffenetti 2 integral format.
 Two-electron integral symmetry is turned on.
 ------------------------------------------------------------------------------
 Polarizable Continuum Model (PCM)
 =================================
 Model                : PCM.
 Atomic radii         : UFF (Universal Force Field).
 Polarization charges : Total charges.
 Charge compensation  : None.
 Solution method      : On-the-fly selection.
 Cavity type          : Scaled VdW (van der Waals Surface) (Alpha=1.100).
 Cavity algorithm     : GePol (No added spheres)
                        Default sphere list used, NSphG=   31.
                        Lebedev-Laikov grids with approx.  5.0 points / Ang**2.
                        Smoothing algorithm: York/Karplus (Gamma=1.0000).
                        Polarization charges: spherical gaussians, with
                                              point-specific exponents (IZeta= 3).
                        Self-potential: point-specific (ISelfS= 7).
                        Self-field    : sphere-specific E.n sum rule (ISelfD= 2).
 1st derivatives      : Analytical E(r).r(x)/FMM algorithm (CHGder, D1EAlg=3).
                        Cavity 1st derivative terms included.
 Solvent              : Water, Eps=  78.355300 Eps(inf)=   1.777849
 ------------------------------------------------------------------------------
 One-electron integrals computed using PRISM.
 NBasis=   531 RedAO= T EigKep=  3.83D-06  NBF=   531
 NBsUse=   531 1.00D-06 EigRej= -1.00D+00 NBFU=   531
 ExpMin= 3.60D-02 ExpMax= 8.59D+03 ExpMxC= 1.30D+03 IAcc=3 IRadAn=         5 AccDes= 0.00D+00
 Harris functional with IExCor= 1009 and IRadAn=       5 diagonalized for initial guess.
 HarFok:  IExCor= 1009 AccDes= 0.00D+00 IRadAn=         5 IDoV= 1 UseB2=F ITyADJ=14
 ICtDFT=  3500011 ScaDFX=  1.000000  1.000000  1.000000  1.000000
 FoFCou: FMM=F IPFlag=           0 FMFlag=      100000 FMFlg1=           0
         NFxFlg=           0 DoJE=T BraDBF=F KetDBF=T FulRan=T
         wScrn=  0.000000 ICntrl=       500 IOpCl=  0 I1Cent=   200000004 NGrid=           0
         NMat0=    1 NMatS0=      1 NMatT0=    0 NMatD0=    1 NMtDS0=    0 NMtDT0=    0
 Petite list used in FoFCou.
 Requested convergence on RMS density matrix=1.00D-08 within 128 cycles.
 Requested convergence on MAX density matrix=1.00D-06.
 Requested convergence on             energy=1.00D-06.
 No special actions if energy rises.
 Inv3:  Mode=1 IEnd=    12277587.
 Iteration    1 A*A^-1 deviation from unit magnitude is 5.66D-15 for   2018.
 Iteration    1 A*A^-1 deviation from orthogonality  is 4.00D-15 for   2006    928.
 Iteration    1 A^-1*A deviation from unit magnitude is 5.44D-15 for   2018.
 Iteration    1 A^-1*A deviation from orthogonality  is 4.03D-15 for   2018    950.
 Error on total polarization charges =  0.01456
 SCF Done:  E(RM062X) =  -617.497547932     A.U. after   13 cycles
            NFock= 13  Conv=0.22D-08     -V/T= 2.0035

 **********************************************************************

            Population analysis using the SCF density.

 **********************************************************************

 Orbital symmetries:
       Occupied  (A) (A) (A) (A) (A) (A) (A) (A) (A) (A) (A) (A)
                 (A) (A) (A) (A) (A) (A) (A) (A) (A) (A) (A) (A)
                 (A) (A) (A) (A) (A) (A) (A) (A) (A) (A) (A) (A)
                 (A) (A) (A) (A) (A) (A) (A) (A) (A) (A) (A) (A)
                 (A) (A) (A)
       Virtual   (A) (A) (A) (A) (A) (A) (A) (A) (A) (A) (A) (A)
                 (A) (A) (A) (A) (A) (A) (A) (A) (A) (A) (A) (A)
                 (A) (A) (A) (A) (A) (A) (A) (A) (A) (A) (A) (A)
                 (A) (A) (A) (A) (A) (A) (A) (A) (A) (A) (A) (A)
                 (A) (A) (A) (A) (A) (A) (A) (A) (A) (A) (A) (A)
                 (A) (A) (A) (A) (A) (A) (A) (A) (A) (A) (A) (A)
                 (A) (A) (A) (A) (A) (A) (A) (A) (A) (A) (A) (A)
                 (A) (A) (A) (A) (A) (A) (A) (A) (A) (A) (A) (A)
                 (A) (A) (A) (A) (A) (A) (A) (A) (A) (A) (A) (A)
                 (A) (A) (A) (A) (A) (A) (A) (A) (A) (A) (A) (A)
                 (A) (A) (A) (A) (A) (A) (A) (A) (A) (A) (A) (A)
                 (A) (A) (A) (A) (A) (A) (A) (A) (A) (A) (A) (A)
                 (A) (A) (A) (A) (A) (A) (A) (A) (A) (A) (A) (A)
                 (A) (A) (A) (A) (A) (A) (A) (A) (A) (A) (A) (A)
                 (A) (A) (A) (A) (A) (A) (A) (A) (A) (A) (A) (A)
                 (A) (A) (A) (A) (A) (A) (A) (A) (A) (A) (A) (A)
                 (A) (A) (A) (A) (A) (A) (A) (A) (A) (A) (A) (A)
                 (A) (A) (A) (A) (A) (A) (A) (A) (A) (A) (A) (A)
                 (A) (A) (A) (A) (A) (A) (A) (A) (A) (A) (A) (A)
                 (A) (A) (A) (A) (A) (A) (A) (A) (A) (A) (A) (A)
                 (A) (A) (A) (A) (A) (A) (A) (A) (A) (A) (A) (A)
                 (A) (A) (A) (A) (A) (A) (A) (A) (A) (A) (A) (A)
                 (A) (A) (A) (A) (A) (A) (A) (A) (A) (A) (A) (A)
                 (A) (A) (A) (A) (A) (A) (A) (A) (A) (A) (A) (A)
                 (A) (A) (A) (A) (A) (A) (A) (A) (A) (A) (A) (A)
                 (A) (A) (A) (A) (A) (A) (A) (A) (A) (A) (A) (A)
                 (A) (A) (A) (A) (A) (A) (A) (A) (A) (A) (A) (A)
                 (A) (A) (A) (A) (A) (A) (A) (A) (A) (A) (A) (A)
                 (A) (A) (A) (A) (A) (A) (A) (A) (A) (A) (A) (A)
                 (A) (A) (A) (A) (A) (A) (A) (A) (A) (A) (A) (A)
                 (A) (A) (A) (A) (A) (A) (A) (A) (A) (A) (A) (A)
                 (A) (A) (A) (A) (A) (A) (A) (A) (A) (A) (A) (A)
                 (A) (A) (A) (A) (A) (A) (A) (A) (A) (A) (A) (A)
                 (A) (A) (A) (A) (A) (A) (A) (A) (A) (A) (A) (A)
                 (A) (A) (A) (A) (A) (A) (A) (A) (A) (A) (A) (A)
                 (A) (A) (A) (A) (A) (A) (A) (A) (A) (A) (A) (A)
                 (A) (A) (A) (A) (A) (A) (A) (A) (A) (A) (A) (A)
                 (A) (A) (A) (A) (A) (A) (A) (A) (A) (A) (A) (A)
                 (A) (A) (A) (A) (A) (A) (A) (A) (A) (A) (A) (A)
                 (A) (A) (A) (A) (A) (A) (A) (A) (A) (A) (A) (A)
 The electronic state is 1-A.
 Alpha  occ. eigenvalues --  -19.62657 -19.62569 -19.62477 -10.63215 -10.58858
 Alpha  occ. eigenvalues --  -10.57881 -10.57624 -10.57460 -10.53346 -10.52852
 Alpha  occ. eigenvalues --  -10.52773 -10.52655 -10.52573  -1.19729  -1.16561
 Alpha  occ. eigenvalues --   -1.13143  -0.90721  -0.89425  -0.87609  -0.84686
 Alpha  occ. eigenvalues --   -0.75125  -0.73928  -0.72945  -0.71622  -0.66309
 Alpha  occ. eigenvalues --   -0.62011  -0.60088  -0.57920  -0.57806  -0.55403
 Alpha  occ. eigenvalues --   -0.53773  -0.53587  -0.53011  -0.51305  -0.49823
 Alpha  occ. eigenvalues --   -0.47279  -0.46924  -0.46389  -0.45640  -0.45137
 Alpha  occ. eigenvalues --   -0.43433  -0.42850  -0.40849  -0.39939  -0.39510
 Alpha  occ. eigenvalues --   -0.38291  -0.37624  -0.35914  -0.33650  -0.33129
 Alpha  occ. eigenvalues --   -0.32120
 Alpha virt. eigenvalues --   -0.00180   0.00809   0.00937   0.01023   0.02300
 Alpha virt. eigenvalues --    0.02589   0.02750   0.03234   0.03287   0.04742
 Alpha virt. eigenvalues --    0.04915   0.05028   0.05461   0.05796   0.07129
 Alpha virt. eigenvalues --    0.07523   0.08077   0.08282   0.08735   0.09589
 Alpha virt. eigenvalues --    0.10122   0.10463   0.11348   0.11433   0.12017
 Alpha virt. eigenvalues --    0.12462   0.12895   0.13072   0.13377   0.13403
 Alpha virt. eigenvalues --    0.13929   0.14008   0.14239   0.14403   0.15002
 Alpha virt. eigenvalues --    0.15175   0.15252   0.15639   0.15801   0.16368
 Alpha virt. eigenvalues --    0.16593   0.17357   0.17470   0.17732   0.17908
 Alpha virt. eigenvalues --    0.18492   0.18507   0.19208   0.19327   0.19689
 Alpha virt. eigenvalues --    0.20067   0.20309   0.20449   0.21295   0.21688
 Alpha virt. eigenvalues --    0.22063   0.22555   0.23298   0.23538   0.24344
 Alpha virt. eigenvalues --    0.24959   0.26124   0.26364   0.26659   0.27122
 Alpha virt. eigenvalues --    0.27784   0.28029   0.28554   0.29172   0.29355
 Alpha virt. eigenvalues --    0.29910   0.30274   0.30948   0.31527   0.31917
 Alpha virt. eigenvalues --    0.32866   0.33708   0.33874   0.34184   0.34625
 Alpha virt. eigenvalues --    0.35055   0.35351   0.35481   0.35866   0.36573
 Alpha virt. eigenvalues --    0.36706   0.37603   0.37714   0.38094   0.38362
 Alpha virt. eigenvalues --    0.38520   0.39118   0.39933   0.40462   0.40747
 Alpha virt. eigenvalues --    0.41679   0.41955   0.43647   0.43935   0.45547
 Alpha virt. eigenvalues --    0.46941   0.47978   0.49476   0.50583   0.51431
 Alpha virt. eigenvalues --    0.52347   0.52796   0.53593   0.54792   0.56466
 Alpha virt. eigenvalues --    0.57166   0.58396   0.59074   0.59661   0.60009
 Alpha virt. eigenvalues --    0.60174   0.61107   0.61242   0.61677   0.62094
 Alpha virt. eigenvalues --    0.62588   0.63217   0.63837   0.64351   0.64718
 Alpha virt. eigenvalues --    0.65211   0.65668   0.66416   0.67252   0.67511
 Alpha virt. eigenvalues --    0.68049   0.69012   0.69525   0.70251   0.70603
 Alpha virt. eigenvalues --    0.70752   0.71723   0.72310   0.72944   0.73054
 Alpha virt. eigenvalues --    0.73812   0.74364   0.75128   0.75600   0.76098
 Alpha virt. eigenvalues --    0.76970   0.78095   0.78172   0.78487   0.79598
 Alpha virt. eigenvalues --    0.80699   0.82321   0.83509   0.84509   0.85284
 Alpha virt. eigenvalues --    0.86538   0.87701   0.89075   0.89265   0.89816
 Alpha virt. eigenvalues --    0.91007   0.92181   0.95181   0.95807   0.98050
 Alpha virt. eigenvalues --    0.98299   0.99381   1.00157   1.01422   1.02581
 Alpha virt. eigenvalues --    1.03059   1.04070   1.04593   1.05183   1.06527
 Alpha virt. eigenvalues --    1.08124   1.08714   1.10484   1.10647   1.11305
 Alpha virt. eigenvalues --    1.13308   1.14905   1.15368   1.16482   1.16657
 Alpha virt. eigenvalues --    1.17762   1.18131   1.18779   1.20347   1.20882
 Alpha virt. eigenvalues --    1.21613   1.21755   1.23358   1.23984   1.24648
 Alpha virt. eigenvalues --    1.25287   1.25552   1.26136   1.27875   1.28935
 Alpha virt. eigenvalues --    1.29046   1.30000   1.31389   1.32129   1.32573
 Alpha virt. eigenvalues --    1.32811   1.33233   1.33974   1.35326   1.35886
 Alpha virt. eigenvalues --    1.36710   1.37075   1.37253   1.37945   1.39274
 Alpha virt. eigenvalues --    1.39560   1.40614   1.40810   1.41459   1.41988
 Alpha virt. eigenvalues --    1.42828   1.43091   1.44221   1.44902   1.45637
 Alpha virt. eigenvalues --    1.46623   1.46759   1.47661   1.48490   1.48600
 Alpha virt. eigenvalues --    1.49251   1.50105   1.51190   1.51573   1.52769
 Alpha virt. eigenvalues --    1.53176   1.53763   1.54843   1.55435   1.55681
 Alpha virt. eigenvalues --    1.56094   1.56573   1.57950   1.59024   1.59678
 Alpha virt. eigenvalues --    1.60161   1.60704   1.61022   1.62072   1.63512
 Alpha virt. eigenvalues --    1.64401   1.65329   1.66108   1.67378   1.67650
 Alpha virt. eigenvalues --    1.68427   1.69013   1.70073   1.70795   1.73355
 Alpha virt. eigenvalues --    1.73825   1.75377   1.76448   1.77096   1.77803
 Alpha virt. eigenvalues --    1.78765   1.80532   1.81816   1.82530   1.84684
 Alpha virt. eigenvalues --    1.87787   1.89044   1.93498   1.97486   1.99946
 Alpha virt. eigenvalues --    2.04703   2.08122   2.14624   2.20124   2.22169
 Alpha virt. eigenvalues --    2.24326   2.25547   2.33465   2.36098   2.39300
 Alpha virt. eigenvalues --    2.42732   2.43663   2.45157   2.47546   2.52994
 Alpha virt. eigenvalues --    2.60469   2.77128   2.78100   2.79071   2.81984
 Alpha virt. eigenvalues --    2.84680   2.86786   2.92651   2.93829   2.94815
 Alpha virt. eigenvalues --    2.96829   2.96989   2.98837   3.02241   3.04163
 Alpha virt. eigenvalues --    3.06794   3.08196   3.09524   3.10367   3.11999
 Alpha virt. eigenvalues --    3.13366   3.16054   3.17845   3.19456   3.21935
 Alpha virt. eigenvalues --    3.25713   3.27845   3.32374   3.33311   3.34633
 Alpha virt. eigenvalues --    3.36450   3.37290   3.38609   3.40504   3.42090
 Alpha virt. eigenvalues --    3.42479   3.44466   3.45375   3.46603   3.46744
 Alpha virt. eigenvalues --    3.48895   3.49327   3.49963   3.52214   3.52882
 Alpha virt. eigenvalues --    3.53989   3.54426   3.54783   3.55522   3.55879
 Alpha virt. eigenvalues --    3.56462   3.57749   3.58179   3.59584   3.60267
 Alpha virt. eigenvalues --    3.60607   3.62572   3.63498   3.64698   3.66158
 Alpha virt. eigenvalues --    3.67577   3.68406   3.68609   3.69825   3.70637
 Alpha virt. eigenvalues --    3.71150   3.72091   3.72586   3.73496   3.74053
 Alpha virt. eigenvalues --    3.75214   3.75774   3.76569   3.77515   3.78214
 Alpha virt. eigenvalues --    3.79170   3.80454   3.81967   3.83004   3.83587
 Alpha virt. eigenvalues --    3.85012   3.88127   3.89727   3.90761   3.92435
 Alpha virt. eigenvalues --    3.93176   3.93311   3.94529   3.97076   3.99342
 Alpha virt. eigenvalues --    4.00213   4.01245   4.02307   4.02861   4.03840
 Alpha virt. eigenvalues --    4.06035   4.06338   4.07222   4.07788   4.08207
 Alpha virt. eigenvalues --    4.08552   4.09388   4.09783   4.11008   4.11982
 Alpha virt. eigenvalues --    4.12797   4.13996   4.14253   4.15163   4.16738
 Alpha virt. eigenvalues --    4.17202   4.18186   4.19677   4.20285   4.20875
 Alpha virt. eigenvalues --    4.22216   4.23217   4.24733   4.25695   4.27761
 Alpha virt. eigenvalues --    4.27984   4.29280   4.31250   4.31584   4.32666
 Alpha virt. eigenvalues --    4.33034   4.34158   4.35406   4.37119   4.40611
 Alpha virt. eigenvalues --    4.41855   4.44171   4.45654   4.47293   4.48608
 Alpha virt. eigenvalues --    4.58390   4.61264   4.73448   4.75496   4.81377
 Alpha virt. eigenvalues --    4.85277   4.94235   4.95710   5.00131   5.03323
 Alpha virt. eigenvalues --    5.06488   5.07692   5.08460   5.09677   5.11569
 Alpha virt. eigenvalues --    5.12708   5.14388   5.15781   5.33155   5.42205
 Alpha virt. eigenvalues --    5.42824   5.58314   5.59932   5.67564   5.86762
 Alpha virt. eigenvalues --    5.87926   6.05024   7.02539   7.06056   7.07409
 Alpha virt. eigenvalues --    7.09259   7.10449   7.12923   7.15419   7.20481
 Alpha virt. eigenvalues --    7.29470   7.36254   7.41587   7.47677   7.53480
 Alpha virt. eigenvalues --    7.54258   7.63128  23.96076  23.97228  24.06310
 Alpha virt. eigenvalues --   24.09087  24.11359  24.11806  24.14433  24.15753
 Alpha virt. eigenvalues --   24.16761  24.21039  50.16579  50.17946  50.28935
          Condensed to atoms (all electrons):
               1          2          3          4          5          6
     1  C    6.060495   0.146252  -0.025661  -0.066450   0.035359  -0.002046
     2  C    0.146252   6.914401   0.080120  -0.089387   0.051825  -0.001635
     3  C   -0.025661   0.080120   7.781830   0.100329  -0.039263   0.046096
     4  C   -0.066450  -0.089387   0.100329   5.744998  -0.011519   0.000259
     5  C    0.035359   0.051825  -0.039263  -0.011519   5.784749   0.105958
     6  O   -0.002046  -0.001635   0.046096   0.000259   0.105958   8.265428
     7  C   -0.259362  -0.358752   0.135346   0.045422  -0.047027  -0.007319
     8  C    0.043279  -0.619507  -2.295854  -0.063065   0.318690  -0.085878
     9  C   -0.024393   0.040483  -0.748927  -0.016656  -0.208128   0.022308
    10  C   -0.008611   0.084415   0.948909  -0.004718  -0.360094   0.197005
    11  O   -0.110053   0.298521   0.011386   0.012776  -0.010657  -0.001353
    12  O   -0.016944   0.196488   0.086648  -0.012167  -0.038395   0.018747
    13  C   -0.053247  -1.000726  -0.345516  -0.217680   0.019195  -0.003782
    14  H    0.468879   0.015258  -0.001408  -0.010736   0.000345   0.000109
    15  H    0.445837   0.005033   0.003486  -0.048430   0.000091  -0.000176
    16  H   -0.001230  -0.014512   0.523389   0.002731  -0.026967   0.003785
    17  H   -0.013906   0.018135   0.000346   0.416181   0.000405  -0.000087
    18  H   -0.064915  -0.019050  -0.001666   0.522078   0.000642   0.000664
    19  H   -0.097537   0.002187  -0.020684   0.006841  -0.003940   0.003384
    20  H    0.004068  -0.006235  -0.003128   0.005121   0.002526   0.000585
    21  H   -0.027523  -0.029730  -0.023832   0.000550  -0.135044  -0.013870
    22  H   -0.000857   0.009141  -0.088104  -0.000049  -0.028030   0.009644
    23  H    0.000719  -0.004450  -0.095204  -0.001976  -0.005700  -0.067737
    24  H   -0.001735   0.002207   0.016349   0.005090   0.004309  -0.072532
    25  H   -0.007240  -0.153562  -0.005071  -0.013388  -0.000208  -0.000030
    26  H   -0.012721  -0.012531   0.003550  -0.034854  -0.000779   0.000235
    27  H    0.008902   0.518639   0.016074  -0.004958   0.017309  -0.000173
    28  H   -0.000298   0.001200  -0.105168  -0.000233   0.438180  -0.067582
    29  H    0.001307   0.000761   0.016414   0.000123   0.453694  -0.067264
    30  H    0.007088  -0.001625   0.359885  -0.003076  -0.003820  -0.003302
    31  H    0.002810  -0.002838  -0.058993  -0.002604  -0.012631   0.006270
               7          8          9         10         11         12
     1  C   -0.259362   0.043279  -0.024393  -0.008611  -0.110053  -0.016944
     2  C   -0.358752  -0.619507   0.040483   0.084415   0.298521   0.196488
     3  C    0.135346  -2.295854  -0.748927   0.948909   0.011386   0.086648
     4  C    0.045422  -0.063065  -0.016656  -0.004718   0.012776  -0.012167
     5  C   -0.047027   0.318690  -0.208128  -0.360094  -0.010657  -0.038395
     6  O   -0.007319  -0.085878   0.022308   0.197005  -0.001353   0.018747
     7  C    5.633811  -0.085729  -0.016674   0.063058   0.134133   0.017880
     8  C   -0.085729   9.137527   0.368460  -1.577844  -0.029420  -0.081811
     9  C   -0.016674   0.368460   6.010290  -0.102663   0.019980   0.025300
    10  C    0.063058  -1.577844  -0.102663   6.529884  -0.008844  -0.068530
    11  O    0.134133  -0.029420   0.019980  -0.008844   8.214894  -0.023953
    12  O    0.017880  -0.081811   0.025300  -0.068530  -0.023953   8.310826
    13  C    0.069083   0.454557   0.071255  -0.136344  -0.107031  -0.060713
    14  H   -0.080427  -0.003640   0.002255  -0.001195  -0.000099  -0.000040
    15  H   -0.039918  -0.001312  -0.003025   0.002982   0.011172  -0.000063
    16  H    0.006167  -0.107427  -0.045833   0.017699   0.001830   0.005425
    17  H    0.004232   0.005567  -0.001049  -0.003262  -0.006493   0.000149
    18  H    0.001950   0.003116   0.001134  -0.001392   0.001751  -0.002587
    19  H    0.470139  -0.001049   0.025154  -0.020431  -0.020882   0.001448
    20  H    0.419728   0.002094  -0.002935   0.003815  -0.070017  -0.000098
    21  H    0.034524  -0.036679   0.526305   0.044107  -0.007974   0.003177
    22  H   -0.001484   0.025523   0.466409  -0.014024   0.004876   0.000739
    23  H   -0.003021   0.049316   0.046509   0.414277  -0.000400   0.006201
    24  H   -0.000201  -0.045269   0.006299   0.423537   0.001902   0.002732
    25  H    0.009310   0.008774   0.002556  -0.001271  -0.009554   0.011024
    26  H    0.014864  -0.014346  -0.000822   0.008603   0.011687  -0.007115
    27  H   -0.029448  -0.003154  -0.026724  -0.011423  -0.051896  -0.025654
    28  H   -0.000695   0.099678   0.021195  -0.041128  -0.000932  -0.001532
    29  H   -0.003090   0.012830  -0.064575  -0.008759   0.001081   0.000748
    30  H   -0.000595   0.051629  -0.021192   0.000417  -0.013652  -0.015228
    31  H   -0.003416   0.472277   0.015155  -0.045709  -0.001550  -0.046709
              13         14         15         16         17         18
     1  C   -0.053247   0.468879   0.445837  -0.001230  -0.013906  -0.064915
     2  C   -1.000726   0.015258   0.005033  -0.014512   0.018135  -0.019050
     3  C   -0.345516  -0.001408   0.003486   0.523389   0.000346  -0.001666
     4  C   -0.217680  -0.010736  -0.048430   0.002731   0.416181   0.522078
     5  C    0.019195   0.000345   0.000091  -0.026967   0.000405   0.000642
     6  O   -0.003782   0.000109  -0.000176   0.003785  -0.000087   0.000664
     7  C    0.069083  -0.080427  -0.039918   0.006167   0.004232   0.001950
     8  C    0.454557  -0.003640  -0.001312  -0.107427   0.005567   0.003116
     9  C    0.071255   0.002255  -0.003025  -0.045833  -0.001049   0.001134
    10  C   -0.136344  -0.001195   0.002982   0.017699  -0.003262  -0.001392
    11  O   -0.107031  -0.000099   0.011172   0.001830  -0.006493   0.001751
    12  O   -0.060713  -0.000040  -0.000063   0.005425   0.000149  -0.002587
    13  C    7.054276  -0.020780  -0.005360  -0.003034  -0.049215  -0.052211
    14  H   -0.020780   0.486312  -0.012897  -0.000111  -0.001303   0.001558
    15  H   -0.005360  -0.012897   0.488355   0.000084  -0.008097  -0.003653
    16  H   -0.003034  -0.000111   0.000084   0.420963   0.000092  -0.000167
    17  H   -0.049215  -0.001303  -0.008097   0.000092   0.466303  -0.005343
    18  H   -0.052211   0.001558  -0.003653  -0.000167  -0.005343   0.459773
    19  H    0.022489   0.005510  -0.002147  -0.001052  -0.002313  -0.002301
    20  H   -0.003700  -0.008768  -0.008201   0.000193   0.001303  -0.002340
    21  H   -0.011618  -0.000175   0.000947   0.005904  -0.000063  -0.000694
    22  H    0.002541   0.000238  -0.000240  -0.010748  -0.000032   0.000175
    23  H    0.006795   0.000040  -0.000089  -0.007378  -0.000013   0.000157
    24  H   -0.009623  -0.000095   0.000058   0.000440   0.000195  -0.001286
    25  H    0.532910  -0.003318  -0.001895  -0.000031  -0.000485   0.000741
    26  H    0.410600  -0.002019   0.001548   0.000181  -0.010368  -0.001761
    27  H   -0.071077   0.001095   0.001077  -0.001940   0.001989  -0.002754
    28  H   -0.001644  -0.000013   0.000087  -0.008000  -0.000034   0.000044
    29  H    0.001966   0.000055  -0.000259  -0.001450   0.000044   0.000094
    30  H   -0.006914  -0.000694   0.000343   0.002950  -0.000043  -0.000127
    31  H    0.012376   0.000093  -0.000163  -0.014066  -0.000154   0.000703
              19         20         21         22         23         24
     1  C   -0.097537   0.004068  -0.027523  -0.000857   0.000719  -0.001735
     2  C    0.002187  -0.006235  -0.029730   0.009141  -0.004450   0.002207
     3  C   -0.020684  -0.003128  -0.023832  -0.088104  -0.095204   0.016349
     4  C    0.006841   0.005121   0.000550  -0.000049  -0.001976   0.005090
     5  C   -0.003940   0.002526  -0.135044  -0.028030  -0.005700   0.004309
     6  O    0.003384   0.000585  -0.013870   0.009644  -0.067737  -0.072532
     7  C    0.470139   0.419728   0.034524  -0.001484  -0.003021  -0.000201
     8  C   -0.001049   0.002094  -0.036679   0.025523   0.049316  -0.045269
     9  C    0.025154  -0.002935   0.526305   0.466409   0.046509   0.006299
    10  C   -0.020431   0.003815   0.044107  -0.014024   0.414277   0.423537
    11  O   -0.020882  -0.070017  -0.007974   0.004876  -0.000400   0.001902
    12  O    0.001448  -0.000098   0.003177   0.000739   0.006201   0.002732
    13  C    0.022489  -0.003700  -0.011618   0.002541   0.006795  -0.009623
    14  H    0.005510  -0.008768  -0.000175   0.000238   0.000040  -0.000095
    15  H   -0.002147  -0.008201   0.000947  -0.000240  -0.000089   0.000058
    16  H   -0.001052   0.000193   0.005904  -0.010748  -0.007378   0.000440
    17  H   -0.002313   0.001303  -0.000063  -0.000032  -0.000013   0.000195
    18  H   -0.002301  -0.002340  -0.000694   0.000175   0.000157  -0.001286
    19  H    0.504210  -0.019060  -0.014020   0.002343   0.001672   0.000104
    20  H   -0.019060   0.479892  -0.000103  -0.000778  -0.000023  -0.000062
    21  H   -0.014020  -0.000103   0.533285  -0.028490  -0.002852  -0.000358
    22  H    0.002343  -0.000778  -0.028490   0.476886   0.002453   0.001067
    23  H    0.001672  -0.000023  -0.002852   0.002453   0.473043  -0.002369
    24  H    0.000104  -0.000062  -0.000358   0.001067  -0.002369   0.477239
    25  H   -0.001024   0.000710   0.000200   0.000008   0.000117   0.000095
    26  H   -0.000719   0.001199   0.000321  -0.000051  -0.000178  -0.000107
    27  H    0.001953  -0.001688  -0.002297  -0.001278  -0.000553   0.001090
    28  H   -0.000393   0.000088   0.004267   0.007219   0.003702  -0.001772
    29  H    0.001081  -0.000727  -0.010359  -0.007242   0.000467   0.001396
    30  H   -0.001614   0.001021  -0.001916  -0.008109   0.000001   0.000056
    31  H   -0.000351  -0.000176   0.000521   0.001227   0.001439  -0.015224
              25         26         27         28         29         30
     1  C   -0.007240  -0.012721   0.008902  -0.000298   0.001307   0.007088
     2  C   -0.153562  -0.012531   0.518639   0.001200   0.000761  -0.001625
     3  C   -0.005071   0.003550   0.016074  -0.105168   0.016414   0.359885
     4  C   -0.013388  -0.034854  -0.004958  -0.000233   0.000123  -0.003076
     5  C   -0.000208  -0.000779   0.017309   0.438180   0.453694  -0.003820
     6  O   -0.000030   0.000235  -0.000173  -0.067582  -0.067264  -0.003302
     7  C    0.009310   0.014864  -0.029448  -0.000695  -0.003090  -0.000595
     8  C    0.008774  -0.014346  -0.003154   0.099678   0.012830   0.051629
     9  C    0.002556  -0.000822  -0.026724   0.021195  -0.064575  -0.021192
    10  C   -0.001271   0.008603  -0.011423  -0.041128  -0.008759   0.000417
    11  O   -0.009554   0.011687  -0.051896  -0.000932   0.001081  -0.013652
    12  O    0.011024  -0.007115  -0.025654  -0.001532   0.000748  -0.015228
    13  C    0.532910   0.410600  -0.071077  -0.001644   0.001966  -0.006914
    14  H   -0.003318  -0.002019   0.001095  -0.000013   0.000055  -0.000694
    15  H   -0.001895   0.001548   0.001077   0.000087  -0.000259   0.000343
    16  H   -0.000031   0.000181  -0.001940  -0.008000  -0.001450   0.002950
    17  H   -0.000485  -0.010368   0.001989  -0.000034   0.000044  -0.000043
    18  H    0.000741  -0.001761  -0.002754   0.000044   0.000094  -0.000127
    19  H   -0.001024  -0.000719   0.001953  -0.000393   0.001081  -0.001614
    20  H    0.000710   0.001199  -0.001688   0.000088  -0.000727   0.001021
    21  H    0.000200   0.000321  -0.002297   0.004267  -0.010359  -0.001916
    22  H    0.000008  -0.000051  -0.001278   0.007219  -0.007242  -0.008109
    23  H    0.000117  -0.000178  -0.000553   0.003702   0.000467   0.000001
    24  H    0.000095  -0.000107   0.001090  -0.001772   0.001396   0.000056
    25  H    0.447817  -0.003359  -0.013357  -0.000022   0.000012   0.001167
    26  H   -0.003359   0.477505  -0.010787   0.000044  -0.000065  -0.000229
    27  H   -0.013357  -0.010787   0.462774  -0.000660   0.000231  -0.009858
    28  H   -0.000022   0.000044  -0.000660   0.496799  -0.005498  -0.000454
    29  H    0.000012  -0.000065   0.000231  -0.005498   0.480823   0.000200
    30  H    0.001167  -0.000229  -0.009858  -0.000454   0.000200   0.483685
    31  H    0.000252  -0.001888  -0.003600   0.004700   0.000595  -0.005978
              31
     1  C    0.002810
     2  C   -0.002838
     3  C   -0.058993
     4  C   -0.002604
     5  C   -0.012631
     6  O    0.006270
     7  C   -0.003416
     8  C    0.472277
     9  C    0.015155
    10  C   -0.045709
    11  O   -0.001550
    12  O   -0.046709
    13  C    0.012376
    14  H    0.000093
    15  H   -0.000163
    16  H   -0.014066
    17  H   -0.000154
    18  H    0.000703
    19  H   -0.000351
    20  H   -0.000176
    21  H    0.000521
    22  H    0.001227
    23  H    0.001439
    24  H   -0.015224
    25  H    0.000252
    26  H   -0.001888
    27  H   -0.003600
    28  H    0.004700
    29  H    0.000595
    30  H   -0.005978
    31  H    0.456498
 Mulliken charges:
               1
     1  C   -0.430266
     2  C   -0.070525
     3  C   -0.271678
     4  C   -0.260551
     5  C   -0.301077
     6  O   -0.285709
     7  C   -0.122489
     8  C   -0.001330
     9  C   -0.387450
    10  C   -0.322465
    11  O   -0.251228
    12  O   -0.285994
    13  C   -0.497829
    14  H    0.165971
    15  H    0.174826
    16  H    0.252114
    17  H    0.187321
    18  H    0.167669
    19  H    0.161001
    20  H    0.205698
    21  H    0.193488
    22  H    0.179029
    23  H    0.185036
    24  H    0.206467
    25  H    0.198119
    26  H    0.184363
    27  H    0.242145
    28  H    0.158855
    29  H    0.195368
    30  H    0.189986
    31  H    0.241133
 Sum of Mulliken charges =  -0.00000
 Mulliken charges with hydrogens summed into heavy atoms:
               1
     1  C   -0.089468
     2  C    0.171620
     3  C    0.170422
     4  C    0.094439
     5  C    0.053147
     6  O   -0.285709
     7  C    0.244210
     8  C    0.239803
     9  C   -0.014932
    10  C    0.069038
    11  O   -0.251228
    12  O   -0.285994
    13  C   -0.115347
 Electronic spatial extent (au):  <R**2>=           2575.4475
 Charge=             -0.0000 electrons
 Dipole moment (field-independent basis, Debye):
    X=              0.3807    Y=             -1.0647    Z=              1.5767  Tot=              1.9402
 Quadrupole moment (field-independent basis, Debye-Ang):
   XX=            -71.2308   YY=            -75.7827   ZZ=            -84.1818
   XY=             -1.4958   XZ=              5.3316   YZ=             -1.8011
 Traceless Quadrupole moment (field-independent basis, Debye-Ang):
   XX=              5.8343   YY=              1.2824   ZZ=             -7.1167
   XY=             -1.4958   XZ=              5.3316   YZ=             -1.8011
 Octapole moment (field-independent basis, Debye-Ang**2):
  XXX=              8.1864  YYY=              4.1123  ZZZ=              4.0945  XYY=              5.4218
  XXY=             -1.3571  XXZ=              6.6068  XZZ=             -3.9524  YZZ=             -7.3181
  YYZ=             -1.9677  XYZ=              6.6453
 Hexadecapole moment (field-independent basis, Debye-Ang**3):
 XXXX=          -2250.1990 YYYY=           -613.3187 ZZZZ=           -495.3738 XXXY=              5.0622
 XXXZ=              8.8810 YYYX=             -4.2382 YYYZ=             -1.4848 ZZZX=              7.3305
 ZZZY=              1.4842 XXYY=           -470.6717 XXZZ=           -488.0957 YYZZ=           -184.3572
 XXYZ=              1.8502 YYXZ=             -8.0932 ZZXY=             -3.7538
 N-N= 9.189679382425D+02 E-N=-3.280138289325D+03  KE= 6.153210995034D+02
 D1PCM: PCM CHGder 1st derivatives, ID1Alg=3 FixD1E=F DoIter=F DoCFld=F I1PDM=0.
 Calling FoFJK, ICntrl=      2127 FMM=F ISym2X=0 I1Cent= 0 IOpClX= 0 NMat=1 NMatS=1 NMatT=0.
 ***** Axes restored to original set *****
 -------------------------------------------------------------------
 Center     Atomic                   Forces (Hartrees/Bohr)
 Number     Number              X              Y              Z
 -------------------------------------------------------------------
      1        6          -0.002005428    0.001415023   -0.001119489
      2        6           0.001817167    0.002597518   -0.005639976
      3        6          -0.001251943   -0.005258314   -0.008490546
      4        6          -0.001675154   -0.001561994    0.003196999
      5        6           0.005095028    0.003524185    0.002870196
      6        8           0.003092361   -0.003066919   -0.007232015
      7        6           0.003986148    0.005310511   -0.000281346
      8        6           0.003684755    0.002727789    0.007254874
      9        6          -0.001494166    0.002573758   -0.000244269
     10        6           0.000622491   -0.005084532    0.005008410
     11        8          -0.004043537   -0.004913852    0.010676602
     12        8           0.000356094   -0.007419489   -0.013531715
     13        6          -0.000813687   -0.000837354   -0.002277127
     14        1           0.001746153   -0.000360135    0.002816579
     15        1           0.000950020   -0.001348153   -0.002325447
     16        1          -0.003301856    0.001695748    0.001151240
     17        1           0.002432962    0.000733873   -0.000451526
     18        1          -0.002919686    0.000546242   -0.002095449
     19        1          -0.004008602    0.001289162   -0.005183985
     20        1          -0.000010966   -0.004267970    0.001650205
     21        1           0.005090668   -0.001071091   -0.001020992
     22        1          -0.001441226   -0.001211654    0.002310619
     23        1          -0.005283405    0.003374218    0.001696725
     24        1           0.003176513    0.002033420   -0.003220655
     25        1           0.001991770   -0.000948697    0.002604640
     26        1          -0.000508824    0.002939474   -0.000937445
     27        1          -0.001519596    0.002383461    0.007568150
     28        1          -0.005416327    0.002640816    0.001861195
     29        1          -0.000543878   -0.004075977   -0.001477719
     30        1           0.003579887   -0.000165324    0.002703252
     31        1          -0.001383737    0.005806255    0.002160017
 -------------------------------------------------------------------
 Cartesian Forces:  Max     0.013531715 RMS     0.003725401

 GradGradGradGradGradGradGradGradGradGradGradGradGradGradGradGradGradGrad
 Berny optimization.
 FormGI is forming the generalized inverse of G from B-inverse, IUseBI=4.
 Internal  Forces:  Max     0.018855495 RMS     0.002459372
 Search for a local minimum.
 Step number   1 out of a maximum of  186
 All quantities printed in internal units (Hartrees-Bohrs-Radians)
 Mixed Optimization -- RFO/linear search
 Second derivative matrix not updated -- first step.
 ITU=  0
     Eigenvalues ---    0.00529   0.00622   0.00719   0.00728   0.01418
     Eigenvalues ---    0.01468   0.01739   0.02704   0.02797   0.02963
     Eigenvalues ---    0.03088   0.04086   0.04131   0.04387   0.04751
     Eigenvalues ---    0.04893   0.04907   0.04922   0.05105   0.05143
     Eigenvalues ---    0.05310   0.05551   0.05695   0.06169   0.06181
     Eigenvalues ---    0.06361   0.06761   0.07052   0.07598   0.07842
     Eigenvalues ---    0.07947   0.08034   0.08099   0.08241   0.08462
     Eigenvalues ---    0.08817   0.09155   0.09631   0.10736   0.11597
     Eigenvalues ---    0.11694   0.11745   0.11760   0.12397   0.12644
     Eigenvalues ---    0.14665   0.14896   0.16322   0.16481   0.17710
     Eigenvalues ---    0.19106   0.21478   0.21971   0.25000   0.28364
     Eigenvalues ---    0.28561   0.28591   0.28832   0.28938   0.28997
     Eigenvalues ---    0.30229   0.30458   0.35049   0.35087   0.35112
     Eigenvalues ---    0.35140   0.35183   0.35187   0.35221   0.35235
     Eigenvalues ---    0.35244   0.35307   0.35436   0.35477   0.35625
     Eigenvalues ---    0.35752   0.35814   0.35839   0.35886   0.36029
     Eigenvalues ---    0.40907   0.41300   0.41386   0.42396   0.43798
     Eigenvalues ---    0.462151000.000001000.000001000.000001000.00000
     Eigenvalues --- 1000.000001000.000001000.000001000.000001000.00000
     Eigenvalues --- 1000.000001000.000001000.000001000.000001000.00000
     Eigenvalues --- 1000.000001000.000001000.000001000.000001000.00000
     Eigenvalues --- 1000.000001000.000001000.000001000.000001000.00000
     Eigenvalues --- 1000.000001000.000001000.000001000.000001000.00000
     Eigenvalues --- 1000.000001000.000001000.000001000.000001000.00000
     Eigenvalues --- 1000.000001000.000001000.000001000.000001000.00000
     Eigenvalues --- 1000.000001000.000001000.000001000.000001000.00000
     Eigenvalues --- 1000.000001000.000001000.000001000.000001000.00000
     Eigenvalues --- 1000.000001000.000001000.000001000.000001000.00000
     Eigenvalues --- 1000.000001000.000001000.000001000.000001000.00000
     Eigenvalues --- 1000.000001000.000001000.000001000.000001000.00000
     Eigenvalues --- 1000.000001000.000001000.000001000.000001000.00000
     Eigenvalues --- 1000.000001000.000001000.000001000.000001000.00000
     Eigenvalues --- 1000.000001000.000001000.000001000.000001000.00000
     Eigenvalues --- 1000.000001000.000001000.000001000.000001000.00000
     Eigenvalues --- 1000.000001000.000001000.000001000.000001000.00000
     Eigenvalues --- 1000.000001000.000001000.000001000.000001000.00000
     Eigenvalues --- 1000.000001000.000001000.000001000.000001000.00000
 RFO step:  Lambda=-6.33236727D-03 EMin= 5.29244092D-03
 Linear search not attempted -- first point.
 Iteration  1 RMS(Cart)=  0.15966617 RMS(Int)=  0.00457702
 Iteration  2 RMS(Cart)=  0.01224567 RMS(Int)=  0.00011695
 Iteration  3 RMS(Cart)=  0.00003942 RMS(Int)=  0.00011553
 Iteration  4 RMS(Cart)=  0.00000000 RMS(Int)=  0.00011553
 Iteration  1 RMS(Cart)=  0.00013240 RMS(Int)=  0.00002831
 Iteration  2 RMS(Cart)=  0.00007301 RMS(Int)=  0.00003162
 Iteration  3 RMS(Cart)=  0.00004026 RMS(Int)=  0.00003575
 Iteration  4 RMS(Cart)=  0.00002220 RMS(Int)=  0.00003852
 Iteration  5 RMS(Cart)=  0.00001224 RMS(Int)=  0.00004016
 Iteration  6 RMS(Cart)=  0.00000675 RMS(Int)=  0.00004109
 Iteration  7 RMS(Cart)=  0.00000372 RMS(Int)=  0.00004162
 Iteration  8 RMS(Cart)=  0.00000205 RMS(Int)=  0.00004191
 Iteration  9 RMS(Cart)=  0.00000113 RMS(Int)=  0.00004207
 Iteration 10 RMS(Cart)=  0.00000062 RMS(Int)=  0.00004216
 Variable       Old X    -DE/DX   Delta X   Delta X   Delta X     New X
                                 (Linear)    (Quad)   (Total)
    R1        2.88855  -0.00044   0.00000  -0.00082  -0.00084   2.88771
    R2        2.87162   0.00048   0.00000   0.00177   0.00178   2.87340
    R3        2.05534   0.00326   0.00000   0.00912   0.00912   2.06446
    R4        2.05295   0.00283   0.00000   0.00790   0.00790   2.06085
    R5        2.64857   0.00417   0.00000   0.00865   0.00867   2.65724
    R6        2.63890   0.00171   0.00000   0.00365   0.00365   2.64254
    R7        2.87921  -0.00075   0.00000  -0.00272  -0.00273   2.87649
    R8        2.04036   0.00801   0.00000   0.02185   0.02185   2.06221
    R9        2.89681  -0.00209   0.00000  -0.00889  -0.00878   2.88803
   R10        2.89660  -0.00180   0.00000  -0.00755  -0.00761   2.88899
   R11        2.05493   0.00388   0.00000   0.01086   0.01086   2.06579
   R12        2.04471   0.00433   0.00000   0.01189   0.01189   2.05660
   R13        2.88987  -0.00128   0.00000  -0.00413  -0.00413   2.88574
   R14        2.05180   0.00258   0.00000   0.00718   0.00718   2.05897
   R15        2.05372   0.00343   0.00000   0.00956   0.00956   2.06328
   R16        2.67607   0.00250   0.00000   0.00705   0.00695   2.68302
   R17        2.87243   0.00037   0.00000   0.00105   0.00092   2.87335
   R18        2.05595   0.00621   0.00000   0.01742   0.01742   2.07337
   R19        2.04374   0.00437   0.00000   0.01199   0.01199   2.05573
   R20        2.66471   0.00235   0.00000   0.00623   0.00629   2.67100
   R21        2.68553   0.00268   0.00000   0.00614   0.00615   2.69168
   R22        2.04907   0.00662   0.00000   0.01833   0.01833   2.06740
   R23        2.04334   0.00457   0.00000   0.01254   0.01254   2.05588
   R24        2.86888  -0.00016   0.00000  -0.00011   0.00002   2.86890
   R25        2.69824  -0.00205   0.00000  -0.00489  -0.00489   2.69335
   R26        2.05280   0.00626   0.00000   0.01744   0.01744   2.07024
   R27        2.04672   0.00491   0.00000   0.01354   0.01354   2.06026
   R28        2.05318   0.00296   0.00000   0.00827   0.00827   2.06145
   R29        2.05449   0.00640   0.00000   0.01789   0.01789   2.07238
   R30        2.04261   0.00483   0.00000   0.01323   0.01323   2.05584
   R31        2.05380   0.00335   0.00000   0.00936   0.00936   2.06315
   R32        2.04973   0.00310   0.00000   0.00860   0.00860   2.05833
    A1        1.92151  -0.00091   0.00000  -0.00288  -0.00309   1.91843
    A2        1.91627   0.00085   0.00000   0.00120   0.00128   1.91756
    A3        1.93965  -0.00050   0.00000  -0.00220  -0.00218   1.93748
    A4        1.90636   0.00010   0.00000  -0.00160  -0.00153   1.90483
    A5        1.90338   0.00048   0.00000   0.00262   0.00267   1.90605
    A6        1.87585   0.00001   0.00000   0.00301   0.00298   1.87883
    A7        1.95573  -0.00085   0.00000  -0.01014  -0.01000   1.94573
    A8        1.93542   0.00392   0.00000   0.01624   0.01606   1.95148
    A9        1.83884  -0.00280   0.00000  -0.01800  -0.01804   1.82080
   A10        1.89160  -0.00239   0.00000  -0.01058  -0.01048   1.88112
   A11        1.92142   0.00179   0.00000   0.01342   0.01337   1.93479
   A12        1.92074   0.00043   0.00000   0.00982   0.00987   1.93061
   A13        1.97233   0.00075   0.00000  -0.01290  -0.01298   1.95935
   A14        1.84162   0.00015   0.00000   0.01541   0.01549   1.85711
   A15        1.94780  -0.00090   0.00000  -0.01311  -0.01346   1.93434
   A16        1.89718   0.00010   0.00000   0.01500   0.01500   1.91218
   A17        1.93994  -0.00044   0.00000  -0.00842  -0.00876   1.93117
   A18        1.85794   0.00038   0.00000   0.00770   0.00783   1.86576
   A19        1.91240   0.00222   0.00000   0.00101   0.00103   1.91343
   A20        1.93076  -0.00023   0.00000   0.00173   0.00179   1.93255
   A21        1.91408  -0.00105   0.00000  -0.00241  -0.00250   1.91158
   A22        1.91685  -0.00070   0.00000   0.00109   0.00107   1.91792
   A23        1.92258  -0.00101   0.00000  -0.00688  -0.00688   1.91570
   A24        1.86681   0.00070   0.00000   0.00544   0.00545   1.87226
   A25        1.93182   0.00042   0.00000   0.00601   0.00591   1.93773
   A26        1.90023   0.00140   0.00000   0.00912   0.00915   1.90938
   A27        1.85866  -0.00098   0.00000  -0.00530  -0.00523   1.85343
   A28        1.93582  -0.00111   0.00000  -0.00788  -0.00791   1.92791
   A29        1.94405  -0.00007   0.00000  -0.00282  -0.00278   1.94127
   A30        1.89090   0.00039   0.00000   0.00122   0.00119   1.89209
   A31        1.96571  -0.00238   0.00000  -0.01702  -0.01698   1.94873
   A32        1.94469   0.00207   0.00000   0.00491   0.00490   1.94958
   A33        1.93047  -0.00133   0.00000  -0.00448  -0.00454   1.92593
   A34        1.94581  -0.00007   0.00000  -0.00117  -0.00110   1.94470
   A35        1.91018   0.00001   0.00000   0.00011   0.00016   1.91033
   A36        1.84242  -0.00130   0.00000  -0.00296  -0.00299   1.83943
   A37        1.88743   0.00061   0.00000   0.00371   0.00371   1.89114
   A38        1.92852   0.00048   0.00000  -0.00060  -0.00116   1.92737
   A39        2.04684  -0.00441   0.00000  -0.04443  -0.04454   2.00230
   A40        1.88029   0.00131   0.00000   0.00959   0.00993   1.89022
   A41        1.87265   0.00075   0.00000  -0.00508  -0.00597   1.86668
   A42        1.87348  -0.00063   0.00000   0.01238   0.01224   1.88572
   A43        1.85403   0.00280   0.00000   0.03394   0.03417   1.88820
   A44        1.93264  -0.00033   0.00000  -0.00802  -0.00823   1.92442
   A45        1.93230  -0.00032   0.00000  -0.00905  -0.00902   1.92329
   A46        1.91845  -0.00050   0.00000   0.00023   0.00033   1.91879
   A47        1.89969   0.00037   0.00000   0.00455   0.00457   1.90426
   A48        1.90592   0.00045   0.00000   0.00497   0.00498   1.91090
   A49        1.87365   0.00038   0.00000   0.00801   0.00796   1.88161
   A50        1.96307   0.00068   0.00000   0.00369   0.00385   1.96693
   A51        1.90887   0.00182   0.00000   0.01526   0.01522   1.92409
   A52        1.86850  -0.00110   0.00000  -0.00729  -0.00741   1.86109
   A53        1.89952  -0.00153   0.00000  -0.00437  -0.00444   1.89508
   A54        1.92751  -0.00054   0.00000  -0.01139  -0.01151   1.91600
   A55        1.89518   0.00073   0.00000   0.00448   0.00447   1.89966
   A56        2.02313  -0.00581   0.00000  -0.03580  -0.03566   1.98747
   A57        2.12445  -0.01886   0.00000  -0.07356  -0.07356   2.05089
   A58        1.95535  -0.00230   0.00000  -0.01749  -0.01757   1.93777
   A59        1.87319   0.00017   0.00000   0.00450   0.00449   1.87767
   A60        1.90070   0.00109   0.00000   0.00055   0.00054   1.90124
   A61        1.90829   0.00139   0.00000   0.00779   0.00787   1.91615
   A62        1.94741  -0.00018   0.00000  -0.00134  -0.00146   1.94595
   A63        1.87576  -0.00008   0.00000   0.00722   0.00719   1.88296
    D1        0.92067  -0.00000   0.00000   0.00576   0.00577   0.92645
    D2        3.03651   0.00043   0.00000   0.00890   0.00894   3.04545
    D3       -1.19165   0.00051   0.00000   0.01514   0.01517  -1.17648
    D4       -1.17873  -0.00009   0.00000   0.00880   0.00879  -1.16994
[...]
 340,-0.00000597,0.13787407,-0.02673449,0.21492752,0.00005961,0.0010665
 7,0.00238135,0.00251176,-0.02834956,0.00461260,0.00008574,-0.00005523,
 0.00002679,-0.00079400,0.00938036,-0.00372073,-0.00002540,-0.00000114,
 0.00004114,-0.00000773,0.00002937,-0.00001263,-0.00070102,0.00117937,0
 .00150815,0.00017155,0.00033211,0.00008203,0.00001602,-0.00004218,-0.0
 0004612,0.00005416,-0.00003811,-0.00003854,-0.00585932,-0.00628367,0.0
 0244430,0.00128677,-0.00012264,0.00028267,-0.04940033,0.01084394,-0.00
 286677,0.00001155,-0.00045297,0.00014538,0.00041497,0.00085280,0.00001
 716,-0.00001327,0.00002233,-0.00003161,0.00005421,-0.00015627,-0.00057
 371,0.00038474,-0.00051493,0.00006090,0.00004121,-0.00006882,-0.000188
 57,0.00015685,-0.00010933,-0.00019400,0.00004042,0.00007752,0.00002578
 ,-0.00002860,0.00000750,0.00000659,0.00001159,-0.00000050,0.00002354,-
 0.00000545,-0.00000074,-0.00000243,-0.00015258,0.02059440,-0.00393237,
 0.05089879,0.00125248,-0.00004040,-0.00401121,0.00283047,-0.01015301,0
 .00187043,0.00010465,-0.00007239,0.00001793,0.00023164,-0.01531098,0.0
 0417455,-0.00000962,0.00000056,0.00003529,-0.00001404,0.00001669,-0.00
 001983,0.00053188,0.00094498,0.00055627,-0.00026780,0.00036181,-0.0000
 3384,0.00000340,-0.00004091,-0.00001913,-0.00001223,-0.00001465,0.0000
 1104,-0.00261105,-0.00065953,0.00104821,0.00117352,0.00151669,-0.00027
 088,0.00638893,-0.30278016,0.06064248,0.00007397,0.00017748,0.00007978
 ,-0.00027653,-0.00109649,0.00036568,-0.00001645,0.00002309,-0.00003745
 ,0.00028989,0.00050869,0.00006165,-0.00033529,0.00060995,0.00000073,-0
 .00005570,-0.00004592,-0.00009386,-0.00005248,-0.00006620,0.00003822,0
 .00003124,0.00006595,0.00001101,-0.00002936,0.00000664,0.00000560,-0.0
 0000495,-0.00000026,-0.00000267,-0.00000383,0.00000258,-0.00000633,0.0
 0044514,-0.00247211,0.00092197,-0.00908297,0.32832627,0.00183225,-0.00
 220573,-0.00481177,-0.00371587,0.00957661,-0.00341275,-0.00002591,0.00
 002820,-0.00001828,-0.00009610,-0.02768311,0.00723944,0.00001175,-0.00
 000630,-0.00002150,0.00000878,0.00000251,0.00000892,0.00068824,-0.0004
 7030,-0.00108132,0.00000553,-0.00012719,-0.00000682,0.00000688,0.00002
 610,0.00002329,-0.00000248,-0.00001218,-0.00000232,0.00329024,0.002929
 32,0.00025091,-0.00092035,-0.00062444,0.00032095,-0.00080384,0.0617808
 6,-0.06232092,0.00012759,-0.00014022,0.00014722,-0.00011512,-0.0016601
 3,0.00034374,0.00001886,-0.00000553,0.00001070,-0.00008413,0.00097181,
 0.00101585,-0.00062938,0.00074738,0.00113824,-0.00005325,0.00007361,0.
 00015401,-0.00011073,0.00010897,0.00018580,-0.00001400,-0.00004573,-0.
 00001809,0.00001502,0.00000048,-0.00000387,0.00001011,0.00000518,0.000
 00162,-0.00000020,0.00000076,-0.00000176,0.00084474,0.02248719,-0.0053
 6303,0.00005297,-0.06539605,0.06617839,0.00024770,-0.00050464,-0.00019
 896,-0.06995322,0.02962267,0.05969187,-0.00132433,-0.00071574,0.000056
 98,-0.00463538,-0.00346227,0.00032408,-0.00002974,0.00004871,-0.000100
 93,-0.00004407,0.00009549,0.00014608,0.00089060,-0.00085542,-0.0001620
 2,0.00285193,-0.00175041,-0.00126466,-0.00001750,-0.00003479,-0.000067
 75,-0.00018399,0.00014700,0.00003768,0.00327025,-0.00026857,-0.0012631
 7,-0.00072189,-0.00697783,-0.03163436,-0.00719392,0.01324484,0.0257581
 1,-0.00003620,0.00009412,-0.00009637,0.00006448,0.00014443,-0.00003989
 ,0.00005260,0.00003222,0.00007948,-0.00060013,0.00103728,0.00142355,0.
 00010629,-0.00003426,0.00019609,-0.00008442,0.00019424,0.00015472,0.00
 009322,-0.00001638,-0.00009862,-0.00002013,0.00001881,-0.00003059,0.00
 001372,0.00003176,0.00000909,-0.00011287,-0.00004086,0.00000521,0.0000
 1976,-0.00002300,0.00017583,0.00087745,0.00047450,-0.00051383,0.000823
 57,-0.00054299,-0.00035517,0.07764820,-0.00025445,-0.00050969,-0.00021
 014,0.02373081,-0.09540225,-0.09389638,0.00003347,0.00006065,-0.000433
 97,-0.00205283,-0.00037724,0.00040214,-0.00001552,0.00011978,0.0000201
 7,0.00000996,-0.00001666,-0.00006545,-0.00157132,-0.00318318,0.0053216
 5,-0.00127034,0.00120427,0.00014737,0.00015125,-0.00019488,0.00014558,
 -0.00004645,-0.00024729,0.00007991,0.01051669,-0.03622027,-0.03203172,
 0.00170093,0.00777568,0.01043681,-0.00243097,0.00719617,0.00822817,0.0
 0008609,0.00006471,0.00002748,0.00028987,0.00021811,-0.00013617,0.0001
 8185,0.00005771,0.00013645,-0.00025162,0.00041579,0.00050939,0.0000972
 4,-0.00008054,-0.00003781,-0.00007944,-0.00016436,-0.00039628,0.000453
 02,-0.00121187,-0.00143367,0.00007748,0.00010572,-0.00000073,-0.000041
 44,0.00002569,-0.00000354,0.00002005,0.00000975,-0.00001050,0.00002635
 ,0.00001565,0.00000477,0.00047592,0.00020580,-0.00039166,0.00087752,0.
 00026809,-0.00037320,-0.02927609,0.12069302,-0.00008684,0.00016804,-0.
 00002452,0.05374199,-0.10237685,-0.24044301,0.00023312,0.00059170,-0.0
 0018992,0.00142194,0.00117864,0.00100281,0.00014521,0.00028419,-0.0000
 8295,-0.00022696,-0.00015239,-0.00000365,0.00028077,0.00201127,0.00186
 090,0.00447612,0.00081357,-0.00059518,0.00026555,-0.00017831,0.0002369
 9,-0.00018009,0.00018411,0.00031968,-0.00040011,0.00206035,0.00751940,
 -0.00970240,-0.00489133,-0.03260827,0.00326282,-0.00417386,-0.00668120
 ,-0.00000141,-0.00004330,0.00000951,-0.00005128,-0.00006211,-0.0000421
 8,0.00009832,-0.00010577,0.00028501,0.00008807,-0.00038634,-0.00047665
 ,-0.00015466,0.00007590,0.00013134,-0.00004386,0.00027834,0.00014685,-
 0.00001132,0.00013186,0.00011635,-0.00000021,0.00005401,0.00000110,-0.
 00002119,-0.00002488,0.00000389,-0.00023604,-0.00007042,-0.00009334,0.
 00005826,-0.00003723,0.00017709,0.00024016,0.00010913,0.00073567,-0.00
 005504,0.00013273,0.00001455,-0.05283286,0.10396251,0.26767155,-0.0000
 0363,0.00000262,-0.00004700,0.00017634,0.00017400,0.00017360,0.0005400
 4,0.00033918,0.00109231,-0.00001565,0.00000210,-0.00001080,-0.24509993
 ,0.09059956,0.02470322,-0.02044417,-0.00449941,0.01578437,0.00011547,-
 0.00010829,0.00001084,-0.00020051,-0.00043324,-0.00006841,-0.01586786,
 0.00959719,0.00105355,0.00086128,0.00368388,0.00029866,-0.00031112,-0.
 00012349,-0.00001865,-0.00012175,-0.00010346,-0.00016363,0.00000266,-0
 .00000340,0.00000304,-0.00003279,-0.00000894,0.00000205,-0.00000948,0.
 00000394,0.00001247,-0.00010492,-0.00064103,-0.00029958,-0.00001311,-0
 .00000622,0.00000895,0.00000556,0.00000115,-0.00000598,-0.00000478,-0.
 00000397,-0.00010364,0.00001059,0.00000288,-0.00000288,-0.00044640,-0.
 00008054,-0.00317837,0.00051867,0.00008696,-0.00032314,0.00012262,-0.0
 0131947,-0.00046139,0.00045048,-0.00039061,-0.00006018,-0.00001855,-0.
 00000019,0.00000095,-0.00001019,-0.00001089,0.00000745,0.00001251,-0.0
 0001165,-0.00003440,0.27539361,-0.00000282,0.00000223,0.00000487,-0.00
 004894,-0.00010149,-0.00009516,-0.00083406,0.00050940,0.00039803,0.000
 01104,0.00000145,0.00000807,0.09405979,-0.09835065,-0.01751971,-0.0218
 9207,0.00341804,0.00856603,-0.00006497,0.00004305,0.00003616,-0.000052
 00,-0.00036048,-0.00008271,0.00128381,-0.00039888,-0.00085238,-0.00398
 068,0.00415454,0.00166380,0.00013508,0.00006200,0.00002631,0.00026772,
 -0.00005902,0.00002634,-0.00000015,-0.00000519,0.00000098,0.00000871,0
 .00000205,0.00000080,0.00000559,-0.00000230,-0.00000488,0.00012885,0.0
 0028750,-0.00001409,0.00000576,0.00000133,-0.00000541,-0.00000105,-0.0
 0000008,0.00000076,-0.00001830,-0.00001479,0.00002272,-0.00000675,0.00
 000443,-0.00000827,-0.00015583,0.00124309,0.00065646,0.00014041,0.0001
 8512,0.00019036,0.00117236,0.00055146,-0.00012787,0.00010879,0.0001799
 6,-0.00002120,0.00001159,0.00000057,-0.00000154,0.00000511,0.00000515,
 -0.00000344,-0.00001668,0.00000269,0.00000484,-0.09640630,0.09881721,0
 .00000410,-0.00000752,-0.00001126,-0.00014726,0.00045118,-0.00016550,0
 .00040128,0.00116238,0.00139903,-0.00001031,0.00001196,-0.00001211,0.0
 2451160,-0.01478260,-0.05253602,0.03230547,0.00066606,-0.01319446,0.00
 009766,-0.00012473,-0.00015678,-0.00024864,0.00030584,-0.00009057,-0.0
 2772852,0.01266520,0.00379712,-0.00047987,-0.00445721,-0.00042604,-0.0
 0054982,-0.00034693,0.00008120,0.00029456,-0.00004926,0.00020949,0.000
 01868,-0.00006334,0.00003512,-0.00001204,-0.00000462,0.00000184,-0.000
 00876,-0.00000051,0.00001020,0.00045737,-0.00040267,-0.00018268,-0.000
 00095,-0.00000987,0.00000340,0.00000066,-0.00000129,0.00000594,0.00000
 576,0.00005211,-0.00003334,0.00004172,-0.00002083,0.00002270,-0.003088
 11,-0.00054227,-0.00469918,0.00107323,-0.00005981,0.00114507,-0.000839
 96,0.00057778,0.00039966,-0.00029311,0.00011387,-0.00004134,0.00001520
 ,0.00000122,-0.00000252,-0.00001686,-0.00001360,0.00000946,0.00002184,
 -0.00003007,0.00000981,-0.03719305,0.01045865,0.06491989,-0.00000099,0
 .00000212,0.00001509,0.00015647,-0.00008041,0.00010430,-0.00092293,0.0
 0117884,-0.00284132,-0.00000886,-0.00000896,-0.00000428,-0.05399200,-0
 .01582698,-0.00799783,-0.00332262,-0.02195392,-0.00291280,0.00001431,-
 0.00003518,-0.00005912,0.00026143,-0.00006853,0.00008524,-0.00202395,-
 0.01666398,-0.00851631,-0.00142549,0.00034550,0.00236540,-0.00005295,0
 .00010146,0.00000374,-0.00016862,-0.00000922,0.00000027,-0.00000328,0.
 00002719,-0.00000268,-0.00000115,0.00000074,-0.00000270,-0.00000494,0.
 00000195,0.00000376,0.00008271,-0.00035031,-0.00019207,-0.00000660,0.0
 0000402,0.00000473,0.00000192,0.00000073,-0.00000340,0.00002711,-0.000
 00618,0.00001121,-0.00000538,0.00001071,-0.00000087,0.00064188,-0.0003
 7914,0.00093910,0.00040855,0.00027186,0.00017287,0.00041290,-0.0004343
 0,-0.00015541,0.00021226,-0.00080905,-0.00021632,-0.00001545,-0.000000
 62,0.00000128,0.00000017,-0.00000094,0.00000084,0.00001025,0.00001249,
 0.00000615,0.00438916,0.02603017,0.01094981,0.05542033,0.00000148,0.00
 000131,-0.00001073,0.00020248,-0.00010095,0.00020890,0.00024000,0.0011
 6958,0.00048153,-0.00000928,-0.00000841,-0.00000574,-0.02242048,-0.273
 52814,-0.09582362,-0.00515761,-0.02396431,-0.00103945,0.00003235,-0.00
 005812,-0.00001156,0.00050073,-0.00006366,0.00032371,0.00110647,0.0037
 3958,0.00012172,-0.00221913,0.00175937,0.00385610,-0.00011762,0.000083
 09,-0.00001687,-0.00037120,0.00002854,-0.00022751,-0.00001217,0.000024
 81,-0.00002625,-0.00001088,-0.00000256,-0.00000045,-0.00000573,0.00000
 384,0.00000599,0.00003299,0.00006891,0.00009455,-0.00000918,0.00000179
 ,0.00000691,0.00000334,0.00000013,-0.00000593,-0.00002333,-0.00001655,
 -0.00004069,-0.00000743,0.00000624,-0.00000070,-0.00036194,0.00048507,
 -0.00009892,-0.00040877,-0.00006148,-0.00077104,0.00007876,0.00021148,
 -0.00001905,-0.00039058,-0.00112439,-0.00038405,-0.00002546,-0.0000010
 1,0.00000320,-0.00000046,-0.00000249,0.00000298,-0.00000537,0.00000453
 ,-0.00002855,-0.00013804,-0.01025403,-0.00560973,0.02950498,0.30157640
 ,0.00000265,0.00000548,0.00000733,0.00012315,0.00001031,-0.00007888,-0
 .00372207,0.00217916,-0.00469824,-0.00002432,-0.00001136,-0.00000895,-
 0.01074372,-0.10577504,-0.09241420,0.00528721,0.03196705,0.00762878,0.
 00001520,-0.00009026,-0.00006257,0.00032779,0.00093475,-0.00049782,-0.
 00199110,-0.02713902,-0.00949597,0.00262561,0.00163256,-0.00345913,-0.
 00012548,0.00005921,0.00007016,-0.00016295,-0.00014698,0.00020149,0.00
 001591,0.00003583,0.00003784,-0.00000633,-0.00000161,-0.00000112,-0.00
 000898,0.00000182,0.00000758,0.00022314,0.00025406,0.00012304,-0.00000
 795,0.00000358,0.00001060,0.00000223,0.00000028,0.00000015,-0.00002393
 ,0.00000430,-0.00001431,0.00000481,0.00000773,0.00000639,0.00019866,0.
 00056960,0.00138797,0.00068072,0.00044353,0.00058510,-0.00020082,0.000
 00921,-0.00001576,0.00027913,0.00132648,0.00033896,-0.00000857,0.00000
 059,-0.00000078,-0.00000421,-0.00000540,0.00000321,0.00000626,0.000045
 82,0.00006344,-0.00097232,-0.00329004,-0.00067209,0.00864395,0.0990275
 3,0.10112574,-0.00005043,-0.00003130,-0.00002529,-0.00211039,-0.000533
 84,0.00135589,-0.15096217,0.00037791,-0.13594983,0.00001508,0.00005510
 ,0.00004064,0.00062208,-0.00171853,0.00064917,-0.00003271,0.00051058,-
 0.00055059,-0.00013327,0.00023408,0.00027115,0.00888510,0.00007979,0.0
 1190378,-0.00328374,0.00032286,-0.00302617,-0.00105323,-0.00205525,0.0
 0188230,-0.00050376,-0.00011495,0.00041995,0.00080640,0.00127289,-0.00
 150442,0.00002996,-0.00007095,-0.00005524,0.00000351,0.00000247,0.0000
 0515,0.00003238,-0.00000563,-0.00001738,-0.01691897,0.00030010,-0.0213
 7831,0.00001988,-0.00000302,-0.00002874,-0.00000258,-0.00000199,0.0000
 0824,-0.00002417,-0.00003247,-0.00005207,0.00000900,-0.00004190,-0.000
 02644,0.00026400,-0.00019734,0.00024121,-0.00016438,-0.00005405,0.0000
 3790,0.00016705,-0.00006195,0.00014520,0.00039881,-0.00000743,0.000676
 77,0.00003740,0.00000415,-0.00000211,0.00001231,0.00001584,-0.00000899
 ,-0.00235864,-0.00088771,0.00087868,0.00023394,0.00007797,0.00033160,0
 .00001694,0.00005120,-0.00054189,0.16591145,0.00000377,0.00002598,0.00
 005616,-0.00035910,0.00070339,0.00085686,0.00020980,-0.04697950,0.0035
 8970,0.00005507,0.00003798,-0.00001693,-0.00071004,-0.00771297,0.00029
 917,0.00068809,0.00168542,-0.00023111,0.00009088,-0.00024612,-0.000149
 38,0.01531070,0.00024752,0.01429002,-0.02044588,0.00071060,-0.02597778
 ,-0.00280706,-0.00357655,0.00222491,-0.00012378,-0.00022032,-0.0002330
 5,-0.00019576,0.00086245,-0.00159321,-0.00002021,-0.00017810,-0.000138
 14,0.00000221,-0.00000131,-0.00000342,-0.00001784,-0.00000445,0.000010
 74,0.00736560,-0.00088929,0.01040777,0.00000058,-0.00001177,-0.0000162
 4,0.00000031,-0.00000070,-0.00000091,-0.00000453,0.00001640,0.00005949
 ,-0.00000322,0.00000537,-0.00000886,0.00059235,0.00136228,0.00034175,0
 .00007126,0.00116328,0.00082344,-0.00021455,0.00003652,-0.00026110,0.0
 0050372,0.00045055,0.00124882,-0.00001584,-0.00000703,0.00001236,-0.00
 002599,-0.00001011,0.00001404,-0.00128683,-0.00028208,0.00011038,-0.00
 006486,0.00004675,0.00007555,-0.00086965,0.00005362,-0.00192826,0.0019
 6186,0.05225343,-0.00001008,0.00006394,0.00019113,0.00043612,0.0001275
 9,-0.00157227,-0.13242832,0.00193076,-0.21470472,-0.00020411,-0.000076
 00,-0.00003443,0.00042176,-0.00225613,0.00112350,-0.00014756,-0.000357
 02,0.00059402,-0.00009331,-0.00047975,-0.00054270,-0.01571190,0.000167
 87,-0.02068185,-0.00547413,-0.00081657,-0.00725639,0.00361194,0.004396
 99,-0.00125102,-0.00052023,0.00006436,0.00085027,-0.00052172,-0.000625
 32,0.00189385,0.00019966,0.00026664,0.00045387,-0.00000157,0.00000095,
 -0.00001880,-0.00006760,0.00000867,0.00004497,0.00615507,0.00024052,0.
 00891306,-0.00004732,0.00004087,0.00007382,0.00001464,0.00000101,0.000
 01468,0.00002529,0.00002023,0.00009671,-0.00001492,0.00007052,0.000046
 42,0.00003447,0.00016168,0.00018412,0.00007113,-0.00021615,0.00035237,
 -0.00021510,0.00001874,0.00014789,-0.00081654,-0.00034784,-0.00122194,
 0.00001198,0.00000909,-0.00002298,-0.00003842,-0.00004928,0.00002450,0
 .00019500,0.00043336,0.00087667,-0.00014062,0.00009453,-0.00003980,-0.
 00031239,0.00016215,-0.00048074,0.14511845,-0.00308157,0.23130797,0.00
 007082,-0.00003432,0.00005301,0.00419931,0.00006916,0.00713925,0.00048
 079,-0.00916552,-0.00161297,0.00000521,-0.00009559,-0.00001284,0.00076
 369,0.00093690,-0.00057298,-0.00193047,-0.00232232,-0.00474146,0.00029
 754,-0.00032119,-0.00033390,-0.04493526,0.01666449,-0.00156800,0.00071
 300,-0.00079271,0.00180092,0.00248658,-0.01654050,-0.00212979,-0.00067
 437,0.00171613,-0.00129297,-0.03042316,0.03502509,0.01521475,0.0000062
 3,-0.00004737,-0.00022035,-0.00002567,0.00000583,-0.00002210,-0.000035
 83,0.00002614,0.00002915,0.00038360,-0.00084707,-0.00009863,-0.0001012
 0,0.00003692,-0.00000660,-0.00000961,0.00000473,-0.00012850,-0.0000967
 8,-0.00008446,-0.00004550,-0.00006848,0.00007653,-0.00005335,-0.000077
 91,-0.00031589,-0.00008825,-0.00005793,-0.00039156,-0.00000737,0.00008
 522,-0.00048042,0.00051440,0.00043811,0.00066383,0.00006073,-0.0001654
 6,-0.00006345,-0.00000895,-0.00003811,-0.00004595,0.00001428,0.0003338
 9,-0.00055116,-0.00115850,-0.00012810,0.00002783,0.00008670,-0.0001011
 9,-0.00006011,0.00010823,0.00013315,0.00030892,0.00047031,0.06847239,-
 0.00001724,0.00000240,-0.00001847,-0.00142051,0.00092795,-0.00150803,-
 0.00130943,-0.02044305,-0.00535291,-0.00003017,0.00003248,0.00003011,0
 .00080069,0.00042274,0.00027532,-0.00110011,0.00071712,-0.00105299,-0.
 00021752,0.00020085,0.00015175,0.01543278,-0.27514347,-0.06917492,-0.0
 0160738,0.00005395,0.00430084,0.00048266,-0.00513370,-0.00014484,0.000
 40868,-0.00058368,0.00002899,0.01158538,0.00132348,-0.00270271,0.00015
 282,-0.00002250,0.00028497,0.00003029,0.00000270,0.00001386,0.00002649
 ,-0.00001864,-0.00002454,-0.00037660,0.00069723,0.00006073,0.00004223,
 -0.00000717,-0.00001684,-0.00001134,-0.00000406,0.00004313,0.00002816,
 0.00002303,0.00006171,0.00002071,-0.00004699,-0.00000412,0.00011307,0.
 00010200,-0.00002139,-0.00031252,-0.00122815,-0.00055095,-0.00049382,0
 .00035707,-0.00042001,-0.00006713,0.00014836,-0.00037204,0.00016340,-0
 .00002954,-0.00002476,0.00003660,-0.00006899,-0.00000245,0.00062606,-0
 .00055351,0.00037975,-0.00013945,0.00002888,-0.00001495,0.00000459,-0.
 00003218,-0.00013091,0.00055151,0.00045876,0.00002518,-0.02340290,0.29
 781663,-0.00002323,0.00000382,-0.00002648,-0.00117634,0.00110059,-0.00
 086082,0.00116541,0.02672796,0.00725654,0.00000312,0.00004105,-0.00000
 690,0.00068848,0.00103660,-0.00169658,-0.00446798,-0.00364489,-0.00572
 910,-0.00010339,0.00006160,0.00014367,0.00020437,-0.06830730,-0.074488
 10,0.00158730,0.00204885,-0.00400758,0.00225196,-0.02742495,-0.0052240
 7,0.00040294,-0.00078961,0.00007779,0.01024876,-0.00725606,0.00027078,
 0.00004060,-0.00006118,0.00010257,0.00001418,-0.00000083,0.00001023,0.
 00001811,-0.00001058,-0.00001220,-0.00030698,-0.00034874,0.00112519,0.
 00003646,-0.00001461,-0.00001041,0.00000564,-0.00000877,0.00003306,0.0
 0002591,0.00004248,0.00000271,0.00002440,-0.00004555,-0.00000631,-0.00
 007644,0.00008547,0.00001018,0.00045430,0.00138850,0.00042562,-0.00009
 658,0.00044686,0.00110954,0.00094774,0.00061363,0.00057298,0.00008835,
 -0.00001281,-0.00001211,0.00001064,-0.00001406,-0.00000837,0.00037729,
 -0.00045030,0.00005823,-0.00006744,-0.00013302,0.00021377,-0.00009024,
 -0.00017442,0.00030278,-0.00079861,-0.00078123,0.00063780,-0.01138871,
 0.07588149,0.07973558\\-0.00000507,0.00000040,-0.00000033,-0.00073535,
 -0.00467023,-0.00084278,0.00113035,0.00294774,0.00292755,0.00001142,0.
 00000111,0.00000335,-0.00000382,-0.00002114,0.00001273,0.00000364,0.00
 001389,0.00000302,0.00000290,-0.00001200,0.00000058,-0.00204478,-0.006
 57202,-0.00475928,-0.00000946,0.00000428,-0.00000332,-0.00000905,0.000
 01323,-0.00001331,-0.00001336,0.00002835,-0.00000991,0.00166819,0.0082
 5848,0.00271757,0.00000572,0.00000717,-0.00000898,-0.00000217,-0.00000
 071,-0.00000138,-0.00000338,-0.00000753,0.00000546,0.00000186,-0.00000
 164,-0.00000522,0.00000107,-0.00000081,0.00000006,0.00000509,-0.000002
 21,0.00000859,0.00000619,-0.00000217,0.00000013,-0.00000165,-0.0000025
 2,-0.00000147,-0.00000922,0.00000385,0.00000041,0.00000374,-0.00000065
 ,-0.00000675,0.00000575,0.00000126,-0.00000560,0.00000586,0.00000612,0
 .00000283,-0.00000010,-0.00000163,-0.00000456,0.00000147,0.00000351,0.
 00000638,-0.00000687,0.00000349,-0.00001377,0.00000273,0.00000381,-0.0
 0000684,-0.00000498,0.00000294,0.00000178,-0.00000218,0.00000137,0.000
 00069,-0.00000453,-0.00000576,-0.00000765\\\@


 THESE ARE THE TIMES THAT TRY MENS SOULS.
 THE SUMMER SOLDIER AND THE SUNSHINE PATRIOT WILL IN THIS CRISIS,
 SHRINK FROM THE SERVICE OF HIS COUNTRY.  BUT HE THAT STANDS NOW,
 DESERVES THE LOVE AND THANKS OF MAN AND WOMAN.
 TYRANNY, LIKE HELL, IS NOT EASILY CONQUERED,
 YET WE HAVE THIS CONSOLATION WITH US,
 THAT THE HARDER THE CONFLICT, THE MORE GLORIOUS THE TRIUMPH.
 WHAT WE OBTAIN TOO CHEAP, WE ESTEEM TOO LIGHTLY, 
 'TIS DEARNESS ONLY THAT GIVES EVERYTHING ITS VALUE.

                                              -- TOM PAINE
 Job cpu time:       0 days 15 hours 19 minutes 20.2 seconds.
 Elapsed time:       0 days  0 hours 57 minutes 29.6 seconds.
 File lengths (MBytes):  RWF=    687 Int=      0 D2E=      0 Chk=     33 Scr=      1
 Normal termination of Gaussian 16 at Sun Nov  4 23:05:08 2018.
