 Entering Gaussian System, Link 0=g16
 Initial command:
 /apps/gaussian/g16a03/g16/l1.exe "/jobfs/local/2011922.r-man2/Gau-23929.inp" -scrdir="/jobfs/local/2011922.r-man2/"
 Entering Link 1 = /apps/gaussian/g16a03/g16/l1.exe PID=     23930.
  
 Copyright (c) 1988,1990,1992,1993,1995,1998,2003,2009,2016,
            Gaussian, Inc.  All Rights Reserved.
  
 This is part of the Gaussian(R) 16 program.  It is based on
 the Gaussian(R) 09 system (copyright 2009, Gaussian, Inc.),
 the Gaussian(R) 03 system (copyright 2003, Gaussian, Inc.),
 the Gaussian(R) 98 system (copyright 1998, Gaussian, Inc.),
 the Gaussian(R) 94 system (copyright 1995, Gaussian, Inc.),
 the Gaussian 92(TM) system (copyright 1992, Gaussian, Inc.),
 the Gaussian 90(TM) system (copyright 1990, Gaussian, Inc.),
 the Gaussian 88(TM) system (copyright 1988, Gaussian, Inc.),
 the Gaussian 86(TM) system (copyright 1986, Carnegie Mellon
 University), and the Gaussian 82(TM) system (copyright 1983,
 Carnegie Mellon University). Gaussian is a federally registered
 trademark of Gaussian, Inc.
  
 This software contains proprietary and confidential information,
 including trade secrets, belonging to Gaussian, Inc.
  
 This software is provided under written license and may be
 used, copied, transmitted, or stored only in accord with that
 written license.
  
 The following legend is applicable only to US Government
 contracts under FAR:
  
                    RESTRICTED RIGHTS LEGEND
  
 Use, reproduction and disclosure by the US Government is
 subject to restrictions as set forth in subparagraphs (a)
 and (c) of the Commercial Computer Software - Restricted
 Rights clause in FAR 52.227-19.
  
 Gaussian, Inc.
 340 Quinnipiac St., Bldg. 40, Wallingford CT 06492
  
  
 ---------------------------------------------------------------
 Warning -- This program may not be used in any manner that
 competes with the business of Gaussian, Inc. or will provide
 assistance to any competitor of Gaussian, Inc.  The licensee
 of this program is prohibited from giving any competitor of
 Gaussian, Inc. access to this program.  By using this program,
 the user acknowledges that Gaussian, Inc. is engaged in the
 business of creating and licensing software in the field of
 computational chemistry and represents and warrants to the
 licensee that it is not a competitor of Gaussian, Inc. and that
 it will not use this program in any manner prohibited above.
 ---------------------------------------------------------------
  

 Cite this work as:
 Gaussian 16, Revision A.03,
 M. J. Frisch, G. W. Trucks, H. B. Schlegel, G. E. Scuseria, 
 M. A. Robb, J. R. Cheeseman, G. Scalmani, V. Barone, 
 G. A. Petersson, H. Nakatsuji, X. Li, M. Caricato, A. V. Marenich, 
 J. Bloino, B. G. Janesko, R. Gomperts, B. Mennucci, H. P. Hratchian, 
 J. V. Ortiz, A. F. Izmaylov, J. L. Sonnenberg, D. Williams-Young, 
 F. Ding, F. Lipparini, F. Egidi, J. Goings, B. Peng, A. Petrone, 
 T. Henderson, D. Ranasinghe, V. G. Zakrzewski, J. Gao, N. Rega, 
 G. Zheng, W. Liang, M. Hada, M. Ehara, K. Toyota, R. Fukuda, 
 J. Hasegawa, M. Ishida, T. Nakajima, Y. Honda, O. Kitao, H. Nakai, 
 T. Vreven, K. Throssell, J. A. Montgomery, Jr., J. E. Peralta, 
 F. Ogliaro, M. J. Bearpark, J. J. Heyd, E. N. Brothers, K. N. Kudin, 
 V. N. Staroverov, T. A. Keith, R. Kobayashi, J. Normand, 
 K. Raghavachari, A. P. Rendell, J. C. Burant, S. S. Iyengar, 
 J. Tomasi, M. Cossi, J. M. Millam, M. Klene, C. Adamo, R. Cammi, 
 J. W. Ochterski, R. L. Martin, K. Morokuma, O. Farkas, 
 J. B. Foresman, and D. J. Fox, Gaussian, Inc., Wallingford CT, 2016.
 
 ******************************************
 Gaussian 16:  ES64L-G16RevA.03 25-Dec-2016
                 4-Nov-2018 
 ******************************************
 %mem=6000mb
 %nproc=24
 Will use up to   24 processors via shared memory.
 %chk=D_1a_4a_L_PSI.inp_extract_5.chk
 ----------------------------------------------------------------------
 #M062X/6-311++G(2d,2p) opt=ModRedundant freq=noraman SCRF=(Solvent=Wat
 er)
 ----------------------------------------------------------------------
 1/18=120,19=15,26=3,38=1/1,3;
 2/9=110,12=2,17=6,18=5,40=1/2;
 3/5=4,6=6,7=1212,11=2,25=1,30=1,70=2201,71=1,72=1,74=-55/1,2,3;
 4//1;
 5/5=2,38=5,53=1/2;
 6/7=2,8=2,9=2,10=2,28=1/1;
 7//1,2,3,16;
 1/18=20,19=15,26=3/3(2);
 2/9=110/2;
 99//99;
 2/9=110/2;
 3/5=4,6=6,7=1212,11=2,25=1,30=1,70=2205,71=1,72=1,74=-55/1,2,3;
 4/5=5,16=3,69=1/1;
 5/5=2,38=5,53=1/2;
 7//1,2,3,16;
 1/18=20,19=15,26=3/3(-5);
 2/9=110/2;
 6/7=2,8=2,9=2,10=2,19=2,28=1/1;
 99/9=1/99;
 ---------------------------
 D_1a_4a_L_PSI.inp_extract_5
 ---------------------------
 Symbolic Z-matrix:
 Charge =  0 Multiplicity = 1
 C                     2.98101  -1.18243  -0.32975 
 C                     1.06322   0.73173   0.6988 
 C                    -1.87972   0.83137   1.11914 
 C                     3.06107   0.27374  -0.78803 
 C                    -2.91606  -1.0898   -0.12644 
 O                    -2.11255  -0.75132  -1.24185 
 C                     1.55675  -1.52605   0.07376 
 C                    -1.20947   1.25557  -0.19382 
 C                    -2.24825  -0.65618   1.16825 
 C                    -1.93469   0.6405   -1.37844 
 O                     1.064    -0.62422   1.05494 
 O                     0.1884    0.99647  -0.35594 
 C                     2.45843   1.18305   0.28376 
 H                     3.64108  -1.33737   0.5207 
 H                     3.29992  -1.85906  -1.11762 
 H                    -2.79548   1.41524   1.1706 
 H                     4.09176   0.55905  -0.97576 
 H                     2.5238    0.39241  -1.72519 
 H                     0.90088  -1.5143   -0.78954 
 H                     1.49926  -2.50652   0.52622 
 H                    -1.36861  -1.26516   1.32996 
 H                    -2.92627  -0.83862   1.99742 
 H                    -2.90573   1.11883  -1.48197 
 H                    -1.37383   0.80122  -2.28838 
 H                     3.08444   1.1562    1.17182 
 H                     2.4099    2.21413  -0.04949 
 H                     0.7545    1.25821   1.58742 
 H                    -3.88978  -0.61754  -0.23844 
 H                    -3.0526   -2.16215  -0.15941 
 H                    -1.2908    1.11681   1.98095 
 H                    -1.31489   2.33227  -0.27985 
 
 The following ModRedundant input section has been read:
 D       3       8      12       2 F                                           
 

 GradGradGradGradGradGradGradGradGradGradGradGradGradGradGradGradGradGrad
 Berny optimization.
 Initialization pass.
                           ----------------------------
                           !    Initial Parameters    !
                           ! (Angstroms and Degrees)  !
 --------------------------                            --------------------------
 ! Name  Definition              Value          Derivative Info.                !
 --------------------------------------------------------------------------------
 ! R1    R(1,4)                  1.5287         estimate D2E/DX2                !
 ! R2    R(1,7)                  1.5197         estimate D2E/DX2                !
 ! R3    R(1,14)                 1.0876         estimate D2E/DX2                !
 ! R4    R(1,15)                 1.0864         estimate D2E/DX2                !
 ! R5    R(2,11)                 1.4019         estimate D2E/DX2                !
 ! R6    R(2,12)                 1.3957         estimate D2E/DX2                !
 ! R7    R(2,13)                 1.524          estimate D2E/DX2                !
 ! R8    R(2,27)                 1.078          estimate D2E/DX2                !
 ! R9    R(3,8)                  1.534          estimate D2E/DX2                !
 ! R10   R(3,9)                  1.5333         estimate D2E/DX2                !
 ! R11   R(3,16)                 1.0873         estimate D2E/DX2                !
 ! R12   R(3,30)                 1.0821         estimate D2E/DX2                !
 ! R13   R(4,13)                 1.5293         estimate D2E/DX2                !
 ! R14   R(4,17)                 1.0858         estimate D2E/DX2                !
 ! R15   R(4,18)                 1.0867         estimate D2E/DX2                !
 ! R16   R(5,6)                  1.4157         estimate D2E/DX2                !
 ! R17   R(5,9)                  1.5199         estimate D2E/DX2                !
 ! R18   R(5,28)                 1.088          estimate D2E/DX2                !
 ! R19   R(5,29)                 1.0815         estimate D2E/DX2                !
 ! R20   R(6,10)                 1.4098         estimate D2E/DX2                !
 ! R21   R(7,11)                 1.4208         estimate D2E/DX2                !
 ! R22   R(7,19)                 1.0842         estimate D2E/DX2                !
 ! R23   R(7,20)                 1.0814         estimate D2E/DX2                !
 ! R24   R(8,10)                 1.5191         estimate D2E/DX2                !
 ! R25   R(8,12)                 1.4309         estimate D2E/DX2                !
 ! R26   R(8,31)                 1.0853         estimate D2E/DX2                !
 ! R27   R(9,21)                 1.082          estimate D2E/DX2                !
 ! R28   R(9,22)                 1.0865         estimate D2E/DX2                !
 ! R29   R(10,23)                1.0874         estimate D2E/DX2                !
 ! R30   R(10,24)                1.0809         estimate D2E/DX2                !
 ! R31   R(13,25)                1.0869         estimate D2E/DX2                !
 ! R32   R(13,26)                1.0847         estimate D2E/DX2                !
 ! A1    A(4,1,7)              110.1248         estimate D2E/DX2                !
 ! A2    A(4,1,14)             109.7748         estimate D2E/DX2                !
 ! A3    A(4,1,15)             111.1302         estimate D2E/DX2                !
 ! A4    A(7,1,14)             109.2053         estimate D2E/DX2                !
 ! A5    A(7,1,15)             109.0781         estimate D2E/DX2                !
 ! A6    A(14,1,15)            107.4687         estimate D2E/DX2                !
 ! A7    A(11,2,12)            112.0734         estimate D2E/DX2                !
 ! A8    A(11,2,13)            110.8            estimate D2E/DX2                !
 ! A9    A(11,2,27)            105.2546         estimate D2E/DX2                !
 ! A10   A(12,2,13)            108.1713         estimate D2E/DX2                !
 ! A11   A(12,2,27)            110.5365         estimate D2E/DX2                !
 ! A12   A(13,2,27)            110.0009         estimate D2E/DX2                !
 ! A13   A(8,3,9)              113.6233         estimate D2E/DX2                !
 ! A14   A(8,3,16)             105.0713         estimate D2E/DX2                !
 ! A15   A(8,3,30)             111.7722         estimate D2E/DX2                !
 ! A16   A(9,3,16)             108.4835         estimate D2E/DX2                !
 ! A17   A(9,3,30)             111.1736         estimate D2E/DX2                !
 ! A18   A(16,3,30)            106.2024         estimate D2E/DX2                !
 ! A19   A(1,4,13)             109.6124         estimate D2E/DX2                !
 ! A20   A(1,4,17)             110.6005         estimate D2E/DX2                !
 ! A21   A(1,4,18)             109.6732         estimate D2E/DX2                !
 ! A22   A(13,4,17)            109.8157         estimate D2E/DX2                !
 ! A23   A(13,4,18)            110.1587         estimate D2E/DX2                !
 ! A24   A(17,4,18)            106.9471         estimate D2E/DX2                !
 ! A25   A(6,5,9)              110.7033         estimate D2E/DX2                !
 ! A26   A(6,5,28)             108.8484         estimate D2E/DX2                !
 ! A27   A(6,5,29)             106.5405         estimate D2E/DX2                !
 ! A28   A(9,5,28)             110.9206         estimate D2E/DX2                !
 ! A29   A(9,5,29)             111.3648         estimate D2E/DX2                !
 ! A30   A(28,5,29)            108.3168         estimate D2E/DX2                !
 ! A31   A(5,6,10)             112.5804         estimate D2E/DX2                !
 ! A32   A(1,7,11)             111.3996         estimate D2E/DX2                !
 ! A33   A(1,7,19)             110.6751         estimate D2E/DX2                !
 ! A34   A(1,7,20)             111.465          estimate D2E/DX2                !
 ! A35   A(11,7,19)            109.4622         estimate D2E/DX2                !
 ! A36   A(11,7,20)            105.5517         estimate D2E/DX2                !
 ! A37   A(19,7,20)            108.1085         estimate D2E/DX2                !
 ! A38   A(3,8,10)             110.2979         estimate D2E/DX2                !
 ! A39   A(3,8,12)             118.2787         estimate D2E/DX2                !
 ! A40   A(3,8,31)             107.4428         estimate D2E/DX2                !
 ! A41   A(10,8,12)            107.7413         estimate D2E/DX2                !
 ! A42   A(10,8,31)            107.0686         estimate D2E/DX2                !
 ! A43   A(12,8,31)            105.4009         estimate D2E/DX2                !
 ! A44   A(3,9,5)              110.7991         estimate D2E/DX2                !
 ! A45   A(3,9,21)             110.8187         estimate D2E/DX2                !
 ! A46   A(3,9,22)             109.7147         estimate D2E/DX2                !
 ! A47   A(5,9,21)             108.9003         estimate D2E/DX2                !
 ! A48   A(5,9,22)             109.1453         estimate D2E/DX2                !
 ! A49   A(21,9,22)            107.383          estimate D2E/DX2                !
 ! A50   A(6,10,8)             112.6079         estimate D2E/DX2                !
 ! A51   A(6,10,23)            109.3199         estimate D2E/DX2                !
 ! A52   A(6,10,24)            107.087          estimate D2E/DX2                !
 ! A53   A(8,10,23)            108.8117         estimate D2E/DX2                !
 ! A54   A(8,10,24)            110.3991         estimate D2E/DX2                !
 ! A55   A(23,10,24)           108.5296         estimate D2E/DX2                !
 ! A56   A(2,11,7)             116.0177         estimate D2E/DX2                !
 ! A57   A(2,12,8)             124.13           estimate D2E/DX2                !
 ! A58   A(2,13,4)             112.0576         estimate D2E/DX2                !
 ! A59   A(2,13,25)            107.3053         estimate D2E/DX2                !
 ! A60   A(2,13,26)            108.9185         estimate D2E/DX2                !
 ! A61   A(4,13,25)            109.3284         estimate D2E/DX2                !
 ! A62   A(4,13,26)            111.5631         estimate D2E/DX2                !
 ! A63   A(25,13,26)           107.475          estimate D2E/DX2                !
 ! D1    D(7,1,4,13)            52.6615         estimate D2E/DX2                !
 ! D2    D(7,1,4,17)           173.8862         estimate D2E/DX2                !
 ! D3    D(7,1,4,18)           -68.3976         estimate D2E/DX2                !
 ! D4    D(14,1,4,13)          -67.6063         estimate D2E/DX2                !
 ! D5    D(14,1,4,17)           53.6184         estimate D2E/DX2                !
 ! D6    D(14,1,4,18)          171.3346         estimate D2E/DX2                !
 ! D7    D(15,1,4,13)          173.6471         estimate D2E/DX2                !
 ! D8    D(15,1,4,17)          -65.1282         estimate D2E/DX2                !
 ! D9    D(15,1,4,18)           52.588          estimate D2E/DX2                !
 ! D10   D(4,1,7,11)           -54.7171         estimate D2E/DX2                !
 ! D11   D(4,1,7,19)            67.3138         estimate D2E/DX2                !
 ! D12   D(4,1,7,20)          -172.3311         estimate D2E/DX2                !
 ! D13   D(14,1,7,11)           65.8937         estimate D2E/DX2                !
 ! D14   D(14,1,7,19)         -172.0754         estimate D2E/DX2                !
 ! D15   D(14,1,7,20)          -51.7203         estimate D2E/DX2                !
 ! D16   D(15,1,7,11)         -176.9238         estimate D2E/DX2                !
 ! D17   D(15,1,7,19)          -54.8929         estimate D2E/DX2                !
 ! D18   D(15,1,7,20)           65.4621         estimate D2E/DX2                !
 ! D19   D(12,2,11,7)           65.2282         estimate D2E/DX2                !
 ! D20   D(13,2,11,7)          -55.7043         estimate D2E/DX2                !
 ! D21   D(27,2,11,7)         -174.5753         estimate D2E/DX2                !
 ! D22   D(11,2,12,8)           85.2178         estimate D2E/DX2                !
 ! D23   D(13,2,12,8)         -152.3427         estimate D2E/DX2                !
 ! D24   D(27,2,12,8)          -31.8535         estimate D2E/DX2                !
 ! D25   D(11,2,13,4)           52.2333         estimate D2E/DX2                !
 ! D26   D(11,2,13,25)         -67.7866         estimate D2E/DX2                !
 ! D27   D(11,2,13,26)         176.1558         estimate D2E/DX2                !
 ! D28   D(12,2,13,4)          -70.9813         estimate D2E/DX2                !
 ! D29   D(12,2,13,25)         168.9989         estimate D2E/DX2                !
 ! D30   D(12,2,13,26)          52.9413         estimate D2E/DX2                !
 ! D31   D(27,2,13,4)          168.1958         estimate D2E/DX2                !
 ! D32   D(27,2,13,25)          48.176          estimate D2E/DX2                !
 ! D33   D(27,2,13,26)         -67.8816         estimate D2E/DX2                !
 ! D34   D(9,3,8,10)            43.6665         estimate D2E/DX2                !
 ! D35   D(9,3,8,12)           -80.9375         estimate D2E/DX2                !
 ! D36   D(9,3,8,31)           160.0418         estimate D2E/DX2                !
 ! D37   D(16,3,8,10)          -74.7666         estimate D2E/DX2                !
 ! D38   D(16,3,8,12)          160.6294         estimate D2E/DX2                !
 ! D39   D(16,3,8,31)           41.6086         estimate D2E/DX2                !
 ! D40   D(30,3,8,10)          170.4794         estimate D2E/DX2                !
 ! D41   D(30,3,8,12)           45.8754         estimate D2E/DX2                !
 ! D42   D(30,3,8,31)          -73.1453         estimate D2E/DX2                !
 ! D43   D(8,3,9,5)            -45.4834         estimate D2E/DX2                !
 ! D44   D(8,3,9,21)            75.5233         estimate D2E/DX2                !
 ! D45   D(8,3,9,22)          -166.0664         estimate D2E/DX2                !
 ! D46   D(16,3,9,5)            70.9683         estimate D2E/DX2                !
 ! D47   D(16,3,9,21)         -168.025          estimate D2E/DX2                !
 ! D48   D(16,3,9,22)          -49.6148         estimate D2E/DX2                !
 ! D49   D(30,3,9,5)          -172.6091         estimate D2E/DX2                !
 ! D50   D(30,3,9,21)          -51.6025         estimate D2E/DX2                !
 ! D51   D(30,3,9,22)           66.8078         estimate D2E/DX2                !
 ! D52   D(1,4,13,2)           -51.9798         estimate D2E/DX2                !
 ! D53   D(1,4,13,25)           66.8526         estimate D2E/DX2                !
 ! D54   D(1,4,13,26)         -174.4107         estimate D2E/DX2                !
 ! D55   D(17,4,13,2)         -173.6766         estimate D2E/DX2                !
 ! D56   D(17,4,13,25)         -54.8442         estimate D2E/DX2                !
 ! D57   D(17,4,13,26)          63.8925         estimate D2E/DX2                !
 ! D58   D(18,4,13,2)           68.7855         estimate D2E/DX2                !
 ! D59   D(18,4,13,25)        -172.3821         estimate D2E/DX2                !
 ! D60   D(18,4,13,26)         -53.6454         estimate D2E/DX2                !
 ! D61   D(9,5,6,10)           -63.1347         estimate D2E/DX2                !
 ! D62   D(28,5,6,10)           59.0309         estimate D2E/DX2                !
 ! D63   D(29,5,6,10)          175.6332         estimate D2E/DX2                !
 ! D64   D(6,5,9,3)             53.5831         estimate D2E/DX2                !
 ! D65   D(6,5,9,21)           -68.5513         estimate D2E/DX2                !
 ! D66   D(6,5,9,22)           174.5037         estimate D2E/DX2                !
 ! D67   D(28,5,9,3)           -67.3621         estimate D2E/DX2                !
 ! D68   D(28,5,9,21)          170.5036         estimate D2E/DX2                !
 ! D69   D(28,5,9,22)           53.5586         estimate D2E/DX2                !
 ! D70   D(29,5,9,3)           171.9195         estimate D2E/DX2                !
 ! D71   D(29,5,9,21)           49.7851         estimate D2E/DX2                !
 ! D72   D(29,5,9,22)          -67.1599         estimate D2E/DX2                !
 ! D73   D(5,6,10,8)            62.4504         estimate D2E/DX2                !
 ! D74   D(5,6,10,23)          -58.623          estimate D2E/DX2                !
 ! D75   D(5,6,10,24)         -176.0151         estimate D2E/DX2                !
 ! D76   D(1,7,11,2)            57.815          estimate D2E/DX2                !
 ! D77   D(19,7,11,2)          -64.9147         estimate D2E/DX2                !
 ! D78   D(20,7,11,2)          178.948          estimate D2E/DX2                !
 ! D79   D(3,8,10,6)           -51.0385         estimate D2E/DX2                !
 ! D80   D(3,8,10,23)           70.3247         estimate D2E/DX2                !
 ! D81   D(3,8,10,24)         -170.671          estimate D2E/DX2                !
 ! D82   D(12,8,10,6)           79.404          estimate D2E/DX2                !
 ! D83   D(12,8,10,23)        -159.2327         estimate D2E/DX2                !
 ! D84   D(12,8,10,24)         -40.2285         estimate D2E/DX2                !
 ! D85   D(31,8,10,6)         -167.647          estimate D2E/DX2                !
 ! D86   D(31,8,10,23)         -46.2837         estimate D2E/DX2                !
 ! D87   D(31,8,10,24)          72.7205         estimate D2E/DX2                !
 ! D88   D(3,8,12,2)           -18.5181         Frozen                          !
 ! D89   D(10,8,12,2)         -144.3703         estimate D2E/DX2                !
 ! D90   D(31,8,12,2)          101.5642         estimate D2E/DX2                !
 --------------------------------------------------------------------------------
 Trust Radius=3.00D-01 FncErr=1.00D-07 GrdErr=1.00D-06 EigMax=2.50D+02 EigMin=1.00D-04
 Number of steps in this run=    186 maximum allowed number of steps=    186.
 GradGradGradGradGradGradGradGradGradGradGradGradGradGradGradGradGradGrad

                          Input orientation:                          
 ---------------------------------------------------------------------
 Center     Atomic      Atomic             Coordinates (Angstroms)
 Number     Number       Type             X           Y           Z
 ---------------------------------------------------------------------
      1          6           0        2.981008   -1.182434   -0.329749
      2          6           0        1.063222    0.731729    0.698795
      3          6           0       -1.879722    0.831369    1.119140
      4          6           0        3.061067    0.273738   -0.788027
      5          6           0       -2.916064   -1.089802   -0.126441
      6          8           0       -2.112554   -0.751322   -1.241846
      7          6           0        1.556745   -1.526045    0.073756
      8          6           0       -1.209465    1.255571   -0.193823
      9          6           0       -2.248250   -0.656177    1.168254
     10          6           0       -1.934687    0.640496   -1.378437
     11          8           0        1.063998   -0.624223    1.054940
     12          8           0        0.188399    0.996469   -0.355944
     13          6           0        2.458429    1.183051    0.283756
     14          1           0        3.641079   -1.337373    0.520701
     15          1           0        3.299922   -1.859059   -1.117621
     16          1           0       -2.795476    1.415242    1.170598
     17          1           0        4.091755    0.559050   -0.975764
     18          1           0        2.523801    0.392414   -1.725191
     19          1           0        0.900875   -1.514301   -0.789542
     20          1           0        1.499259   -2.506521    0.526222
     21          1           0       -1.368606   -1.265156    1.329959
     22          1           0       -2.926269   -0.838622    1.997422
     23          1           0       -2.905730    1.118830   -1.481965
     24          1           0       -1.373830    0.801216   -2.288377
     25          1           0        3.084440    1.156195    1.171824
     26          1           0        2.409904    2.214127   -0.049488
     27          1           0        0.754501    1.258210    1.587415
     28          1           0       -3.889778   -0.617544   -0.238440
     29          1           0       -3.052598   -2.162154   -0.159407
     30          1           0       -1.290795    1.116809    1.980954
     31          1           0       -1.314893    2.332270   -0.279845
 ---------------------------------------------------------------------
                    Distance matrix (angstroms):
                    1          2          3          4          5
     1  C    0.000000
     2  C    2.898245   0.000000
     3  C    5.457232   2.974481   0.000000
     4  C    1.528681   2.532149   5.325376   0.000000
     5  C    5.901303   4.453505   2.513240   6.166282   0.000000
     6  O    5.192509   4.006380   2.851908   5.293681   1.415742
     7  C    1.519674   2.394114   4.296456   2.498974   4.498489
     8  C    4.849991   2.497255   1.533970   4.422049   2.901344
     9  C    5.464988   3.621122   1.533303   5.734163   1.519948
    10  C    5.346670   3.648380   2.505463   5.043873   2.350431
    11  O    2.429792   1.401944   3.284563   2.862018   4.177717
    12  O    3.542170   1.395664   2.545635   2.993536   3.747384
    13  C    2.498999   1.523992   4.431828   1.529294   5.849726
    14  H    1.087642   3.310324   5.961612   2.155194   6.593649
    15  H    1.086402   3.874839   6.250617   2.171292   6.341347
    16  H    6.508973   3.947067   1.087272   6.279995   2.823490
    17  H    2.164223   3.464964   6.334139   1.085802   7.249110
    18  H    2.153240   2.850287   5.260600   1.086745   5.860469
    19  H    2.156038   2.699288   4.108157   2.804196   3.897297
    20  H    2.163671   3.272029   4.786499   3.449106   4.682749
    21  H    4.656245   3.209315   2.168202   5.145490   2.132247
    22  H    6.358447   4.479785   2.157663   6.696586   2.138689
    23  H    6.424726   4.545123   2.810885   6.066168   2.591449
    24  H    5.170658   3.855807   3.444998   4.711432   3.260123
    25  H    2.781116   2.118785   4.975057   2.149487   6.537281
    26  H    3.455623   2.137986   4.656029   2.175905   6.267998
    27  H    3.819633   1.078024   2.709355   3.454295   4.682255
    28  H    6.894573   5.218348   2.825367   7.029273   1.087975
    29  H    6.115004   5.104022   3.459986   6.611024   1.081511
    30  H    5.373469   2.708065   1.082143   5.226541   3.457130
    31  H    5.550712   3.029010   2.128120   4.862595   3.781251
                    6          7          8          9         10
     6  O    0.000000
     7  C    3.974262   0.000000
     8  C    2.437528   3.932036   0.000000
     9  C    2.415791   4.053712   2.566926   0.000000
    10  C    1.409770   4.358080   1.519070   2.874947   0.000000
    11  O    3.921972   1.420846   3.203384   3.314340   4.063613
    12  O    3.022248   2.901739   1.430888   3.315370   2.383213
    13  C    5.192605   2.862924   3.699566   5.130100   4.728289
    14  H    6.046017   2.140048   5.546321   5.963854   6.213522
    15  H    5.526066   2.137509   5.557778   6.119997   5.806628
    16  H    3.313649   5.366196   2.098230   2.142484   2.799780
    17  H    6.346757   3.446069   5.403657   6.802151   6.040429
    18  H    4.799744   2.802123   4.126427   5.678383   4.478828
    19  H    3.141253   1.084245   3.532790   3.806091   3.609759
    20  H    4.387708   1.081371   4.691374   4.228451   5.032239
    21  H    2.726108   3.194337   2.949797   1.082025   3.359668
    22  H    3.341049   4.926505   3.483477   1.086515   3.816733
    23  H    2.045545   5.415655   2.134320   3.256776   1.087403
    24  H    2.012788   4.425391   2.149561   3.851870   1.080917
    25  H    6.039302   3.276281   4.506938   5.632254   5.653443
    26  H    5.537891   3.838223   3.746931   5.605349   4.808107
    27  H    4.501438   3.269072   2.651411   3.585678   4.050874
    28  H    2.045298   5.530592   3.270264   2.162150   2.589332
    29  H    2.011418   4.658867   3.883190   2.162782   3.254321
    30  H    3.814661   4.327882   2.180717   2.172713   3.453546
    31  H    3.327198   4.822648   1.085263   3.449487   2.110248
                   11         12         13         14         15
    11  O    0.000000
    12  O    2.320325   0.000000
    13  C    2.409440   2.365812   0.000000
    14  H    2.726782   4.258676   2.794162   0.000000
    15  H    3.353237   4.291360   3.453462   1.752896   0.000000
    16  H    4.366730   3.377752   5.333284   7.030540   7.287720
    17  H    3.832911   3.976393   2.154883   2.457425   2.548406
    18  H    3.300561   2.773774   2.159919   3.047048   2.457770
    19  H    2.054498   2.645675   3.294488   3.042492   2.445796
    20  H    2.003008   3.842852   3.819913   2.440150   2.522660
    21  H    2.530611   3.222031   4.662023   5.075141   5.304576
    22  H    4.105663   4.313589   6.001565   6.749779   7.036351
    23  H    5.023232   3.294925   5.647663   7.273535   6.892800
    24  H    4.376374   2.492585   4.631185   6.133009   5.503789
    25  H    2.695503   3.278207   1.086865   2.636606   3.792064
    26  H    3.329783   2.551801   1.084677   3.801850   4.303938
    27  H    1.980624   2.040986   2.146752   4.025824   4.849098
    28  H    5.119841   4.387525   6.619257   7.603174   7.348885
    29  H    4.559192   4.529855   6.462059   6.778504   6.431528
    30  H    3.071440   2.768319   4.116011   5.699011   6.287419
    31  H    4.022639   2.012472   3.984509   6.218425   6.290121
                   16         17         18         19         20
    16  H    0.000000
    17  H    7.264564   0.000000
    18  H    6.142188   1.745820   0.000000
    19  H    5.107581   3.809879   2.672993   0.000000
    20  H    5.851512   4.286575   3.810823   1.753225   0.000000
    21  H    3.040705   6.201583   5.218459   3.115269   3.226706
    22  H    2.404298   7.748934   6.713908   4.782336   4.952940
    23  H    2.671349   7.038067   5.483306   4.680072   6.048133
    24  H    3.789804   5.626208   3.959271   3.575249   5.207469
    25  H    5.885620   2.446099   3.048011   3.968181   4.042906
    26  H    5.405812   2.534934   2.477820   4.089746   4.842028
    27  H    3.577811   4.265674   3.854009   3.654883   3.981707
    28  H    2.704645   8.101413   6.660664   4.904920   5.761481
    29  H    3.825283   7.688509   6.330381   4.055457   4.616067
    30  H    1.734879   6.166451   5.367625   4.404748   4.798871
    31  H    2.266462   5.732404   4.537360   4.468280   5.655360
                   21         22         23         24         25
    21  H    0.000000
    22  H    1.747499   0.000000
    23  H    3.994128   3.992264   0.000000
    24  H    4.166806   4.844297   1.760084   0.000000
    25  H    5.071249   6.386668   6.551803   5.654659   0.000000
    26  H    5.318404   6.479495   5.613166   4.617963   1.750949
    27  H    3.307755   4.255923   4.778892   4.445267   2.368911
    28  H    3.039011   2.444648   2.351531   3.541909   7.333124
    29  H    2.420464   2.533694   3.540563   4.016508   7.102595
    30  H    2.470548   2.549266   3.820972   4.281785   4.449598
    31  H    3.941551   4.223391   2.334158   2.526223   4.779605
                   26         27         28         29         30
    26  H    0.000000
    27  H    2.516662   0.000000
    28  H    6.909418   5.331184   0.000000
    29  H    7.000203   5.407798   1.758675   0.000000
    30  H    4.361419   2.087607   3.832545   4.293797   0.000000
    31  H    3.733783   2.987082   3.915757   4.820163   2.566932
                   31
    31  H    0.000000
 Stoichiometry    C10H18O3
 Framework group  C1[X(C10H18O3)]
 Deg. of freedom    87
 Full point group                 C1      NOp   1
 Largest Abelian subgroup         C1      NOp   1
 Largest concise Abelian subgroup C1      NOp   1
                         Standard orientation:                         
 ---------------------------------------------------------------------
 Center     Atomic      Atomic             Coordinates (Angstroms)
 Number     Number       Type             X           Y           Z
 ---------------------------------------------------------------------
      1          6           0        2.981008    1.182434    0.329749
      2          6           0        1.063222   -0.731729   -0.698795
      3          6           0       -1.879722   -0.831369   -1.119140
      4          6           0        3.061067   -0.273738    0.788027
      5          6           0       -2.916064    1.089802    0.126441
      6          8           0       -2.112554    0.751322    1.241846
      7          6           0        1.556745    1.526045   -0.073756
      8          6           0       -1.209465   -1.255571    0.193823
      9          6           0       -2.248250    0.656177   -1.168254
     10          6           0       -1.934687   -0.640496    1.378437
     11          8           0        1.063998    0.624223   -1.054940
     12          8           0        0.188399   -0.996469    0.355944
     13          6           0        2.458429   -1.183051   -0.283756
     14          1           0        3.641079    1.337373   -0.520701
     15          1           0        3.299922    1.859059    1.117621
     16          1           0       -2.795476   -1.415242   -1.170598
     17          1           0        4.091755   -0.559050    0.975764
     18          1           0        2.523801   -0.392414    1.725191
     19          1           0        0.900875    1.514301    0.789542
     20          1           0        1.499259    2.506521   -0.526222
     21          1           0       -1.368606    1.265156   -1.329959
     22          1           0       -2.926269    0.838622   -1.997422
     23          1           0       -2.905730   -1.118830    1.481965
     24          1           0       -1.373830   -0.801216    2.288377
     25          1           0        3.084440   -1.156195   -1.171824
     26          1           0        2.409904   -2.214127    0.049488
     27          1           0        0.754501   -1.258210   -1.587415
     28          1           0       -3.889778    0.617544    0.238440
     29          1           0       -3.052598    2.162154    0.159407
     30          1           0       -1.290795   -1.116809   -1.980954
     31          1           0       -1.314893   -2.332270    0.279845
 ---------------------------------------------------------------------
 Rotational constants (GHZ):           1.5047189           0.5266692           0.5016148
 Standard basis: 6-311++G(2d,2p) (5D, 7F)
 There are   557 symmetry adapted cartesian basis functions of A   symmetry.
 There are   531 symmetry adapted basis functions of A   symmetry.
   531 basis functions,   762 primitive gaussians,   557 cartesian basis functions
    51 alpha electrons       51 beta electrons
       nuclear repulsion energy       919.2377827207 Hartrees.
 NAtoms=   31 NActive=   31 NUniq=   31 SFac= 1.00D+00 NAtFMM=   60 NAOKFM=F Big=F
 Integral buffers will be    131072 words long.
 Raffenetti 2 integral format.
 Two-electron integral symmetry is turned on.
 ------------------------------------------------------------------------------
 Polarizable Continuum Model (PCM)
 =================================
 Model                : PCM.
 Atomic radii         : UFF (Universal Force Field).
 Polarization charges : Total charges.
 Charge compensation  : None.
 Solution method      : On-the-fly selection.
 Cavity type          : Scaled VdW (van der Waals Surface) (Alpha=1.100).
 Cavity algorithm     : GePol (No added spheres)
                        Default sphere list used, NSphG=   31.
                        Lebedev-Laikov grids with approx.  5.0 points / Ang**2.
                        Smoothing algorithm: York/Karplus (Gamma=1.0000).
                        Polarization charges: spherical gaussians, with
                                              point-specific exponents (IZeta= 3).
                        Self-potential: point-specific (ISelfS= 7).
                        Self-field    : sphere-specific E.n sum rule (ISelfD= 2).
 1st derivatives      : Analytical E(r).r(x)/FMM algorithm (CHGder, D1EAlg=3).
                        Cavity 1st derivative terms included.
 Solvent              : Water, Eps=  78.355300 Eps(inf)=   1.777849
 ------------------------------------------------------------------------------
 One-electron integrals computed using PRISM.
 NBasis=   531 RedAO= T EigKep=  3.72D-06  NBF=   531
 NBsUse=   531 1.00D-06 EigRej= -1.00D+00 NBFU=   531
 ExpMin= 3.60D-02 ExpMax= 8.59D+03 ExpMxC= 1.30D+03 IAcc=3 IRadAn=         5 AccDes= 0.00D+00
 Harris functional with IExCor= 1009 and IRadAn=       5 diagonalized for initial guess.
 HarFok:  IExCor= 1009 AccDes= 0.00D+00 IRadAn=         5 IDoV= 1 UseB2=F ITyADJ=14
 ICtDFT=  3500011 ScaDFX=  1.000000  1.000000  1.000000  1.000000
 FoFCou: FMM=F IPFlag=           0 FMFlag=      100000 FMFlg1=           0
         NFxFlg=           0 DoJE=T BraDBF=F KetDBF=T FulRan=T
         wScrn=  0.000000 ICntrl=       500 IOpCl=  0 I1Cent=   200000004 NGrid=           0
         NMat0=    1 NMatS0=      1 NMatT0=    0 NMatD0=    1 NMtDS0=    0 NMtDT0=    0
 Petite list used in FoFCou.
 Requested convergence on RMS density matrix=1.00D-08 within 128 cycles.
 Requested convergence on MAX density matrix=1.00D-06.
 Requested convergence on             energy=1.00D-06.
 No special actions if energy rises.
 Inv3:  Mode=1 IEnd=    12399267.
 Iteration    1 A*A^-1 deviation from unit magnitude is 4.55D-15 for   2015.
 Iteration    1 A*A^-1 deviation from orthogonality  is 3.16D-15 for   2018    849.
 Iteration    1 A^-1*A deviation from unit magnitude is 4.11D-15 for   2015.
 Iteration    1 A^-1*A deviation from orthogonality  is 4.28D-14 for   1796   1775.
 Error on total polarization charges =  0.01452
 SCF Done:  E(RM062X) =  -617.493812509     A.U. after   13 cycles
            NFock= 13  Conv=0.23D-08     -V/T= 2.0035

 **********************************************************************

            Population analysis using the SCF density.

 **********************************************************************

 Orbital symmetries:
       Occupied  (A) (A) (A) (A) (A) (A) (A) (A) (A) (A) (A) (A)
                 (A) (A) (A) (A) (A) (A) (A) (A) (A) (A) (A) (A)
                 (A) (A) (A) (A) (A) (A) (A) (A) (A) (A) (A) (A)
                 (A) (A) (A) (A) (A) (A) (A) (A) (A) (A) (A) (A)
                 (A) (A) (A)
       Virtual   (A) (A) (A) (A) (A) (A) (A) (A) (A) (A) (A) (A)
                 (A) (A) (A) (A) (A) (A) (A) (A) (A) (A) (A) (A)
                 (A) (A) (A) (A) (A) (A) (A) (A) (A) (A) (A) (A)
                 (A) (A) (A) (A) (A) (A) (A) (A) (A) (A) (A) (A)
                 (A) (A) (A) (A) (A) (A) (A) (A) (A) (A) (A) (A)
                 (A) (A) (A) (A) (A) (A) (A) (A) (A) (A) (A) (A)
                 (A) (A) (A) (A) (A) (A) (A) (A) (A) (A) (A) (A)
                 (A) (A) (A) (A) (A) (A) (A) (A) (A) (A) (A) (A)
                 (A) (A) (A) (A) (A) (A) (A) (A) (A) (A) (A) (A)
                 (A) (A) (A) (A) (A) (A) (A) (A) (A) (A) (A) (A)
                 (A) (A) (A) (A) (A) (A) (A) (A) (A) (A) (A) (A)
                 (A) (A) (A) (A) (A) (A) (A) (A) (A) (A) (A) (A)
                 (A) (A) (A) (A) (A) (A) (A) (A) (A) (A) (A) (A)
                 (A) (A) (A) (A) (A) (A) (A) (A) (A) (A) (A) (A)
                 (A) (A) (A) (A) (A) (A) (A) (A) (A) (A) (A) (A)
                 (A) (A) (A) (A) (A) (A) (A) (A) (A) (A) (A) (A)
                 (A) (A) (A) (A) (A) (A) (A) (A) (A) (A) (A) (A)
                 (A) (A) (A) (A) (A) (A) (A) (A) (A) (A) (A) (A)
                 (A) (A) (A) (A) (A) (A) (A) (A) (A) (A) (A) (A)
                 (A) (A) (A) (A) (A) (A) (A) (A) (A) (A) (A) (A)
                 (A) (A) (A) (A) (A) (A) (A) (A) (A) (A) (A) (A)
                 (A) (A) (A) (A) (A) (A) (A) (A) (A) (A) (A) (A)
                 (A) (A) (A) (A) (A) (A) (A) (A) (A) (A) (A) (A)
                 (A) (A) (A) (A) (A) (A) (A) (A) (A) (A) (A) (A)
                 (A) (A) (A) (A) (A) (A) (A) (A) (A) (A) (A) (A)
                 (A) (A) (A) (A) (A) (A) (A) (A) (A) (A) (A) (A)
                 (A) (A) (A) (A) (A) (A) (A) (A) (A) (A) (A) (A)
                 (A) (A) (A) (A) (A) (A) (A) (A) (A) (A) (A) (A)
                 (A) (A) (A) (A) (A) (A) (A) (A) (A) (A) (A) (A)
                 (A) (A) (A) (A) (A) (A) (A) (A) (A) (A) (A) (A)
                 (A) (A) (A) (A) (A) (A) (A) (A) (A) (A) (A) (A)
                 (A) (A) (A) (A) (A) (A) (A) (A) (A) (A) (A) (A)
                 (A) (A) (A) (A) (A) (A) (A) (A) (A) (A) (A) (A)
                 (A) (A) (A) (A) (A) (A) (A) (A) (A) (A) (A) (A)
                 (A) (A) (A) (A) (A) (A) (A) (A) (A) (A) (A) (A)
                 (A) (A) (A) (A) (A) (A) (A) (A) (A) (A) (A) (A)
                 (A) (A) (A) (A) (A) (A) (A) (A) (A) (A) (A) (A)
                 (A) (A) (A) (A) (A) (A) (A) (A) (A) (A) (A) (A)
                 (A) (A) (A) (A) (A) (A) (A) (A) (A) (A) (A) (A)
                 (A) (A) (A) (A) (A) (A) (A) (A) (A) (A) (A) (A)
 The electronic state is 1-A.
 Alpha  occ. eigenvalues --  -19.62622 -19.62446 -19.62365 -10.63191 -10.58910
 Alpha  occ. eigenvalues --  -10.57792 -10.57603 -10.57358 -10.53492 -10.52819
 Alpha  occ. eigenvalues --  -10.52739 -10.52613 -10.52512  -1.19558  -1.16523
 Alpha  occ. eigenvalues --   -1.12989  -0.90694  -0.89407  -0.87625  -0.84634
 Alpha  occ. eigenvalues --   -0.75243  -0.73839  -0.73035  -0.71472  -0.66322
 Alpha  occ. eigenvalues --   -0.61856  -0.59976  -0.58059  -0.57600  -0.55405
 Alpha  occ. eigenvalues --   -0.53826  -0.53234  -0.53153  -0.51410  -0.49754
 Alpha  occ. eigenvalues --   -0.47210  -0.47011  -0.46266  -0.45609  -0.45124
 Alpha  occ. eigenvalues --   -0.43330  -0.42833  -0.40831  -0.39768  -0.39397
 Alpha  occ. eigenvalues --   -0.38234  -0.37711  -0.35914  -0.33759  -0.32922
 Alpha  occ. eigenvalues --   -0.31879
 Alpha virt. eigenvalues --   -0.00188   0.00795   0.00969   0.01000   0.02284
 Alpha virt. eigenvalues --    0.02588   0.02724   0.03213   0.03356   0.04727
 Alpha virt. eigenvalues --    0.04926   0.05015   0.05481   0.05619   0.07157
 Alpha virt. eigenvalues --    0.07777   0.07951   0.08546   0.08821   0.09364
 Alpha virt. eigenvalues --    0.09718   0.10726   0.11250   0.11539   0.11996
 Alpha virt. eigenvalues --    0.12427   0.12758   0.12974   0.13113   0.13311
 Alpha virt. eigenvalues --    0.14061   0.14314   0.14382   0.14714   0.15053
 Alpha virt. eigenvalues --    0.15209   0.15370   0.15521   0.15938   0.16333
 Alpha virt. eigenvalues --    0.16535   0.17042   0.17281   0.17454   0.18089
 Alpha virt. eigenvalues --    0.18316   0.18727   0.18879   0.19413   0.19540
 Alpha virt. eigenvalues --    0.19958   0.20390   0.20420   0.20704   0.21779
 Alpha virt. eigenvalues --    0.22352   0.22988   0.23193   0.23720   0.24068
 Alpha virt. eigenvalues --    0.24910   0.25488   0.26468   0.26770   0.27085
 Alpha virt. eigenvalues --    0.27748   0.28437   0.28618   0.29382   0.29649
 Alpha virt. eigenvalues --    0.29764   0.30447   0.31097   0.31604   0.32078
 Alpha virt. eigenvalues --    0.32436   0.32925   0.33919   0.33932   0.34809
 Alpha virt. eigenvalues --    0.35089   0.35391   0.35672   0.36019   0.36752
 Alpha virt. eigenvalues --    0.37179   0.37748   0.37965   0.38226   0.38384
 Alpha virt. eigenvalues --    0.38594   0.39050   0.39588   0.40446   0.40804
 Alpha virt. eigenvalues --    0.41844   0.42444   0.43989   0.44185   0.46014
 Alpha virt. eigenvalues --    0.47140   0.48735   0.49351   0.50716   0.51277
 Alpha virt. eigenvalues --    0.51780   0.52887   0.53322   0.55176   0.56560
 Alpha virt. eigenvalues --    0.57614   0.58519   0.59108   0.59896   0.59954
 Alpha virt. eigenvalues --    0.60371   0.60968   0.61296   0.61694   0.62347
 Alpha virt. eigenvalues --    0.62414   0.62964   0.63444   0.63917   0.64583
 Alpha virt. eigenvalues --    0.65631   0.66053   0.66558   0.67039   0.67590
 Alpha virt. eigenvalues --    0.68486   0.68733   0.69696   0.70306   0.70753
 Alpha virt. eigenvalues --    0.71077   0.71425   0.72406   0.72920   0.73985
 Alpha virt. eigenvalues --    0.74218   0.74697   0.75106   0.75468   0.76078
 Alpha virt. eigenvalues --    0.76340   0.77101   0.77811   0.78798   0.79417
 Alpha virt. eigenvalues --    0.80246   0.81837   0.84215   0.85588   0.86452
 Alpha virt. eigenvalues --    0.86777   0.86926   0.88974   0.89373   0.90087
 Alpha virt. eigenvalues --    0.91574   0.91773   0.94283   0.95634   0.97259
 Alpha virt. eigenvalues --    0.97886   0.99350   1.00579   1.01548   1.01940
 Alpha virt. eigenvalues --    1.03288   1.04162   1.04719   1.05814   1.07199
 Alpha virt. eigenvalues --    1.08164   1.08614   1.09509   1.10708   1.12107
 Alpha virt. eigenvalues --    1.13356   1.13816   1.15983   1.16288   1.17781
 Alpha virt. eigenvalues --    1.18261   1.18863   1.18959   1.19559   1.21060
 Alpha virt. eigenvalues --    1.21648   1.22338   1.23087   1.24499   1.24813
 Alpha virt. eigenvalues --    1.25173   1.26144   1.27152   1.27492   1.28710
 Alpha virt. eigenvalues --    1.29315   1.29973   1.30920   1.31340   1.32720
 Alpha virt. eigenvalues --    1.33224   1.33697   1.34843   1.35585   1.35868
 Alpha virt. eigenvalues --    1.36215   1.36951   1.37622   1.38224   1.39177
 Alpha virt. eigenvalues --    1.39755   1.40571   1.40905   1.41293   1.41757
 Alpha virt. eigenvalues --    1.42648   1.43521   1.44572   1.44925   1.45350
 Alpha virt. eigenvalues --    1.45770   1.46412   1.47340   1.47987   1.49574
 Alpha virt. eigenvalues --    1.49805   1.50498   1.51218   1.51342   1.52486
 Alpha virt. eigenvalues --    1.53840   1.55030   1.55248   1.55605   1.55957
 Alpha virt. eigenvalues --    1.56335   1.56828   1.58049   1.58675   1.59189
 Alpha virt. eigenvalues --    1.59681   1.60282   1.61305   1.61733   1.63792
 Alpha virt. eigenvalues --    1.64984   1.65095   1.66069   1.66783   1.66988
 Alpha virt. eigenvalues --    1.67854   1.68609   1.69326   1.70247   1.70551
 Alpha virt. eigenvalues --    1.74314   1.74998   1.75399   1.76662   1.78117
 Alpha virt. eigenvalues --    1.79375   1.80188   1.81384   1.82393   1.85534
 Alpha virt. eigenvalues --    1.87186   1.87866   1.92104   1.96323   1.99028
 Alpha virt. eigenvalues --    2.03832   2.07666   2.13698   2.20237   2.21566
 Alpha virt. eigenvalues --    2.24558   2.25669   2.33891   2.35730   2.38745
 Alpha virt. eigenvalues --    2.42809   2.44457   2.45290   2.47461   2.54079
 Alpha virt. eigenvalues --    2.60436   2.76725   2.77909   2.78445   2.83023
 Alpha virt. eigenvalues --    2.84011   2.86563   2.93073   2.93829   2.94237
 Alpha virt. eigenvalues --    2.95564   2.97836   2.98904   3.02751   3.04431
 Alpha virt. eigenvalues --    3.06613   3.07894   3.08921   3.11083   3.11404
 Alpha virt. eigenvalues --    3.12583   3.17731   3.18847   3.20246   3.21220
 Alpha virt. eigenvalues --    3.26010   3.27917   3.32264   3.33364   3.34382
 Alpha virt. eigenvalues --    3.36148   3.36919   3.38030   3.40905   3.41678
 Alpha virt. eigenvalues --    3.42072   3.44471   3.45150   3.45743   3.46265
 Alpha virt. eigenvalues --    3.48300   3.49135   3.49933   3.52286   3.52798
 Alpha virt. eigenvalues --    3.53668   3.54172   3.54827   3.55426   3.56035
 Alpha virt. eigenvalues --    3.56625   3.57679   3.58135   3.59570   3.59866
 Alpha virt. eigenvalues --    3.60317   3.61882   3.63815   3.64118   3.65439
 Alpha virt. eigenvalues --    3.67054   3.67819   3.69008   3.69561   3.70117
 Alpha virt. eigenvalues --    3.71475   3.71768   3.72293   3.73190   3.75055
 Alpha virt. eigenvalues --    3.75322   3.75701   3.76737   3.77601   3.78816
 Alpha virt. eigenvalues --    3.79485   3.80664   3.81969   3.82216   3.84681
 Alpha virt. eigenvalues --    3.84761   3.87733   3.89053   3.90723   3.92171
 Alpha virt. eigenvalues --    3.92900   3.93768   3.95213   3.97186   3.97880
 Alpha virt. eigenvalues --    3.99545   4.01241   4.02095   4.02488   4.03968
 Alpha virt. eigenvalues --    4.06063   4.06729   4.07154   4.07604   4.07947
 Alpha virt. eigenvalues --    4.08229   4.09057   4.09965   4.10673   4.11240
 Alpha virt. eigenvalues --    4.12806   4.12953   4.14781   4.15203   4.16574
 Alpha virt. eigenvalues --    4.17869   4.18676   4.19425   4.19777   4.20026
 Alpha virt. eigenvalues --    4.21768   4.23875   4.24449   4.25578   4.27606
 Alpha virt. eigenvalues --    4.27888   4.28939   4.29678   4.31420   4.32797
 Alpha virt. eigenvalues --    4.33682   4.33942   4.34346   4.37475   4.40009
 Alpha virt. eigenvalues --    4.41593   4.42950   4.45647   4.47561   4.49819
 Alpha virt. eigenvalues --    4.58452   4.61547   4.73307   4.75894   4.81071
 Alpha virt. eigenvalues --    4.85382   4.93927   4.95613   5.00538   5.02925
 Alpha virt. eigenvalues --    5.06120   5.07676   5.08406   5.10123   5.11448
 Alpha virt. eigenvalues --    5.12577   5.14539   5.16484   5.33357   5.41531
 Alpha virt. eigenvalues --    5.42330   5.58543   5.60332   5.66047   5.86656
 Alpha virt. eigenvalues --    5.87699   6.04493   7.01638   7.06399   7.07958
 Alpha virt. eigenvalues --    7.09493   7.10251   7.12885   7.15503   7.19354
 Alpha virt. eigenvalues --    7.31596   7.36230   7.42669   7.48110   7.52169
 Alpha virt. eigenvalues --    7.54120   7.62794  23.95703  23.97345  24.06245
 Alpha virt. eigenvalues --   24.08732  24.11196  24.11831  24.14048  24.15301
 Alpha virt. eigenvalues --   24.16295  24.20889  50.16021  50.17711  50.28831
          Condensed to atoms (all electrons):
               1          2          3          4          5          6
     1  C    5.946381   0.188158   0.013455  -0.077157   0.012705  -0.004769
     2  C    0.188158   7.412315   0.299672  -0.117904   0.034940  -0.014344
     3  C    0.013455   0.299672   7.660176   0.105357  -0.065945   0.041298
     4  C   -0.077157  -0.117904   0.105357   5.841393  -0.012823   0.001324
     5  C    0.012705   0.034940  -0.065945  -0.012823   5.738413   0.106824
     6  O   -0.004769  -0.014344   0.041298   0.001324   0.106824   8.246157
     7  C   -0.181789  -0.349103   0.038813   0.041995  -0.019188   0.000865
     8  C   -0.030975  -0.876739  -2.181760  -0.065153   0.359158  -0.069231
     9  C   -0.021934  -0.036181  -0.716951  -0.020539  -0.215892   0.025070
    10  C    0.023222   0.151769   0.865710  -0.009276  -0.337079   0.190544
    11  O   -0.108631   0.269125   0.014091   0.013868  -0.025417   0.002538
    12  O   -0.021220   0.198832   0.062046  -0.006617  -0.048878   0.024649
    13  C   -0.035064  -1.441089  -0.377036  -0.257401   0.022465  -0.000822
    14  H    0.472786   0.009481   0.001921  -0.007347   0.000610  -0.000087
    15  H    0.444341   0.011190   0.001931  -0.051516   0.000053  -0.000073
    16  H    0.000436  -0.006727   0.522027   0.002174  -0.025428   0.003825
    17  H   -0.015709   0.017393  -0.000289   0.416027   0.000171  -0.000016
    18  H   -0.065531  -0.027583  -0.002007   0.518982   0.000784   0.000559
    19  H   -0.094946  -0.012677  -0.001819   0.011398   0.005294   0.001951
    20  H   -0.006615  -0.009840  -0.003718   0.007571   0.000697   0.001113
    21  H   -0.008531  -0.011115   0.025301  -0.000213  -0.108218  -0.018682
    22  H   -0.000343   0.005274  -0.092722  -0.000684  -0.036024   0.009260
    23  H    0.000225  -0.009334  -0.097666  -0.002602  -0.006642  -0.067574
    24  H   -0.001017   0.006051   0.020101   0.004775   0.004874  -0.072450
    25  H   -0.010617  -0.165966  -0.007911  -0.008789  -0.000710   0.000200
    26  H   -0.010652  -0.004311   0.008686  -0.025808   0.000044  -0.000071
    27  H    0.017658   0.546182   0.002971  -0.029828   0.023429  -0.001628
    28  H   -0.001162  -0.000115  -0.109536  -0.000016   0.442334  -0.070462
    29  H   -0.000211   0.001071   0.021294   0.000267   0.446426  -0.066693
    30  H    0.002367   0.004379   0.362155   0.003038  -0.009122  -0.002422
    31  H   -0.001364  -0.016636  -0.046206  -0.001978  -0.014030   0.007801
               7          8          9         10         11         12
     1  C   -0.181789  -0.030975  -0.021934   0.023222  -0.108631  -0.021220
     2  C   -0.349103  -0.876739  -0.036181   0.151769   0.269125   0.198832
     3  C    0.038813  -2.181760  -0.716951   0.865710   0.014091   0.062046
     4  C    0.041995  -0.065153  -0.020539  -0.009276   0.013868  -0.006617
     5  C   -0.019188   0.359158  -0.215892  -0.337079  -0.025417  -0.048878
     6  O    0.000865  -0.069231   0.025070   0.190544   0.002538   0.024649
     7  C    5.565380   0.024089  -0.012515   0.017831   0.136145   0.010283
     8  C    0.024089   9.093336   0.349112  -1.592809   0.035123  -0.072785
     9  C   -0.012515   0.349112   6.070134  -0.091663   0.020051   0.048890
    10  C    0.017831  -1.592809  -0.091663   6.562774  -0.015611  -0.061517
    11  O    0.136145   0.035123   0.020051  -0.015611   8.199338  -0.026832
    12  O    0.010283  -0.072785   0.048890  -0.061517  -0.026832   8.311895
    13  C    0.061071   0.523153   0.056387  -0.119940  -0.100805  -0.059979
    14  H   -0.083313  -0.005538  -0.000401  -0.000147  -0.001264   0.000010
    15  H   -0.038488  -0.002011  -0.001547   0.003071   0.011509   0.000029
    16  H    0.001921  -0.094037  -0.059826   0.018844   0.000148   0.003173
    17  H    0.006326   0.006609  -0.000671  -0.003247  -0.006534  -0.000043
    18  H    0.001214  -0.000091   0.000170   0.002892   0.001729  -0.003127
    19  H    0.478895  -0.010030   0.003617  -0.021451  -0.027365   0.006916
    20  H    0.428311   0.004492  -0.001735   0.002419  -0.068712   0.000536
    21  H    0.010835  -0.079251   0.499963   0.058158  -0.017165   0.001566
    22  H   -0.000814   0.027908   0.475224  -0.014954   0.005883   0.001710
    23  H   -0.001750   0.061058   0.050623   0.408917  -0.000113   0.004912
    24  H    0.001884  -0.057489   0.002839   0.431606   0.002165   0.001653
    25  H    0.013692   0.011826   0.004407  -0.001450  -0.008663   0.011603
    26  H    0.010487  -0.018249  -0.003319   0.008235   0.011443  -0.005430
    27  H   -0.035836   0.002307  -0.028817  -0.017899  -0.059200  -0.025613
    28  H    0.000529   0.092307   0.029265  -0.037807  -0.000702  -0.000912
    29  H   -0.000613   0.010997  -0.059859  -0.010983   0.000907   0.000351
    30  H    0.004752   0.047061  -0.007345  -0.008011  -0.006543  -0.015938
    31  H    0.000319   0.442294   0.019991  -0.037195  -0.000167  -0.043372
              13         14         15         16         17         18
     1  C   -0.035064   0.472786   0.444341   0.000436  -0.015709  -0.065531
     2  C   -1.441089   0.009481   0.011190  -0.006727   0.017393  -0.027583
     3  C   -0.377036   0.001921   0.001931   0.522027  -0.000289  -0.002007
     4  C   -0.257401  -0.007347  -0.051516   0.002174   0.416027   0.518982
     5  C    0.022465   0.000610   0.000053  -0.025428   0.000171   0.000784
     6  O   -0.000822  -0.000087  -0.000073   0.003825  -0.000016   0.000559
     7  C    0.061071  -0.083313  -0.038488   0.001921   0.006326   0.001214
     8  C    0.523153  -0.005538  -0.002011  -0.094037   0.006609  -0.000091
     9  C    0.056387  -0.000401  -0.001547  -0.059826  -0.000671   0.000170
    10  C   -0.119940  -0.000147   0.003071   0.018844  -0.003247   0.002892
    11  O   -0.100805  -0.001264   0.011509   0.000148  -0.006534   0.001729
    12  O   -0.059979   0.000010   0.000029   0.003173  -0.000043  -0.003127
    13  C    7.451141  -0.017940  -0.009989  -0.010061  -0.047627  -0.037481
    14  H   -0.017940   0.486142  -0.012804  -0.000042  -0.000687   0.000957
    15  H   -0.009989  -0.012804   0.488811   0.000098  -0.008612  -0.003669
    16  H   -0.010061  -0.000042   0.000098   0.429213   0.000073  -0.000228
    17  H   -0.047627  -0.000687  -0.008612   0.000073   0.465971  -0.006393
    18  H   -0.037481   0.000957  -0.003669  -0.000228  -0.006393   0.459833
    19  H    0.024291   0.005892  -0.002193  -0.000946  -0.001676  -0.000816
    20  H   -0.001300  -0.007860  -0.008530   0.000125   0.001533  -0.002472
    21  H   -0.028079  -0.000278   0.001013   0.010889   0.000002  -0.000662
    22  H    0.005269   0.000148  -0.000206  -0.012669  -0.000012   0.000089
    23  H    0.008317   0.000011  -0.000076  -0.009904  -0.000030   0.000267
    24  H   -0.013997  -0.000157   0.000190   0.001107   0.000143  -0.001772
    25  H    0.540666  -0.003765  -0.001770  -0.000163  -0.002226   0.001120
    26  H    0.394132  -0.001663   0.001520   0.000466  -0.009144  -0.002119
    27  H   -0.080102   0.001182   0.001034  -0.000030   0.002257  -0.003034
    28  H   -0.001468  -0.000034   0.000093  -0.008703  -0.000025  -0.000015
    29  H    0.001872   0.000045  -0.000214  -0.001810   0.000023   0.000090
    30  H   -0.001929  -0.000554   0.000189  -0.000696  -0.000143   0.000080
    31  H    0.020933  -0.000037  -0.000172  -0.015257   0.000049   0.000524
              19         20         21         22         23         24
     1  C   -0.094946  -0.006615  -0.008531  -0.000343   0.000225  -0.001017
     2  C   -0.012677  -0.009840  -0.011115   0.005274  -0.009334   0.006051
     3  C   -0.001819  -0.003718   0.025301  -0.092722  -0.097666   0.020101
     4  C    0.011398   0.007571  -0.000213  -0.000684  -0.002602   0.004775
     5  C    0.005294   0.000697  -0.108218  -0.036024  -0.006642   0.004874
     6  O    0.001951   0.001113  -0.018682   0.009260  -0.067574  -0.072450
     7  C    0.478895   0.428311   0.010835  -0.000814  -0.001750   0.001884
     8  C   -0.010030   0.004492  -0.079251   0.027908   0.061058  -0.057489
     9  C    0.003617  -0.001735   0.499963   0.475224   0.050623   0.002839
    10  C   -0.021451   0.002419   0.058158  -0.014954   0.408917   0.431606
    11  O   -0.027365  -0.068712  -0.017165   0.005883  -0.000113   0.002165
    12  O    0.006916   0.000536   0.001566   0.001710   0.004912   0.001653
    13  C    0.024291  -0.001300  -0.028079   0.005269   0.008317  -0.013997
    14  H    0.005892  -0.007860  -0.000278   0.000148   0.000011  -0.000157
    15  H   -0.002193  -0.008530   0.001013  -0.000206  -0.000076   0.000190
    16  H   -0.000946   0.000125   0.010889  -0.012669  -0.009904   0.001107
    17  H   -0.001676   0.001533   0.000002  -0.000012  -0.000030   0.000143
    18  H   -0.000816  -0.002472  -0.000662   0.000089   0.000267  -0.001772
    19  H    0.507278  -0.019411  -0.007096   0.000778   0.001388  -0.002391
    20  H   -0.019411   0.479830   0.001492  -0.000234  -0.000032   0.000300
    21  H   -0.007096   0.001492   0.516992  -0.025912  -0.004325   0.000042
    22  H    0.000778  -0.000234  -0.025912   0.467578   0.002791   0.000718
    23  H    0.001388  -0.000032  -0.004325   0.002791   0.474519  -0.003286
    24  H   -0.002391   0.000300   0.000042   0.000718  -0.003286   0.476252
    25  H   -0.001160   0.001132  -0.000175   0.000142   0.000180   0.000196
    26  H   -0.000775   0.000905   0.000720  -0.000230  -0.000372   0.000216
    27  H    0.001281  -0.001415  -0.000512  -0.001701  -0.000418   0.000640
    28  H    0.000174   0.000187   0.001035   0.006562   0.004295  -0.001681
    29  H    0.001053  -0.000944  -0.010666  -0.006526   0.000352   0.001367
    30  H   -0.000598   0.000504  -0.007734  -0.006025   0.000451   0.000354
    31  H   -0.000029   0.000043  -0.001173   0.001549   0.004048  -0.016587
              25         26         27         28         29         30
     1  C   -0.010617  -0.010652   0.017658  -0.001162  -0.000211   0.002367
     2  C   -0.165966  -0.004311   0.546182  -0.000115   0.001071   0.004379
     3  C   -0.007911   0.008686   0.002971  -0.109536   0.021294   0.362155
     4  C   -0.008789  -0.025808  -0.029828  -0.000016   0.000267   0.003038
     5  C   -0.000710   0.000044   0.023429   0.442334   0.446426  -0.009122
     6  O    0.000200  -0.000071  -0.001628  -0.070462  -0.066693  -0.002422
     7  C    0.013692   0.010487  -0.035836   0.000529  -0.000613   0.004752
     8  C    0.011826  -0.018249   0.002307   0.092307   0.010997   0.047061
     9  C    0.004407  -0.003319  -0.028817   0.029265  -0.059859  -0.007345
    10  C   -0.001450   0.008235  -0.017899  -0.037807  -0.010983  -0.008011
    11  O   -0.008663   0.011443  -0.059200  -0.000702   0.000907  -0.006543
    12  O    0.011603  -0.005430  -0.025613  -0.000912   0.000351  -0.015938
    13  C    0.540666   0.394132  -0.080102  -0.001468   0.001872  -0.001929
    14  H   -0.003765  -0.001663   0.001182  -0.000034   0.000045  -0.000554
    15  H   -0.001770   0.001520   0.001034   0.000093  -0.000214   0.000189
    16  H   -0.000163   0.000466  -0.000030  -0.008703  -0.001810  -0.000696
    17  H   -0.002226  -0.009144   0.002257  -0.000025   0.000023  -0.000143
    18  H    0.001120  -0.002119  -0.003034  -0.000015   0.000090   0.000080
    19  H   -0.001160  -0.000775   0.001281   0.000174   0.001053  -0.000598
    20  H    0.001132   0.000905  -0.001415   0.000187  -0.000944   0.000504
    21  H   -0.000175   0.000720  -0.000512   0.001035  -0.010666  -0.007734
    22  H    0.000142  -0.000230  -0.001701   0.006562  -0.006526  -0.006025
    23  H    0.000180  -0.000372  -0.000418   0.004295   0.000352   0.000451
    24  H    0.000196   0.000216   0.000640  -0.001681   0.001367   0.000354
    25  H    0.450377  -0.002817  -0.015142  -0.000027  -0.000008   0.001471
    26  H   -0.002817   0.475385  -0.011147   0.000080  -0.000054  -0.000097
    27  H   -0.015142  -0.011147   0.469813  -0.000859   0.000435  -0.010901
    28  H   -0.000027   0.000080  -0.000859   0.498227  -0.006916   0.000229
    29  H   -0.000008  -0.000054   0.000435  -0.006916   0.483231   0.000599
    30  H    0.001471  -0.000097  -0.010901   0.000229   0.000599   0.487469
    31  H    0.000011  -0.001774  -0.003991   0.004900   0.000288  -0.004221
              31
     1  C   -0.001364
     2  C   -0.016636
     3  C   -0.046206
     4  C   -0.001978
     5  C   -0.014030
     6  O    0.007801
     7  C    0.000319
     8  C    0.442294
     9  C    0.019991
    10  C   -0.037195
    11  O   -0.000167
    12  O   -0.043372
    13  C    0.020933
    14  H   -0.000037
    15  H   -0.000172
    16  H   -0.015257
    17  H    0.000049
    18  H    0.000524
    19  H   -0.000029
    20  H    0.000043
    21  H   -0.001173
    22  H    0.001549
    23  H    0.004048
    24  H   -0.016587
    25  H    0.000011
    26  H   -0.001774
    27  H   -0.003991
    28  H    0.004900
    29  H    0.000288
    30  H   -0.004221
    31  H    0.464987
 Mulliken charges:
               1
     1  C   -0.423494
     2  C   -0.056166
     3  C   -0.363439
     4  C   -0.272516
     5  C   -0.273824
     6  O   -0.274653
     7  C   -0.132229
     8  C    0.065316
     9  C   -0.376550
    10  C   -0.364951
    11  O   -0.250341
    12  O   -0.296792
    13  C   -0.467590
    14  H    0.164729
    15  H    0.176795
    16  H    0.252007
    17  H    0.186506
    18  H    0.167711
    19  H    0.155172
    20  H    0.201625
    21  H    0.201778
    22  H    0.188174
    23  H    0.181769
    24  H    0.213352
    25  H    0.194335
    26  H    0.185713
    27  H    0.258883
    28  H    0.160221
    29  H    0.194829
    30  H    0.167180
    31  H    0.236452
 Sum of Mulliken charges =  -0.00000
 Mulliken charges with hydrogens summed into heavy atoms:
               1
     1  C   -0.081970
     2  C    0.202717
     3  C    0.055748
     4  C    0.081701
     5  C    0.081226
     6  O   -0.274653
     7  C    0.224568
     8  C    0.301768
     9  C    0.013402
    10  C    0.030170
    11  O   -0.250341
    12  O   -0.296792
    13  C   -0.087542
 Electronic spatial extent (au):  <R**2>=           2566.9605
 Charge=             -0.0000 electrons
 Dipole moment (field-independent basis, Debye):
    X=             -0.5789    Y=             -1.6331    Z=             -1.1482  Tot=              2.0786
 Quadrupole moment (field-independent basis, Debye-Ang):
   XX=            -70.6768   YY=            -76.8431   ZZ=            -83.0941
   XY=              2.9920   XZ=              3.8983   YZ=              0.1826
 Traceless Quadrupole moment (field-independent basis, Debye-Ang):
   XX=              6.1945   YY=              0.0282   ZZ=             -6.2227
   XY=              2.9920   XZ=              3.8983   YZ=              0.1826
 Octapole moment (field-independent basis, Debye-Ang**2):
  XXX=            -10.1977  YYY=              4.8699  ZZZ=              1.6585  XYY=             -1.8137
  XXY=             -2.6841  XXZ=             -5.2995  XZZ=             -0.2205  YZZ=             -8.2299
  YYZ=             -2.7866  XYZ=              9.0563
 Hexadecapole moment (field-independent basis, Debye-Ang**3):
 XXXX=          -2246.0388 YYYY=           -605.2561 ZZZZ=           -486.2996 XXXY=             -3.3723
 XXXZ=              4.2243 YYYX=              0.1308 YYYZ=             -3.1384 ZZZX=              0.0439
 ZZZY=             -1.2210 XXYY=           -476.3286 XXZZ=           -479.5906 YYZZ=           -188.6933
 XXYZ=            -10.0067 YYXZ=             -1.6216 ZZXY=              8.6829
 N-N= 9.192377827207D+02 E-N=-3.280735075465D+03  KE= 6.153193813847D+02
 D1PCM: PCM CHGder 1st derivatives, ID1Alg=3 FixD1E=F DoIter=F DoCFld=F I1PDM=0.
 Calling FoFJK, ICntrl=      2127 FMM=F ISym2X=0 I1Cent= 0 IOpClX= 0 NMat=1 NMatS=1 NMatT=0.
 ***** Axes restored to original set *****
 -------------------------------------------------------------------
 Center     Atomic                   Forces (Hartrees/Bohr)
 Number     Number              X              Y              Z
 -------------------------------------------------------------------
      1        6          -0.001929942    0.001354707   -0.001286908
      2        6           0.001491000    0.000857430   -0.005973767
      3        6          -0.000114875   -0.007234251   -0.006153576
      4        6          -0.001943553   -0.001230368    0.003191347
      5        6           0.004761443    0.004504339    0.001980163
      6        8           0.004232762   -0.005454335   -0.005541176
      7        6           0.004024529    0.005115759   -0.000780181
      8        6           0.002479001    0.003053445    0.006115050
      9        6          -0.001612702    0.002114160   -0.001039610
     10        6           0.000066419   -0.003116129    0.006452820
     11        8          -0.004691351   -0.003831423    0.010975355
     12        8           0.001932898   -0.007453206   -0.011407138
     13        6          -0.000513913   -0.001039291   -0.002318336
     14        1           0.001581417   -0.000091410    0.002958141
     15        1           0.001099435   -0.001568001   -0.002108074
     16        1          -0.003274247    0.002050611    0.000345748
     17        1           0.002479661    0.000666764   -0.000336742
     18        1          -0.002756811    0.000368603   -0.002386688
     19        1          -0.003649045    0.001151635   -0.005441623
     20        1          -0.000091091   -0.004044093    0.002037463
     21        1           0.005355994   -0.001484606   -0.000264067
     22        1          -0.001760414   -0.000288120    0.002439712
     23        1          -0.005438430    0.003669777   -0.000001695
     24        1           0.003551358    0.000865767   -0.003411494
     25        1           0.001765819   -0.000693340    0.002810242
     26        1          -0.000395439    0.002839351   -0.001235370
     27        1          -0.002008438    0.003156646    0.007351720
     28        1          -0.005531374    0.003085653    0.000337736
     29        1          -0.000462988   -0.004341598   -0.000006991
     30        1           0.002886331    0.001008923    0.002806487
     31        1          -0.001533454    0.006006601   -0.000108547
 -------------------------------------------------------------------
 Cartesian Forces:  Max     0.011407138 RMS     0.003617657

 GradGradGradGradGradGradGradGradGradGradGradGradGradGradGradGradGradGrad
 Berny optimization.
 FormGI is forming the generalized inverse of G from B-inverse, IUseBI=4.
 Internal  Forces:  Max     0.018540122 RMS     0.002433387
 Search for a local minimum.
 Step number   1 out of a maximum of  186
 All quantities printed in internal units (Hartrees-Bohrs-Radians)
 Mixed Optimization -- RFO/linear search
 Second derivative matrix not updated -- first step.
 ITU=  0
     Eigenvalues ---    0.00511   0.00620   0.00716   0.00720   0.01417
     Eigenvalues ---    0.01465   0.01749   0.02705   0.02790   0.02920
     Eigenvalues ---    0.03083   0.04034   0.04081   0.04371   0.04749
     Eigenvalues ---    0.04886   0.04893   0.04922   0.05104   0.05143
     Eigenvalues ---    0.05314   0.05517   0.05692   0.06161   0.06176
     Eigenvalues ---    0.06351   0.06730   0.07072   0.07611   0.07848
     Eigenvalues ---    0.07951   0.08039   0.08144   0.08243   0.08558
     Eigenvalues ---    0.08822   0.09134   0.09707   0.10759   0.11594
     Eigenvalues ---    0.11698   0.11759   0.11762   0.12397   0.12676
     Eigenvalues ---    0.14649   0.14944   0.16447   0.16483   0.17769
     Eigenvalues ---    0.19074   0.21526   0.21970   0.25000   0.28310
     Eigenvalues ---    0.28512   0.28574   0.28825   0.28928   0.28981
     Eigenvalues ---    0.30211   0.30412   0.35048   0.35087   0.35114
     Eigenvalues ---    0.35130   0.35177   0.35192   0.35218   0.35232
     Eigenvalues ---    0.35302   0.35366   0.35435   0.35486   0.35737
     Eigenvalues ---    0.35751   0.35812   0.35829   0.35884   0.36234
     Eigenvalues ---    0.40862   0.40945   0.41436   0.42429   0.43740
     Eigenvalues ---    0.463471000.000001000.000001000.000001000.00000
     Eigenvalues --- 1000.000001000.000001000.000001000.000001000.00000
     Eigenvalues --- 1000.000001000.000001000.000001000.000001000.00000
     Eigenvalues --- 1000.000001000.000001000.000001000.000001000.00000
     Eigenvalues --- 1000.000001000.000001000.000001000.000001000.00000
     Eigenvalues --- 1000.000001000.000001000.000001000.000001000.00000
     Eigenvalues --- 1000.000001000.000001000.000001000.000001000.00000
     Eigenvalues --- 1000.000001000.000001000.000001000.000001000.00000
     Eigenvalues --- 1000.000001000.000001000.000001000.000001000.00000
     Eigenvalues --- 1000.000001000.000001000.000001000.000001000.00000
     Eigenvalues --- 1000.000001000.000001000.000001000.000001000.00000
     Eigenvalues --- 1000.000001000.000001000.000001000.000001000.00000
     Eigenvalues --- 1000.000001000.000001000.000001000.000001000.00000
     Eigenvalues --- 1000.000001000.000001000.000001000.000001000.00000
     Eigenvalues --- 1000.000001000.000001000.000001000.000001000.00000
     Eigenvalues --- 1000.000001000.000001000.000001000.000001000.00000
     Eigenvalues --- 1000.000001000.000001000.000001000.000001000.00000
     Eigenvalues --- 1000.000001000.000001000.000001000.000001000.00000
     Eigenvalues --- 1000.000001000.000001000.000001000.000001000.00000
     Eigenvalues --- 1000.000001000.000001000.000001000.000001000.00000
 RFO step:  Lambda=-6.26336512D-03 EMin= 5.10801887D-03
 Linear search not attempted -- first point.
 Iteration  1 RMS(Cart)=  0.15650530 RMS(Int)=  0.00418393
 Iteration  2 RMS(Cart)=  0.01102179 RMS(Int)=  0.00013050
 Iteration  3 RMS(Cart)=  0.00003394 RMS(Int)=  0.00012957
 Iteration  4 RMS(Cart)=  0.00000000 RMS(Int)=  0.00012957
 Iteration  1 RMS(Cart)=  0.00015154 RMS(Int)=  0.00003256
 Iteration  2 RMS(Cart)=  0.00008352 RMS(Int)=  0.00003637
 Iteration  3 RMS(Cart)=  0.00004603 RMS(Int)=  0.00004113
 Iteration  4 RMS(Cart)=  0.00002537 RMS(Int)=  0.00004431
 Iteration  5 RMS(Cart)=  0.00001398 RMS(Int)=  0.00004619
 Iteration  6 RMS(Cart)=  0.00000770 RMS(Int)=  0.00004726
 Iteration  7 RMS(Cart)=  0.00000425 RMS(Int)=  0.00004786
 Iteration  8 RMS(Cart)=  0.00000234 RMS(Int)=  0.00004819
 Iteration  9 RMS(Cart)=  0.00000129 RMS(Int)=  0.00004838
 Iteration 10 RMS(Cart)=  0.00000071 RMS(Int)=  0.00004848
 Variable       Old X    -DE/DX   Delta X   Delta X   Delta X     New X
                                 (Linear)    (Quad)   (Total)
    R1        2.88879  -0.00060   0.00000  -0.00123  -0.00124   2.88755
    R2        2.87177   0.00045   0.00000   0.00170   0.00171   2.87348
    R3        2.05535   0.00328   0.00000   0.00920   0.00920   2.06454
    R4        2.05300   0.00283   0.00000   0.00789   0.00789   2.06089
    R5        2.64929   0.00406   0.00000   0.00836   0.00837   2.65766
    R6        2.63742   0.00160   0.00000   0.00340   0.00340   2.64083
    R7        2.87993  -0.00057   0.00000  -0.00215  -0.00216   2.87776
    R8        2.03717   0.00818   0.00000   0.02218   0.02218   2.05936
    R9        2.89878  -0.00226   0.00000  -0.00906  -0.00893   2.88985
   R10        2.89752  -0.00159   0.00000  -0.00678  -0.00685   2.89068
   R11        2.05465   0.00387   0.00000   0.01084   0.01084   2.06548
   R12        2.04495   0.00407   0.00000   0.01120   0.01120   2.05615
   R13        2.88995  -0.00142   0.00000  -0.00443  -0.00443   2.88551
   R14        2.05187   0.00259   0.00000   0.00720   0.00720   2.05907
   R15        2.05365   0.00346   0.00000   0.00966   0.00966   2.06331
   R16        2.67536   0.00277   0.00000   0.00735   0.00722   2.68259
   R17        2.87229   0.00039   0.00000   0.00102   0.00086   2.87315
   R18        2.05598   0.00626   0.00000   0.01754   0.01754   2.07351
   R19        2.04376   0.00436   0.00000   0.01197   0.01197   2.05573
   R20        2.66408   0.00233   0.00000   0.00613   0.00619   2.67027
   R21        2.68501   0.00271   0.00000   0.00608   0.00608   2.69109
   R22        2.04893   0.00655   0.00000   0.01815   0.01815   2.06708
   R23        2.04350   0.00452   0.00000   0.01241   0.01241   2.05591
   R24        2.87063  -0.00032   0.00000  -0.00058  -0.00043   2.87020
   R25        2.70399  -0.00227   0.00000  -0.00547  -0.00547   2.69852
   R26        2.05085   0.00612   0.00000   0.01700   0.01700   2.06785
   R27        2.04473   0.00515   0.00000   0.01416   0.01416   2.05889
   R28        2.05322   0.00301   0.00000   0.00839   0.00839   2.06161
   R29        2.05489   0.00647   0.00000   0.01811   0.01811   2.07300
   R30        2.04264   0.00484   0.00000   0.01327   0.01327   2.05590
   R31        2.05388   0.00333   0.00000   0.00931   0.00931   2.06319
   R32        2.04974   0.00309   0.00000   0.00858   0.00858   2.05832
    A1        1.92204  -0.00098   0.00000  -0.00320  -0.00342   1.91862
    A2        1.91593   0.00095   0.00000   0.00156   0.00166   1.91759
    A3        1.93959  -0.00058   0.00000  -0.00264  -0.00261   1.93697
    A4        1.90599   0.00010   0.00000  -0.00116  -0.00108   1.90491
    A5        1.90377   0.00055   0.00000   0.00263   0.00269   1.90646
    A6        1.87568  -0.00000   0.00000   0.00297   0.00293   1.87862
    A7        1.95605  -0.00077   0.00000  -0.01026  -0.01009   1.94596
    A8        1.93382   0.00397   0.00000   0.01581   0.01558   1.94941
    A9        1.83704  -0.00277   0.00000  -0.01679  -0.01683   1.82021
   A10        1.88795  -0.00262   0.00000  -0.01204  -0.01193   1.87602
   A11        1.92923   0.00198   0.00000   0.01509   0.01505   1.94428
   A12        1.91988   0.00035   0.00000   0.00911   0.00917   1.92905
   A13        1.98310   0.00050   0.00000  -0.01249  -0.01250   1.97060
   A14        1.83384   0.00008   0.00000   0.01480   0.01487   1.84871
   A15        1.95079  -0.00064   0.00000  -0.01160  -0.01193   1.93886
   A16        1.89339   0.00029   0.00000   0.01531   0.01529   1.90869
   A17        1.94035  -0.00038   0.00000  -0.00734  -0.00766   1.93269
   A18        1.85358   0.00019   0.00000   0.00509   0.00521   1.85879
   A19        1.91310   0.00225   0.00000   0.00065   0.00068   1.91378
   A20        1.93034  -0.00022   0.00000   0.00200   0.00206   1.93240
   A21        1.91416  -0.00108   0.00000  -0.00259  -0.00269   1.91147
   A22        1.91665  -0.00066   0.00000   0.00143   0.00141   1.91806
   A23        1.92263  -0.00106   0.00000  -0.00697  -0.00698   1.91565
   A24        1.86658   0.00070   0.00000   0.00548   0.00550   1.87207
   A25        1.93214   0.00045   0.00000   0.00603   0.00591   1.93805
   A26        1.89976   0.00139   0.00000   0.00896   0.00899   1.90875
   A27        1.85948  -0.00100   0.00000  -0.00535  -0.00528   1.85420
   A28        1.93593  -0.00102   0.00000  -0.00743  -0.00746   1.92847
   A29        1.94368  -0.00018   0.00000  -0.00330  -0.00326   1.94042
   A30        1.89049   0.00041   0.00000   0.00144   0.00141   1.89189
   A31        1.96490  -0.00259   0.00000  -0.01860  -0.01855   1.94635
   A32        1.94429   0.00226   0.00000   0.00524   0.00519   1.94948
   A33        1.93165  -0.00129   0.00000  -0.00415  -0.00420   1.92744
   A34        1.94543  -0.00022   0.00000  -0.00165  -0.00157   1.94386
   A35        1.91047  -0.00018   0.00000  -0.00217  -0.00211   1.90837
   A36        1.84222  -0.00134   0.00000  -0.00246  -0.00248   1.83974
   A37        1.88685   0.00074   0.00000   0.00531   0.00531   1.89215
   A38        1.92506   0.00086   0.00000  -0.00121  -0.00188   1.92318
   A39        2.06435  -0.00385   0.00000  -0.04104  -0.04129   2.02306
   A40        1.87523   0.00090   0.00000   0.01102   0.01137   1.88660
   A41        1.88044   0.00003   0.00000  -0.01135  -0.01235   1.86809
   A42        1.86870  -0.00045   0.00000   0.01363   0.01354   1.88224
   A43        1.83959   0.00284   0.00000   0.03588   0.03624   1.87584
   A44        1.93381  -0.00028   0.00000  -0.00853  -0.00875   1.92506
   A45        1.93415  -0.00028   0.00000  -0.00907  -0.00905   1.92510
   A46        1.91488  -0.00055   0.00000   0.00054   0.00065   1.91553
   A47        1.90067   0.00018   0.00000   0.00353   0.00354   1.90421
   A48        1.90494   0.00052   0.00000   0.00505   0.00505   1.91000
   A49        1.87419   0.00046   0.00000   0.00924   0.00919   1.88337
   A50        1.96538   0.00049   0.00000   0.00218   0.00238   1.96776
   A51        1.90799   0.00189   0.00000   0.01675   0.01669   1.92468
   A52        1.86902  -0.00101   0.00000  -0.00798  -0.00814   1.86088
   A53        1.89912  -0.00141   0.00000  -0.00271  -0.00279   1.89634
   A54        1.92683  -0.00065   0.00000  -0.01298  -0.01313   1.91370
   A55        1.89420   0.00076   0.00000   0.00517   0.00518   1.89938
   A56        2.02489  -0.00610   0.00000  -0.03859  -0.03846   1.98644
   A57        2.16648  -0.01854   0.00000  -0.07235  -0.07235   2.09413
   A58        1.95577  -0.00230   0.00000  -0.01731  -0.01741   1.93836
   A59        1.87283   0.00015   0.00000   0.00457   0.00455   1.87739
   A60        1.90099   0.00111   0.00000   0.00034   0.00034   1.90132
   A61        1.90814   0.00147   0.00000   0.00823   0.00832   1.91646
   A62        1.94714  -0.00024   0.00000  -0.00169  -0.00181   1.94533
   A63        1.87579  -0.00008   0.00000   0.00711   0.00709   1.88288
    D1        0.91912  -0.00007   0.00000   0.00481   0.00481   0.92393
    D2        3.03489   0.00043   0.00000   0.00831   0.00835   3.04324
    D3       -1.19376   0.00050   0.00000   0.01465   0.01468  -1.17908
    D4       -1.17995  -0.00018   0.00000   0.00727   0.00726  -1.17270
[...]
 ,0.00005891,0.00002664,-0.00002628,-0.00009022,-0.00001321,0.00005107,
 0.00000226,0.00000232,-0.00000285,-0.00000151,0.00000454,-0.00000051,0
 .00004597,0.00002976,0.00004522,-0.00000268,-0.00000414,-0.00000274,0.
 13716462,-0.00998313,0.23215006,0.00002847,0.00144397,0.00216752,0.001
 32173,-0.02824097,0.00904886,0.00009078,-0.00006254,0.00005526,-0.0001
 2137,0.00897050,-0.00511423,-0.00002727,0.00001712,0.00004339,-0.00001
 612,0.00003374,-0.00002892,-0.00067406,0.00147344,0.00134011,0.0001745
 9,0.00034731,0.00002053,-0.00000150,-0.00007413,-0.00001754,0.00007273
 ,-0.00006269,-0.00001508,-0.00651719,-0.00570036,0.00306869,0.00131372
 ,0.00002840,0.00027875,-0.04947773,-0.00500814,0.00171305,-0.00001860,
 -0.00041612,0.00019880,0.00044319,0.00083038,-0.00007776,-0.00001069,0
 .00001681,-0.00003802,0.00008493,-0.00026354,-0.00058480,0.00036985,-0
 .00051862,0.00011035,0.00005309,-0.00010224,-0.00017939,0.00015667,-0.
 00015104,-0.00016755,0.00005805,0.00010724,-0.00001248,-0.00004437,0.0
 0001366,-0.00000021,0.00001033,0.00001083,0.00002823,-0.00000488,-0.00
 000158,-0.00000116,0.00102305,0.01880030,-0.00640420,0.05093826,0.0016
 5233,-0.00114350,-0.00458624,0.00178683,-0.00709243,0.00224769,0.00009
 063,-0.00004933,0.00004351,-0.00101474,-0.01857730,0.00808574,0.000000
 10,0.00001449,0.00002162,-0.00003638,0.00001964,-0.00002694,0.00067431
 ,0.00082068,0.00022563,-0.00023307,0.00034127,-0.00012395,0.00000440,-
 0.00004310,0.00000323,0.00001031,-0.00003269,0.00001117,-0.00188533,0.
 00025173,0.00085521,0.00104923,0.00127729,-0.00039504,-0.00911178,-0.2
 8067130,0.09231820,0.00009929,0.00017844,0.00007292,-0.00039288,-0.001
 27592,0.00057884,-0.00000926,0.00001144,-0.00003639,0.00029698,0.00067
 358,0.00016606,-0.00041135,0.00077130,0.00003155,-0.00004999,-0.000035
 49,-0.00004691,-0.00007901,-0.00003324,0.00007656,0.00003186,0.0000639
 0,-0.00001695,-0.00003009,0.00001070,0.00000028,-0.00000107,0.00000319
 ,0.00000108,-0.00000288,-0.00000025,-0.00000690,0.00055205,-0.00016863
 ,0.00037681,0.00766075,0.30454749,0.00167529,-0.00275844,-0.00366886,-
 0.00334292,0.00911847,-0.00490665,-0.00003331,0.00003443,-0.00003328,-
 0.00176231,-0.02355512,0.00981361,0.00001361,-0.00001549,-0.00002376,0
 .00000913,0.00000148,0.00001572,0.00058014,-0.00072426,-0.00096352,0.0
 0005479,-0.00020512,0.00002721,0.00001522,0.00004556,0.00000338,-0.000
 01366,-0.00000132,-0.00000303,0.00349500,0.00258892,-0.00003983,-0.001
 07285,-0.00066995,0.00042910,0.00441917,0.09350792,-0.08459287,0.00009
 863,-0.00017310,0.00017029,-0.00014388,-0.00138605,0.00047950,0.000018
 39,-0.00000408,0.00001460,-0.00011079,0.00102822,0.00084051,-0.0005636
 7,0.00079831,0.00100486,-0.00004965,0.00010110,0.00014387,-0.00009330,
 0.00013981,0.00014778,-0.00002331,-0.00006606,0.00000627,0.00002537,-0
 .00000368,-0.00000115,0.00000905,0.00000469,-0.00000074,0.00000062,-0.
 00000021,-0.00000128,0.00225925,0.02242334,-0.00885545,-0.00523483,-0.
 09990219,0.08991805,0.00021234,-0.00058358,-0.00014234,-0.07233148,0.0
 4089897,0.05627066,-0.00118422,-0.00042980,0.00033579,-0.00490779,-0.0
 0317545,0.00056888,-0.00000933,0.00001853,-0.00009802,-0.00000116,0.00
 007575,0.00007846,0.00079128,-0.00109834,0.00030180,0.00273129,-0.0014
 3912,-0.00043460,0.00000156,-0.00008490,-0.00004107,-0.00034298,0.0000
 7995,0.00004020,0.00400323,-0.00313274,-0.00264913,0.00156399,-0.01025
 803,-0.02828512,-0.00776316,0.01769873,0.02375774,-0.00002327,0.000086
 18,-0.00010772,0.00010083,0.00014734,-0.00006765,0.00009834,0.00007543
 ,0.00004698,-0.00059479,0.00128454,0.00127582,0.00010107,-0.00001066,0
 .00021280,-0.00009871,0.00021675,0.00008227,0.00012598,-0.00012423,-0.
 00016740,-0.00003880,-0.00000383,-0.00003057,0.00001652,0.00002476,0.0
 0000056,-0.00015555,-0.00004761,0.00000125,0.00001321,0.00003797,0.000
 18699,0.00092744,0.00034076,-0.00057609,0.00082328,-0.00061392,-0.0002
 5806,0.07870341,-0.00029817,-0.00047718,-0.00014864,0.03407156,-0.1294
 8778,-0.11152599,0.00027677,-0.00001684,-0.00063717,-0.00158906,0.0001
 0114,0.00047186,0.00003764,0.00016140,-0.00007106,-0.00011409,-0.00005
 612,-0.00006279,-0.00178085,-0.00189808,0.00583763,-0.00063798,0.00076
 534,-0.00046446,0.00012454,-0.00015306,0.00027749,-0.00000054,-0.00022
 444,0.00016626,0.00957974,-0.04071085,-0.02465513,-0.00011357,0.008815
 23,0.00653321,-0.00154114,0.00673380,0.00496239,0.00008991,0.00005284,
 0.00002698,0.00029380,0.00016621,-0.00015736,0.00018261,0.00008602,0.0
 0019496,-0.00019748,0.00036115,0.00030907,0.00006528,-0.00006315,-0.00
 000682,-0.00004183,-0.00017273,-0.00033237,0.00043160,-0.00140021,-0.0
 0120378,0.00009219,0.00011647,-0.00005079,-0.00004939,0.00002249,-0.00
 001526,0.00001246,0.00000620,-0.00002184,0.00002759,0.00001874,0.00000
 730,0.00048479,0.00013873,-0.00025602,0.00085181,0.00020755,-0.0003536
 9,-0.03936489,0.15710058,-0.00002862,0.00022210,-0.00002817,0.05176505
 ,-0.11983464,-0.20404732,0.00016734,0.00033809,-0.00036934,0.00147263,
 0.00109297,0.00083748,0.00016794,0.00023210,-0.00018637,-0.00019540,-0
 .00025052,0.00003343,0.00059954,0.00251533,0.00081418,0.00480826,0.000
 51589,-0.00042642,0.00016567,-0.00006070,0.00027145,-0.00038760,0.0002
 6806,0.00027679,-0.00174779,0.00890797,0.01062431,-0.00888501,-0.01006
 086,-0.03499908,0.00328831,-0.00562594,-0.00568085,-0.00001722,-0.0000
 4740,0.00000786,-0.00009510,-0.00008426,-0.00001803,0.00006210,-0.0000
 4829,0.00034223,0.00008853,-0.00045289,-0.00041330,-0.00016334,0.00011
 662,0.00013780,-0.00004641,0.00035407,0.00015130,-0.00006195,0.0003376
 5,0.00026104,0.00000011,0.00003048,-0.00000800,-0.00001303,-0.00003775
 ,0.00001461,-0.00028647,-0.00011949,-0.00010660,0.00003166,0.00002433,
 0.00023023,0.00020839,0.00019957,0.00074471,-0.00013731,0.00008066,0.0
 0003599,-0.05072268,0.12083646,0.23053730,-0.00000607,0.00000033,-0.00
 006474,0.00016864,0.00020484,0.00015626,0.00039007,0.00044170,0.000836
 71,-0.00001601,0.00000374,-0.00001143,-0.24604825,0.09011996,-0.025241
 51,-0.02604729,0.00038722,0.01508610,0.00009249,-0.00008538,0.00008651
 ,-0.00013566,-0.00050598,0.00002561,-0.01259810,0.00775806,-0.00318431
 ,0.00079788,0.00425267,-0.00088187,-0.00028891,-0.00013082,-0.00002473
 ,-0.00009948,-0.00009323,-0.00010059,0.00000406,-0.00000376,0.00000598
 ,-0.00004339,-0.00000934,0.00000343,-0.00001013,0.00000677,0.00001248,
 -0.00017582,-0.00063889,-0.00016554,-0.00001513,-0.00000581,0.00000953
 ,0.00000489,-0.00000069,-0.00000786,0.00007032,-0.00004584,-0.00009798
 ,-0.00000063,0.00000745,-0.00001762,0.00019745,-0.00083949,-0.00254469
 ,0.00049090,-0.00003532,-0.00038386,0.00029397,-0.00145328,-0.00003831
 ,0.00052045,-0.00038227,0.00011759,-0.00001886,0.00000073,-0.00000011,
 -0.00001153,-0.00001037,0.00000829,0.00001104,-0.00001704,-0.00003134,
 0.27876127,-0.00000198,0.00000037,-0.00000100,-0.00007043,0.00004174,-
 0.00013241,-0.00060583,0.00102208,0.00054192,0.00000781,0.00000513,0.0
 0000385,0.09367490,-0.09929899,0.00832372,-0.01165761,0.00407320,0.002
 12180,-0.00004057,-0.00000332,-0.00000368,-0.00008721,-0.00028705,-0.0
 0001534,-0.00750141,0.00357589,-0.00146356,-0.00427231,0.00282585,0.00
 026821,-0.00003372,-0.00002700,0.00006671,0.00033329,-0.00006222,0.000
 12566,0.00000308,-0.00002107,0.00001418,0.00000389,0.00000063,0.000001
 49,0.00000254,-0.00000245,-0.00000072,0.00026575,0.00017964,-0.0001063
 3,0.00000509,-0.00000268,-0.00000362,-0.00000036,0.00000022,0.00000211
 ,-0.00002987,0.00000430,0.00000612,0.00000620,-0.00000063,-0.00000391,
 -0.00098502,0.00071422,-0.00126357,0.00042721,0.00033396,0.00052895,0.
 00079388,0.00056252,-0.00009294,-0.00001153,0.00019994,-0.00009412,0.0
 0001523,-0.00000024,-0.00000163,0.00000024,0.00000050,-0.00000121,-0.0
 0000333,-0.00000729,0.00000827,-0.09873543,0.09747673,0.00001745,-0.00
 000506,0.00003952,-0.00011278,0.00042628,-0.00020255,0.00065549,0.0012
 3253,0.00104964,-0.00001184,0.00000356,-0.00001748,-0.02668492,0.01089
 399,-0.05066898,0.03622806,-0.00398186,-0.00874198,0.00012039,-0.00020
 354,-0.00025492,-0.00023402,0.00028138,-0.00017689,-0.02832683,0.01340
 443,-0.00326794,0.00103048,-0.00515079,0.00087308,-0.00068051,-0.00032
 768,0.00019716,0.00014027,0.00000579,0.00014773,0.00001326,-0.00006357
 ,0.00004369,0.00000447,-0.00000007,-0.00000312,-0.00001539,0.00000221,
 0.00001091,0.00032672,-0.00054283,-0.00003895,-0.00000269,-0.00000539,
 0.00000599,0.00000079,-0.00000017,0.00000713,-0.00004245,0.00006496,-0
 .00000286,0.00005403,-0.00002154,0.00003693,-0.00230791,-0.00244356,-0
 .00479558,0.00089256,0.00020849,0.00112262,-0.00115282,0.00027288,0.00
 014172,-0.00024798,-0.00003085,-0.00005824,0.00000940,-0.00000007,-0.0
 0000036,-0.00002251,-0.00001210,0.00001333,0.00002313,-0.00002366,0.00
 001032,0.01715747,-0.01209649,0.06309092,-0.00000501,0.00000679,0.0000
 1254,0.00013492,-0.00006860,0.00012482,-0.00024496,0.00019820,-0.00257
 801,-0.00000508,-0.00000736,-0.00000241,-0.05268729,-0.00834711,-0.002
 42674,-0.00364947,-0.02542873,0.00389428,0.00003534,-0.00003376,-0.000
 04097,0.00023315,-0.00015466,0.00022184,-0.00123279,-0.01534382,-0.003
 23864,-0.00214602,0.00107432,0.00227458,-0.00004503,0.00009044,-0.0000
 2643,-0.00015051,0.00001594,-0.00002253,-0.00000258,0.00002092,-0.0000
 0981,-0.00000111,0.00000068,-0.00000253,-0.00000413,0.00000236,0.00000
 251,0.00004564,-0.00042687,-0.00009122,-0.00000611,0.00000431,0.000002
 15,0.00000209,-0.00000049,-0.00000443,0.00003111,-0.00000749,0.0000095
 6,-0.00000398,0.00001678,-0.00000995,0.00054926,-0.00018588,0.00096823
 ,0.00031502,0.00022113,0.00003633,0.00048961,-0.00042279,0.00001712,0.
 00022612,-0.00098497,0.00006655,-0.00001480,-0.00000004,0.00000096,0.0
 0000051,-0.00000045,0.00000072,0.00000614,0.00000839,-0.00000305,0.003
 64851,0.02825711,0.00282362,0.05449951,0.00000431,-0.00000008,-0.00001
 410,0.00021722,-0.00008490,0.00019545,-0.00078334,0.00144001,-0.001561
 85,-0.00001745,-0.00001085,-0.00000633,-0.01641841,-0.31557443,-0.0263
 9433,-0.00352628,-0.01251406,0.00500753,0.00002009,-0.00008430,-0.0000
 0922,0.00057481,0.00028676,0.00016599,0.00064855,-0.00572723,-0.001253
 02,-0.00169982,0.00276106,0.00169815,-0.00014337,0.00009192,-0.0000191
 5,-0.00039121,-0.00002926,-0.00016616,-0.00000488,0.00003130,-0.000017
 79,-0.00001570,-0.00000290,-0.00000057,-0.00000853,0.00000608,0.000007
 77,0.00009613,0.00014884,0.00008133,-0.00001221,0.00000380,0.00000898,
 0.00000396,-0.00000133,-0.00000714,-0.00001174,-0.00003210,-0.00004223
 ,-0.00001321,0.00000031,-0.00000158,-0.00029143,0.00075967,0.00014168,
 -0.00012614,-0.00012028,-0.00057715,0.00001127,0.00018684,-0.00007734,
 -0.00025791,-0.00074593,-0.00007688,-0.00002715,0.00000107,0.00000137,
 -0.00000217,-0.00000372,0.00000442,-0.00000633,0.00001954,-0.00001491,
 0.00008259,-0.01138675,-0.00194583,0.02222004,0.34120233,0.00000435,0.
 00000480,0.00002031,0.00006031,0.00001397,-0.00013469,-0.00314618,0.00
 027802,-0.00558392,-0.00002031,-0.00001095,-0.00000646,-0.00281691,-0.
 03559721,-0.05120382,0.00559730,0.03593840,-0.00317546,0.00001072,-0.0
 0008025,-0.00008149,0.00019316,0.00072873,-0.00075832,-0.00190743,-0.0
 3035254,-0.00097381,0.00358110,-0.00018847,-0.00396499,-0.00008654,0.0
 0006178,0.00005362,-0.00004432,-0.00009995,0.00027574,0.00001676,0.000
 03414,0.00003845,0.00000183,-0.00000002,-0.00000169,-0.00000684,0.0000
 0189,0.00000377,0.00021080,0.00016438,0.00002235,-0.00000479,0.0000055
 2,0.00000751,0.00000076,0.00000057,0.00000212,-0.00002299,0.00001466,0
 .00001046,0.00000508,0.00000471,0.00000809,0.00024664,0.00077835,0.001
 36644,0.00076185,0.00072167,0.00069605,-0.00016661,-0.00011837,-0.0000
 0912,0.00035130,0.00159383,-0.00004230,-0.00000173,0.00000015,-0.00000
 161,-0.00000358,-0.00000341,0.00000233,0.00001468,0.00005415,0.0000666
 0,-0.00058630,0.00327299,0.00124569,-0.00181777,0.02478578,0.06175983,
 -0.00004318,-0.00004876,-0.00004517,-0.00266486,-0.00009864,0.00137461
 ,-0.13269061,-0.03709606,-0.12442046,0.00003252,0.00006009,0.00003460,
 0.00055012,-0.00128965,0.00117926,0.00003521,0.00034669,-0.00074249,-0
 .00006934,0.00028524,0.00026944,0.00913071,0.00403423,0.01348911,-0.00
 270116,-0.00038161,-0.00285055,-0.00141784,-0.00173559,0.00245417,0.00
 007597,-0.00036048,-0.00003325,0.00087077,0.00096413,-0.00201976,0.000
 01583,-0.00012908,-0.00001973,0.00000286,0.00000208,0.00000658,0.00003
 923,-0.00001074,-0.00002021,-0.01593335,-0.00637523,-0.02243737,0.0000
 2382,-0.00001170,-0.00003220,-0.00000342,0.00000045,0.00001071,-0.0000
 2687,-0.00002073,-0.00004239,0.00001232,-0.00004806,-0.00001601,0.0002
 4507,-0.00009639,0.00034424,-0.00019626,-0.00005707,0.00002159,0.00015
 260,-0.00000950,0.00015543,0.00034252,0.00026902,0.00075047,0.00004781
 ,0.00000304,0.00000147,0.00000701,0.00001137,-0.00000642,-0.00300421,-
 0.00045066,0.00091706,0.00017681,0.00018176,0.00031233,0.00007353,-0.0
 0011096,-0.00050237,0.14675670,-0.00000014,0.00004460,0.00008892,-0.00
 016007,0.00052520,0.00007318,-0.03667978,-0.06072651,-0.04784701,-0.00
 000897,0.00000294,-0.00002401,-0.00087459,-0.00741763,0.00307526,0.000
 65447,0.00147778,-0.00044020,0.00001990,-0.00032975,-0.00018696,0.0096
 2903,0.00284865,0.00802677,-0.01909953,-0.00782546,-0.02737288,-0.0017
 4051,-0.00174518,0.00206421,-0.00030129,-0.00002942,0.00002683,-0.0002
 2757,0.00046766,-0.00117713,0.00002753,-0.00004819,0.00001548,0.000003
 30,-0.00000102,-0.00000752,-0.00003107,0.00000410,0.00001772,0.0078696
 7,0.00299004,0.01265160,-0.00001254,0.00000531,0.00000687,0.00000382,0
 .00000050,0.00000464,-0.00000998,0.00003090,0.00007562,-0.00000993,0.0
 0002399,0.00000304,0.00058924,0.00148437,-0.00000804,0.00000602,0.0011
 4390,0.00053879,-0.00021004,-0.00003680,-0.00021889,0.00017555,0.00057
 507,0.00069378,-0.00001433,-0.00000204,0.00000473,-0.00002954,-0.00001
 566,0.00001716,-0.00105662,0.00029155,0.00026430,-0.00010632,0.0000856
 6,0.00001365,-0.00069371,-0.00053083,-0.00201604,0.04190580,0.06651037
 ,-0.00000471,0.00005583,0.00014413,0.00030741,-0.00047337,-0.00150300,
 -0.12144639,-0.04931088,-0.21829485,-0.00022076,-0.00008178,-0.0000205
 4,0.00057717,0.00027001,0.00093599,-0.00040587,-0.00061305,0.00079281,
 -0.00009235,-0.00037906,-0.00038774,-0.01705435,-0.00689878,-0.0233811
 7,0.00041402,-0.00068661,0.00084959,0.00417654,0.00458402,-0.00274532,
 -0.00023679,0.00010858,0.00067970,-0.00067420,-0.00037884,0.00232713,0
 .00019407,0.00037401,0.00047925,0.00000152,0.00000001,-0.00001641,-0.0
 0005146,0.00001840,0.00003012,0.00228346,0.00164804,0.00390870,-0.0000
 4570,0.00005913,0.00006511,0.00001227,0.00000094,0.00001323,0.00000283
 ,0.00003322,0.00007361,-0.00001190,0.00006510,0.00003873,-0.00005107,-
 0.00023245,0.00020709,-0.00000030,-0.00049800,0.00018604,-0.00016404,0
 .00006002,0.00019247,-0.00072920,-0.00092531,-0.00131934,0.00002601,0.
 00000620,-0.00002927,-0.00003165,-0.00003603,0.00002314,0.00028910,0.0
 0057229,0.00095252,-0.00006972,0.00005914,-0.00005122,-0.00004372,0.00
 014255,0.00000688,0.13274904,0.05223721,0.23525427,0.00007510,-0.00002
 678,0.00009278,0.00259151,0.00143844,0.00746399,0.00041914,-0.01073366
 ,0.00183176,0.00001809,-0.00011707,-0.00004342,0.00066837,0.00062864,-
 0.00053251,-0.00085248,-0.00307031,-0.00330622,0.00028280,-0.00044509,
 -0.00036443,-0.04658475,0.03668173,-0.00526158,0.00063313,-0.00043213,
 0.00210805,0.00283209,-0.01293868,0.00217126,-0.00062723,0.00181876,-0
 .00154995,-0.03602815,0.03535983,-0.00000354,-0.00013897,-0.00008060,-
 0.00047266,-0.00001979,0.00000395,-0.00002854,-0.00004198,0.00003949,0
 .00002654,0.00048457,-0.00124746,0.00036758,-0.00010241,0.00004538,-0.
 00000061,0.00000037,-0.00001392,-0.00012037,-0.00010041,-0.00007980,0.
 00000765,-0.00005422,0.00008777,-0.00004364,-0.00008892,-0.00037266,-0
 .00000767,-0.00009121,-0.00037431,0.00012299,0.00008423,-0.00057161,0.
 00049936,0.00030758,0.00058583,-0.00019089,-0.00025859,-0.00007793,0.0
 0000746,-0.00004491,-0.00003788,0.00002629,0.00022450,-0.00043397,-0.0
 0092026,-0.00011347,0.00005861,0.00003275,-0.00009157,-0.00001071,0.00
 007806,0.00015971,0.00038220,0.00030074,0.07645787,-0.00001931,-0.0000
 0117,-0.00001743,-0.00117161,0.00063293,-0.00171393,-0.00005126,-0.012
 36386,0.00085910,-0.00000833,0.00005186,0.00002604,0.00107554,0.000678
 52,-0.00046822,-0.00234726,-0.00170808,-0.00303985,-0.00019519,0.00020
 693,0.00012026,0.03623420,-0.29443183,0.00125843,-0.00118569,0.0014674
 4,0.00256104,0.00219830,-0.01454152,0.00247652,0.00036036,-0.00057602,
 0.00003101,0.01111917,0.00340490,-0.00010047,0.00010060,-0.00005097,0.
 00023460,0.00003163,0.00000383,0.00001376,0.00002709,-0.00002503,-0.00
 002029,-0.00047705,0.00072115,0.00013123,0.00004579,-0.00001862,-0.000
 02211,-0.00001592,0.00000456,0.00004149,-0.00001200,0.00005658,0.00005
 069,0.00002263,-0.00005617,0.00000231,0.00007229,0.00008226,-0.0000380
 8,-0.00014314,-0.00083650,-0.00013162,-0.00053717,0.00046370,-0.000200
 01,0.00024882,0.00028213,-0.00028181,0.00014908,-0.00003142,-0.0000072
 0,0.00002717,-0.00005061,0.00000614,0.00044776,-0.00049726,0.00029272,
 -0.00016680,-0.00000290,0.00004489,-0.00003072,-0.00009056,0.00000871,
 0.00026701,0.00019591,0.00021944,-0.04606601,0.31702983,-0.00000531,-0
 .00000453,-0.00000076,-0.00043153,0.00027950,-0.00036227,-0.00015052,0
 .03204127,-0.00160072,0.00001499,0.00000847,-0.00000967,0.00066351,0.0
 0036710,-0.00184319,-0.00342936,-0.00561712,-0.00449130,0.00002276,-0.
 00003248,0.00001931,-0.00413866,0.00206555,-0.05400826,0.00211038,0.00
 026095,-0.00502535,0.00358892,-0.02667064,0.00288145,0.00016222,-0.000
 46031,0.00017712,0.00391872,-0.00203538,0.00438751,-0.00000654,-0.0000
 3263,-0.00002609,0.00000361,-0.00000024,0.00000120,0.00000340,-0.00000
 082,-0.00000009,-0.00027272,0.00000157,0.00119607,0.00000911,-0.000006
 31,-0.00000027,0.00000727,-0.00000249,0.00000772,-0.00001131,0.0000352
 9,-0.00001932,0.00001149,-0.00001989,-0.00000256,-0.00008050,0.0000997
 3,-0.00000045,0.00050277,0.00165675,0.00006598,-0.00007267,0.00054876,
 0.00112254,0.00084883,0.00085344,0.00042730,0.00000392,-0.00001018,0.0
 0000271,-0.00000229,-0.00000372,0.00000087,0.00009332,-0.00026320,-0.0
 0006667,-0.00005346,-0.00006460,0.00024466,-0.00013760,-0.00005543,0.0
 0035143,-0.00088176,-0.00060109,0.00058834,-0.00229099,-0.00233733,0.0
 5598275\\-0.00000001,-0.00000426,-0.00000147,-0.00057222,-0.00512570,-
 0.00080194,0.00064665,0.00414665,0.00210214,0.00000142,-0.00000364,-0.
 00000603,-0.00000523,-0.00001077,0.00001540,0.00000135,0.00000193,0.00
 000548,-0.00000284,0.00000254,0.00000377,-0.00126702,-0.00883635,-0.00
 353550,-0.00000231,0.00000856,-0.00000557,-0.00000215,-0.00000802,-0.0
 0000466,0.00000648,-0.00003556,0.00000972,0.00118209,0.00988637,0.0022
 2839,-0.00001113,-0.00000749,0.00000013,-0.00000051,-0.00000004,-0.000
 00026,0.00000060,0.00000093,0.00000105,0.00000386,-0.00000129,-0.00000
 162,-0.00000132,-0.00000233,-0.00000415,-0.00000075,-0.00000253,-0.000
 00331,-0.00000076,-0.00000201,0.00000085,0.00000052,-0.00000185,-0.000
 00155,0.00000067,0.00000008,0.00000314,0.00000535,-0.00000006,0.000004
 86,0.00000669,-0.00000060,0.00000192,0.00000329,-0.00000126,0.00000139
 ,-0.00000213,0.00000199,-0.00000276,0.00000331,-0.00000192,-0.00000708
 ,0.00000164,-0.00000066,-0.00000190,0.00000214,0.00000035,0.00000188,-
 0.00000152,0.00000172,0.00000225,0.00000282,0.00000238,-0.00000021,0.0
 0000100,-0.00000716,-0.00000438\\\@


 The earth never tires,
 The earth is rude, silent, incomprehensible at first,
 Nature is rude and incomprehensible at first,
 Be not discouraged, keep on,
 There are divine things well envelop'd,
 I swear to you there are divine things more beautiful than words can tell.
                                 -- Walt Whitman
 Job cpu time:       0 days 15 hours 34 minutes 28.6 seconds.
 Elapsed time:       0 days  0 hours 58 minutes 25.6 seconds.
 File lengths (MBytes):  RWF=    685 Int=      0 D2E=      0 Chk=     32 Scr=      1
 Normal termination of Gaussian 16 at Sun Nov  4 23:10:30 2018.
