 Entering Gaussian System, Link 0=g16
 Initial command:
 /apps/gaussian/g16a03/g16/l1.exe "/jobfs/local/2011917.r-man2/Gau-1866.inp" -scrdir="/jobfs/local/2011917.r-man2/"
 Entering Link 1 = /apps/gaussian/g16a03/g16/l1.exe PID=      1867.
  
 Copyright (c) 1988,1990,1992,1993,1995,1998,2003,2009,2016,
            Gaussian, Inc.  All Rights Reserved.
  
 This is part of the Gaussian(R) 16 program.  It is based on
 the Gaussian(R) 09 system (copyright 2009, Gaussian, Inc.),
 the Gaussian(R) 03 system (copyright 2003, Gaussian, Inc.),
 the Gaussian(R) 98 system (copyright 1998, Gaussian, Inc.),
 the Gaussian(R) 94 system (copyright 1995, Gaussian, Inc.),
 the Gaussian 92(TM) system (copyright 1992, Gaussian, Inc.),
 the Gaussian 90(TM) system (copyright 1990, Gaussian, Inc.),
 the Gaussian 88(TM) system (copyright 1988, Gaussian, Inc.),
 the Gaussian 86(TM) system (copyright 1986, Carnegie Mellon
 University), and the Gaussian 82(TM) system (copyright 1983,
 Carnegie Mellon University). Gaussian is a federally registered
 trademark of Gaussian, Inc.
  
 This software contains proprietary and confidential information,
 including trade secrets, belonging to Gaussian, Inc.
  
 This software is provided under written license and may be
 used, copied, transmitted, or stored only in accord with that
 written license.
  
 The following legend is applicable only to US Government
 contracts under FAR:
  
                    RESTRICTED RIGHTS LEGEND
  
 Use, reproduction and disclosure by the US Government is
 subject to restrictions as set forth in subparagraphs (a)
 and (c) of the Commercial Computer Software - Restricted
 Rights clause in FAR 52.227-19.
  
 Gaussian, Inc.
 340 Quinnipiac St., Bldg. 40, Wallingford CT 06492
  
  
 ---------------------------------------------------------------
 Warning -- This program may not be used in any manner that
 competes with the business of Gaussian, Inc. or will provide
 assistance to any competitor of Gaussian, Inc.  The licensee
 of this program is prohibited from giving any competitor of
 Gaussian, Inc. access to this program.  By using this program,
 the user acknowledges that Gaussian, Inc. is engaged in the
 business of creating and licensing software in the field of
 computational chemistry and represents and warrants to the
 licensee that it is not a competitor of Gaussian, Inc. and that
 it will not use this program in any manner prohibited above.
 ---------------------------------------------------------------
  

 Cite this work as:
 Gaussian 16, Revision A.03,
 M. J. Frisch, G. W. Trucks, H. B. Schlegel, G. E. Scuseria, 
 M. A. Robb, J. R. Cheeseman, G. Scalmani, V. Barone, 
 G. A. Petersson, H. Nakatsuji, X. Li, M. Caricato, A. V. Marenich, 
 J. Bloino, B. G. Janesko, R. Gomperts, B. Mennucci, H. P. Hratchian, 
 J. V. Ortiz, A. F. Izmaylov, J. L. Sonnenberg, D. Williams-Young, 
 F. Ding, F. Lipparini, F. Egidi, J. Goings, B. Peng, A. Petrone, 
 T. Henderson, D. Ranasinghe, V. G. Zakrzewski, J. Gao, N. Rega, 
 G. Zheng, W. Liang, M. Hada, M. Ehara, K. Toyota, R. Fukuda, 
 J. Hasegawa, M. Ishida, T. Nakajima, Y. Honda, O. Kitao, H. Nakai, 
 T. Vreven, K. Throssell, J. A. Montgomery, Jr., J. E. Peralta, 
 F. Ogliaro, M. J. Bearpark, J. J. Heyd, E. N. Brothers, K. N. Kudin, 
 V. N. Staroverov, T. A. Keith, R. Kobayashi, J. Normand, 
 K. Raghavachari, A. P. Rendell, J. C. Burant, S. S. Iyengar, 
 J. Tomasi, M. Cossi, J. M. Millam, M. Klene, C. Adamo, R. Cammi, 
 J. W. Ochterski, R. L. Martin, K. Morokuma, O. Farkas, 
 J. B. Foresman, and D. J. Fox, Gaussian, Inc., Wallingford CT, 2016.
 
 ******************************************
 Gaussian 16:  ES64L-G16RevA.03 25-Dec-2016
                 4-Nov-2018 
 ******************************************
 %mem=6000mb
 %nproc=24
 Will use up to   24 processors via shared memory.
 %chk=D_1a_4a_L_PSI.inp_extract_26.chk
 ----------------------------------------------------------------------
 #M062X/6-311++G(2d,2p) opt=ModRedundant freq=noraman SCRF=(Solvent=Wat
 er)
 ----------------------------------------------------------------------
 1/18=120,19=15,26=3,38=1/1,3;
 2/9=110,12=2,17=6,18=5,40=1/2;
 3/5=4,6=6,7=1212,11=2,25=1,30=1,70=2201,71=1,72=1,74=-55/1,2,3;
 4//1;
 5/5=2,38=5,53=1/2;
 6/7=2,8=2,9=2,10=2,28=1/1;
 7//1,2,3,16;
 1/18=20,19=15,26=3/3(2);
 2/9=110/2;
 99//99;
 2/9=110/2;
 3/5=4,6=6,7=1212,11=2,25=1,30=1,70=2205,71=1,72=1,74=-55/1,2,3;
 4/5=5,16=3,69=1/1;
 5/5=2,38=5,53=1/2;
 7//1,2,3,16;
 1/18=20,19=15,26=3/3(-5);
 2/9=110/2;
 6/7=2,8=2,9=2,10=2,19=2,28=1/1;
 99/9=1/99;
 ----------------------------
 D_1a_4a_L_PSI.inp_extract_26
 ----------------------------
 Symbolic Z-matrix:
 Charge =  0 Multiplicity = 1
 C                     3.13156   0.84102   0.75606 
 C                     1.13667  -0.48499  -0.87364 
 C                    -1.76416   0.27912  -1.34166 
 C                     2.91902  -0.66431   0.9134 
 C                    -3.05708   0.79934   0.73994 
 O                    -2.44027  -0.30748   1.37241 
 C                     1.85309   1.49798   0.26355 
 C                    -1.2195   -0.95708  -0.62509 
 C                    -2.16261   1.37285  -0.34824 
 C                    -2.16607  -1.37178   0.48736 
 O                     1.38553   0.8955   -0.93631 
 O                     0.05744  -0.76516  -0.02961 
 C                     2.36729  -1.24066  -0.39097 
 H                     3.93012   1.02797   0.04175 
 H                     3.42296   1.29655   1.69828 
 H                    -2.64345  -0.03964  -1.89688 
 H                     3.85108  -1.15863   1.1696 
 H                     2.22524  -0.85259   1.72867 
 H                     1.07973   1.43917   1.02145 
 H                     2.00969   2.5403    0.0224 
 H                    -1.2801    1.8089    0.10874 
 H                    -2.69049   2.17257  -0.85984 
 H                    -3.09413  -1.72919   0.04829 
 H                    -1.73351  -2.16705   1.07799 
 H                     3.12303  -1.16138  -1.168 
 H                     2.11421  -2.2905   -0.2882 
 H                     0.89022  -0.77504  -1.88488 
 H                    -4.01071   0.48125   0.32377 
 H                    -3.25025   1.52565   1.51756 
 H                    -1.05266   0.65101  -2.06857 
 H                    -1.14171  -1.7811   -1.32832 
 
 The following ModRedundant input section has been read:
 D       3       8      12       2 F                                           
 

 GradGradGradGradGradGradGradGradGradGradGradGradGradGradGradGradGradGrad
 Berny optimization.
 Initialization pass.
                           ----------------------------
                           !    Initial Parameters    !
                           ! (Angstroms and Degrees)  !
 --------------------------                            --------------------------
 ! Name  Definition              Value          Derivative Info.                !
 --------------------------------------------------------------------------------
 ! R1    R(1,4)                  1.5284         estimate D2E/DX2                !
 ! R2    R(1,7)                  1.5194         estimate D2E/DX2                !
 ! R3    R(1,14)                 1.0876         estimate D2E/DX2                !
 ! R4    R(1,15)                 1.0864         estimate D2E/DX2                !
 ! R5    R(2,11)                 1.4041         estimate D2E/DX2                !
 ! R6    R(2,12)                 1.3984         estimate D2E/DX2                !
 ! R7    R(2,13)                 1.5226         estimate D2E/DX2                !
 ! R8    R(2,27)                 1.0805         estimate D2E/DX2                !
 ! R9    R(3,8)                  1.5292         estimate D2E/DX2                !
 ! R10   R(3,9)                  1.5303         estimate D2E/DX2                !
 ! R11   R(3,16)                 1.0877         estimate D2E/DX2                !
 ! R12   R(3,30)                 1.083          estimate D2E/DX2                !
 ! R13   R(4,13)                 1.529          estimate D2E/DX2                !
 ! R14   R(4,17)                 1.0857         estimate D2E/DX2                !
 ! R15   R(4,18)                 1.0869         estimate D2E/DX2                !
 ! R16   R(5,6)                  1.4162         estimate D2E/DX2                !
 ! R17   R(5,9)                  1.5209         estimate D2E/DX2                !
 ! R18   R(5,28)                 1.088          estimate D2E/DX2                !
 ! R19   R(5,29)                 1.0815         estimate D2E/DX2                !
 ! R20   R(6,10)                 1.4111         estimate D2E/DX2                !
 ! R21   R(7,11)                 1.4217         estimate D2E/DX2                !
 ! R22   R(7,19)                 1.0844         estimate D2E/DX2                !
 ! R23   R(7,20)                 1.0813         estimate D2E/DX2                !
 ! R24   R(8,10)                 1.5184         estimate D2E/DX2                !
 ! R25   R(8,12)                 1.422          estimate D2E/DX2                !
 ! R26   R(8,31)                 1.0861         estimate D2E/DX2                !
 ! R27   R(9,21)                 1.0853         estimate D2E/DX2                !
 ! R28   R(9,22)                 1.0863         estimate D2E/DX2                !
 ! R29   R(10,23)                1.0871         estimate D2E/DX2                !
 ! R30   R(10,24)                1.0809         estimate D2E/DX2                !
 ! R31   R(13,25)                1.0868         estimate D2E/DX2                !
 ! R32   R(13,26)                1.0848         estimate D2E/DX2                !
 ! A1    A(4,1,7)              110.0118         estimate D2E/DX2                !
 ! A2    A(4,1,14)             109.8164         estimate D2E/DX2                !
 ! A3    A(4,1,15)             111.1619         estimate D2E/DX2                !
 ! A4    A(7,1,14)             109.3048         estimate D2E/DX2                !
 ! A5    A(7,1,15)             108.9979         estimate D2E/DX2                !
 ! A6    A(14,1,15)            107.4937         estimate D2E/DX2                !
 ! A7    A(11,2,12)            111.1427         estimate D2E/DX2                !
 ! A8    A(11,2,13)            111.0287         estimate D2E/DX2                !
 ! A9    A(11,2,27)            105.2229         estimate D2E/DX2                !
 ! A10   A(12,2,13)            109.4498         estimate D2E/DX2                !
 ! A11   A(12,2,27)            109.5763         estimate D2E/DX2                !
 ! A12   A(13,2,27)            110.3521         estimate D2E/DX2                !
 ! A13   A(8,3,9)              111.4886         estimate D2E/DX2                !
 ! A14   A(8,3,16)             106.872          estimate D2E/DX2                !
 ! A15   A(8,3,30)             110.9845         estimate D2E/DX2                !
 ! A16   A(9,3,16)             109.2892         estimate D2E/DX2                !
 ! A17   A(9,3,30)             111.1827         estimate D2E/DX2                !
 ! A18   A(16,3,30)            106.8056         estimate D2E/DX2                !
 ! A19   A(1,4,13)             109.4884         estimate D2E/DX2                !
 ! A20   A(1,4,17)             110.6922         estimate D2E/DX2                !
 ! A21   A(1,4,18)             109.6688         estimate D2E/DX2                !
 ! A22   A(13,4,17)            109.8436         estimate D2E/DX2                !
 ! A23   A(13,4,18)            110.1354         estimate D2E/DX2                !
 ! A24   A(17,4,18)            106.9836         estimate D2E/DX2                !
 ! A25   A(6,5,9)              110.9835         estimate D2E/DX2                !
 ! A26   A(6,5,28)             108.91           estimate D2E/DX2                !
 ! A27   A(6,5,29)             106.3541         estimate D2E/DX2                !
 ! A28   A(9,5,28)             110.6129         estimate D2E/DX2                !
 ! A29   A(9,5,29)             111.4853         estimate D2E/DX2                !
 ! A30   A(28,5,29)            108.3505         estimate D2E/DX2                !
 ! A31   A(5,6,10)             113.2035         estimate D2E/DX2                !
 ! A32   A(1,7,11)             111.534          estimate D2E/DX2                !
 ! A33   A(1,7,19)             110.4914         estimate D2E/DX2                !
 ! A34   A(1,7,20)             111.5453         estimate D2E/DX2                !
 ! A35   A(11,7,19)            109.4097         estimate D2E/DX2                !
 ! A36   A(11,7,20)            105.5405         estimate D2E/DX2                !
 ! A37   A(19,7,20)            108.1463         estimate D2E/DX2                !
 ! A38   A(3,8,10)             110.0028         estimate D2E/DX2                !
 ! A39   A(3,8,12)             114.0153         estimate D2E/DX2                !
 ! A40   A(3,8,31)             109.5991         estimate D2E/DX2                !
 ! A41   A(10,8,12)            106.8507         estimate D2E/DX2                !
 ! A42   A(10,8,31)            108.169          estimate D2E/DX2                !
 ! A43   A(12,8,31)            108.0131         estimate D2E/DX2                !
 ! A44   A(3,9,5)              110.3703         estimate D2E/DX2                !
 ! A45   A(3,9,21)             110.4131         estimate D2E/DX2                !
 ! A46   A(3,9,22)             110.3021         estimate D2E/DX2                !
 ! A47   A(5,9,21)             109.1768         estimate D2E/DX2                !
 ! A48   A(5,9,22)             109.1952         estimate D2E/DX2                !
 ! A49   A(21,9,22)            107.3184         estimate D2E/DX2                !
 ! A50   A(6,10,8)             112.0037         estimate D2E/DX2                !
 ! A51   A(6,10,23)            109.5969         estimate D2E/DX2                !
 ! A52   A(6,10,24)            106.8554         estimate D2E/DX2                !
 ! A53   A(8,10,23)            109.0313         estimate D2E/DX2                !
 ! A54   A(8,10,24)            110.5969         estimate D2E/DX2                !
 ! A55   A(23,10,24)           108.6886         estimate D2E/DX2                !
 ! A56   A(2,11,7)             115.9289         estimate D2E/DX2                !
 ! A57   A(2,12,8)             117.8605         estimate D2E/DX2                !
 ! A58   A(2,13,4)             112.0224         estimate D2E/DX2                !
 ! A59   A(2,13,25)            107.4077         estimate D2E/DX2                !
 ! A60   A(2,13,26)            108.7702         estimate D2E/DX2                !
 ! A61   A(4,13,25)            109.3594         estimate D2E/DX2                !
 ! A62   A(4,13,26)            111.6021         estimate D2E/DX2                !
 ! A63   A(25,13,26)           107.491          estimate D2E/DX2                !
 ! D1    D(7,1,4,13)            53.143          estimate D2E/DX2                !
 ! D2    D(7,1,4,17)           174.3802         estimate D2E/DX2                !
 ! D3    D(7,1,4,18)           -67.8063         estimate D2E/DX2                !
 ! D4    D(14,1,4,13)          -67.203          estimate D2E/DX2                !
 ! D5    D(14,1,4,17)           54.0342         estimate D2E/DX2                !
 ! D6    D(14,1,4,18)          171.8476         estimate D2E/DX2                !
 ! D7    D(15,1,4,13)          173.9729         estimate D2E/DX2                !
 ! D8    D(15,1,4,17)          -64.7899         estimate D2E/DX2                !
 ! D9    D(15,1,4,18)           53.0236         estimate D2E/DX2                !
 ! D10   D(4,1,7,11)           -54.9583         estimate D2E/DX2                !
 ! D11   D(4,1,7,19)            66.9699         estimate D2E/DX2                !
 ! D12   D(4,1,7,20)          -172.6981         estimate D2E/DX2                !
 ! D13   D(14,1,7,11)           65.6964         estimate D2E/DX2                !
 ! D14   D(14,1,7,19)         -172.3754         estimate D2E/DX2                !
 ! D15   D(14,1,7,20)          -52.0434         estimate D2E/DX2                !
 ! D16   D(15,1,7,11)         -177.0803         estimate D2E/DX2                !
 ! D17   D(15,1,7,19)          -55.1522         estimate D2E/DX2                !
 ! D18   D(15,1,7,20)           65.1799         estimate D2E/DX2                !
 ! D19   D(12,2,11,7)           66.9529         estimate D2E/DX2                !
 ! D20   D(13,2,11,7)          -55.1309         estimate D2E/DX2                !
 ! D21   D(27,2,11,7)         -174.522          estimate D2E/DX2                !
 ! D22   D(11,2,12,8)           97.2883         estimate D2E/DX2                !
 ! D23   D(13,2,12,8)         -139.7155         estimate D2E/DX2                !
 ! D24   D(27,2,12,8)          -18.5812         estimate D2E/DX2                !
 ! D25   D(11,2,13,4)           52.1436         estimate D2E/DX2                !
 ! D26   D(11,2,13,25)         -67.9599         estimate D2E/DX2                !
 ! D27   D(11,2,13,26)         175.9856         estimate D2E/DX2                !
 ! D28   D(12,2,13,4)          -70.9202         estimate D2E/DX2                !
 ! D29   D(12,2,13,25)         168.9763         estimate D2E/DX2                !
 ! D30   D(12,2,13,26)          52.9218         estimate D2E/DX2                !
 ! D31   D(27,2,13,4)          168.4165         estimate D2E/DX2                !
 ! D32   D(27,2,13,25)          48.313          estimate D2E/DX2                !
 ! D33   D(27,2,13,26)         -67.7415         estimate D2E/DX2                !
 ! D34   D(9,3,8,10)            49.4846         estimate D2E/DX2                !
 ! D35   D(9,3,8,12)           -70.5097         estimate D2E/DX2                !
 ! D36   D(9,3,8,31)           168.2919         estimate D2E/DX2                !
 ! D37   D(16,3,8,10)          -69.881          estimate D2E/DX2                !
 ! D38   D(16,3,8,12)          170.1247         estimate D2E/DX2                !
 ! D39   D(16,3,8,31)           48.9262         estimate D2E/DX2                !
 ! D40   D(30,3,8,10)          174.0202         estimate D2E/DX2                !
 ! D41   D(30,3,8,12)           54.0259         estimate D2E/DX2                !
 ! D42   D(30,3,8,31)          -67.1725         estimate D2E/DX2                !
 ! D43   D(8,3,9,5)            -50.2182         estimate D2E/DX2                !
 ! D44   D(8,3,9,21)            70.583          estimate D2E/DX2                !
 ! D45   D(8,3,9,22)          -170.9698         estimate D2E/DX2                !
 ! D46   D(16,3,9,5)            67.7025         estimate D2E/DX2                !
 ! D47   D(16,3,9,21)         -171.4964         estimate D2E/DX2                !
 ! D48   D(16,3,9,22)          -53.0492         estimate D2E/DX2                !
 ! D49   D(30,3,9,5)          -174.6425         estimate D2E/DX2                !
 ! D50   D(30,3,9,21)          -53.8414         estimate D2E/DX2                !
 ! D51   D(30,3,9,22)           64.6058         estimate D2E/DX2                !
 ! D52   D(1,4,13,2)           -52.3237         estimate D2E/DX2                !
 ! D53   D(1,4,13,25)           66.6347         estimate D2E/DX2                !
 ! D54   D(1,4,13,26)         -174.5648         estimate D2E/DX2                !
 ! D55   D(17,4,13,2)         -174.0724         estimate D2E/DX2                !
 ! D56   D(17,4,13,25)         -55.114          estimate D2E/DX2                !
 ! D57   D(17,4,13,26)          63.6865         estimate D2E/DX2                !
 ! D58   D(18,4,13,2)           68.3423         estimate D2E/DX2                !
 ! D59   D(18,4,13,25)        -172.6993         estimate D2E/DX2                !
 ! D60   D(18,4,13,26)         -53.8988         estimate D2E/DX2                !
 ! D61   D(9,5,6,10)           -60.7193         estimate D2E/DX2                !
 ! D62   D(28,5,6,10)           61.2832         estimate D2E/DX2                !
 ! D63   D(29,5,6,10)          177.857          estimate D2E/DX2                !
 ! D64   D(6,5,9,3)             54.6258         estimate D2E/DX2                !
 ! D65   D(6,5,9,21)           -66.9111         estimate D2E/DX2                !
 ! D66   D(6,5,9,22)           176.0367         estimate D2E/DX2                !
 ! D67   D(28,5,9,3)           -66.3785         estimate D2E/DX2                !
 ! D68   D(28,5,9,21)          172.0847         estimate D2E/DX2                !
 ! D69   D(28,5,9,22)           55.0325         estimate D2E/DX2                !
 ! D70   D(29,5,9,3)           172.9888         estimate D2E/DX2                !
 ! D71   D(29,5,9,21)           51.4519         estimate D2E/DX2                !
 ! D72   D(29,5,9,22)          -65.6003         estimate D2E/DX2                !
 ! D73   D(5,6,10,8)            60.7217         estimate D2E/DX2                !
 ! D74   D(5,6,10,23)          -60.4226         estimate D2E/DX2                !
 ! D75   D(5,6,10,24)         -178.0203         estimate D2E/DX2                !
 ! D76   D(1,7,11,2)            57.383          estimate D2E/DX2                !
 ! D77   D(19,7,11,2)          -65.1678         estimate D2E/DX2                !
 ! D78   D(20,7,11,2)          178.6821         estimate D2E/DX2                !
 ! D79   D(3,8,10,6)           -53.9109         estimate D2E/DX2                !
 ! D80   D(3,8,10,23)           67.5594         estimate D2E/DX2                !
 ! D81   D(3,8,10,24)         -172.9863         estimate D2E/DX2                !
 ! D82   D(12,8,10,6)           70.3384         estimate D2E/DX2                !
 ! D83   D(12,8,10,23)        -168.1913         estimate D2E/DX2                !
 ! D84   D(12,8,10,24)         -48.737          estimate D2E/DX2                !
 ! D85   D(31,8,10,6)         -173.5919         estimate D2E/DX2                !
 ! D86   D(31,8,10,23)         -52.1216         estimate D2E/DX2                !
 ! D87   D(31,8,10,24)          67.3327         estimate D2E/DX2                !
 ! D88   D(3,8,12,2)           -63.518          Frozen                          !
 ! D89   D(10,8,12,2)          174.7308         estimate D2E/DX2                !
 ! D90   D(31,8,12,2)           58.5572         estimate D2E/DX2                !
 --------------------------------------------------------------------------------
 Trust Radius=3.00D-01 FncErr=1.00D-07 GrdErr=1.00D-06 EigMax=2.50D+02 EigMin=1.00D-04
 Number of steps in this run=    186 maximum allowed number of steps=    186.
 GradGradGradGradGradGradGradGradGradGradGradGradGradGradGradGradGradGrad

                          Input orientation:                          
 ---------------------------------------------------------------------
 Center     Atomic      Atomic             Coordinates (Angstroms)
 Number     Number       Type             X           Y           Z
 ---------------------------------------------------------------------
      1          6           0        3.131556    0.841021    0.756062
      2          6           0        1.136665   -0.484985   -0.873635
      3          6           0       -1.764161    0.279119   -1.341664
      4          6           0        2.919019   -0.664306    0.913397
      5          6           0       -3.057085    0.799337    0.739937
      6          8           0       -2.440274   -0.307484    1.372405
      7          6           0        1.853089    1.497979    0.263551
      8          6           0       -1.219496   -0.957084   -0.625085
      9          6           0       -2.162611    1.372847   -0.348239
     10          6           0       -2.166073   -1.371777    0.487358
     11          8           0        1.385527    0.895495   -0.936306
     12          8           0        0.057444   -0.765157   -0.029610
     13          6           0        2.367293   -1.240662   -0.390972
     14          1           0        3.930118    1.027966    0.041754
     15          1           0        3.422959    1.296546    1.698280
     16          1           0       -2.643453   -0.039638   -1.896875
     17          1           0        3.851077   -1.158625    1.169596
     18          1           0        2.225238   -0.852588    1.728670
     19          1           0        1.079733    1.439165    1.021451
     20          1           0        2.009686    2.540301    0.022400
     21          1           0       -1.280102    1.808903    0.108743
     22          1           0       -2.690492    2.172567   -0.859838
     23          1           0       -3.094125   -1.729188    0.048291
     24          1           0       -1.733508   -2.167055    1.077994
     25          1           0        3.123032   -1.161384   -1.167999
     26          1           0        2.114210   -2.290500   -0.288201
     27          1           0        0.890215   -0.775041   -1.884884
     28          1           0       -4.010713    0.481247    0.323772
     29          1           0       -3.250253    1.525654    1.517555
     30          1           0       -1.052655    0.651007   -2.068566
     31          1           0       -1.141707   -1.781098   -1.328317
 ---------------------------------------------------------------------
                    Distance matrix (angstroms):
                    1          2          3          4          5
     1  C    0.000000
     2  C    2.897205   0.000000
     3  C    5.355766   3.036066   0.000000
     4  C    1.528377   2.530301   5.282757   0.000000
     5  C    6.188802   4.673397   2.505063   6.155173   0.000000
     6  O    5.722258   4.227374   2.857867   5.390736   1.416165
     7  C    1.519421   2.395538   4.140873   2.496795   4.982455
     8  C    4.906363   2.415812   1.529164   4.424924   2.885313
     9  C    5.434199   3.822670   1.530326   5.618245   1.520896
    10  C    5.747482   3.680595   2.496460   5.151717   2.360389
    11  O    2.432220   1.404131   3.234930   2.864608   4.749299
    12  O    3.556298   1.398425   2.475933   3.014638   3.569333
    13  C    2.496636   1.522648   4.503605   1.529041   5.904611
    14  H    1.087605   3.306106   5.907574   2.155427   7.025720
    15  H    1.086367   3.875015   6.097756   2.171391   6.569369
    16  H    6.415946   3.941402   1.087667   6.263301   2.797811
    17  H    2.165018   3.463613   6.316996   1.085689   7.193116
    18  H    2.153065   2.844664   5.159750   1.086946   5.622222
    19  H    2.153645   2.701286   3.875274   2.796290   4.195461
    20  H    2.164349   3.273744   4.606033   3.448227   5.405366
    21  H    4.562734   3.473867   2.162922   4.939317   2.138995
    22  H    6.187115   4.659389   2.162265   6.531372   2.139961
    23  H    6.772445   4.505283   2.781021   6.167681   2.621676
    24  H    5.728962   3.856956   3.440850   4.891968   3.265826
    25  H    2.776996   2.118919   5.098025   2.149632   6.758587
    26  H    3.454259   2.134997   4.770166   2.176250   6.111174
    27  H    3.822285   1.080507   2.907242   3.458133   4.994950
    28  H    7.164378   5.372419   2.803842   7.048485   1.088017
    29  H    6.463442   5.385676   3.455062   6.574257   1.081453
    30  H    5.051955   2.740704   1.083018   5.137737   3.453611
    31  H    5.429634   2.660380   2.152236   4.770954   3.821648
                    6          7          8          9         10
     6  O    0.000000
     7  C    4.787715   0.000000
     8  C    2.429454   4.032095   0.000000
     9  C    2.420997   4.063963   2.528772   0.000000
    10  C    1.411104   4.943607   1.518390   2.869006   0.000000
    11  O    4.627533   1.421710   3.211706   3.628081   4.447607
    12  O    2.900639   2.903802   1.421971   3.098585   2.362048
    13  C    5.205096   2.862335   3.605590   5.229941   4.619530
    14  H    6.643490   2.141064   5.559103   6.114931   6.566649
    15  H    6.087414   2.136238   5.659440   5.949173   6.310591
    16  H    3.286520   5.220210   2.118209   2.150487   2.772554
    17  H    6.351903   3.445347   5.382584   6.699001   6.059453
    18  H    4.710739   2.794680   4.173401   5.340349   4.592823
    19  H    3.945174   1.084413   3.706689   3.520404   4.326882
    20  H    5.452938   1.081255   4.804014   4.348377   5.740863
    21  H    2.724323   3.152384   2.862317   1.085265   3.323405
    22  H    3.346068   4.728763   3.466072   1.086252   3.827836
    23  H    2.049888   5.910657   2.136308   3.263062   1.087108
    24  H    2.011020   5.192251   2.151445   3.840466   1.080940
    25  H    6.175206   3.276324   4.381101   5.918814   5.546089
    26  H    5.237680   3.837341   3.606256   5.631600   4.445938
    27  H    4.681955   3.272540   2.463963   4.036638   3.914655
    28  H    2.046462   5.951600   3.280247   2.159174   2.619762
    29  H    2.009360   5.255225   3.857314   2.165064   3.260653
    30  H    3.832032   3.820927   2.167356   2.170848   3.444431
    31  H    3.339418   4.717541   1.086087   3.456901   2.124511
                   11         12         13         14         15
    11  O    0.000000
    12  O    2.311637   0.000000
    13  C    2.413384   2.385810   0.000000
    14  H    2.729303   4.268253   2.788610   0.000000
    15  H    3.354551   4.308470   3.452076   1.753118   0.000000
    16  H    4.246157   3.362722   5.368219   6.936130   7.177178
    17  H    3.838381   3.998070   2.154929   2.461596   2.547677
    18  H    3.295907   2.792584   2.159552   3.047751   2.460536
    19  H    2.054726   2.647421   3.291538   3.041971   2.443184
    20  H    2.003517   3.839272   3.820267   2.444502   2.520484
    21  H    3.005332   2.904127   4.780487   5.268846   4.990784
    22  H    4.272083   4.107390   6.119735   6.779045   6.684734
    23  H    5.284475   3.296636   5.500791   7.545988   7.372239
    24  H    4.813003   2.529746   4.453385   6.584726   6.242631
    25  H    2.702472   3.294048   1.086829   2.628335   3.787734
    26  H    3.331904   2.573680   1.084792   3.797184   4.304164
    27  H    1.983891   2.033629   2.151821   4.025392   4.852353
    28  H    5.556870   4.269462   6.644907   7.964624   7.603517
    29  H    5.282896   4.310730   6.546129   7.347340   6.679589
    30  H    2.699355   2.719408   4.253090   5.424350   5.885318
    31  H    3.701991   2.038808   3.672025   5.957461   6.282385
                   16         17         18         19         20
    16  H    0.000000
    17  H    7.268720   0.000000
    18  H    6.124509   1.746303   0.000000
    19  H    4.956370   3.801422   2.657907   0.000000
    20  H    5.656094   4.288220   3.803882   1.753686   0.000000
    21  H    3.049317   6.021680   4.689894   2.557061   3.371217
    22  H    2.443667   7.616270   6.325847   4.276882   4.796378
    23  H    2.615598   7.058236   5.646922   5.329783   6.654179
    24  H    3.768786   5.675642   4.221714   4.574095   6.106143
    25  H    5.919622   2.448348   3.048291   3.966310   4.044634
    26  H    5.503596   2.534368   2.479453   4.086041   4.841904
    27  H    3.609400   4.271263   3.853060   3.658607   3.985278
    28  H    2.659322   8.075416   6.529926   5.226567   6.369908
    29  H    3.804823   7.599692   5.973408   4.359172   5.561650
    30  H    1.742730   6.148744   5.236829   3.836206   4.161671
    31  H    2.368793   5.617378   4.641510   4.563584   5.516358
                   21         22         23         24         25
    21  H    0.000000
    22  H    1.749171   0.000000
    23  H    3.976484   4.026327   0.000000
    24  H    4.117434   4.848023   1.761617   0.000000
    25  H    5.462624   6.708745   6.360409   5.444432   0.000000
    26  H    5.337043   6.582621   5.249291   4.084931   1.751191
    27  H    3.919387   4.749797   4.530180   4.195268   2.376690
    28  H    3.043870   2.450404   2.408744   3.573236   7.470872
    29  H    2.438540   2.526623   3.574508   4.016196   7.419645
    30  H    2.476516   2.541393   3.783386   4.278536   4.640274
    31  H    3.869419   4.271964   2.389494   2.507892   4.312510
                   26         27         28         29         30
    26  H    0.000000
    27  H    2.518765   0.000000
    28  H    6.750687   5.520463   0.000000
    29  H    6.826511   5.832089   1.759035   0.000000
    30  H    4.674526   2.417043   3.808176   4.295894   0.000000
    31  H    3.455767   2.334657   4.009838   4.845571   2.543823
                   31
    31  H    0.000000
 Stoichiometry    C10H18O3
 Framework group  C1[X(C10H18O3)]
 Deg. of freedom    87
 Full point group                 C1      NOp   1
 Largest Abelian subgroup         C1      NOp   1
 Largest concise Abelian subgroup C1      NOp   1
                         Standard orientation:                         
 ---------------------------------------------------------------------
 Center     Atomic      Atomic             Coordinates (Angstroms)
 Number     Number       Type             X           Y           Z
 ---------------------------------------------------------------------
      1          6           0       -3.131556    0.841021   -0.756062
      2          6           0       -1.136665   -0.484985    0.873635
      3          6           0        1.764161    0.279119    1.341664
      4          6           0       -2.919019   -0.664306   -0.913397
      5          6           0        3.057085    0.799337   -0.739937
      6          8           0        2.440274   -0.307484   -1.372405
      7          6           0       -1.853089    1.497979   -0.263551
      8          6           0        1.219496   -0.957084    0.625085
      9          6           0        2.162611    1.372847    0.348239
     10          6           0        2.166073   -1.371777   -0.487358
     11          8           0       -1.385527    0.895495    0.936306
     12          8           0       -0.057444   -0.765157    0.029610
     13          6           0       -2.367293   -1.240662    0.390972
     14          1           0       -3.930118    1.027966   -0.041754
     15          1           0       -3.422959    1.296546   -1.698280
     16          1           0        2.643453   -0.039638    1.896875
     17          1           0       -3.851077   -1.158625   -1.169596
     18          1           0       -2.225238   -0.852588   -1.728670
     19          1           0       -1.079733    1.439165   -1.021451
     20          1           0       -2.009686    2.540301   -0.022400
     21          1           0        1.280102    1.808903   -0.108743
     22          1           0        2.690492    2.172567    0.859838
     23          1           0        3.094125   -1.729188   -0.048291
     24          1           0        1.733508   -2.167055   -1.077994
     25          1           0       -3.123032   -1.161384    1.167999
     26          1           0       -2.114210   -2.290500    0.288201
     27          1           0       -0.890215   -0.775041    1.884884
     28          1           0        4.010713    0.481247   -0.323772
     29          1           0        3.250253    1.525654   -1.517555
     30          1           0        1.052655    0.651007    2.068566
     31          1           0        1.141707   -1.781098    1.328317
 ---------------------------------------------------------------------
 Rotational constants (GHZ):           1.5293957           0.4991101           0.4727889
 Standard basis: 6-311++G(2d,2p) (5D, 7F)
 There are   557 symmetry adapted cartesian basis functions of A   symmetry.
 There are   531 symmetry adapted basis functions of A   symmetry.
   531 basis functions,   762 primitive gaussians,   557 cartesian basis functions
    51 alpha electrons       51 beta electrons
       nuclear repulsion energy       913.1390037651 Hartrees.
 NAtoms=   31 NActive=   31 NUniq=   31 SFac= 1.00D+00 NAtFMM=   60 NAOKFM=F Big=F
 Integral buffers will be    131072 words long.
 Raffenetti 2 integral format.
 Two-electron integral symmetry is turned on.
 ------------------------------------------------------------------------------
 Polarizable Continuum Model (PCM)
 =================================
 Model                : PCM.
 Atomic radii         : UFF (Universal Force Field).
 Polarization charges : Total charges.
 Charge compensation  : None.
 Solution method      : On-the-fly selection.
 Cavity type          : Scaled VdW (van der Waals Surface) (Alpha=1.100).
 Cavity algorithm     : GePol (No added spheres)
                        Default sphere list used, NSphG=   31.
                        Lebedev-Laikov grids with approx.  5.0 points / Ang**2.
                        Smoothing algorithm: York/Karplus (Gamma=1.0000).
                        Polarization charges: spherical gaussians, with
                                              point-specific exponents (IZeta= 3).
                        Self-potential: point-specific (ISelfS= 7).
                        Self-field    : sphere-specific E.n sum rule (ISelfD= 2).
 1st derivatives      : Analytical E(r).r(x)/FMM algorithm (CHGder, D1EAlg=3).
                        Cavity 1st derivative terms included.
 Solvent              : Water, Eps=  78.355300 Eps(inf)=   1.777849
 ------------------------------------------------------------------------------
 One-electron integrals computed using PRISM.
 NBasis=   531 RedAO= T EigKep=  4.42D-06  NBF=   531
 NBsUse=   531 1.00D-06 EigRej= -1.00D+00 NBFU=   531
 ExpMin= 3.60D-02 ExpMax= 8.59D+03 ExpMxC= 1.30D+03 IAcc=3 IRadAn=         5 AccDes= 0.00D+00
 Harris functional with IExCor= 1009 and IRadAn=       5 diagonalized for initial guess.
 HarFok:  IExCor= 1009 AccDes= 0.00D+00 IRadAn=         5 IDoV= 1 UseB2=F ITyADJ=14
 ICtDFT=  3500011 ScaDFX=  1.000000  1.000000  1.000000  1.000000
 FoFCou: FMM=F IPFlag=           0 FMFlag=      100000 FMFlg1=           0
         NFxFlg=           0 DoJE=T BraDBF=F KetDBF=T FulRan=T
         wScrn=  0.000000 ICntrl=       500 IOpCl=  0 I1Cent=   200000004 NGrid=           0
         NMat0=    1 NMatS0=      1 NMatT0=    0 NMatD0=    1 NMtDS0=    0 NMtDT0=    0
 Petite list used in FoFCou.
 Requested convergence on RMS density matrix=1.00D-08 within 128 cycles.
 Requested convergence on MAX density matrix=1.00D-06.
 Requested convergence on             energy=1.00D-06.
 No special actions if energy rises.
 Inv3:  Mode=1 IEnd=    12362700.
 Iteration    1 A*A^-1 deviation from unit magnitude is 3.89D-15 for   2017.
 Iteration    1 A*A^-1 deviation from orthogonality  is 2.01D-15 for   1873   1190.
 Iteration    1 A^-1*A deviation from unit magnitude is 3.44D-15 for   2017.
 Iteration    1 A^-1*A deviation from orthogonality  is 2.68D-15 for   2015   1502.
 Error on total polarization charges =  0.01459
 SCF Done:  E(RM062X) =  -617.501272522     A.U. after   13 cycles
            NFock= 13  Conv=0.20D-08     -V/T= 2.0035

 **********************************************************************

            Population analysis using the SCF density.

 **********************************************************************

 Orbital symmetries:
       Occupied  (A) (A) (A) (A) (A) (A) (A) (A) (A) (A) (A) (A)
                 (A) (A) (A) (A) (A) (A) (A) (A) (A) (A) (A) (A)
                 (A) (A) (A) (A) (A) (A) (A) (A) (A) (A) (A) (A)
                 (A) (A) (A) (A) (A) (A) (A) (A) (A) (A) (A) (A)
                 (A) (A) (A)
       Virtual   (A) (A) (A) (A) (A) (A) (A) (A) (A) (A) (A) (A)
                 (A) (A) (A) (A) (A) (A) (A) (A) (A) (A) (A) (A)
                 (A) (A) (A) (A) (A) (A) (A) (A) (A) (A) (A) (A)
                 (A) (A) (A) (A) (A) (A) (A) (A) (A) (A) (A) (A)
                 (A) (A) (A) (A) (A) (A) (A) (A) (A) (A) (A) (A)
                 (A) (A) (A) (A) (A) (A) (A) (A) (A) (A) (A) (A)
                 (A) (A) (A) (A) (A) (A) (A) (A) (A) (A) (A) (A)
                 (A) (A) (A) (A) (A) (A) (A) (A) (A) (A) (A) (A)
                 (A) (A) (A) (A) (A) (A) (A) (A) (A) (A) (A) (A)
                 (A) (A) (A) (A) (A) (A) (A) (A) (A) (A) (A) (A)
                 (A) (A) (A) (A) (A) (A) (A) (A) (A) (A) (A) (A)
                 (A) (A) (A) (A) (A) (A) (A) (A) (A) (A) (A) (A)
                 (A) (A) (A) (A) (A) (A) (A) (A) (A) (A) (A) (A)
                 (A) (A) (A) (A) (A) (A) (A) (A) (A) (A) (A) (A)
                 (A) (A) (A) (A) (A) (A) (A) (A) (A) (A) (A) (A)
                 (A) (A) (A) (A) (A) (A) (A) (A) (A) (A) (A) (A)
                 (A) (A) (A) (A) (A) (A) (A) (A) (A) (A) (A) (A)
                 (A) (A) (A) (A) (A) (A) (A) (A) (A) (A) (A) (A)
                 (A) (A) (A) (A) (A) (A) (A) (A) (A) (A) (A) (A)
                 (A) (A) (A) (A) (A) (A) (A) (A) (A) (A) (A) (A)
                 (A) (A) (A) (A) (A) (A) (A) (A) (A) (A) (A) (A)
                 (A) (A) (A) (A) (A) (A) (A) (A) (A) (A) (A) (A)
                 (A) (A) (A) (A) (A) (A) (A) (A) (A) (A) (A) (A)
                 (A) (A) (A) (A) (A) (A) (A) (A) (A) (A) (A) (A)
                 (A) (A) (A) (A) (A) (A) (A) (A) (A) (A) (A) (A)
                 (A) (A) (A) (A) (A) (A) (A) (A) (A) (A) (A) (A)
                 (A) (A) (A) (A) (A) (A) (A) (A) (A) (A) (A) (A)
                 (A) (A) (A) (A) (A) (A) (A) (A) (A) (A) (A) (A)
                 (A) (A) (A) (A) (A) (A) (A) (A) (A) (A) (A) (A)
                 (A) (A) (A) (A) (A) (A) (A) (A) (A) (A) (A) (A)
                 (A) (A) (A) (A) (A) (A) (A) (A) (A) (A) (A) (A)
                 (A) (A) (A) (A) (A) (A) (A) (A) (A) (A) (A) (A)
                 (A) (A) (A) (A) (A) (A) (A) (A) (A) (A) (A) (A)
                 (A) (A) (A) (A) (A) (A) (A) (A) (A) (A) (A) (A)
                 (A) (A) (A) (A) (A) (A) (A) (A) (A) (A) (A) (A)
                 (A) (A) (A) (A) (A) (A) (A) (A) (A) (A) (A) (A)
                 (A) (A) (A) (A) (A) (A) (A) (A) (A) (A) (A) (A)
                 (A) (A) (A) (A) (A) (A) (A) (A) (A) (A) (A) (A)
                 (A) (A) (A) (A) (A) (A) (A) (A) (A) (A) (A) (A)
                 (A) (A) (A) (A) (A) (A) (A) (A) (A) (A) (A) (A)
 The electronic state is 1-A.
 Alpha  occ. eigenvalues --  -19.62704 -19.62665 -19.62529 -10.63274 -10.58835
 Alpha  occ. eigenvalues --  -10.57938 -10.57691 -10.57524 -10.53076 -10.52911
 Alpha  occ. eigenvalues --  -10.52825 -10.52754 -10.52687  -1.19911  -1.16569
 Alpha  occ. eigenvalues --   -1.13310  -0.90731  -0.89533  -0.87553  -0.84742
 Alpha  occ. eigenvalues --   -0.74773  -0.73921  -0.72947  -0.71933  -0.66447
 Alpha  occ. eigenvalues --   -0.62404  -0.60091  -0.58180  -0.57570  -0.55421
 Alpha  occ. eigenvalues --   -0.54218  -0.53159  -0.52927  -0.51335  -0.49947
 Alpha  occ. eigenvalues --   -0.47642  -0.46867  -0.46395  -0.45559  -0.45083
 Alpha  occ. eigenvalues --   -0.43489  -0.42909  -0.41305  -0.40154  -0.39513
 Alpha  occ. eigenvalues --   -0.38323  -0.37468  -0.36048  -0.34189  -0.33067
 Alpha  occ. eigenvalues --   -0.32041
 Alpha virt. eigenvalues --   -0.00177   0.00822   0.00892   0.01061   0.02276
 Alpha virt. eigenvalues --    0.02551   0.02749   0.03183   0.03316   0.04727
 Alpha virt. eigenvalues --    0.04810   0.04945   0.05396   0.05924   0.07136
 Alpha virt. eigenvalues --    0.07430   0.07788   0.08144   0.08803   0.09483
 Alpha virt. eigenvalues --    0.09985   0.10817   0.11041   0.11474   0.12186
 Alpha virt. eigenvalues --    0.12372   0.12674   0.12874   0.13335   0.13615
 Alpha virt. eigenvalues --    0.13761   0.13886   0.14165   0.14280   0.14915
 Alpha virt. eigenvalues --    0.14973   0.15391   0.15613   0.15948   0.16164
 Alpha virt. eigenvalues --    0.16646   0.16891   0.17336   0.17671   0.18065
 Alpha virt. eigenvalues --    0.18252   0.18409   0.19032   0.19525   0.19863
 Alpha virt. eigenvalues --    0.19974   0.20242   0.20903   0.21389   0.21478
 Alpha virt. eigenvalues --    0.21834   0.22617   0.23270   0.23473   0.24252
 Alpha virt. eigenvalues --    0.24571   0.26022   0.26507   0.26684   0.27298
 Alpha virt. eigenvalues --    0.27716   0.28135   0.28463   0.28941   0.29093
 Alpha virt. eigenvalues --    0.29768   0.29998   0.30696   0.31517   0.32173
 Alpha virt. eigenvalues --    0.32252   0.33299   0.33849   0.34417   0.34939
 Alpha virt. eigenvalues --    0.35131   0.35400   0.35575   0.35822   0.36137
 Alpha virt. eigenvalues --    0.36561   0.36806   0.37244   0.37892   0.38559
 Alpha virt. eigenvalues --    0.38842   0.38872   0.39357   0.39660   0.40693
 Alpha virt. eigenvalues --    0.41414   0.41682   0.43511   0.44955   0.45559
 Alpha virt. eigenvalues --    0.46107   0.48027   0.49268   0.50397   0.50584
 Alpha virt. eigenvalues --    0.52240   0.52466   0.53698   0.54674   0.56721
 Alpha virt. eigenvalues --    0.56895   0.57444   0.58749   0.59273   0.59937
 Alpha virt. eigenvalues --    0.60211   0.60996   0.61076   0.61655   0.62397
 Alpha virt. eigenvalues --    0.62789   0.63205   0.63667   0.64380   0.64554
 Alpha virt. eigenvalues --    0.65363   0.65837   0.65974   0.66982   0.67513
 Alpha virt. eigenvalues --    0.68300   0.68457   0.69138   0.69691   0.69779
 Alpha virt. eigenvalues --    0.70416   0.71149   0.71791   0.72315   0.72697
 Alpha virt. eigenvalues --    0.73865   0.74506   0.75008   0.75612   0.76469
 Alpha virt. eigenvalues --    0.76872   0.77088   0.78472   0.78558   0.79417
 Alpha virt. eigenvalues --    0.80723   0.82221   0.83819   0.85103   0.85586
 Alpha virt. eigenvalues --    0.86682   0.88154   0.88260   0.89655   0.90070
 Alpha virt. eigenvalues --    0.90604   0.92823   0.93864   0.95476   0.97612
 Alpha virt. eigenvalues --    0.97881   0.99229   0.99736   1.00761   1.02188
 Alpha virt. eigenvalues --    1.03618   1.04130   1.04758   1.05518   1.06185
 Alpha virt. eigenvalues --    1.07416   1.08946   1.09894   1.10796   1.11616
 Alpha virt. eigenvalues --    1.13349   1.14041   1.15641   1.16765   1.17146
 Alpha virt. eigenvalues --    1.17651   1.18913   1.19315   1.19870   1.20827
 Alpha virt. eigenvalues --    1.21091   1.22108   1.23175   1.23677   1.24402
 Alpha virt. eigenvalues --    1.25044   1.25392   1.26927   1.27102   1.28180
 Alpha virt. eigenvalues --    1.28308   1.29776   1.30563   1.31481   1.31793
 Alpha virt. eigenvalues --    1.32597   1.33523   1.33899   1.35580   1.36123
 Alpha virt. eigenvalues --    1.36372   1.37108   1.37782   1.38188   1.38813
 Alpha virt. eigenvalues --    1.39438   1.39757   1.40257   1.41271   1.41894
 Alpha virt. eigenvalues --    1.42165   1.43322   1.44044   1.45224   1.45824
 Alpha virt. eigenvalues --    1.46350   1.47292   1.47776   1.48170   1.48493
 Alpha virt. eigenvalues --    1.48590   1.49539   1.51068   1.51114   1.52424
 Alpha virt. eigenvalues --    1.52724   1.53425   1.53908   1.54857   1.55354
 Alpha virt. eigenvalues --    1.56008   1.56057   1.57621   1.58370   1.59753
 Alpha virt. eigenvalues --    1.60012   1.60475   1.60851   1.61365   1.62205
 Alpha virt. eigenvalues --    1.63950   1.64936   1.65945   1.67062   1.67482
 Alpha virt. eigenvalues --    1.68577   1.69355   1.69637   1.71194   1.72373
 Alpha virt. eigenvalues --    1.73968   1.75961   1.76413   1.77072   1.77384
 Alpha virt. eigenvalues --    1.78557   1.80267   1.81576   1.82920   1.84148
 Alpha virt. eigenvalues --    1.86962   1.90990   1.91391   1.97211   2.02456
 Alpha virt. eigenvalues --    2.05790   2.09699   2.16331   2.17672   2.22749
 Alpha virt. eigenvalues --    2.25577   2.26205   2.30019   2.35352   2.40614
 Alpha virt. eigenvalues --    2.42101   2.43635   2.45115   2.47188   2.51761
 Alpha virt. eigenvalues --    2.59234   2.76808   2.77640   2.80473   2.82675
 Alpha virt. eigenvalues --    2.83043   2.86415   2.92521   2.93165   2.94280
 Alpha virt. eigenvalues --    2.95844   2.97947   2.98940   3.02041   3.03889
 Alpha virt. eigenvalues --    3.06580   3.08019   3.09474   3.09980   3.12140
 Alpha virt. eigenvalues --    3.12930   3.14005   3.16696   3.21840   3.23509
 Alpha virt. eigenvalues --    3.26106   3.29027   3.31935   3.33440   3.34539
 Alpha virt. eigenvalues --    3.35463   3.36947   3.38819   3.40204   3.41707
 Alpha virt. eigenvalues --    3.41928   3.45321   3.45679   3.46751   3.47536
 Alpha virt. eigenvalues --    3.48895   3.49918   3.50200   3.52333   3.52879
 Alpha virt. eigenvalues --    3.53389   3.53798   3.54523   3.55518   3.56153
 Alpha virt. eigenvalues --    3.56284   3.57839   3.58306   3.59355   3.60891
 Alpha virt. eigenvalues --    3.61437   3.62515   3.63765   3.65390   3.66094
 Alpha virt. eigenvalues --    3.66494   3.67146   3.68206   3.68927   3.69901
 Alpha virt. eigenvalues --    3.70484   3.71060   3.72398   3.73495   3.74248
 Alpha virt. eigenvalues --    3.74980   3.75750   3.76145   3.77194   3.77738
 Alpha virt. eigenvalues --    3.78775   3.79865   3.80127   3.82341   3.85110
 Alpha virt. eigenvalues --    3.86116   3.89078   3.89850   3.90326   3.93008
 Alpha virt. eigenvalues --    3.93217   3.93884   3.95279   3.96458   3.98344
 Alpha virt. eigenvalues --    3.99885   4.00972   4.02477   4.03084   4.03900
 Alpha virt. eigenvalues --    4.04976   4.06320   4.06930   4.07570   4.08148
 Alpha virt. eigenvalues --    4.08479   4.08708   4.09472   4.10345   4.11352
 Alpha virt. eigenvalues --    4.12441   4.12821   4.14628   4.15230   4.16116
 Alpha virt. eigenvalues --    4.16929   4.17842   4.19419   4.21013   4.21731
 Alpha virt. eigenvalues --    4.22863   4.23061   4.23682   4.26200   4.27594
 Alpha virt. eigenvalues --    4.28726   4.29858   4.30837   4.31852   4.32307
 Alpha virt. eigenvalues --    4.32822   4.33386   4.33762   4.36476   4.38780
 Alpha virt. eigenvalues --    4.40224   4.43316   4.43828   4.45967   4.47727
 Alpha virt. eigenvalues --    4.58665   4.61069   4.73479   4.75499   4.82253
 Alpha virt. eigenvalues --    4.85629   4.94512   4.95840   5.00174   5.03258
 Alpha virt. eigenvalues --    5.06661   5.07477   5.07822   5.08933   5.11689
 Alpha virt. eigenvalues --    5.12378   5.14220   5.15031   5.32415   5.40672
 Alpha virt. eigenvalues --    5.45448   5.57718   5.60318   5.67507   5.87360
 Alpha virt. eigenvalues --    5.87679   6.06383   7.02705   7.05013   7.06830
 Alpha virt. eigenvalues --    7.09123   7.11345   7.12838   7.15022   7.20682
 Alpha virt. eigenvalues --    7.27048   7.36817   7.41602   7.44037   7.53750
 Alpha virt. eigenvalues --    7.55395   7.64937  23.96202  23.97577  24.05693
 Alpha virt. eigenvalues --   24.09447  24.11459  24.12201  24.14410  24.15665
 Alpha virt. eigenvalues --   24.17631  24.20529  50.16743  50.18511  50.28268
          Condensed to atoms (all electrons):
               1          2          3          4          5          6
     1  C    5.855996   0.231878  -0.031981  -0.015796   0.014612   0.000605
     2  C    0.231878   6.731647  -0.031237  -0.093909   0.043727  -0.000788
     3  C   -0.031981  -0.031237   6.761797   0.052161  -0.097976   0.031073
     4  C   -0.015796  -0.093909   0.052161   5.645339  -0.007855  -0.000198
     5  C    0.014612   0.043727  -0.097976  -0.007855   5.559747   0.091604
     6  O    0.000605  -0.000788   0.031073  -0.000198   0.091604   8.291458
     7  C   -0.103962  -0.443644   0.037563  -0.029098  -0.018713   0.001990
     8  C    0.044836  -0.466181  -1.190092  -0.024328   0.234964  -0.031439
     9  C    0.005584   0.067562  -0.333005  -0.006893   0.034267   0.028312
    10  C   -0.009705   0.108164   0.455353  -0.004790  -0.308857   0.145518
    11  O   -0.090873   0.240518   0.052459   0.016052  -0.000553  -0.001490
    12  O   -0.023130   0.179006   0.072259  -0.014089  -0.027033   0.015072
    13  C   -0.144347  -0.803045  -0.087614  -0.087156   0.018711  -0.005676
    14  H    0.468009   0.018281   0.000586  -0.007199  -0.000023   0.000033
    15  H    0.444187  -0.000569  -0.000115  -0.051475  -0.000257   0.000095
    16  H   -0.000725  -0.012927   0.501463   0.002188  -0.021347   0.002073
    17  H   -0.022478   0.018112   0.001228   0.412128   0.000176  -0.000097
    18  H   -0.073219  -0.025783   0.000485   0.527772  -0.000907   0.000901
    19  H   -0.080176   0.011301   0.011917   0.008512  -0.005782  -0.003632
    20  H   -0.011445  -0.000983  -0.006807   0.004844   0.001558   0.000188
    21  H   -0.015297  -0.038588  -0.028896   0.004184  -0.134169  -0.013058
    22  H   -0.000401   0.007955  -0.043532   0.001125  -0.025937   0.011046
    23  H    0.000471  -0.000789  -0.068340  -0.000682   0.003339  -0.066074
    24  H   -0.000451  -0.001782   0.010650   0.004066   0.003765  -0.073976
    25  H   -0.008808  -0.143125  -0.000004  -0.016190   0.000274  -0.000037
    26  H   -0.007015  -0.018228  -0.008766  -0.043498   0.000177   0.000360
    27  H    0.007568   0.476286   0.004213   0.006153   0.007701   0.000137
    28  H    0.000451  -0.000599  -0.073046  -0.000565   0.453445  -0.065145
    29  H    0.001028   0.000819   0.015794   0.000009   0.453406  -0.067924
    30  H    0.002463  -0.002770   0.347396  -0.005699  -0.006382  -0.002144
    31  H    0.003703  -0.009806  -0.025857  -0.005444  -0.012326   0.007179
               7          8          9         10         11         12
     1  C   -0.103962   0.044836   0.005584  -0.009705  -0.090873  -0.023130
     2  C   -0.443644  -0.466181   0.067562   0.108164   0.240518   0.179006
     3  C    0.037563  -1.190092  -0.333005   0.455353   0.052459   0.072259
     4  C   -0.029098  -0.024328  -0.006893  -0.004790   0.016052  -0.014089
     5  C   -0.018713   0.234964   0.034267  -0.308857  -0.000553  -0.027033
     6  O    0.001990  -0.031439   0.028312   0.145518  -0.001490   0.015072
     7  C    5.495774  -0.009365   0.008056   0.022191   0.136260   0.025718
     8  C   -0.009365   7.682878  -0.011133  -0.810115  -0.043652  -0.055102
     9  C    0.008056  -0.011133   5.642230   0.093844  -0.023784  -0.007619
    10  C    0.022191  -0.810115   0.093844   6.051531  -0.007049  -0.086736
    11  O    0.136260  -0.043652  -0.023784  -0.007049   8.234255  -0.026105
    12  O    0.025718  -0.055102  -0.007619  -0.086736  -0.026105   8.311469
    13  C    0.197650   0.236558  -0.016945  -0.117139  -0.049656  -0.050313
    14  H   -0.082907  -0.004921   0.000628  -0.000747  -0.001201   0.000014
    15  H   -0.037353   0.001517  -0.000102   0.001549   0.011215   0.000125
    16  H    0.002231  -0.069324  -0.039434  -0.013725   0.003603   0.005036
    17  H    0.009202   0.004189  -0.000809  -0.002870  -0.003967   0.000807
    18  H    0.006610   0.001860   0.001368  -0.003001   0.001436  -0.000016
    19  H    0.457664  -0.025467   0.000758  -0.000999  -0.036678   0.005407
    20  H    0.428314   0.003127   0.003271   0.001529  -0.072376   0.000142
    21  H    0.019300  -0.003184   0.513613   0.013073   0.007101   0.009661
    22  H   -0.000603  -0.006768   0.436842  -0.000974   0.001900   0.001441
    23  H    0.000633  -0.020432   0.033109   0.446792  -0.000181   0.010560
    24  H   -0.003626  -0.029446   0.006542   0.427756   0.000566  -0.000701
    25  H    0.013408   0.001572   0.000570   0.000011  -0.009449   0.010185
    26  H    0.008858   0.002529   0.001378   0.002205   0.009725  -0.008657
    27  H   -0.033840   0.008874  -0.004608  -0.001123  -0.055584  -0.027483
    28  H    0.000102   0.077607  -0.013278  -0.039515  -0.000253  -0.000915
    29  H   -0.002457   0.003916  -0.065067   0.002115   0.000327   0.000890
    30  H    0.005682   0.038405  -0.000278   0.008238  -0.021828  -0.011508
    31  H   -0.000434   0.438194  -0.016891  -0.009235  -0.000542  -0.029797
              13         14         15         16         17         18
     1  C   -0.144347   0.468009   0.444187  -0.000725  -0.022478  -0.073219
     2  C   -0.803045   0.018281  -0.000569  -0.012927   0.018112  -0.025783
     3  C   -0.087614   0.000586  -0.000115   0.501463   0.001228   0.000485
     4  C   -0.087156  -0.007199  -0.051475   0.002188   0.412128   0.527772
     5  C    0.018711  -0.000023  -0.000257  -0.021347   0.000176  -0.000907
     6  O   -0.005676   0.000033   0.000095   0.002073  -0.000097   0.000901
     7  C    0.197650  -0.082907  -0.037353   0.002231   0.009202   0.006610
     8  C    0.236558  -0.004921   0.001517  -0.069324   0.004189   0.001860
     9  C   -0.016945   0.000628  -0.000102  -0.039434  -0.000809   0.001368
    10  C   -0.117139  -0.000747   0.001549  -0.013725  -0.002870  -0.003001
    11  O   -0.049656  -0.001201   0.011215   0.003603  -0.003967   0.001436
    12  O   -0.050313   0.000014   0.000125   0.005036   0.000807  -0.000016
    13  C    6.597788  -0.025171   0.001280   0.005148  -0.047070  -0.050814
    14  H   -0.025171   0.486578  -0.011680  -0.000024  -0.000952   0.001438
    15  H    0.001280  -0.011680   0.487632  -0.000036  -0.007761  -0.003226
    16  H    0.005148  -0.000024  -0.000036   0.419345   0.000110  -0.000066
    17  H   -0.047070  -0.000952  -0.007761   0.000110   0.469576  -0.002654
    18  H   -0.050814   0.001438  -0.003226  -0.000066  -0.002654   0.454402
    19  H    0.010301   0.005815  -0.001401   0.000216  -0.002052  -0.002233
    20  H   -0.003113  -0.008244  -0.008744   0.000058   0.000853  -0.002573
    21  H   -0.002864   0.000375   0.000874   0.005012   0.000347   0.000700
    22  H   -0.000397   0.000146  -0.000131  -0.006789  -0.000005   0.000164
    23  H    0.004142   0.000012  -0.000033  -0.004033  -0.000001   0.000103
    24  H   -0.007336  -0.000019   0.000033  -0.000184   0.000172  -0.000608
    25  H    0.529102  -0.004089  -0.002180   0.000067  -0.000196   0.001026
    26  H    0.428532  -0.001841   0.001632  -0.000304  -0.010936  -0.001817
    27  H   -0.063944   0.001841   0.000777  -0.001762   0.001975  -0.002680
    28  H   -0.001290  -0.000011   0.000055  -0.004755  -0.000031   0.000075
    29  H    0.001604   0.000028  -0.000192  -0.001160   0.000045  -0.000000
    30  H   -0.010387  -0.000810   0.000609   0.000802  -0.000055  -0.000051
    31  H    0.008301   0.000005  -0.000115  -0.006153  -0.000218   0.000481
              19         20         21         22         23         24
     1  C   -0.080176  -0.011445  -0.015297  -0.000401   0.000471  -0.000451
     2  C    0.011301  -0.000983  -0.038588   0.007955  -0.000789  -0.001782
     3  C    0.011917  -0.006807  -0.028896  -0.043532  -0.068340   0.010650
     4  C    0.008512   0.004844   0.004184   0.001125  -0.000682   0.004066
     5  C   -0.005782   0.001558  -0.134169  -0.025937   0.003339   0.003765
     6  O   -0.003632   0.000188  -0.013058   0.011046  -0.066074  -0.073976
     7  C    0.457664   0.428314   0.019300  -0.000603   0.000633  -0.003626
     8  C   -0.025467   0.003127  -0.003184  -0.006768  -0.020432  -0.029446
     9  C    0.000758   0.003271   0.513613   0.436842   0.033109   0.006542
    10  C   -0.000999   0.001529   0.013073  -0.000974   0.446792   0.427756
    11  O   -0.036678  -0.072376   0.007101   0.001900  -0.000181   0.000566
    12  O    0.005407   0.000142   0.009661   0.001441   0.010560  -0.000701
    13  C    0.010301  -0.003113  -0.002864  -0.000397   0.004142  -0.007336
    14  H    0.005815  -0.008244   0.000375   0.000146   0.000012  -0.000019
    15  H   -0.001401  -0.008744   0.000874  -0.000131  -0.000033   0.000033
    16  H    0.000216   0.000058   0.005012  -0.006789  -0.004033  -0.000184
    17  H   -0.002052   0.000853   0.000347  -0.000005  -0.000001   0.000172
    18  H   -0.002233  -0.002573   0.000700   0.000164   0.000103  -0.000608
    19  H    0.515893  -0.017725  -0.011896   0.002238  -0.000217   0.001088
    20  H   -0.017725   0.480529  -0.002810  -0.000646   0.000020  -0.000042
    21  H   -0.011896  -0.002810   0.550888  -0.021477  -0.002995  -0.000360
    22  H    0.002238  -0.000646  -0.021477   0.485328   0.001697   0.001149
    23  H   -0.000217   0.000020  -0.002995   0.001697   0.472703  -0.003245
    24  H    0.001088  -0.000042  -0.000360   0.001149  -0.003245   0.476244
    25  H   -0.002077   0.000426   0.000068  -0.000042   0.000169  -0.000282
    26  H   -0.000157   0.001462  -0.000640   0.000026   0.000099  -0.000919
    27  H    0.004023  -0.000448  -0.002666  -0.000302  -0.001109   0.002633
    28  H   -0.001253   0.000015   0.003688   0.004256   0.005962  -0.002345
    29  H    0.001355  -0.000137  -0.009405  -0.008160   0.000239   0.001588
    30  H   -0.003063   0.000313   0.001491  -0.011066   0.000130  -0.000685
    31  H   -0.000466  -0.000406   0.002114  -0.000002  -0.001759  -0.014426
              25         26         27         28         29         30
     1  C   -0.008808  -0.007015   0.007568   0.000451   0.001028   0.002463
     2  C   -0.143125  -0.018228   0.476286  -0.000599   0.000819  -0.002770
     3  C   -0.000004  -0.008766   0.004213  -0.073046   0.015794   0.347396
     4  C   -0.016190  -0.043498   0.006153  -0.000565   0.000009  -0.005699
     5  C    0.000274   0.000177   0.007701   0.453445   0.453406  -0.006382
     6  O   -0.000037   0.000360   0.000137  -0.065145  -0.067924  -0.002144
     7  C    0.013408   0.008858  -0.033840   0.000102  -0.002457   0.005682
     8  C    0.001572   0.002529   0.008874   0.077607   0.003916   0.038405
     9  C    0.000570   0.001378  -0.004608  -0.013278  -0.065067  -0.000278
    10  C    0.000011   0.002205  -0.001123  -0.039515   0.002115   0.008238
    11  O   -0.009449   0.009725  -0.055584  -0.000253   0.000327  -0.021828
    12  O    0.010185  -0.008657  -0.027483  -0.000915   0.000890  -0.011508
    13  C    0.529102   0.428532  -0.063944  -0.001290   0.001604  -0.010387
    14  H   -0.004089  -0.001841   0.001841  -0.000011   0.000028  -0.000810
    15  H   -0.002180   0.001632   0.000777   0.000055  -0.000192   0.000609
    16  H    0.000067  -0.000304  -0.001762  -0.004755  -0.001160   0.000802
    17  H   -0.000196  -0.010936   0.001975  -0.000031   0.000045  -0.000055
    18  H    0.001026  -0.001817  -0.002680   0.000075  -0.000000  -0.000051
    19  H   -0.002077  -0.000157   0.004023  -0.001253   0.001355  -0.003063
    20  H    0.000426   0.001462  -0.000448   0.000015  -0.000137   0.000313
    21  H    0.000068  -0.000640  -0.002666   0.003688  -0.009405   0.001491
    22  H   -0.000042   0.000026  -0.000302   0.004256  -0.008160  -0.011066
    23  H    0.000169   0.000099  -0.001109   0.005962   0.000239   0.000130
    24  H   -0.000282  -0.000919   0.002633  -0.002345   0.001588  -0.000685
    25  H    0.452338  -0.005623  -0.012710   0.000019   0.000018   0.000491
    26  H   -0.005623   0.482348  -0.009788  -0.000071   0.000023   0.000159
    27  H   -0.012710  -0.009788   0.462317  -0.000883   0.000269  -0.009952
    28  H    0.000019  -0.000071  -0.000883   0.501523  -0.004584   0.001760
    29  H    0.000018   0.000023   0.000269  -0.004584   0.479721  -0.000307
    30  H    0.000491   0.000159  -0.009952   0.001760  -0.000307   0.483033
    31  H    0.001106  -0.002656  -0.005664   0.003697   0.000258  -0.001598
              31
     1  C    0.003703
     2  C   -0.009806
     3  C   -0.025857
     4  C   -0.005444
     5  C   -0.012326
     6  O    0.007179
     7  C   -0.000434
     8  C    0.438194
     9  C   -0.016891
    10  C   -0.009235
    11  O   -0.000542
    12  O   -0.029797
    13  C    0.008301
    14  H    0.000005
    15  H   -0.000115
    16  H   -0.006153
    17  H   -0.000218
    18  H    0.000481
    19  H   -0.000466
    20  H   -0.000406
    21  H    0.002114
    22  H   -0.000002
    23  H   -0.001759
    24  H   -0.014426
    25  H    0.001106
    26  H   -0.002656
    27  H   -0.005664
    28  H    0.003697
    29  H    0.000258
    30  H   -0.001598
    31  H    0.436427
 Mulliken charges:
               1
     1  C   -0.441580
     2  C   -0.040500
     3  C   -0.329129
     4  C   -0.269669
     5  C   -0.253356
     6  O   -0.295966
     7  C   -0.111204
     8  C    0.019922
     9  C   -0.338088
    10  C   -0.363290
    11  O   -0.270197
    12  O   -0.278585
    13  C   -0.464841
    14  H    0.166052
    15  H    0.173791
    16  H    0.235396
    17  H    0.183231
    18  H    0.170826
    19  H    0.158787
    20  H    0.209848
    21  H    0.155818
    22  H    0.171921
    23  H    0.189711
    24  H    0.204181
    25  H    0.193964
    26  H    0.181404
    27  H    0.249781
    28  H    0.155885
    29  H    0.195941
    30  H    0.197612
    31  H    0.242332
 Sum of Mulliken charges =  -0.00000
 Mulliken charges with hydrogens summed into heavy atoms:
               1
     1  C   -0.101736
     2  C    0.209281
     3  C    0.103880
     4  C    0.084389
     5  C    0.098470
     6  O   -0.295966
     7  C    0.257431
     8  C    0.262254
     9  C   -0.010349
    10  C    0.030602
    11  O   -0.270197
    12  O   -0.278585
    13  C   -0.089473
 Electronic spatial extent (au):  <R**2>=           2669.7829
 Charge=              0.0000 electrons
 Dipole moment (field-independent basis, Debye):
    X=              0.0924    Y=             -0.5736    Z=              1.8302  Tot=              1.9202
 Quadrupole moment (field-independent basis, Debye-Ang):
   XX=            -72.0428   YY=            -75.7833   ZZ=            -83.7203
   XY=              1.3691   XZ=              6.9124   YZ=             -4.9004
 Traceless Quadrupole moment (field-independent basis, Debye-Ang):
   XX=              5.1393   YY=              1.3988   ZZ=             -6.5382
   XY=              1.3691   XZ=              6.9124   YZ=             -4.9004
 Octapole moment (field-independent basis, Debye-Ang**2):
  XXX=              5.4974  YYY=             -1.2862  ZZZ=              6.3812  XYY=              5.8984
  XXY=              3.2595  XXZ=              6.9046  XZZ=             -5.3750  YZZ=             -1.8127
  YYZ=             -3.6622  XYZ=              0.7381
 Hexadecapole moment (field-independent basis, Debye-Ang**3):
 XXXX=          -2390.0898 YYYY=           -618.6424 ZZZZ=           -476.7965 XXXY=             13.2542
 XXXZ=             18.0271 YYYX=            -17.2866 YYYZ=              2.2729 ZZZX=              6.1268
 ZZZY=             -9.7807 XXYY=           -492.0410 XXZZ=           -509.8325 YYZZ=           -181.3501
 XXYZ=            -17.3957 YYXZ=             -5.3631 ZZXY=              8.4982
 N-N= 9.131390037651D+02 E-N=-3.268468248174D+03  KE= 6.153304239334D+02
 D1PCM: PCM CHGder 1st derivatives, ID1Alg=3 FixD1E=F DoIter=F DoCFld=F I1PDM=0.
 Calling FoFJK, ICntrl=      2127 FMM=F ISym2X=0 I1Cent= 0 IOpClX= 0 NMat=1 NMatS=1 NMatT=0.
 ***** Axes restored to original set *****
 -------------------------------------------------------------------
 Center     Atomic                   Forces (Hartrees/Bohr)
 Number     Number              X              Y              Z
 -------------------------------------------------------------------
      1        6          -0.002334582   -0.001171892    0.000922875
      2        6           0.002206952    0.000644283    0.006595222
      3        6          -0.001408118    0.000144055    0.005546713
      4        6          -0.001193533    0.002134477   -0.003200340
      5        6           0.005410774   -0.002180424   -0.003671915
      6        8           0.002274935   -0.000533611    0.008223345
      7        6           0.003157478   -0.006165574   -0.000534009
      8        6           0.001914763    0.003159989   -0.001231179
      9        6          -0.001399255   -0.002299907   -0.001133729
     10        6           0.001004587    0.006353749   -0.002212211
     11        8          -0.002020712    0.005978787   -0.009758308
     12        8          -0.000448961   -0.000426135    0.011465541
     13        6          -0.000725523    0.000813927    0.002331316
     14        1           0.001947827    0.000366699   -0.002656279
     15        1           0.001005302    0.000923646    0.002504024
     16        1          -0.003323142   -0.001058973   -0.001782335
     17        1           0.002235167   -0.001135227    0.000548915
     18        1          -0.003066170   -0.000307528    0.001954812
     19        1          -0.004458827   -0.001301053    0.004855849
     20        1           0.000768131    0.004281119   -0.001041244
     21        1           0.004155012    0.000251526    0.001622803
     22        1          -0.001152017    0.002145495   -0.001636366
     23        1          -0.004868542   -0.002133941   -0.003572046
     24        1           0.002788313   -0.003186134    0.002349892
     25        1           0.002382098    0.000839902   -0.002381089
     26        1          -0.000998792   -0.002939186    0.000527987
     27        1          -0.001643422   -0.001563945   -0.007816348
     28        1          -0.005181108   -0.001286468   -0.003381813
     29        1          -0.000714182    0.002999209    0.003109478
     30        1           0.004063051    0.001104542   -0.001962915
     31        1          -0.000377505   -0.004451407   -0.004586644
 -------------------------------------------------------------------
 Cartesian Forces:  Max     0.011465541 RMS     0.003344476

 GradGradGradGradGradGradGradGradGradGradGradGradGradGradGradGradGradGrad
 Berny optimization.
 FormGI is forming the generalized inverse of G from B-inverse, IUseBI=4.
 Internal  Forces:  Max     0.013353456 RMS     0.002125928
 Search for a local minimum.
 Step number   1 out of a maximum of  186
 All quantities printed in internal units (Hartrees-Bohrs-Radians)
 Mixed Optimization -- RFO/linear search
 Second derivative matrix not updated -- first step.
 ITU=  0
     Eigenvalues ---    0.00599   0.00629   0.00723   0.00741   0.01408
     Eigenvalues ---    0.01453   0.01713   0.02702   0.02810   0.03064
     Eigenvalues ---    0.03085   0.04099   0.04321   0.04509   0.04750
     Eigenvalues ---    0.04893   0.04894   0.05001   0.05129   0.05136
     Eigenvalues ---    0.05271   0.05676   0.05697   0.06182   0.06183
     Eigenvalues ---    0.06364   0.06824   0.06962   0.07579   0.07830
     Eigenvalues ---    0.07934   0.07975   0.07982   0.08224   0.08243
     Eigenvalues ---    0.08823   0.09263   0.09389   0.10707   0.11610
     Eigenvalues ---    0.11700   0.11719   0.11762   0.12400   0.12552
     Eigenvalues ---    0.14699   0.14713   0.15929   0.16482   0.17486
     Eigenvalues ---    0.19173   0.21396   0.21964   0.25000   0.28514
     Eigenvalues ---    0.28632   0.28784   0.28854   0.28956   0.28965
     Eigenvalues ---    0.30277   0.30408   0.35043   0.35084   0.35091
     Eigenvalues ---    0.35149   0.35168   0.35182   0.35236   0.35249
     Eigenvalues ---    0.35269   0.35316   0.35366   0.35422   0.35466
     Eigenvalues ---    0.35632   0.35819   0.35843   0.35881   0.35933
     Eigenvalues ---    0.40830   0.41413   0.42165   0.42297   0.43418
     Eigenvalues ---    0.458831000.000001000.000001000.000001000.00000
     Eigenvalues --- 1000.000001000.000001000.000001000.000001000.00000
     Eigenvalues --- 1000.000001000.000001000.000001000.000001000.00000
     Eigenvalues --- 1000.000001000.000001000.000001000.000001000.00000
     Eigenvalues --- 1000.000001000.000001000.000001000.000001000.00000
     Eigenvalues --- 1000.000001000.000001000.000001000.000001000.00000
     Eigenvalues --- 1000.000001000.000001000.000001000.000001000.00000
     Eigenvalues --- 1000.000001000.000001000.000001000.000001000.00000
     Eigenvalues --- 1000.000001000.000001000.000001000.000001000.00000
     Eigenvalues --- 1000.000001000.000001000.000001000.000001000.00000
     Eigenvalues --- 1000.000001000.000001000.000001000.000001000.00000
     Eigenvalues --- 1000.000001000.000001000.000001000.000001000.00000
     Eigenvalues --- 1000.000001000.000001000.000001000.000001000.00000
     Eigenvalues --- 1000.000001000.000001000.000001000.000001000.00000
     Eigenvalues --- 1000.000001000.000001000.000001000.000001000.00000
     Eigenvalues --- 1000.000001000.000001000.000001000.000001000.00000
     Eigenvalues --- 1000.000001000.000001000.000001000.000001000.00000
     Eigenvalues --- 1000.000001000.000001000.000001000.000001000.00000
     Eigenvalues --- 1000.000001000.000001000.000001000.000001000.00000
     Eigenvalues --- 1000.000001000.000001000.000001000.000001000.00000
 RFO step:  Lambda=-4.48810227D-03 EMin= 5.98981437D-03
 Linear search not attempted -- first point.
 Iteration  1 RMS(Cart)=  0.11352631 RMS(Int)=  0.00251306
 Iteration  2 RMS(Cart)=  0.00547199 RMS(Int)=  0.00007523
 Iteration  3 RMS(Cart)=  0.00000836 RMS(Int)=  0.00007510
 Iteration  4 RMS(Cart)=  0.00000000 RMS(Int)=  0.00007510
 Iteration  1 RMS(Cart)=  0.00005873 RMS(Int)=  0.00001292
 Iteration  2 RMS(Cart)=  0.00003247 RMS(Int)=  0.00001443
 Iteration  3 RMS(Cart)=  0.00001795 RMS(Int)=  0.00001632
 Iteration  4 RMS(Cart)=  0.00000992 RMS(Int)=  0.00001759
 Iteration  5 RMS(Cart)=  0.00000549 RMS(Int)=  0.00001834
 Iteration  6 RMS(Cart)=  0.00000303 RMS(Int)=  0.00001877
 Iteration  7 RMS(Cart)=  0.00000168 RMS(Int)=  0.00001902
 Iteration  8 RMS(Cart)=  0.00000093 RMS(Int)=  0.00001915
 Variable       Old X    -DE/DX   Delta X   Delta X   Delta X     New X
                                 (Linear)    (Quad)   (Total)
    R1        2.88821  -0.00076   0.00000  -0.00168  -0.00169   2.88652
    R2        2.87129   0.00031   0.00000   0.00132   0.00134   2.87263
    R3        2.05528   0.00324   0.00000   0.00911   0.00911   2.06438
    R4        2.05294   0.00283   0.00000   0.00793   0.00793   2.06086
    R5        2.65342   0.00353   0.00000   0.00720   0.00721   2.66064
    R6        2.64264   0.00248   0.00000   0.00535   0.00535   2.64799
    R7        2.87739  -0.00042   0.00000  -0.00174  -0.00176   2.87562
    R8        2.04186   0.00811   0.00000   0.02229   0.02229   2.06415
    R9        2.88970  -0.00187   0.00000  -0.00669  -0.00666   2.88304
   R10        2.89190  -0.00185   0.00000  -0.00750  -0.00753   2.88436
   R11        2.05539   0.00391   0.00000   0.01099   0.01099   2.06638
   R12        2.04661   0.00437   0.00000   0.01210   0.01210   2.05871
   R13        2.88947  -0.00141   0.00000  -0.00448  -0.00449   2.88498
   R14        2.05166   0.00257   0.00000   0.00717   0.00717   2.05883
   R15        2.05403   0.00348   0.00000   0.00976   0.00976   2.06379
   R16        2.67616   0.00306   0.00000   0.00739   0.00737   2.68353
   R17        2.87408   0.00062   0.00000   0.00107   0.00100   2.87508
   R18        2.05605   0.00621   0.00000   0.01750   0.01750   2.07355
   R19        2.04365   0.00438   0.00000   0.01207   0.01207   2.05572
   R20        2.66660   0.00238   0.00000   0.00622   0.00625   2.67285
   R21        2.68664   0.00253   0.00000   0.00575   0.00575   2.69240
   R22        2.04924   0.00665   0.00000   0.01850   0.01850   2.06775
   R23        2.04328   0.00447   0.00000   0.01231   0.01231   2.05559
   R24        2.86934  -0.00031   0.00000   0.00005   0.00012   2.86946
   R25        2.68714  -0.00093   0.00000  -0.00217  -0.00217   2.68496
   R26        2.05241   0.00632   0.00000   0.01769   0.01769   2.07010
   R27        2.05085   0.00416   0.00000   0.01163   0.01163   2.06248
   R28        2.05272   0.00291   0.00000   0.00815   0.00815   2.06087
   R29        2.05434   0.00630   0.00000   0.01770   0.01770   2.07204
   R30        2.04268   0.00474   0.00000   0.01305   0.01305   2.05573
   R31        2.05381   0.00342   0.00000   0.00960   0.00960   2.06341
   R32        2.04996   0.00313   0.00000   0.00872   0.00872   2.05868
    A1        1.92007  -0.00102   0.00000  -0.00397  -0.00419   1.91588
    A2        1.91666   0.00093   0.00000   0.00125   0.00134   1.91800
    A3        1.94014  -0.00053   0.00000  -0.00199  -0.00196   1.93818
    A4        1.90773   0.00006   0.00000  -0.00187  -0.00180   1.90593
    A5        1.90237   0.00060   0.00000   0.00354   0.00359   1.90596
    A6        1.87612  -0.00001   0.00000   0.00321   0.00317   1.87929
    A7        1.93981  -0.00054   0.00000  -0.00816  -0.00800   1.93181
    A8        1.93782   0.00366   0.00000   0.01401   0.01377   1.95159
    A9        1.83649  -0.00246   0.00000  -0.01308  -0.01311   1.82338
   A10        1.91026  -0.00253   0.00000  -0.01187  -0.01177   1.89849
   A11        1.91247   0.00165   0.00000   0.01158   0.01155   1.92402
   A12        1.92601   0.00029   0.00000   0.00803   0.00810   1.93411
   A13        1.94584   0.00029   0.00000  -0.01220  -0.01235   1.93350
   A14        1.86527   0.00016   0.00000   0.01316   0.01323   1.87850
   A15        1.93704  -0.00085   0.00000  -0.01462  -0.01481   1.92223
   A16        1.90746   0.00004   0.00000   0.01169   0.01174   1.91919
   A17        1.94050  -0.00007   0.00000  -0.00560  -0.00591   1.93459
   A18        1.86411   0.00046   0.00000   0.00987   0.00995   1.87406
   A19        1.91093   0.00206   0.00000  -0.00040  -0.00037   1.91056
   A20        1.93194  -0.00021   0.00000   0.00198   0.00204   1.93398
   A21        1.91408  -0.00099   0.00000  -0.00224  -0.00235   1.91173
   A22        1.91713  -0.00059   0.00000   0.00179   0.00177   1.91890
   A23        1.92223  -0.00097   0.00000  -0.00631  -0.00632   1.91591
   A24        1.86722   0.00064   0.00000   0.00521   0.00522   1.87244
   A25        1.93703   0.00090   0.00000   0.00641   0.00632   1.94335
   A26        1.90084   0.00130   0.00000   0.00907   0.00912   1.90996
   A27        1.85623  -0.00114   0.00000  -0.00480  -0.00476   1.85146
   A28        1.93056  -0.00128   0.00000  -0.00867  -0.00869   1.92187
   A29        1.94578  -0.00018   0.00000  -0.00283  -0.00280   1.94298
   A30        1.89107   0.00045   0.00000   0.00123   0.00119   1.89227
   A31        1.97577  -0.00293   0.00000  -0.02007  -0.02003   1.95575
   A32        1.94664   0.00234   0.00000   0.00598   0.00593   1.95256
   A33        1.92844  -0.00140   0.00000  -0.00553  -0.00559   1.92285
   A34        1.94683  -0.00028   0.00000  -0.00192  -0.00184   1.94499
   A35        1.90956  -0.00004   0.00000  -0.00032  -0.00026   1.90930
   A36        1.84203  -0.00131   0.00000  -0.00203  -0.00205   1.83998
   A37        1.88751   0.00069   0.00000   0.00402   0.00401   1.89152
   A38        1.91991   0.00108   0.00000  -0.00112  -0.00141   1.91850
   A39        1.98994  -0.00315   0.00000  -0.03208  -0.03213   1.95781
   A40        1.91287  -0.00026   0.00000   0.00463   0.00481   1.91767
   A41        1.86490   0.00073   0.00000  -0.00348  -0.00386   1.86104
   A42        1.88791  -0.00018   0.00000   0.00910   0.00904   1.89694
   A43        1.88518   0.00192   0.00000   0.02502   0.02508   1.91026
   A44        1.92633  -0.00038   0.00000  -0.00821  -0.00834   1.91799
   A45        1.92707   0.00000   0.00000  -0.00708  -0.00705   1.92002
   A46        1.92513  -0.00060   0.00000   0.00031   0.00036   1.92550
   A47        1.90549   0.00004   0.00000   0.00230   0.00226   1.90775
   A48        1.90582   0.00067   0.00000   0.00616   0.00619   1.91201
   A49        1.87306   0.00030   0.00000   0.00711   0.00707   1.88013
   A50        1.95483   0.00045   0.00000   0.00427   0.00436   1.95919
   A51        1.91283   0.00161   0.00000   0.01254   0.01252   1.92534
   A52        1.86498  -0.00084   0.00000  -0.00558  -0.00562   1.85936
   A53        1.90295  -0.00154   0.00000  -0.00593  -0.00599   1.89697
   A54        1.93028  -0.00032   0.00000  -0.00949  -0.00955   1.92073
   A55        1.89697   0.00071   0.00000   0.00454   0.00451   1.90149
   A56        2.02334  -0.00581   0.00000  -0.03797  -0.03786   1.98548
   A57        2.05705  -0.01335   0.00000  -0.05247  -0.05247   2.00458
   A58        1.95516  -0.00207   0.00000  -0.01681  -0.01694   1.93822
   A59        1.87462   0.00019   0.00000   0.00514   0.00513   1.87974
   A60        1.89840   0.00097   0.00000  -0.00012  -0.00011   1.89829
   A61        1.90868   0.00134   0.00000   0.00762   0.00772   1.91640
   A62        1.94782  -0.00027   0.00000  -0.00161  -0.00172   1.94610
   A63        1.87607  -0.00007   0.00000   0.00699   0.00696   1.88303
    D1        0.92752  -0.00011   0.00000   0.00554   0.00554   0.93306
    D2        3.04351   0.00037   0.00000   0.00877   0.00881   3.05232
    D3       -1.18344   0.00041   0.00000   0.01497   0.01501  -1.16844
    D4       -1.17291  -0.00012   0.00000   0.00956   0.00955  -1.16336
    D5        0.94307   0.00035   0.00000   0.01279   0.01282   0.95590
    D6        2.99931   0.00040   0.00000   0.01900   0.01902   3.01833
[...]
 44893,0.00118663,0.00075804,0.13173522,0.01886651,-0.17502633,-0.00025
 247,-0.00070015,0.00039804,-0.00041541,0.00012149,0.00021991,-0.000014
 25,0.00001892,-0.00002122,-0.00009756,0.00059849,0.00120240,-0.0024820
 4,-0.00298038,-0.00419468,-0.00007546,0.00004536,-0.00003127,0.0000860
 4,-0.00004387,0.00005662,-0.00000111,-0.00000545,0.00000127,-0.0000041
 9,0.00000632,0.00000173,-0.00004850,-0.00001343,0.00003447,0.00000906,
 -0.00000139,-0.00000168,-0.13992578,-0.01920598,0.19395122,-0.00003046
 ,-0.00065221,-0.00279398,0.00584866,0.02560834,-0.00097866,0.00007185,
 0.00001924,-0.00002545,-0.00265551,-0.01003105,0.00271096,-0.00001374,
 0.00001786,-0.00001257,0.00000597,-0.00001856,-0.00000581,-0.00080770,
 -0.00071118,-0.00146325,0.00008536,-0.00025837,-0.00006335,0.00002264,
 -0.00000721,0.00002534,0.00001185,-0.00000095,0.00004254,-0.00408946,0
 .00687560,-0.00180791,0.00143812,0.00028478,-0.00033800,-0.06001744,-0
 .05553097,0.00695638,0.00009825,0.00048235,-0.00009578,0.00029748,-0.0
 0097586,-0.00006997,-0.00000631,-0.00002550,0.00002258,0.00000481,0.00
 011177,0.00052837,0.00045055,0.00047893,-0.00007380,0.00004832,0.00003
 514,0.00017418,0.00015817,0.00003861,0.00021098,0.00002113,-0.00001833
 ,-0.00002032,-0.00000524,-0.00000329,-0.00000532,0.00000831,0.00000489
 ,-0.00000853,-0.00000454,-0.00000563,0.00000326,-0.00401603,-0.0221625
 8,0.00178285,0.06233235,-0.00079443,0.00084399,-0.00301898,-0.00615313
 ,-0.01532491,0.00098973,-0.00011182,-0.00005027,-0.00003175,-0.0019558
 2,-0.01049507,0.00146617,0.00001388,-0.00002069,0.00002096,-0.00001052
 ,0.00001461,-0.00000792,-0.00020482,0.00109060,0.00100659,0.00036296,0
 .00030229,0.00010175,-0.00000527,-0.00000834,-0.00002116,0.00004486,-0
 .00000973,0.00002625,0.00342945,-0.00267450,0.00137591,-0.00117277,0.0
 0196208,-0.00013300,-0.05086393,-0.30283655,0.03019231,-0.00004378,0.0
 0012270,0.00009244,0.00005323,-0.00081037,0.00024689,0.00001830,0.0000
 4044,-0.00003404,-0.00022038,0.00043899,-0.00010900,0.00027167,0.00038
 238,-0.00005239,0.00004744,-0.00005482,-0.00015665,-0.00000358,-0.0000
 8883,-0.00002723,-0.00002565,0.00002475,0.00002722,0.00001458,-0.00000
 050,0.00000413,0.00000705,0.00000329,-0.00000710,0.00000868,0.00000809
 ,-0.00000689,-0.00058497,-0.00139100,0.00063538,0.05741178,0.32823223,
 -0.00196644,-0.00133162,-0.00567086,0.00518971,0.00934313,-0.00209686,
 0.00002271,0.00000566,-0.00002507,-0.00518983,-0.02983887,0.00445152,-
 0.00000040,0.00000043,-0.00000524,-0.00000596,0.00000200,0.00000038,-0
 .00075365,-0.00016153,-0.00112735,0.00000399,-0.00004688,0.00004854,0.
 00000297,-0.00000183,0.00000815,-0.00001425,-0.00001891,-0.00000975,-0
 .00271621,0.00348151,0.00048055,0.00062902,-0.00068232,0.00022275,0.00
 554338,0.03141316,-0.05118241,-0.00016025,-0.00008478,0.00013885,-0.00
 015896,-0.00185572,0.00019016,-0.00001531,-0.00000818,0.00000990,0.000
 16214,0.00089060,0.00116480,0.00073958,0.00058950,0.00122815,0.0000652
 4,0.00004817,0.00015777,0.00012789,0.00005776,0.00021315,0.00000818,-0
 .00001042,-0.00001239,-0.00000316,0.00000110,-0.00000207,-0.00000919,0
 .00000101,0.00000383,-0.00000064,0.00000202,-0.00000079,0.00281088,0.0
 2134362,-0.00265061,-0.00472218,-0.03266213,0.05444286,0.00032401,0.00
 037791,0.00023140,-0.06932008,-0.01834008,-0.06528431,-0.00062025,0.00
 012343,0.00022053,-0.00351156,0.00390109,-0.00014627,0.00000166,-0.000
 16268,0.00008063,-0.00029979,0.00000443,-0.00014371,0.00122507,-0.0001
 4765,0.00085917,0.00215947,0.00195563,0.00470178,0.00007993,-0.0000103
 9,0.00001006,0.00014084,-0.00006545,-0.00000773,0.00092598,-0.00501972
 ,-0.00428553,-0.00545266,0.00385117,0.03404800,-0.00662186,-0.00775274
 ,-0.02509831,-0.00007015,-0.00007699,0.00008498,0.00000587,-0.00011665
 ,0.00001507,0.00001601,0.00003881,-0.00008384,-0.00062275,-0.00068549,
 -0.00138301,0.00010323,0.00001931,-0.00017309,-0.00009589,-0.00015548,
 -0.00025886,-0.00000639,-0.00015816,-0.00015318,0.00000769,-0.00004732
 ,-0.00000394,0.00000490,-0.00003613,-0.00003475,-0.00005835,0.00001982
 ,0.00000465,0.00002928,0.00006258,-0.00009119,0.00064996,-0.00054594,0
 .00031964,0.00072772,0.00041119,0.00039268,0.08041923,0.00009449,-0.00
 057097,-0.00025810,-0.01345193,-0.06843460,-0.06395989,0.00014896,-0.0
 0007193,-0.00038476,0.00280005,-0.00161124,0.00028819,0.00005135,0.000
 00867,0.00006262,-0.00019612,0.00003778,0.00003962,0.00086989,-0.00420
 594,0.00436787,0.00058349,0.00125043,0.00176271,-0.00010559,-0.0001142
 0,0.00001945,0.00010138,-0.00000424,0.00002766,-0.01411703,-0.02899217
 ,-0.03679815,-0.00272082,0.00505260,0.00651738,0.00458511,0.00758797,0
 .01445984,-0.00007131,0.00010114,0.00001250,-0.00023276,0.00029659,-0.
 00010751,-0.00012812,0.00003017,0.00008151,0.00043116,0.00048305,0.000
 89540,-0.00014682,-0.00008194,-0.00004436,0.00007018,-0.00012240,-0.00
 040398,-0.00057992,-0.00092232,-0.00152838,-0.00004140,0.00003407,0.00
 003205,0.00001815,0.00001113,0.00000103,-0.00001373,-0.00000781,-0.000
 00653,-0.00000238,-0.00000890,0.00002170,-0.00048459,0.00040763,-0.000
 54416,-0.00091687,0.00038977,-0.00046680,0.02267752,0.09029135,0.00013
 628,0.00015231,-0.00000245,-0.05822452,-0.07243346,-0.26834964,0.00025
 333,0.00015243,0.00028542,-0.00123839,0.00138878,0.00113093,-0.0000949
 4,0.00013146,0.00007528,0.00007686,0.00004190,0.00019021,0.00018868,0.
 00129399,0.00246709,-0.00486273,0.00017592,-0.00064604,-0.00020267,-0.
 00013991,0.00000276,0.00009197,0.00032286,0.00033220,-0.00086177,-0.00
 218220,0.00392149,0.01039076,-0.00265551,-0.02854312,-0.00340302,-0.00
 259844,-0.00747113,-0.00001623,-0.00003598,0.00001097,0.00002912,-0.00
 005231,-0.00004717,-0.00000844,-0.00015027,0.00016310,-0.00012099,-0.0
 0032563,-0.00051885,0.00013307,0.00003358,0.00011128,0.00007082,0.0001
 7645,0.00010561,-0.00002878,0.00001626,-0.00004711,0.00001054,0.000067
 35,0.00003945,0.00003120,-0.00000126,0.00001404,0.00017010,-0.00002507
 ,-0.00010953,-0.00006104,-0.00006880,0.00007139,-0.00029263,0.00009877
 ,0.00067308,0.00000965,0.00018530,0.00001919,0.05665166,0.07604938,0.2
 9510820,-0.00001532,-0.00001247,0.00004594,0.00024558,-0.00004334,-0.0
 0018278,0.00078374,0.00005745,-0.00144803,-0.00000975,0.00000174,0.000
 00675,-0.23430064,-0.05870634,-0.08240277,-0.01431127,0.01096975,-0.01
 254223,0.00010393,0.00008757,-0.00005032,-0.00020084,0.00031263,0.0001
 4160,-0.01915872,-0.00835115,-0.00805796,0.00082599,-0.00243877,-0.001
 39491,-0.00015657,0.00000313,0.00003558,-0.00019741,0.00008342,0.00022
 136,-0.00000528,-0.00001389,0.00000603,-0.00002603,0.00001284,-0.00000
 355,-0.00000504,-0.00000187,-0.00000889,-0.00001728,0.00053224,0.00061
 197,-0.00000986,0.00000501,-0.00000739,0.00000330,-0.00000237,0.000004
 64,0.00000472,-0.00001539,0.00009296,-0.00000047,-0.00001413,0.0000020
 2,-0.00141346,-0.00156577,0.00326544,0.00052687,-0.00021465,0.00021376
 ,-0.00021389,0.00085297,0.00078255,0.00032144,0.00030227,0.00025485,-0
 .00001877,0.00000350,-0.00000182,-0.00000218,0.00000594,-0.00000337,0.
 00000101,0.00000100,0.00003176,0.26129615,-0.00001618,-0.00001041,0.00
 004157,0.00004807,-0.00018627,-0.00012886,0.00105062,0.00008151,-0.000
 27898,-0.00000884,-0.00000562,0.00000661,-0.06124372,-0.07010512,-0.03
 348969,0.03318666,-0.00521871,0.01830836,0.00007005,0.00006749,-0.0000
 5777,-0.00002133,-0.00046175,-0.00025844,-0.01233444,-0.00308177,-0.00
 593144,0.00244384,0.00455819,0.00424859,-0.00011733,0.00007234,0.00003
 263,-0.00017450,0.00011955,-0.00006125,0.00000567,0.00000357,-0.000003
 64,-0.00002121,0.00001092,-0.00000401,-0.00000268,-0.00000075,-0.00000
 620,0.00013486,0.00040858,0.00023955,-0.00000370,0.00000570,-0.0000033
 9,0.00000076,-0.00000034,0.00000097,0.00001163,-0.00002179,0.00008052,
 0.00000398,-0.00000641,0.00000100,-0.00163012,0.00007071,0.00268387,0.
 00038041,0.00028813,-0.00020809,-0.00155076,0.00040316,-0.00045227,-0.
 00030715,0.00002505,-0.00004124,-0.00000442,0.00000050,0.00000043,-0.0
 0000360,0.00000669,-0.00000152,0.00003205,0.00001239,0.00000703,0.0580
 2946,0.07684501,0.00001994,0.00000928,-0.00004501,0.00015835,0.0002532
 5,-0.00010429,0.00005244,0.00061077,0.00177077,0.00000352,0.00001334,-
 0.00000090,-0.08374197,-0.03082175,-0.09113745,-0.01971283,0.00782831,
 -0.00991260,-0.00004338,-0.00005233,0.00004983,0.00026253,0.00029517,-
 0.00003861,0.02178701,0.00634292,0.00890232,0.00218940,-0.00226261,-0.
 00050655,0.00011627,-0.00016871,-0.00001166,-0.00041912,-0.00018708,0.
 00016704,-0.00002110,-0.00003177,0.00001876,0.00001723,-0.00001046,0.0
 0000714,-0.00000100,-0.00000165,0.00000275,-0.00045590,-0.00002952,-0.
 00009895,-0.00000370,-0.00000719,-0.00000186,-0.00000046,-0.00000114,0
 .00000269,-0.00000632,0.00003014,-0.00007711,-0.00001209,0.00000181,-0
 .00000282,0.00335837,0.00149168,-0.00278029,-0.00108058,-0.00039256,0.
 00086828,0.00001209,0.00069502,0.00071711,0.00021317,0.00023349,0.0001
 0473,-0.00001689,0.00000423,-0.00000377,0.00000454,-0.00000634,0.00000
 229,-0.00001191,-0.00001983,0.00000836,0.09808336,0.02286610,0.1002454
 7,0.00000112,-0.00000310,-0.00001001,0.00020443,0.00006398,-0.00009546
 ,-0.00183576,-0.00267942,0.00229073,-0.00001032,0.00000884,0.00000718,
 -0.05742942,0.02138600,0.02585549,-0.00326813,0.01558069,0.00958339,0.
 00002228,0.00003686,0.00005175,0.00033077,-0.00009527,-0.00002089,-0.0
 0333416,0.01358916,0.01677984,-0.00060906,0.00061495,-0.00208374,-0.00
 008924,-0.00008004,-0.00002825,-0.00023795,0.00004135,-0.00000266,-0.0
 0001002,-0.00002683,0.00000439,-0.00000262,0.00000038,0.00000147,-0.00
 000597,-0.00000097,-0.00000535,0.00014585,0.00020070,0.00029029,-0.000
 00634,-0.00000177,-0.00000705,0.00000071,-0.00000024,0.00000209,0.0000
 0413,0.00000691,-0.00000049,-0.00000641,-0.00000833,-0.00000252,0.0007
 7740,0.00070506,-0.00083516,0.00057910,-0.00019217,-0.00039021,0.00024
 718,0.00034837,0.00034995,0.00015253,0.00052433,0.00045633,-0.00001730
 ,0.00000346,-0.00000289,0.00000021,0.00000111,-0.00000096,0.00001041,-
 0.00001091,-0.00000495,0.00575884,-0.01809387,-0.02032508,0.05880401,-
 0.00000045,-0.00000193,-0.00000376,-0.00014560,-0.00010036,0.00017946,
 -0.00212429,-0.00078289,0.00201310,-0.00000074,-0.00000505,-0.00000315
 ,0.02486922,-0.15857559,-0.12680876,0.00864721,-0.03135864,-0.01944418
 ,-0.00002237,-0.00001283,-0.00001229,-0.00032522,-0.00066006,0.0002450
 8,-0.00222165,0.01133677,0.00978227,0.00216961,-0.00147062,0.00538081,
 0.00004821,0.00009062,-0.00002714,0.00027720,0.00012405,-0.00025050,0.
 00001948,0.00001393,-0.00002876,0.00000282,-0.00000024,-0.00000031,0.0
 0000154,0.00000186,0.00000170,0.00006248,-0.00008533,-0.00000694,0.000
 00477,0.00000077,0.00000291,-0.00000070,0.00000071,-0.00000324,0.00000
 370,-0.00000261,-0.00000675,0.00000245,0.00000477,0.00000062,0.0004682
 1,0.00037981,-0.00053410,0.00074683,0.00023301,-0.00086327,-0.00019987
 ,0.00013329,-0.00000794,0.00059048,-0.00124895,-0.00109119,0.00001787,
 -0.00000436,0.00000415,-0.00000269,0.00000137,0.00000019,0.00000790,-0
 .00000312,-0.00002765,0.00006881,-0.00395335,-0.00672885,-0.03276985,0
 .18513519,0.00000309,0.00000885,0.00000430,-0.00024161,0.00000498,0.00
 004990,0.00359932,0.00348913,-0.00211033,0.00001591,-0.00001087,-0.000
 01026,0.03075484,-0.13738211,-0.20374443,-0.00391978,0.01525903,0.0145
 7514,-0.00004855,-0.00007929,-0.00005505,-0.00052969,0.00088981,-0.000
 09525,0.00191698,-0.01506290,-0.01554319,-0.00124148,0.00284527,-0.000
 56216,0.00017429,0.00005386,0.00006327,0.00033886,-0.00016042,0.000063
 92,0.00000184,0.00003209,0.00000876,0.00000869,-0.00000392,-0.00000084
 ,0.00000946,0.00000035,0.00000880,-0.00018999,0.00023103,0.00031109,0.
 00000893,0.00000052,0.00000989,-0.00000197,0.00000102,-0.00000160,0.00
 000401,0.00000241,-0.00002310,0.00000610,0.00001354,0.00000291,-0.0000
 6327,0.00017869,0.00124287,-0.00040788,0.00023648,0.00027502,0.0001393
 1,0.00015015,0.00007696,-0.00013144,0.00060982,0.00046313,0.00001809,-
 0.00000317,0.00000212,0.00000278,-0.00000479,0.00000267,-0.00000752,0.
 00002161,0.00001948,0.00203702,-0.00753212,-0.00831982,-0.03271419,0.1
 3778528,0.21410657,-0.00005079,0.00002565,0.00001263,-0.00087906,0.000
 99451,-0.00077339,-0.17191220,-0.06012223,0.12322367,0.00001981,-0.000
 05422,-0.00004022,0.00069216,0.00200267,0.00052082,-0.00005508,-0.0006
 5815,0.00018203,-0.00023096,-0.00027916,-0.00025954,0.00855005,0.00445
 582,-0.00955468,-0.00409202,-0.00188037,0.00276093,-0.00080439,0.00238
 977,-0.00102533,-0.00220388,-0.00022184,-0.00074632,0.00112462,-0.0012
 9425,0.00086636,-0.00000955,0.00001645,0.00013908,0.00001379,-0.000007
 13,-0.00000363,0.00002744,0.00000291,0.00001310,-0.01734668,-0.0084396
 4,0.01708158,0.00002230,-0.00000008,0.00002901,-0.00000106,0.00000157,
 -0.00000143,-0.00001254,0.00004556,0.00005751,0.00000928,0.00003641,0.
 00002148,0.00042486,0.00026089,-0.00013174,-0.00013419,0.00003439,-0.0
 0008855,0.00018063,0.00012770,-0.00008439,0.00047723,0.00029300,-0.000
 47043,0.00002396,-0.00000630,0.00000072,0.00002079,-0.00003082,0.00001
 355,-0.00036731,0.00043606,0.00003271,0.00033495,0.00009478,-0.0003057
 9,-0.00007065,-0.00032718,0.00053026,0.18607681,-0.00001614,-0.0000221
 1,-0.00005689,0.00062957,0.00000379,0.00152551,-0.05896983,-0.07704051
 ,0.05959141,-0.00008870,0.00006202,0.00001206,0.00075248,-0.00535176,-
 0.00297663,-0.00065927,0.00167847,0.00023595,-0.00008790,0.00010632,0.
 00014250,-0.02218210,-0.00971154,0.01888410,0.01807354,0.00944607,-0.0
 1681174,0.00410130,-0.00556994,0.00102676,-0.00042322,0.00008740,-0.00
 079117,0.00003389,0.00159939,-0.00199777,0.00007204,-0.00018351,-0.000
 24968,-0.00000348,-0.00000033,0.00000616,-0.00002352,0.00000137,-0.000
 01815,-0.00386842,-0.00298130,0.00396733,-0.00001926,-0.00001290,-0.00
 004180,0.00000552,-0.00000185,-0.00000829,0.00000767,-0.00000611,-0.00
 000903,-0.00000985,-0.00003213,-0.00002371,-0.00058758,0.00086554,0.00
 067579,-0.00009186,0.00086254,0.00105737,0.00020932,0.00016663,-0.0002
 5073,-0.00100205,-0.00026297,0.00164683,0.00000486,-0.00001015,0.00001
 452,0.00000163,0.00001520,-0.00000011,0.00053985,-0.00049299,-0.000282
 64,-0.00003696,-0.00004837,0.00009677,0.00086782,0.00064260,-0.0013534
 8,0.06293138,0.08520656,0.00001984,0.00008015,0.00020854,-0.00062740,0
 .00130047,-0.00079004,0.11958059,0.05761734,-0.16444632,0.00009541,-0.
 00002559,-0.00004563,-0.00024051,-0.00522747,-0.00133593,-0.00019496,0
 .00014531,0.00052028,-0.00007965,-0.00056734,-0.00069953,0.00998746,0.
 00626153,-0.01167036,0.01495778,0.00697659,-0.01516272,-0.00241215,0.0
 0243701,0.00059190,0.00103981,-0.00042854,0.00099010,0.00036003,-0.000
 92347,0.00116539,-0.00014793,0.00002336,0.00018708,0.00000685,-0.00000
 288,-0.00001560,0.00007621,-0.00001943,0.00005693,-0.01078964,-0.00580
 449,0.01191322,0.00003326,0.00000120,0.00004533,-0.00001124,0.00000062
 ,0.00001028,-0.00004014,0.00001930,0.00008920,0.00002095,0.00006379,0.
 00003582,-0.00033034,0.00048467,0.00049524,-0.00025029,0.00000515,0.00
 085145,0.00030445,0.00003202,0.00009221,0.00063312,0.00016474,-0.00054
 205,0.00000379,0.00000299,-0.00000846,0.00004338,-0.00006210,0.0000289
 6,0.00002858,0.00005857,0.00026482,0.00019339,0.00010184,0.00006273,0.
 00082990,0.00067328,-0.00093264,-0.13250923,-0.06326215,0.17759882,0.0
 0006057,0.00002413,0.00000989,0.00469194,-0.00045389,-0.00693089,0.000
 05744,0.00695432,0.00637583,-0.00005175,0.00010624,-0.00004403,0.00085
 687,-0.00130858,0.00024973,-0.00327967,-0.00012152,0.00553571,0.000210
 84,0.00012862,0.00018285,-0.04996598,0.01711855,0.02219404,0.00042115,
 0.00138780,-0.00175435,0.00048601,0.01737375,0.01041327,-0.00058085,-0
 .00103349,0.00108442,-0.01850024,-0.02551309,-0.02835623,0.00013880,-0
 .00005041,-0.00015124,-0.00002486,0.00000004,0.00000838,-0.00001940,-0
 .00000785,-0.00002026,0.00026019,-0.00003408,0.00022922,-0.00009530,-0
 .00002960,0.00000702,-0.00002744,-0.00000347,0.00012376,-0.00006938,0.
 00008243,0.00011089,-0.00008686,-0.00004045,0.00007070,-0.00004814,0.0
 0019773,0.00014508,-0.00007463,0.00044417,0.00034206,0.00004957,0.0003
 9172,-0.00055797,0.00064077,-0.00054850,-0.00035163,-0.00004215,0.0000
 3864,0.00003643,-0.00000392,0.00007957,0.00000884,0.00021475,0.0003515
 2,0.00111256,-0.00014375,0.00004103,-0.00012009,-0.00010561,0.00013182
 ,-0.00007241,0.00017169,-0.00016075,-0.00058132,0.06485936,-0.00000656
 ,-0.00000408,0.00000925,0.00186953,0.00093503,-0.00179277,0.00511878,-
 0.02131129,-0.01885741,0.00005824,-0.00004235,0.00002111,-0.00045326,-
 0.00061602,0.00086376,-0.00166181,0.00136078,0.00251722,0.00015498,0.0
 0013323,0.00001116,0.01736084,-0.19108452,-0.12141501,0.00200016,-0.00
 312331,0.00472344,0.00000337,0.00668231,0.00543628,-0.00035343,-0.0003
 1732,0.00026575,-0.00804839,0.00096399,-0.00445646,-0.00025192,0.00004
 248,0.00039294,-0.00002033,0.00000507,0.00000518,-0.00001108,-0.000005
 28,-0.00001476,0.00022569,0.00082128,0.00009695,-0.00001497,0.00001039
 ,0.00001312,-0.00000606,-0.00000244,0.00003537,-0.00002470,-0.00000501
 ,0.00005898,-0.00000992,-0.00001256,0.00001605,-0.00021059,0.00013413,
 0.00002020,0.00046885,-0.00123214,-0.00137361,0.00044690,0.00038246,-0
 .00071391,0.00057363,0.00023848,-0.00049010,-0.00015570,-0.00000772,-0
 .00004482,-0.00004609,-0.00011387,-0.00000821,-0.00070179,-0.00034996,
 0.00068534,0.00008736,0.00012118,-0.00005050,-0.00001721,0.00016720,-0
 .00022083,-0.00082815,0.00098458,-0.00012645,-0.01554639,0.20524525,0.
 00002515,0.00001179,-0.00001713,0.00366563,0.00257507,-0.00085723,-0.0
 0191169,0.01266791,0.01146706,0.00007844,0.00002339,-0.00001890,-0.000
 61442,0.00141388,-0.00080455,0.00442275,-0.00014315,-0.00445971,0.0003
 0383,0.00010993,0.00012402,0.01800762,-0.12081207,-0.15750569,-0.00096
 713,0.00279668,-0.00129837,0.00111492,-0.01898766,-0.01331035,-0.00053
 609,-0.00079040,0.00007073,-0.01323359,-0.01223821,-0.01323768,-0.0001
 5428,-0.00000164,0.00041693,-0.00003102,0.00000566,0.00001491,-0.00002
 607,-0.00001183,-0.00002266,0.00030539,-0.00095643,0.00064892,-0.00005
 315,-0.00000007,0.00000524,-0.00002760,-0.00002364,0.00005736,-0.00006
 732,0.00002279,0.00003526,-0.00004295,-0.00004441,0.00000638,0.0000569
 8,0.00007481,0.00002100,-0.00028409,0.00074795,0.00057888,0.00022609,0
 .00029594,0.00082570,-0.00085853,0.00019968,0.00043620,-0.00019337,0.0
 0002680,-0.00005470,-0.00003289,-0.00002956,-0.00003108,-0.00048168,-0
 .00019665,0.00072067,0.00007305,-0.00016017,0.00011143,0.00002704,-0.0
 0022007,0.00011188,0.00050924,-0.00074910,0.00044097,-0.00930026,0.134
 39274,0.17552449\\0.00001720,-0.00003434,-0.00005538,0.00019085,-0.000
 51093,-0.00015633,-0.00021906,0.00016579,0.00045198,-0.00002039,0.0000
 1905,0.00003282,-0.00000381,-0.00000389,-0.00002660,-0.00000515,0.0000
 0904,0.00002553,-0.00002865,-0.00001288,0.00002555,0.00044368,-0.00045
 501,-0.00072897,0.00000471,0.00000834,0.00002228,0.00002269,0.00000079
 ,0.00001863,-0.00003994,0.00001231,-0.00001059,-0.00037578,0.00082829,
 0.00031835,0.00001300,-0.00003375,0.00001887,-0.00000143,-0.00000091,0
 .00001408,-0.00001473,0.00000574,-0.00000098,0.00003282,-0.00001584,0.
 00002115,-0.00000417,0.00002456,0.00000137,0.00000950,-0.00000450,-0.0
 0001464,0.00002661,0.00000664,-0.00001512,0.00000664,-0.00002088,-0.00
 000360,-0.00001222,-0.00000997,-0.00002459,-0.00001056,-0.00000448,0.0
 0002223,0.00001805,0.00000801,0.00000685,-0.00002314,0.00001979,0.0000
 0210,-0.00003304,0.00001035,0.00001117,0.00000154,0.00001105,-0.000002
 77,-0.00004506,0.00000009,0.00004932,0.00000581,0.00000517,0.00000020,
 0.00000911,-0.00002628,-0.00001551,0.00000928,-0.00000297,-0.00000342,
 0.00002566,0.00000164,0.00001600\\\@


 I KNOW YOU BELIEVE YOU UNDERSTAND WHAT YOU THINK I SAID,
 BUT I AM NOT SURE YOU REALIZE THAT WHAT YOU HEARD IS NOT WHAT I MEANT.
 Job cpu time:       0 days 14 hours 40 minutes 38.4 seconds.
 Elapsed time:       0 days  0 hours 55 minutes  3.7 seconds.
 File lengths (MBytes):  RWF=    693 Int=      0 D2E=      0 Chk=     33 Scr=      1
 Normal termination of Gaussian 16 at Sun Nov  4 22:52:35 2018.
