 Entering Gaussian System, Link 0=g16
 Initial command:
 /apps/gaussian/g16a03/g16/l1.exe "/jobfs/local/2011925.r-man2/Gau-10894.inp" -scrdir="/jobfs/local/2011925.r-man2/"
 Entering Link 1 = /apps/gaussian/g16a03/g16/l1.exe PID=     10895.
  
 Copyright (c) 1988,1990,1992,1993,1995,1998,2003,2009,2016,
            Gaussian, Inc.  All Rights Reserved.
  
 This is part of the Gaussian(R) 16 program.  It is based on
 the Gaussian(R) 09 system (copyright 2009, Gaussian, Inc.),
 the Gaussian(R) 03 system (copyright 2003, Gaussian, Inc.),
 the Gaussian(R) 98 system (copyright 1998, Gaussian, Inc.),
 the Gaussian(R) 94 system (copyright 1995, Gaussian, Inc.),
 the Gaussian 92(TM) system (copyright 1992, Gaussian, Inc.),
 the Gaussian 90(TM) system (copyright 1990, Gaussian, Inc.),
 the Gaussian 88(TM) system (copyright 1988, Gaussian, Inc.),
 the Gaussian 86(TM) system (copyright 1986, Carnegie Mellon
 University), and the Gaussian 82(TM) system (copyright 1983,
 Carnegie Mellon University). Gaussian is a federally registered
 trademark of Gaussian, Inc.
  
 This software contains proprietary and confidential information,
 including trade secrets, belonging to Gaussian, Inc.
  
 This software is provided under written license and may be
 used, copied, transmitted, or stored only in accord with that
 written license.
  
 The following legend is applicable only to US Government
 contracts under FAR:
  
                    RESTRICTED RIGHTS LEGEND
  
 Use, reproduction and disclosure by the US Government is
 subject to restrictions as set forth in subparagraphs (a)
 and (c) of the Commercial Computer Software - Restricted
 Rights clause in FAR 52.227-19.
  
 Gaussian, Inc.
 340 Quinnipiac St., Bldg. 40, Wallingford CT 06492
  
  
 ---------------------------------------------------------------
 Warning -- This program may not be used in any manner that
 competes with the business of Gaussian, Inc. or will provide
 assistance to any competitor of Gaussian, Inc.  The licensee
 of this program is prohibited from giving any competitor of
 Gaussian, Inc. access to this program.  By using this program,
 the user acknowledges that Gaussian, Inc. is engaged in the
 business of creating and licensing software in the field of
 computational chemistry and represents and warrants to the
 licensee that it is not a competitor of Gaussian, Inc. and that
 it will not use this program in any manner prohibited above.
 ---------------------------------------------------------------
  

 Cite this work as:
 Gaussian 16, Revision A.03,
 M. J. Frisch, G. W. Trucks, H. B. Schlegel, G. E. Scuseria, 
 M. A. Robb, J. R. Cheeseman, G. Scalmani, V. Barone, 
 G. A. Petersson, H. Nakatsuji, X. Li, M. Caricato, A. V. Marenich, 
 J. Bloino, B. G. Janesko, R. Gomperts, B. Mennucci, H. P. Hratchian, 
 J. V. Ortiz, A. F. Izmaylov, J. L. Sonnenberg, D. Williams-Young, 
 F. Ding, F. Lipparini, F. Egidi, J. Goings, B. Peng, A. Petrone, 
 T. Henderson, D. Ranasinghe, V. G. Zakrzewski, J. Gao, N. Rega, 
 G. Zheng, W. Liang, M. Hada, M. Ehara, K. Toyota, R. Fukuda, 
 J. Hasegawa, M. Ishida, T. Nakajima, Y. Honda, O. Kitao, H. Nakai, 
 T. Vreven, K. Throssell, J. A. Montgomery, Jr., J. E. Peralta, 
 F. Ogliaro, M. J. Bearpark, J. J. Heyd, E. N. Brothers, K. N. Kudin, 
 V. N. Staroverov, T. A. Keith, R. Kobayashi, J. Normand, 
 K. Raghavachari, A. P. Rendell, J. C. Burant, S. S. Iyengar, 
 J. Tomasi, M. Cossi, J. M. Millam, M. Klene, C. Adamo, R. Cammi, 
 J. W. Ochterski, R. L. Martin, K. Morokuma, O. Farkas, 
 J. B. Foresman, and D. J. Fox, Gaussian, Inc., Wallingford CT, 2016.
 
 ******************************************
 Gaussian 16:  ES64L-G16RevA.03 25-Dec-2016
                 4-Nov-2018 
 ******************************************
 %mem=6000mb
 %nproc=24
 Will use up to   24 processors via shared memory.
 %chk=D_1a_4a_L_PSI.inp_extract_8.chk
 ----------------------------------------------------------------------
 #M062X/6-311++G(2d,2p) opt=ModRedundant freq=noraman SCRF=(Solvent=Wat
 er)
 ----------------------------------------------------------------------
 1/18=120,19=15,26=3,38=1/1,3;
 2/9=110,12=2,17=6,18=5,40=1/2;
 3/5=4,6=6,7=1212,11=2,25=1,30=1,70=2201,71=1,72=1,74=-55/1,2,3;
 4//1;
 5/5=2,38=5,53=1/2;
 6/7=2,8=2,9=2,10=2,28=1/1;
 7//1,2,3,16;
 1/18=20,19=15,26=3/3(2);
 2/9=110/2;
 99//99;
 2/9=110/2;
 3/5=4,6=6,7=1212,11=2,25=1,30=1,70=2205,71=1,72=1,74=-55/1,2,3;
 4/5=5,16=3,69=1/1;
 5/5=2,38=5,53=1/2;
 7//1,2,3,16;
 1/18=20,19=15,26=3/3(-5);
 2/9=110/2;
 6/7=2,8=2,9=2,10=2,19=2,28=1/1;
 99/9=1/99;
 ---------------------------
 D_1a_4a_L_PSI.inp_extract_8
 ---------------------------
 Symbolic Z-matrix:
 Charge =  0 Multiplicity = 1
 C                     3.13716  -1.01157   0.0432 
 C                     0.84585   0.70546   0.49628 
 C                    -2.03301   1.40602   0.23381 
 C                     3.17937   0.43452  -0.45044 
 C                    -2.88408  -0.93476   0.54227 
 O                    -1.93721  -1.3711   -0.41442 
 C                     1.69958  -1.49962   0.10846 
 C                    -1.18925   0.90236  -0.94291 
 C                    -2.39864   0.31949   1.25169 
 C                    -1.72618  -0.43156  -1.44457 
 O                     0.89426  -0.63837   0.90117 
 O                     0.22598   0.85245  -0.74558 
 C                     2.24741   1.29522   0.40341 
 H                     3.58226  -1.07575   1.03353 
 H                     3.70485  -1.66595  -0.61239 
 H                    -2.95281   1.78099  -0.20771 
 H                     4.19072   0.82635  -0.40002 
 H                     2.87571   0.47432  -1.49316 
 H                     1.27651  -1.57498  -0.88727 
 H                     1.63223  -2.47206   0.57655 
 H                    -1.55302   0.06549   1.87952 
 H                    -3.18481   0.68408   1.90667 
 H                    -2.66724  -0.25101  -1.95991 
 H                    -1.03358  -0.87797  -2.14404 
 H                     2.63942   1.35492   1.41531 
 H                     2.17776   2.30784   0.02111 
 H                     0.28279   1.21026   1.26246 
 H                    -3.83254  -0.75101   0.04152 
 H                    -3.01905  -1.75269   1.23677 
 H                    -1.55621   2.25411   0.71277 
 H                    -1.29644   1.60591  -1.75832 
 
 The following ModRedundant input section has been read:
 D       3       8      12       2 F                                           
 

 GradGradGradGradGradGradGradGradGradGradGradGradGradGradGradGradGradGrad
 Berny optimization.
 Initialization pass.
                           ----------------------------
                           !    Initial Parameters    !
                           ! (Angstroms and Degrees)  !
 --------------------------                            --------------------------
 ! Name  Definition              Value          Derivative Info.                !
 --------------------------------------------------------------------------------
 ! R1    R(1,4)                  1.5286         estimate D2E/DX2                !
 ! R2    R(1,7)                  1.5196         estimate D2E/DX2                !
 ! R3    R(1,14)                 1.0876         estimate D2E/DX2                !
 ! R4    R(1,15)                 1.0864         estimate D2E/DX2                !
 ! R5    R(2,11)                 1.4043         estimate D2E/DX2                !
 ! R6    R(2,12)                 1.3957         estimate D2E/DX2                !
 ! R7    R(2,13)                 1.5234         estimate D2E/DX2                !
 ! R8    R(2,27)                 1.0765         estimate D2E/DX2                !
 ! R9    R(3,8)                  1.5331         estimate D2E/DX2                !
 ! R10   R(3,9)                  1.5331         estimate D2E/DX2                !
 ! R11   R(3,16)                 1.087          estimate D2E/DX2                !
 ! R12   R(3,30)                 1.0844         estimate D2E/DX2                !
 ! R13   R(4,13)                 1.5292         estimate D2E/DX2                !
 ! R14   R(4,17)                 1.0858         estimate D2E/DX2                !
 ! R15   R(4,18)                 1.0868         estimate D2E/DX2                !
 ! R16   R(5,6)                  1.415          estimate D2E/DX2                !
 ! R17   R(5,9)                  1.5206         estimate D2E/DX2                !
 ! R18   R(5,28)                 1.0882         estimate D2E/DX2                !
 ! R19   R(5,29)                 1.0815         estimate D2E/DX2                !
 ! R20   R(6,10)                 1.4101         estimate D2E/DX2                !
 ! R21   R(7,11)                 1.4208         estimate D2E/DX2                !
 ! R22   R(7,19)                 1.0845         estimate D2E/DX2                !
 ! R23   R(7,20)                 1.0813         estimate D2E/DX2                !
 ! R24   R(8,10)                 1.5229         estimate D2E/DX2                !
 ! R25   R(8,12)                 1.4298         estimate D2E/DX2                !
 ! R26   R(8,31)                 1.0823         estimate D2E/DX2                !
 ! R27   R(9,21)                 1.0834         estimate D2E/DX2                !
 ! R28   R(9,22)                 1.0863         estimate D2E/DX2                !
 ! R29   R(10,23)                1.088          estimate D2E/DX2                !
 ! R30   R(10,24)                1.0809         estimate D2E/DX2                !
 ! R31   R(13,25)                1.0868         estimate D2E/DX2                !
 ! R32   R(13,26)                1.0846         estimate D2E/DX2                !
 ! A1    A(4,1,7)              110.1101         estimate D2E/DX2                !
 ! A2    A(4,1,14)             109.7896         estimate D2E/DX2                !
 ! A3    A(4,1,15)             111.132          estimate D2E/DX2                !
 ! A4    A(7,1,14)             109.2139         estimate D2E/DX2                !
 ! A5    A(7,1,15)             109.0747         estimate D2E/DX2                !
 ! A6    A(14,1,15)            107.4619         estimate D2E/DX2                !
 ! A7    A(11,2,12)            111.877          estimate D2E/DX2                !
 ! A8    A(11,2,13)            110.8739         estimate D2E/DX2                !
 ! A9    A(11,2,27)            105.1621         estimate D2E/DX2                !
 ! A10   A(12,2,13)            108.2755         estimate D2E/DX2                !
 ! A11   A(12,2,27)            110.5836         estimate D2E/DX2                !
 ! A12   A(13,2,27)            110.0632         estimate D2E/DX2                !
 ! A13   A(8,3,9)              114.0819         estimate D2E/DX2                !
 ! A14   A(8,3,16)             105.5026         estimate D2E/DX2                !
 ! A15   A(8,3,30)             110.7289         estimate D2E/DX2                !
 ! A16   A(9,3,16)             108.2013         estimate D2E/DX2                !
 ! A17   A(9,3,30)             111.4615         estimate D2E/DX2                !
 ! A18   A(16,3,30)            106.36           estimate D2E/DX2                !
 ! A19   A(1,4,13)             109.5918         estimate D2E/DX2                !
 ! A20   A(1,4,17)             110.6166         estimate D2E/DX2                !
 ! A21   A(1,4,18)             109.6807         estimate D2E/DX2                !
 ! A22   A(13,4,17)            109.7933         estimate D2E/DX2                !
 ! A23   A(13,4,18)            110.1722         estimate D2E/DX2                !
 ! A24   A(17,4,18)            106.9539         estimate D2E/DX2                !
 ! A25   A(6,5,9)              110.8655         estimate D2E/DX2                !
 ! A26   A(6,5,28)             108.9168         estimate D2E/DX2                !
 ! A27   A(6,5,29)             106.5277         estimate D2E/DX2                !
 ! A28   A(9,5,28)             110.7122         estimate D2E/DX2                !
 ! A29   A(9,5,29)             111.3518         estimate D2E/DX2                !
 ! A30   A(28,5,29)            108.328          estimate D2E/DX2                !
 ! A31   A(5,6,10)             112.8673         estimate D2E/DX2                !
 ! A32   A(1,7,11)             111.4381         estimate D2E/DX2                !
 ! A33   A(1,7,19)             110.6062         estimate D2E/DX2                !
 ! A34   A(1,7,20)             111.4904         estimate D2E/DX2                !
 ! A35   A(11,7,19)            109.4677         estimate D2E/DX2                !
 ! A36   A(11,7,20)            105.5636         estimate D2E/DX2                !
 ! A37   A(19,7,20)            108.0989         estimate D2E/DX2                !
 ! A38   A(3,8,10)             110.2767         estimate D2E/DX2                !
 ! A39   A(3,8,12)             116.7636         estimate D2E/DX2                !
 ! A40   A(3,8,31)             108.0719         estimate D2E/DX2                !
 ! A41   A(10,8,12)            111.3377         estimate D2E/DX2                !
 ! A42   A(10,8,31)            106.6353         estimate D2E/DX2                !
 ! A43   A(12,8,31)            102.9854         estimate D2E/DX2                !
 ! A44   A(3,9,5)              110.547          estimate D2E/DX2                !
 ! A45   A(3,9,21)             111.3932         estimate D2E/DX2                !
 ! A46   A(3,9,22)             109.5765         estimate D2E/DX2                !
 ! A47   A(5,9,21)             109.0357         estimate D2E/DX2                !
 ! A48   A(5,9,22)             109.0941         estimate D2E/DX2                !
 ! A49   A(21,9,22)            107.1076         estimate D2E/DX2                !
 ! A50   A(6,10,8)             113.3103         estimate D2E/DX2                !
 ! A51   A(6,10,23)            109.0956         estimate D2E/DX2                !
 ! A52   A(6,10,24)            107.0659         estimate D2E/DX2                !
 ! A53   A(8,10,23)            108.3986         estimate D2E/DX2                !
 ! A54   A(8,10,24)            110.4269         estimate D2E/DX2                !
 ! A55   A(23,10,24)           108.4366         estimate D2E/DX2                !
 ! A56   A(2,11,7)             116.0229         estimate D2E/DX2                !
 ! A57   A(2,12,8)             124.4768         estimate D2E/DX2                !
 ! A58   A(2,13,4)             112.1381         estimate D2E/DX2                !
 ! A59   A(2,13,25)            107.2384         estimate D2E/DX2                !
 ! A60   A(2,13,26)            108.8952         estimate D2E/DX2                !
 ! A61   A(4,13,25)            109.3284         estimate D2E/DX2                !
 ! A62   A(4,13,26)            111.5803         estimate D2E/DX2                !
 ! A63   A(25,13,26)           107.4605         estimate D2E/DX2                !
 ! D1    D(7,1,4,13)            52.7844         estimate D2E/DX2                !
 ! D2    D(7,1,4,17)           173.978          estimate D2E/DX2                !
 ! D3    D(7,1,4,18)           -68.283          estimate D2E/DX2                !
 ! D4    D(14,1,4,13)          -67.4943         estimate D2E/DX2                !
 ! D5    D(14,1,4,17)           53.6994         estimate D2E/DX2                !
 ! D6    D(14,1,4,18)          171.4383         estimate D2E/DX2                !
 ! D7    D(15,1,4,13)          173.757          estimate D2E/DX2                !
 ! D8    D(15,1,4,17)          -65.0494         estimate D2E/DX2                !
 ! D9    D(15,1,4,18)           52.6895         estimate D2E/DX2                !
 ! D10   D(4,1,7,11)           -54.8442         estimate D2E/DX2                !
 ! D11   D(4,1,7,19)            67.1722         estimate D2E/DX2                !
 ! D12   D(4,1,7,20)          -172.5147         estimate D2E/DX2                !
 ! D13   D(14,1,7,11)           65.7812         estimate D2E/DX2                !
 ! D14   D(14,1,7,19)         -172.2024         estimate D2E/DX2                !
 ! D15   D(14,1,7,20)          -51.8892         estimate D2E/DX2                !
 ! D16   D(15,1,7,11)         -177.0416         estimate D2E/DX2                !
 ! D17   D(15,1,7,19)          -55.0252         estimate D2E/DX2                !
 ! D18   D(15,1,7,20)           65.2879         estimate D2E/DX2                !
 ! D19   D(12,2,11,7)           65.6118         estimate D2E/DX2                !
 ! D20   D(13,2,11,7)          -55.3709         estimate D2E/DX2                !
 ! D21   D(27,2,11,7)         -174.3003         estimate D2E/DX2                !
 ! D22   D(11,2,12,8)           82.2158         estimate D2E/DX2                !
 ! D23   D(13,2,12,8)         -155.3071         estimate D2E/DX2                !
 ! D24   D(27,2,12,8)          -34.6474         estimate D2E/DX2                !
 ! D25   D(11,2,13,4)           51.9963         estimate D2E/DX2                !
 ! D26   D(11,2,13,25)         -68.0279         estimate D2E/DX2                !
 ! D27   D(11,2,13,26)         175.9792         estimate D2E/DX2                !
 ! D28   D(12,2,13,4)          -71.0904         estimate D2E/DX2                !
 ! D29   D(12,2,13,25)         168.8854         estimate D2E/DX2                !
 ! D30   D(12,2,13,26)          52.8925         estimate D2E/DX2                !
 ! D31   D(27,2,13,4)          167.9267         estimate D2E/DX2                !
 ! D32   D(27,2,13,25)          47.9026         estimate D2E/DX2                !
 ! D33   D(27,2,13,26)         -68.0903         estimate D2E/DX2                !
 ! D34   D(9,3,8,10)            42.8793         estimate D2E/DX2                !
 ! D35   D(9,3,8,12)           -85.4931         estimate D2E/DX2                !
 ! D36   D(9,3,8,31)           159.0842         estimate D2E/DX2                !
 ! D37   D(16,3,8,10)          -75.7423         estimate D2E/DX2                !
 ! D38   D(16,3,8,12)          155.8853         estimate D2E/DX2                !
 ! D39   D(16,3,8,31)           40.4627         estimate D2E/DX2                !
 ! D40   D(30,3,8,10)          169.5803         estimate D2E/DX2                !
 ! D41   D(30,3,8,12)           41.2079         estimate D2E/DX2                !
 ! D42   D(30,3,8,31)          -74.2148         estimate D2E/DX2                !
 ! D43   D(8,3,9,5)            -45.7426         estimate D2E/DX2                !
 ! D44   D(8,3,9,21)            75.652          estimate D2E/DX2                !
 ! D45   D(8,3,9,22)          -166.0122         estimate D2E/DX2                !
 ! D46   D(16,3,9,5)            71.3315         estimate D2E/DX2                !
 ! D47   D(16,3,9,21)         -167.2739         estimate D2E/DX2                !
 ! D48   D(16,3,9,22)          -48.9381         estimate D2E/DX2                !
 ! D49   D(30,3,9,5)          -172.0617         estimate D2E/DX2                !
 ! D50   D(30,3,9,21)          -50.6671         estimate D2E/DX2                !
 ! D51   D(30,3,9,22)           67.6686         estimate D2E/DX2                !
 ! D52   D(1,4,13,2)           -51.9648         estimate D2E/DX2                !
 ! D53   D(1,4,13,25)           66.8343         estimate D2E/DX2                !
 ! D54   D(1,4,13,26)         -174.4364         estimate D2E/DX2                !
 ! D55   D(17,4,13,2)         -173.6541         estimate D2E/DX2                !
 ! D56   D(17,4,13,25)         -54.8549         estimate D2E/DX2                !
 ! D57   D(17,4,13,26)          63.8744         estimate D2E/DX2                !
 ! D58   D(18,4,13,2)           68.8051         estimate D2E/DX2                !
 ! D59   D(18,4,13,25)        -172.3957         estimate D2E/DX2                !
 ! D60   D(18,4,13,26)         -53.6665         estimate D2E/DX2                !
 ! D61   D(9,5,6,10)           -62.6955         estimate D2E/DX2                !
 ! D62   D(28,5,6,10)           59.3596         estimate D2E/DX2                !
 ! D63   D(29,5,6,10)          176.0026         estimate D2E/DX2                !
 ! D64   D(6,5,9,3)             53.9468         estimate D2E/DX2                !
 ! D65   D(6,5,9,21)           -68.8325         estimate D2E/DX2                !
 ! D66   D(6,5,9,22)           174.5048         estimate D2E/DX2                !
 ! D67   D(28,5,9,3)           -67.0538         estimate D2E/DX2                !
 ! D68   D(28,5,9,21)          170.1669         estimate D2E/DX2                !
 ! D69   D(28,5,9,22)           53.5043         estimate D2E/DX2                !
 ! D70   D(29,5,9,3)           172.3641         estimate D2E/DX2                !
 ! D71   D(29,5,9,21)           49.5848         estimate D2E/DX2                !
 ! D72   D(29,5,9,22)          -67.0778         estimate D2E/DX2                !
 ! D73   D(5,6,10,8)            60.9678         estimate D2E/DX2                !
 ! D74   D(5,6,10,23)          -59.8867         estimate D2E/DX2                !
 ! D75   D(5,6,10,24)         -177.0394         estimate D2E/DX2                !
 ! D76   D(1,7,11,2)            57.6591         estimate D2E/DX2                !
 ! D77   D(19,7,11,2)          -65.0129         estimate D2E/DX2                !
 ! D78   D(20,7,11,2)          178.852          estimate D2E/DX2                !
 ! D79   D(3,8,10,6)           -49.3378         estimate D2E/DX2                !
 ! D80   D(3,8,10,23)           71.9096         estimate D2E/DX2                !
 ! D81   D(3,8,10,24)         -169.4352         estimate D2E/DX2                !
 ! D82   D(12,8,10,6)           81.94           estimate D2E/DX2                !
 ! D83   D(12,8,10,23)        -156.8126         estimate D2E/DX2                !
 ! D84   D(12,8,10,24)         -38.1574         estimate D2E/DX2                !
 ! D85   D(31,8,10,6)         -166.4372         estimate D2E/DX2                !
 ! D86   D(31,8,10,23)         -45.1898         estimate D2E/DX2                !
 ! D87   D(31,8,10,24)          73.4654         estimate D2E/DX2                !
 ! D88   D(3,8,12,2)            26.4821         Frozen                          !
 ! D89   D(10,8,12,2)         -101.3764         estimate D2E/DX2                !
 ! D90   D(31,8,12,2)          144.7015         estimate D2E/DX2                !
 --------------------------------------------------------------------------------
 Trust Radius=3.00D-01 FncErr=1.00D-07 GrdErr=1.00D-06 EigMax=2.50D+02 EigMin=1.00D-04
 Number of steps in this run=    186 maximum allowed number of steps=    186.
 GradGradGradGradGradGradGradGradGradGradGradGradGradGradGradGradGradGrad

                          Input orientation:                          
 ---------------------------------------------------------------------
 Center     Atomic      Atomic             Coordinates (Angstroms)
 Number     Number       Type             X           Y           Z
 ---------------------------------------------------------------------
      1          6           0        3.137160   -1.011568    0.043204
      2          6           0        0.845854    0.705457    0.496282
      3          6           0       -2.033013    1.406020    0.233806
      4          6           0        3.179366    0.434519   -0.450440
      5          6           0       -2.884078   -0.934762    0.542272
      6          8           0       -1.937209   -1.371104   -0.414423
      7          6           0        1.699576   -1.499615    0.108461
      8          6           0       -1.189248    0.902357   -0.942908
      9          6           0       -2.398643    0.319491    1.251691
     10          6           0       -1.726181   -0.431555   -1.444569
     11          8           0        0.894262   -0.638367    0.901173
     12          8           0        0.225976    0.852445   -0.745580
     13          6           0        2.247410    1.295215    0.403413
     14          1           0        3.582259   -1.075751    1.033532
     15          1           0        3.704846   -1.665954   -0.612389
     16          1           0       -2.952809    1.780990   -0.207713
     17          1           0        4.190720    0.826345   -0.400018
     18          1           0        2.875711    0.474317   -1.493156
     19          1           0        1.276512   -1.574975   -0.887266
     20          1           0        1.632225   -2.472062    0.576550
     21          1           0       -1.553019    0.065485    1.879520
     22          1           0       -3.184808    0.684084    1.906666
     23          1           0       -2.667244   -0.251006   -1.959912
     24          1           0       -1.033581   -0.877966   -2.144043
     25          1           0        2.639415    1.354924    1.415314
     26          1           0        2.177761    2.307840    0.021107
     27          1           0        0.282791    1.210261    1.262455
     28          1           0       -3.832539   -0.751012    0.041518
     29          1           0       -3.019049   -1.752687    1.236768
     30          1           0       -1.556205    2.254108    0.712769
     31          1           0       -1.296439    1.605911   -1.758323
 ---------------------------------------------------------------------
                    Distance matrix (angstroms):
                    1          2          3          4          5
     1  C    0.000000
     2  C    2.898886   0.000000
     3  C    5.710670   2.974484   0.000000
     4  C    1.528605   2.532779   5.346111   0.000000
     5  C    6.042373   4.074902   2.509726   6.294900   0.000000
     6  O    5.107632   3.589837   2.853383   5.425948   1.414998
     7  C    1.519571   2.396161   4.731876   2.498604   4.638657
     8  C    4.832529   2.500336   1.533060   4.421107   2.907441
     9  C    5.820419   3.353561   1.533075   5.833067   1.520550
    10  C    5.118786   3.416879   2.507543   5.079643   2.354035
    11  O    2.430222   1.404330   3.632332   2.863502   3.806903
    12  O    3.545662   1.395735   2.523623   2.997379   3.811182
    13  C    2.498530   1.523417   4.285215   1.529184   5.596807
    14  H    1.087650   3.308965   6.191125   2.155322   6.486504
    15  H    1.086412   3.876413   6.563238   2.171254   6.729176
    16  H    6.704406   4.010264   1.086999   6.282951   2.818246
    17  H    2.164338   3.464981   6.282723   1.085775   7.351338
    18  H    2.153279   2.851598   5.286401   1.086760   6.269262
    19  H    2.155276   2.701859   4.593048   2.801738   4.445668
    20  H    2.163869   3.274362   5.347052   3.449140   4.770897
    21  H    5.150716   2.842095   2.176190   5.287756   2.135520
    22  H    6.805513   4.270348   2.155524   6.791240   2.138381
    23  H    6.187248   4.391989   2.821415   6.077113   2.602972
    24  H    4.711367   3.607051   3.445232   4.726503   3.262492
    25  H    2.780417   2.117378   4.819767   2.149356   6.042668
    26  H    3.455344   2.137147   4.311512   2.175983   6.033929
    27  H    3.817135   1.076517   2.541533   3.453394   3.892152
    28  H    6.974568   4.920922   2.815680   7.128416   1.088162
    29  H    6.314488   4.639856   3.457691   6.786081   1.081454
    30  H    5.756790   2.866195   1.084437   5.204766   3.458498
    31  H    5.454677   3.237820   2.133325   4.807863   3.777348
                    6          7          8          9         10
     6  O    0.000000
     7  C    3.676429   0.000000
     8  C    2.450993   3.901301   0.000000
     9  C    2.418051   4.627258   2.572671   0.000000
    10  C    1.410137   3.910047   1.522919   2.878557   0.000000
    11  O    3.207012   1.420799   3.180484   3.447257   3.523067
    12  O    3.119808   2.903975   1.429786   3.340921   2.438885
    13  C    5.028832   2.863249   3.711810   4.822595   4.710223
    14  H    5.713872   2.140073   5.530507   6.145363   5.893684
    15  H    5.653221   2.137382   5.536932   6.683514   5.631369
    16  H    3.318112   5.701493   2.103011   2.138443   2.815987
    17  H    6.510031   3.445931   5.407824   6.812103   6.138658
    18  H    5.266255   2.800871   4.124304   5.947854   4.690456
    19  H    3.254711   1.084497   3.495746   4.655202   3.261006
    20  H    3.864582   1.081340   4.653619   4.949392   4.418991
    21  H    2.733782   4.020642   2.966274   1.083406   3.365502
    22  H    3.341819   5.644403   3.485681   1.086267   3.821390
    23  H    2.043553   4.990622   2.132842   3.272920   1.088015
    24  H    2.012788   3.595882   2.153255   3.850754   1.080852
    25  H    5.632464   3.277126   4.519368   5.145962   5.516237
    26  H    5.536903   3.838360   3.773785   5.139197   4.989314
    27  H    3.795229   3.268396   2.669331   2.825540   3.749601
    28  H    2.045647   5.582937   3.269512   2.160221   2.597547
    29  H    2.010576   4.858245   3.892097   2.163111   3.256757
    30  H    3.815480   5.005570   2.168676   2.177816   3.449027
    31  H    3.328554   4.701625   1.082303   3.453971   2.105799
                   11         12         13         14         15
    11  O    0.000000
    12  O    2.319681   0.000000
    13  C    2.411952   2.366944   0.000000
    14  H    2.726564   4.260025   2.792911   0.000000
    15  H    3.353534   4.296814   3.453186   1.752833   0.000000
    16  H    4.677913   3.355022   5.258491   7.239390   7.507966
    17  H    3.834725   3.979860   2.154482   2.458304   2.548083
    18  H    3.301063   2.779019   2.160002   3.047306   2.458450
    19  H    2.054717   2.648786   3.293400   3.042229   2.445535
    20  H    2.003099   3.844205   3.821100   2.441547   2.521734
    21  H    2.727958   3.267305   4.258449   5.328151   6.070637
    22  H    4.404396   4.323910   5.669413   7.046459   7.702964
    23  H    4.584777   3.326098   5.668327   6.978338   6.664940
    24  H    3.612108   2.556659   4.687979   5.607324   5.041783
    25  H    2.698724   3.278206   1.086820   2.634937   3.791098
    26  H    3.331970   2.552538   1.084628   3.800830   4.303992
    27  H    1.980365   2.040457   2.145903   4.020540   4.847485
    28  H    4.805657   4.434201   6.425247   7.487909   7.620819
    29  H    4.082687   4.609404   6.141643   6.639037   6.974071
    30  H    3.795615   2.695851   3.934802   6.131449   6.693399
    31  H    4.112040   1.977652   4.162752   6.227958   6.085320
                   16         17         18         19         20
    16  H    0.000000
    17  H    7.209600   0.000000
    18  H    6.109943   1.745887   0.000000
    19  H    5.441640   3.807408   2.669108   0.000000
    20  H    6.302861   4.287082   3.809342   1.753298   0.000000
    21  H    3.042846   6.226214   5.581732   4.283977   4.275822
    22  H    2.393246   7.729129   6.952171   5.728244   5.910522
    23  H    2.698288   7.115169   5.609662   4.296123   5.463713
    24  H    3.808262   5.765381   4.187468   2.720632   4.129079
    25  H    5.838554   2.445685   3.048033   3.967832   4.045217
    26  H    5.162623   2.534596   2.478292   4.088232   4.842891
    27  H    3.599477   4.264167   3.854639   3.655998   3.981324
    28  H    2.692039   8.188754   6.989798   5.257752   5.754296
    29  H    3.818087   7.830150   6.867330   4.795305   4.752656
    30  H    1.738284   6.025276   5.260764   5.024567   5.702747
    31  H    2.275655   5.706280   4.331011   4.182924   5.537018
                   21         22         23         24         25
    21  H    0.000000
    22  H    1.745319   0.000000
    23  H    4.010349   4.011570   0.000000
    24  H    4.165210   4.845206   1.759499   0.000000
    25  H    4.410742   5.883284   6.490901   5.580835   0.000000
    26  H    4.732924   5.911773   5.826337   5.014973   1.750710
    27  H    2.249773   3.565966   4.606697   4.206870   2.366003
    28  H    3.039923   2.440867   2.369312   3.553443   6.943232
    29  H    2.422421   2.532606   3.549306   4.017101   6.458122
    30  H    2.480199   2.557873   3.827953   4.271346   4.348026
    31  H    3.958869   4.224671   2.316870   2.527354   5.062204
                   26         27         28         29         30
    26  H    0.000000
    27  H    2.517248   0.000000
    28  H    6.743938   4.719451   0.000000
    29  H    6.706157   4.436425   1.758903   0.000000
    30  H    3.797866   2.184875   3.829232   4.297545   0.000000
    31  H    3.965998   3.431560   3.902091   4.818520   2.567866
                   31
    31  H    0.000000
 Stoichiometry    C10H18O3
 Framework group  C1[X(C10H18O3)]
 Deg. of freedom    87
 Full point group                 C1      NOp   1
 Largest Abelian subgroup         C1      NOp   1
 Largest concise Abelian subgroup C1      NOp   1
                         Standard orientation:                         
 ---------------------------------------------------------------------
 Center     Atomic      Atomic             Coordinates (Angstroms)
 Number     Number       Type             X           Y           Z
 ---------------------------------------------------------------------
      1          6           0        3.137160    1.011568   -0.043204
      2          6           0        0.845854   -0.705457   -0.496282
      3          6           0       -2.033013   -1.406020   -0.233806
      4          6           0        3.179366   -0.434519    0.450440
      5          6           0       -2.884078    0.934762   -0.542272
      6          8           0       -1.937209    1.371104    0.414423
      7          6           0        1.699576    1.499615   -0.108461
      8          6           0       -1.189248   -0.902357    0.942908
      9          6           0       -2.398643   -0.319491   -1.251691
     10          6           0       -1.726181    0.431555    1.444569
     11          8           0        0.894262    0.638367   -0.901173
     12          8           0        0.225976   -0.852445    0.745580
     13          6           0        2.247410   -1.295215   -0.403413
     14          1           0        3.582259    1.075751   -1.033532
     15          1           0        3.704846    1.665954    0.612389
     16          1           0       -2.952809   -1.780990    0.207713
     17          1           0        4.190720   -0.826345    0.400018
     18          1           0        2.875711   -0.474317    1.493156
     19          1           0        1.276512    1.574975    0.887266
     20          1           0        1.632225    2.472062   -0.576550
     21          1           0       -1.553019   -0.065485   -1.879520
     22          1           0       -3.184808   -0.684084   -1.906666
     23          1           0       -2.667244    0.251006    1.959912
     24          1           0       -1.033581    0.877966    2.144043
     25          1           0        2.639415   -1.354924   -1.415314
     26          1           0        2.177761   -2.307840   -0.021107
     27          1           0        0.282791   -1.210261   -1.262455
     28          1           0       -3.832539    0.751012   -0.041518
     29          1           0       -3.019049    1.752687   -1.236768
     30          1           0       -1.556205   -2.254108   -0.712769
     31          1           0       -1.296439   -1.605911    1.758323
 ---------------------------------------------------------------------
 Rotational constants (GHZ):           1.5709664           0.5403636           0.4972392
 Standard basis: 6-311++G(2d,2p) (5D, 7F)
 There are   557 symmetry adapted cartesian basis functions of A   symmetry.
 There are   531 symmetry adapted basis functions of A   symmetry.
   531 basis functions,   762 primitive gaussians,   557 cartesian basis functions
    51 alpha electrons       51 beta electrons
       nuclear repulsion energy       923.2317413559 Hartrees.
 NAtoms=   31 NActive=   31 NUniq=   31 SFac= 1.00D+00 NAtFMM=   60 NAOKFM=F Big=F
 Integral buffers will be    131072 words long.
 Raffenetti 2 integral format.
 Two-electron integral symmetry is turned on.
 ------------------------------------------------------------------------------
 Polarizable Continuum Model (PCM)
 =================================
 Model                : PCM.
 Atomic radii         : UFF (Universal Force Field).
 Polarization charges : Total charges.
 Charge compensation  : None.
 Solution method      : On-the-fly selection.
 Cavity type          : Scaled VdW (van der Waals Surface) (Alpha=1.100).
 Cavity algorithm     : GePol (No added spheres)
                        Default sphere list used, NSphG=   31.
                        Lebedev-Laikov grids with approx.  5.0 points / Ang**2.
                        Smoothing algorithm: York/Karplus (Gamma=1.0000).
                        Polarization charges: spherical gaussians, with
                                              point-specific exponents (IZeta= 3).
                        Self-potential: point-specific (ISelfS= 7).
                        Self-field    : sphere-specific E.n sum rule (ISelfD= 2).
 1st derivatives      : Analytical E(r).r(x)/FMM algorithm (CHGder, D1EAlg=3).
                        Cavity 1st derivative terms included.
 Solvent              : Water, Eps=  78.355300 Eps(inf)=   1.777849
 ------------------------------------------------------------------------------
 One-electron integrals computed using PRISM.
 NBasis=   531 RedAO= T EigKep=  3.99D-06  NBF=   531
 NBsUse=   531 1.00D-06 EigRej= -1.00D+00 NBFU=   531
 ExpMin= 3.60D-02 ExpMax= 8.59D+03 ExpMxC= 1.30D+03 IAcc=3 IRadAn=         5 AccDes= 0.00D+00
 Harris functional with IExCor= 1009 and IRadAn=       5 diagonalized for initial guess.
 HarFok:  IExCor= 1009 AccDes= 0.00D+00 IRadAn=         5 IDoV= 1 UseB2=F ITyADJ=14
 ICtDFT=  3500011 ScaDFX=  1.000000  1.000000  1.000000  1.000000
 FoFCou: FMM=F IPFlag=           0 FMFlag=      100000 FMFlg1=           0
         NFxFlg=           0 DoJE=T BraDBF=F KetDBF=T FulRan=T
         wScrn=  0.000000 ICntrl=       500 IOpCl=  0 I1Cent=   200000004 NGrid=           0
         NMat0=    1 NMatS0=      1 NMatT0=    0 NMatD0=    1 NMtDS0=    0 NMtDT0=    0
 Petite list used in FoFCou.
 Requested convergence on RMS density matrix=1.00D-08 within 128 cycles.
 Requested convergence on MAX density matrix=1.00D-06.
 Requested convergence on             energy=1.00D-06.
 No special actions if energy rises.
 Inv3:  Mode=1 IEnd=    11940075.
 Iteration    1 A*A^-1 deviation from unit magnitude is 4.66D-15 for   1984.
 Iteration    1 A*A^-1 deviation from orthogonality  is 3.25D-15 for   1991    956.
 Iteration    1 A^-1*A deviation from unit magnitude is 4.66D-15 for   1984.
 Iteration    1 A^-1*A deviation from orthogonality  is 2.05D-15 for   1989    954.
 Error on total polarization charges =  0.01455
 SCF Done:  E(RM062X) =  -617.493656447     A.U. after   12 cycles
            NFock= 12  Conv=0.50D-08     -V/T= 2.0035

 **********************************************************************

            Population analysis using the SCF density.

 **********************************************************************

 Orbital symmetries:
       Occupied  (A) (A) (A) (A) (A) (A) (A) (A) (A) (A) (A) (A)
                 (A) (A) (A) (A) (A) (A) (A) (A) (A) (A) (A) (A)
                 (A) (A) (A) (A) (A) (A) (A) (A) (A) (A) (A) (A)
                 (A) (A) (A) (A) (A) (A) (A) (A) (A) (A) (A) (A)
                 (A) (A) (A)
       Virtual   (A) (A) (A) (A) (A) (A) (A) (A) (A) (A) (A) (A)
                 (A) (A) (A) (A) (A) (A) (A) (A) (A) (A) (A) (A)
                 (A) (A) (A) (A) (A) (A) (A) (A) (A) (A) (A) (A)
                 (A) (A) (A) (A) (A) (A) (A) (A) (A) (A) (A) (A)
                 (A) (A) (A) (A) (A) (A) (A) (A) (A) (A) (A) (A)
                 (A) (A) (A) (A) (A) (A) (A) (A) (A) (A) (A) (A)
                 (A) (A) (A) (A) (A) (A) (A) (A) (A) (A) (A) (A)
                 (A) (A) (A) (A) (A) (A) (A) (A) (A) (A) (A) (A)
                 (A) (A) (A) (A) (A) (A) (A) (A) (A) (A) (A) (A)
                 (A) (A) (A) (A) (A) (A) (A) (A) (A) (A) (A) (A)
                 (A) (A) (A) (A) (A) (A) (A) (A) (A) (A) (A) (A)
                 (A) (A) (A) (A) (A) (A) (A) (A) (A) (A) (A) (A)
                 (A) (A) (A) (A) (A) (A) (A) (A) (A) (A) (A) (A)
                 (A) (A) (A) (A) (A) (A) (A) (A) (A) (A) (A) (A)
                 (A) (A) (A) (A) (A) (A) (A) (A) (A) (A) (A) (A)
                 (A) (A) (A) (A) (A) (A) (A) (A) (A) (A) (A) (A)
                 (A) (A) (A) (A) (A) (A) (A) (A) (A) (A) (A) (A)
                 (A) (A) (A) (A) (A) (A) (A) (A) (A) (A) (A) (A)
                 (A) (A) (A) (A) (A) (A) (A) (A) (A) (A) (A) (A)
                 (A) (A) (A) (A) (A) (A) (A) (A) (A) (A) (A) (A)
                 (A) (A) (A) (A) (A) (A) (A) (A) (A) (A) (A) (A)
                 (A) (A) (A) (A) (A) (A) (A) (A) (A) (A) (A) (A)
                 (A) (A) (A) (A) (A) (A) (A) (A) (A) (A) (A) (A)
                 (A) (A) (A) (A) (A) (A) (A) (A) (A) (A) (A) (A)
                 (A) (A) (A) (A) (A) (A) (A) (A) (A) (A) (A) (A)
                 (A) (A) (A) (A) (A) (A) (A) (A) (A) (A) (A) (A)
                 (A) (A) (A) (A) (A) (A) (A) (A) (A) (A) (A) (A)
                 (A) (A) (A) (A) (A) (A) (A) (A) (A) (A) (A) (A)
                 (A) (A) (A) (A) (A) (A) (A) (A) (A) (A) (A) (A)
                 (A) (A) (A) (A) (A) (A) (A) (A) (A) (A) (A) (A)
                 (A) (A) (A) (A) (A) (A) (A) (A) (A) (A) (A) (A)
                 (A) (A) (A) (A) (A) (A) (A) (A) (A) (A) (A) (A)
                 (A) (A) (A) (A) (A) (A) (A) (A) (A) (A) (A) (A)
                 (A) (A) (A) (A) (A) (A) (A) (A) (A) (A) (A) (A)
                 (A) (A) (A) (A) (A) (A) (A) (A) (A) (A) (A) (A)
                 (A) (A) (A) (A) (A) (A) (A) (A) (A) (A) (A) (A)
                 (A) (A) (A) (A) (A) (A) (A) (A) (A) (A) (A) (A)
                 (A) (A) (A) (A) (A) (A) (A) (A) (A) (A) (A) (A)
                 (A) (A) (A) (A) (A) (A) (A) (A) (A) (A) (A) (A)
                 (A) (A) (A) (A) (A) (A) (A) (A) (A) (A) (A) (A)
 The electronic state is 1-A.
 Alpha  occ. eigenvalues --  -19.62454 -19.62398 -19.62116 -10.63096 -10.58917
 Alpha  occ. eigenvalues --  -10.57653 -10.57609 -10.57309 -10.53588 -10.52855
 Alpha  occ. eigenvalues --  -10.52803 -10.52715 -10.52577  -1.19419  -1.16275
 Alpha  occ. eigenvalues --   -1.12878  -0.90640  -0.89449  -0.87674  -0.84564
 Alpha  occ. eigenvalues --   -0.75340  -0.73946  -0.73167  -0.71160  -0.66380
 Alpha  occ. eigenvalues --   -0.62068  -0.59608  -0.58508  -0.56911  -0.55612
 Alpha  occ. eigenvalues --   -0.54144  -0.53453  -0.51810  -0.51615  -0.49613
 Alpha  occ. eigenvalues --   -0.48284  -0.46661  -0.46036  -0.45377  -0.44994
 Alpha  occ. eigenvalues --   -0.43188  -0.42961  -0.41263  -0.39922  -0.39034
 Alpha  occ. eigenvalues --   -0.38258  -0.37597  -0.35580  -0.34666  -0.32859
 Alpha  occ. eigenvalues --   -0.31221
 Alpha virt. eigenvalues --   -0.00212   0.00752   0.00917   0.01092   0.02300
 Alpha virt. eigenvalues --    0.02586   0.02688   0.03239   0.03331   0.04770
 Alpha virt. eigenvalues --    0.04862   0.05096   0.05492   0.05680   0.07173
 Alpha virt. eigenvalues --    0.07559   0.08009   0.08374   0.09084   0.09378
 Alpha virt. eigenvalues --    0.09961   0.10709   0.11208   0.11328   0.12093
 Alpha virt. eigenvalues --    0.12405   0.12757   0.12888   0.13100   0.13295
 Alpha virt. eigenvalues --    0.13974   0.14307   0.14367   0.14539   0.14996
 Alpha virt. eigenvalues --    0.15139   0.15358   0.15724   0.16057   0.16221
 Alpha virt. eigenvalues --    0.16624   0.17032   0.17375   0.17755   0.17875
 Alpha virt. eigenvalues --    0.18224   0.18553   0.19102   0.19193   0.19373
 Alpha virt. eigenvalues --    0.19724   0.20224   0.20327   0.20816   0.21885
 Alpha virt. eigenvalues --    0.22416   0.22856   0.23523   0.24270   0.24661
 Alpha virt. eigenvalues --    0.24966   0.25161   0.26414   0.26778   0.27239
 Alpha virt. eigenvalues --    0.27742   0.28207   0.28898   0.29123   0.29720
 Alpha virt. eigenvalues --    0.30099   0.30225   0.31308   0.31608   0.32316
 Alpha virt. eigenvalues --    0.32877   0.33738   0.34008   0.34727   0.35059
 Alpha virt. eigenvalues --    0.35227   0.35355   0.36246   0.36304   0.36582
 Alpha virt. eigenvalues --    0.36863   0.37244   0.37445   0.38307   0.38495
 Alpha virt. eigenvalues --    0.38720   0.38860   0.39246   0.40416   0.41208
 Alpha virt. eigenvalues --    0.42112   0.42389   0.43450   0.44113   0.45931
 Alpha virt. eigenvalues --    0.47721   0.48905   0.49686   0.50088   0.51255
 Alpha virt. eigenvalues --    0.52489   0.53274   0.53705   0.55124   0.56715
 Alpha virt. eigenvalues --    0.56941   0.58452   0.58616   0.59376   0.60088
 Alpha virt. eigenvalues --    0.60417   0.60957   0.61243   0.61733   0.62036
 Alpha virt. eigenvalues --    0.62672   0.63383   0.63602   0.64276   0.64751
 Alpha virt. eigenvalues --    0.65694   0.65934   0.66245   0.66651   0.67338
 Alpha virt. eigenvalues --    0.68022   0.68399   0.69342   0.70537   0.70890
 Alpha virt. eigenvalues --    0.70960   0.71579   0.72805   0.73518   0.73603
 Alpha virt. eigenvalues --    0.74083   0.74581   0.74640   0.75685   0.76147
 Alpha virt. eigenvalues --    0.76436   0.77000   0.77962   0.78072   0.78961
 Alpha virt. eigenvalues --    0.80037   0.82827   0.83690   0.84391   0.85685
 Alpha virt. eigenvalues --    0.86938   0.87984   0.89017   0.89542   0.90337
 Alpha virt. eigenvalues --    0.92028   0.92715   0.93522   0.95775   0.96079
 Alpha virt. eigenvalues --    0.97831   0.99576   1.00351   1.01472   1.02128
 Alpha virt. eigenvalues --    1.02693   1.04251   1.04516   1.05066   1.06188
 Alpha virt. eigenvalues --    1.06777   1.08801   1.10460   1.11864   1.13025
 Alpha virt. eigenvalues --    1.13414   1.15515   1.15889   1.16577   1.17534
 Alpha virt. eigenvalues --    1.17952   1.19001   1.19763   1.20907   1.21729
 Alpha virt. eigenvalues --    1.22210   1.22970   1.23458   1.24201   1.24923
 Alpha virt. eigenvalues --    1.25547   1.26457   1.26932   1.28259   1.28414
 Alpha virt. eigenvalues --    1.28913   1.29296   1.30072   1.30584   1.32829
 Alpha virt. eigenvalues --    1.32978   1.34096   1.34246   1.35224   1.35840
 Alpha virt. eigenvalues --    1.36356   1.37653   1.37953   1.38745   1.39556
 Alpha virt. eigenvalues --    1.40377   1.41054   1.41688   1.41851   1.42294
 Alpha virt. eigenvalues --    1.42790   1.43876   1.45046   1.45741   1.46234
 Alpha virt. eigenvalues --    1.46760   1.47431   1.47650   1.48349   1.49409
 Alpha virt. eigenvalues --    1.49860   1.49940   1.50874   1.52067   1.53611
 Alpha virt. eigenvalues --    1.53950   1.54499   1.54851   1.55428   1.56591
 Alpha virt. eigenvalues --    1.57537   1.58114   1.58745   1.59147   1.59596
 Alpha virt. eigenvalues --    1.60063   1.60579   1.61411   1.63148   1.63852
 Alpha virt. eigenvalues --    1.64130   1.65292   1.66013   1.66209   1.67761
 Alpha virt. eigenvalues --    1.68143   1.69326   1.69767   1.71030   1.71675
 Alpha virt. eigenvalues --    1.72922   1.74837   1.75899   1.77186   1.78570
 Alpha virt. eigenvalues --    1.79870   1.80263   1.81284   1.83834   1.85833
 Alpha virt. eigenvalues --    1.87340   1.87758   1.90903   1.96497   1.97592
 Alpha virt. eigenvalues --    2.01206   2.07504   2.13230   2.19297   2.21633
 Alpha virt. eigenvalues --    2.25425   2.26460   2.30298   2.34994   2.38367
 Alpha virt. eigenvalues --    2.42219   2.44383   2.46037   2.49070   2.54035
 Alpha virt. eigenvalues --    2.62570   2.76952   2.77812   2.81404   2.82673
 Alpha virt. eigenvalues --    2.84604   2.87800   2.92184   2.93386   2.94285
 Alpha virt. eigenvalues --    2.95727   2.96823   2.98596   3.01614   3.03720
 Alpha virt. eigenvalues --    3.07019   3.08945   3.09813   3.10496   3.12856
 Alpha virt. eigenvalues --    3.13743   3.14870   3.19250   3.20214   3.20646
 Alpha virt. eigenvalues --    3.24107   3.28875   3.31745   3.33654   3.34235
 Alpha virt. eigenvalues --    3.35339   3.37419   3.38747   3.40397   3.41707
 Alpha virt. eigenvalues --    3.43586   3.44093   3.44667   3.45741   3.47933
 Alpha virt. eigenvalues --    3.49240   3.49730   3.50656   3.51358   3.52478
 Alpha virt. eigenvalues --    3.53654   3.54023   3.54453   3.55323   3.56048
 Alpha virt. eigenvalues --    3.56623   3.57409   3.58339   3.59003   3.60408
 Alpha virt. eigenvalues --    3.60894   3.61053   3.63219   3.63721   3.65530
 Alpha virt. eigenvalues --    3.66306   3.68268   3.68586   3.69020   3.69050
 Alpha virt. eigenvalues --    3.70995   3.71459   3.72791   3.73246   3.74969
 Alpha virt. eigenvalues --    3.75698   3.76515   3.77507   3.77809   3.78083
 Alpha virt. eigenvalues --    3.78768   3.80869   3.82150   3.83542   3.85358
 Alpha virt. eigenvalues --    3.86287   3.86744   3.88802   3.89158   3.92121
 Alpha virt. eigenvalues --    3.93652   3.94499   3.95073   3.96505   3.98762
 Alpha virt. eigenvalues --    3.99529   4.00944   4.02480   4.03367   4.04119
 Alpha virt. eigenvalues --    4.05224   4.06239   4.07199   4.07429   4.07749
 Alpha virt. eigenvalues --    4.09057   4.09398   4.10237   4.11078   4.12108
 Alpha virt. eigenvalues --    4.12498   4.13339   4.14200   4.16171   4.17062
 Alpha virt. eigenvalues --    4.17340   4.17858   4.18830   4.20088   4.21611
 Alpha virt. eigenvalues --    4.22227   4.23015   4.25778   4.27081   4.28159
 Alpha virt. eigenvalues --    4.28485   4.29483   4.30663   4.32768   4.33126
 Alpha virt. eigenvalues --    4.33541   4.33844   4.34476   4.36234   4.40010
 Alpha virt. eigenvalues --    4.40758   4.41296   4.46239   4.46481   4.48222
 Alpha virt. eigenvalues --    4.58262   4.61413   4.73408   4.75871   4.80776
 Alpha virt. eigenvalues --    4.85824   4.93590   4.95615   5.01819   5.03102
 Alpha virt. eigenvalues --    5.06969   5.07560   5.08082   5.09272   5.11203
 Alpha virt. eigenvalues --    5.12986   5.14241   5.15954   5.34051   5.41113
 Alpha virt. eigenvalues --    5.42633   5.60543   5.62536   5.68134   5.86213
 Alpha virt. eigenvalues --    5.87776   6.02714   7.00636   7.06242   7.07935
 Alpha virt. eigenvalues --    7.09582   7.11323   7.13302   7.15064   7.19737
 Alpha virt. eigenvalues --    7.30034   7.37525   7.42618   7.47778   7.53337
 Alpha virt. eigenvalues --    7.54151   7.64081  23.96729  23.98237  24.06966
 Alpha virt. eigenvalues --   24.08724  24.10856  24.11793  24.14183  24.15456
 Alpha virt. eigenvalues --   24.16256  24.21214  50.16282  50.18207  50.26947
          Condensed to atoms (all electrons):
               1          2          3          4          5          6
     1  C    5.730417   0.295639  -0.027376  -0.000554  -0.011672   0.001959
     2  C    0.295639   7.189983   0.399538  -0.113024   0.061480   0.008657
     3  C   -0.027376   0.399538   6.717553   0.028639   0.067509   0.081131
     4  C   -0.000554  -0.113024   0.028639   5.650931   0.001888   0.003115
     5  C   -0.011672   0.061480   0.067509   0.001888   5.587856   0.099545
     6  O    0.001959   0.008657   0.081131   0.003115   0.099545   8.232105
     7  C   -0.093306  -0.420226   0.036551   0.013659  -0.000671  -0.014887
     8  C   -0.038189  -0.918264  -1.377858   0.005632   0.195798  -0.125797
     9  C    0.026668  -0.169753  -0.457569  -0.016267  -0.147916  -0.002100
    10  C    0.059279   0.241964   0.573125  -0.007993  -0.332142   0.197871
    11  O   -0.072507   0.308611  -0.001486  -0.014161   0.015544   0.012676
    12  O   -0.011622   0.240138   0.045168  -0.019293  -0.022078   0.033955
    13  C   -0.177250  -1.237291  -0.073761  -0.084040   0.033444   0.011891
    14  H    0.498261   0.006754  -0.001505  -0.021902   0.000158   0.000193
    15  H    0.438773   0.012441   0.000680  -0.046409  -0.000643  -0.000396
    16  H   -0.000294  -0.004593   0.448745   0.000725  -0.023038  -0.001368
    17  H   -0.014538   0.009092  -0.001887   0.416337   0.000158   0.000159
    18  H   -0.053183  -0.030484   0.000939   0.517607  -0.000463   0.000033
    19  H   -0.084870  -0.036156  -0.011537  -0.000879   0.002024   0.005647
    20  H   -0.027547  -0.001241   0.003823   0.014242  -0.000678  -0.004445
    21  H    0.002738  -0.018570  -0.023926   0.000615  -0.103444  -0.021121
    22  H    0.000598   0.002077  -0.077530  -0.000324  -0.020624   0.009132
    23  H    0.001659  -0.004186  -0.081318  -0.000554  -0.003343  -0.073322
    24  H    0.000731   0.006518   0.012722  -0.000315  -0.002194  -0.072348
    25  H   -0.013019  -0.147770   0.002735  -0.001268  -0.000130  -0.000186
    26  H   -0.013608  -0.001378   0.006773  -0.030682  -0.000069  -0.000146
    27  H    0.022728   0.514927  -0.038020  -0.028974   0.010580  -0.005996
    28  H   -0.000387  -0.003449  -0.073652   0.000064   0.455301  -0.070372
    29  H   -0.000832  -0.001740   0.010703  -0.000156   0.458826  -0.067120
    30  H   -0.000118  -0.006148   0.462962   0.001913   0.005198   0.000857
    31  H   -0.000090  -0.019119  -0.046998  -0.000347  -0.007223   0.006930
               7          8          9         10         11         12
     1  C   -0.093306  -0.038189   0.026668   0.059279  -0.072507  -0.011622
     2  C   -0.420226  -0.918264  -0.169753   0.241964   0.308611   0.240138
     3  C    0.036551  -1.377858  -0.457569   0.573125  -0.001486   0.045168
     4  C    0.013659   0.005632  -0.016267  -0.007993  -0.014161  -0.019293
     5  C   -0.000671   0.195798  -0.147916  -0.332142   0.015544  -0.022078
     6  O   -0.014887  -0.125797  -0.002100   0.197871   0.012676   0.033955
     7  C    5.552240   0.087826  -0.002712  -0.044369   0.075954  -0.002159
     8  C    0.087826   8.536988   0.360452  -1.636345   0.024258  -0.027412
     9  C   -0.002712   0.360452   5.853134  -0.051154  -0.037540  -0.006081
    10  C   -0.044369  -1.636345  -0.051154   6.864706   0.024193  -0.047884
    11  O    0.075954   0.024258  -0.037540   0.024193   8.162256  -0.051552
    12  O   -0.002159  -0.027412  -0.006081  -0.047884  -0.051552   8.243836
    13  C    0.069625   0.044228  -0.118325  -0.008563  -0.085220  -0.021031
    14  H   -0.096476  -0.007039   0.000431   0.003588   0.000846   0.000600
    15  H   -0.030072   0.003412   0.000507  -0.000595   0.011447  -0.001180
    16  H    0.002641  -0.011303  -0.021977  -0.012045  -0.000494  -0.001026
    17  H    0.002101   0.006262  -0.000682  -0.001535  -0.006484  -0.000450
    18  H   -0.008077  -0.015943  -0.000602   0.013163   0.003973   0.000243
    19  H    0.467809   0.030396   0.005566  -0.055178  -0.028502   0.015361
    20  H    0.445163  -0.004529   0.000634   0.004556  -0.068710   0.002998
    21  H    0.007164  -0.029478   0.516195   0.053700  -0.003678  -0.000544
    22  H    0.000078   0.030599   0.438955  -0.011748  -0.000783  -0.000491
    23  H   -0.003990   0.066273   0.034448   0.403469   0.000435  -0.003612
    24  H    0.004853  -0.081297   0.011570   0.456153  -0.000393   0.000464
    25  H    0.017088  -0.005394  -0.001262   0.006124  -0.007372   0.011044
    26  H    0.014639   0.003717   0.000711  -0.006296   0.011493  -0.006747
    27  H   -0.048082   0.024265   0.013414  -0.020002  -0.081835  -0.033024
    28  H    0.000374   0.087969   0.006656  -0.054030   0.000545  -0.000450
    29  H   -0.001015   0.031532  -0.062685  -0.027108  -0.002493  -0.001401
    30  H   -0.001767  -0.059375  -0.048954  -0.013294   0.001728   0.000551
    31  H    0.000301   0.456357   0.009182  -0.031821   0.001631  -0.042639
              13         14         15         16         17         18
     1  C   -0.177250   0.498261   0.438773  -0.000294  -0.014538  -0.053183
     2  C   -1.237291   0.006754   0.012441  -0.004593   0.009092  -0.030484
     3  C   -0.073761  -0.001505   0.000680   0.448745  -0.001887   0.000939
     4  C   -0.084040  -0.021902  -0.046409   0.000725   0.416337   0.517607
     5  C    0.033444   0.000158  -0.000643  -0.023038   0.000158  -0.000463
     6  O    0.011891   0.000193  -0.000396  -0.001368   0.000159   0.000033
     7  C    0.069625  -0.096476  -0.030072   0.002641   0.002101  -0.008077
     8  C    0.044228  -0.007039   0.003412  -0.011303   0.006262  -0.015943
     9  C   -0.118325   0.000431   0.000507  -0.021977  -0.000682  -0.000602
    10  C   -0.008563   0.003588  -0.000595  -0.012045  -0.001535   0.013163
    11  O   -0.085220   0.000846   0.011447  -0.000494  -0.006484   0.003973
    12  O   -0.021031   0.000600  -0.001180  -0.001026  -0.000450   0.000243
    13  C    7.497252  -0.011845  -0.018438  -0.014706  -0.035722  -0.039471
    14  H   -0.011845   0.484016  -0.011442  -0.000150  -0.000770   0.002028
    15  H   -0.018438  -0.011442   0.488310   0.000141  -0.009480  -0.004241
    16  H   -0.014706  -0.000150   0.000141   0.427904  -0.000059  -0.000140
    17  H   -0.035722  -0.000770  -0.009480  -0.000059   0.468240  -0.005390
    18  H   -0.039471   0.002028  -0.004241  -0.000140  -0.005390   0.458800
    19  H    0.050370   0.003433  -0.001329  -0.001123  -0.000513  -0.001475
    20  H   -0.013295  -0.006150  -0.010018   0.000307   0.000967  -0.002643
    21  H   -0.034060  -0.000713   0.000534   0.008465  -0.000174   0.000064
    22  H    0.002835   0.000064  -0.000034  -0.010455  -0.000011  -0.000014
    23  H    0.007752   0.000144  -0.000166  -0.009472   0.000023   0.000434
    24  H   -0.019552  -0.000102   0.000735   0.001426  -0.000258  -0.000576
    25  H    0.520714  -0.001759  -0.002481   0.000208  -0.002909   0.002213
    26  H    0.384853  -0.002219   0.001856   0.000517  -0.010849  -0.002541
    27  H   -0.076668   0.001462   0.001273   0.000885   0.001766  -0.003608
    28  H    0.000877  -0.000037   0.000016  -0.007055   0.000011  -0.000014
    29  H   -0.000864   0.000065  -0.000035  -0.000186   0.000004  -0.000059
    30  H    0.036231   0.000088  -0.000222   0.000018   0.000137   0.000223
    31  H    0.003773  -0.000218   0.000164  -0.008261   0.000566  -0.000489
              19         20         21         22         23         24
     1  C   -0.084870  -0.027547   0.002738   0.000598   0.001659   0.000731
     2  C   -0.036156  -0.001241  -0.018570   0.002077  -0.004186   0.006518
     3  C   -0.011537   0.003823  -0.023926  -0.077530  -0.081318   0.012722
     4  C   -0.000879   0.014242   0.000615  -0.000324  -0.000554  -0.000315
     5  C    0.002024  -0.000678  -0.103444  -0.020624  -0.003343  -0.002194
     6  O    0.005647  -0.004445  -0.021121   0.009132  -0.073322  -0.072348
     7  C    0.467809   0.445163   0.007164   0.000078  -0.003990   0.004853
     8  C    0.030396  -0.004529  -0.029478   0.030599   0.066273  -0.081297
     9  C    0.005566   0.000634   0.516195   0.438955   0.034448   0.011570
    10  C   -0.055178   0.004556   0.053700  -0.011748   0.403469   0.456153
    11  O   -0.028502  -0.068710  -0.003678  -0.000783   0.000435  -0.000393
    12  O    0.015361   0.002998  -0.000544  -0.000491  -0.003612   0.000464
    13  C    0.050370  -0.013295  -0.034060   0.002835   0.007752  -0.019552
    14  H    0.003433  -0.006150  -0.000713   0.000064   0.000144  -0.000102
    15  H   -0.001329  -0.010018   0.000534  -0.000034  -0.000166   0.000735
    16  H   -0.001123   0.000307   0.008465  -0.010455  -0.009472   0.001426
    17  H   -0.000513   0.000967  -0.000174  -0.000011   0.000023  -0.000258
    18  H   -0.001475  -0.002643   0.000064  -0.000014   0.000434  -0.000576
    19  H    0.531446  -0.019729  -0.004811   0.000546   0.003664  -0.010937
    20  H   -0.019729   0.478961   0.001939   0.000012  -0.000733   0.002745
    21  H   -0.004811   0.001939   0.496618  -0.018728  -0.005077   0.001822
    22  H    0.000546   0.000012  -0.018728   0.464411   0.002720   0.000833
    23  H    0.003664  -0.000733  -0.005077   0.002720   0.491832  -0.008809
    24  H   -0.010937   0.002745   0.001822   0.000833  -0.008809   0.489228
    25  H   -0.002658   0.000787   0.001723  -0.000097  -0.000022   0.000412
    26  H   -0.000180   0.001317   0.000170  -0.000034  -0.000233   0.000317
    27  H    0.002988  -0.001480  -0.014103   0.001110  -0.000328   0.001499
    28  H    0.000632  -0.000179  -0.003559   0.007682   0.006644  -0.003477
    29  H    0.001837  -0.000744  -0.006525  -0.007654   0.000402   0.000760
    30  H    0.001185  -0.000488  -0.007837  -0.005981   0.001101  -0.001447
    31  H    0.000573  -0.000099   0.001255   0.000460   0.005163  -0.017160
              25         26         27         28         29         30
     1  C   -0.013019  -0.013608   0.022728  -0.000387  -0.000832  -0.000118
     2  C   -0.147770  -0.001378   0.514927  -0.003449  -0.001740  -0.006148
     3  C    0.002735   0.006773  -0.038020  -0.073652   0.010703   0.462962
     4  C   -0.001268  -0.030682  -0.028974   0.000064  -0.000156   0.001913
     5  C   -0.000130  -0.000069   0.010580   0.455301   0.458826   0.005198
     6  O   -0.000186  -0.000146  -0.005996  -0.070372  -0.067120   0.000857
     7  C    0.017088   0.014639  -0.048082   0.000374  -0.001015  -0.001767
     8  C   -0.005394   0.003717   0.024265   0.087969   0.031532  -0.059375
     9  C   -0.001262   0.000711   0.013414   0.006656  -0.062685  -0.048954
    10  C    0.006124  -0.006296  -0.020002  -0.054030  -0.027108  -0.013294
    11  O   -0.007372   0.011493  -0.081835   0.000545  -0.002493   0.001728
    12  O    0.011044  -0.006747  -0.033024  -0.000450  -0.001401   0.000551
    13  C    0.520714   0.384853  -0.076668   0.000877  -0.000864   0.036231
    14  H   -0.001759  -0.002219   0.001462  -0.000037   0.000065   0.000088
    15  H   -0.002481   0.001856   0.001273   0.000016  -0.000035  -0.000222
    16  H    0.000208   0.000517   0.000885  -0.007055  -0.000186   0.000018
    17  H   -0.002909  -0.010849   0.001766   0.000011   0.000004   0.000137
    18  H    0.002213  -0.002541  -0.003608  -0.000014  -0.000059   0.000223
    19  H   -0.002658  -0.000180   0.002988   0.000632   0.001837   0.001185
    20  H    0.000787   0.001317  -0.001480  -0.000179  -0.000744  -0.000488
    21  H    0.001723   0.000170  -0.014103  -0.003559  -0.006525  -0.007837
    22  H   -0.000097  -0.000034   0.001110   0.007682  -0.007654  -0.005981
    23  H   -0.000022  -0.000233  -0.000328   0.006644   0.000402   0.001101
    24  H    0.000412   0.000317   0.001499  -0.003477   0.000760  -0.001447
    25  H    0.454609  -0.003063  -0.019373  -0.000038  -0.000275   0.000645
    26  H   -0.003063   0.478196  -0.011264   0.000007   0.000089  -0.002330
    27  H   -0.019373  -0.011264   0.536647  -0.001412   0.004517  -0.018241
    28  H   -0.000038   0.000007  -0.001412   0.490572  -0.006110   0.000444
    29  H   -0.000275   0.000089   0.004517  -0.006110   0.485355  -0.001089
    30  H    0.000645  -0.002330  -0.018241   0.000444  -0.001089   0.481772
    31  H   -0.000731   0.000035  -0.002737   0.004917   0.000233  -0.007872
              31
     1  C   -0.000090
     2  C   -0.019119
     3  C   -0.046998
     4  C   -0.000347
     5  C   -0.007223
     6  O    0.006930
     7  C    0.000301
     8  C    0.456357
     9  C    0.009182
    10  C   -0.031821
    11  O    0.001631
    12  O   -0.042639
    13  C    0.003773
    14  H   -0.000218
    15  H    0.000164
    16  H   -0.008261
    17  H    0.000566
    18  H   -0.000489
    19  H    0.000573
    20  H   -0.000099
    21  H    0.001255
    22  H    0.000460
    23  H    0.005163
    24  H   -0.017160
    25  H   -0.000731
    26  H    0.000035
    27  H   -0.002737
    28  H    0.004917
    29  H    0.000233
    30  H   -0.007872
    31  H    0.453327
 Mulliken charges:
               1
     1  C   -0.438489
     2  C   -0.164426
     3  C   -0.604875
     4  C   -0.268224
     5  C   -0.318980
     6  O   -0.246251
     7  C   -0.030258
     8  C    0.342261
     9  C   -0.132943
    10  C   -0.539789
    11  O   -0.192378
    12  O   -0.293682
    13  C   -0.593742
    14  H    0.160194
    15  H    0.176891
    16  H    0.235763
    17  H    0.185889
    18  H    0.169691
    19  H    0.136400
    20  H    0.204260
    21  H    0.203346
    22  H    0.192398
    23  H    0.169000
    24  H    0.226077
    25  H    0.191503
    26  H    0.186951
    27  H    0.267085
    28  H    0.161513
    29  H    0.193770
    30  H    0.180107
    31  H    0.240938
 Sum of Mulliken charges =  -0.00000
 Mulliken charges with hydrogens summed into heavy atoms:
               1
     1  C   -0.101404
     2  C    0.102659
     3  C   -0.189005
     4  C    0.087356
     5  C    0.036303
     6  O   -0.246251
     7  C    0.310401
     8  C    0.583199
     9  C    0.262800
    10  C   -0.144711
    11  O   -0.192378
    12  O   -0.293682
    13  C   -0.215288
 Electronic spatial extent (au):  <R**2>=           2542.3683
 Charge=             -0.0000 electrons
 Dipole moment (field-independent basis, Debye):
    X=             -0.8177    Y=             -2.2392    Z=              0.1121  Tot=              2.3865
 Quadrupole moment (field-independent basis, Debye-Ang):
   XX=            -69.5256   YY=            -80.8250   ZZ=            -79.3364
   XY=              4.6839   XZ=              0.3904   YZ=              1.4423
 Traceless Quadrupole moment (field-independent basis, Debye-Ang):
   XX=              7.0368   YY=             -4.2626   ZZ=             -2.7741
   XY=              4.6839   XZ=              0.3904   YZ=              1.4423
 Octapole moment (field-independent basis, Debye-Ang**2):
  XXX=            -12.7467  YYY=             -1.3172  ZZZ=              6.2315  XYY=              6.2422
  XXY=             -2.6874  XXZ=             -3.2407  XZZ=             -9.0098  YZZ=              0.6253
  YYZ=             -3.9880  XYZ=              6.7276
 Hexadecapole moment (field-independent basis, Debye-Ang**3):
 XXXX=          -2253.3090 YYYY=           -641.0568 ZZZZ=           -429.1917 XXXY=              0.4082
 XXXZ=              3.2856 YYYX=             13.9299 YYYZ=            -11.4913 ZZZX=             -8.9303
 ZZZY=              2.5025 XXYY=           -495.5464 XXZZ=           -451.4313 YYZZ=           -175.1822
 XXYZ=             -7.6841 YYXZ=              5.2064 ZZXY=             -1.3358
 N-N= 9.232317413559D+02 E-N=-3.288783414453D+03  KE= 6.153121492451D+02
 D1PCM: PCM CHGder 1st derivatives, ID1Alg=3 FixD1E=F DoIter=F DoCFld=F I1PDM=0.
 Calling FoFJK, ICntrl=      2127 FMM=F ISym2X=0 I1Cent= 0 IOpClX= 0 NMat=1 NMatS=1 NMatT=0.
 ***** Axes restored to original set *****
 -------------------------------------------------------------------
 Center     Atomic                   Forces (Hartrees/Bohr)
 Number     Number              X              Y              Z
 -------------------------------------------------------------------
      1        6          -0.001632938    0.001027866   -0.001970944
      2        6           0.002493446   -0.005562992   -0.005969960
      3        6           0.000974835   -0.005079583   -0.000910022
      4        6          -0.002501905   -0.001384844    0.002791967
      5        6           0.005522559    0.004653551   -0.001634898
      6        8           0.003987092   -0.007098061   -0.000323051
      7        6           0.002508907    0.006441118    0.000737638
      8        6           0.000686987   -0.004319317    0.006347883
      9        6          -0.001028534    0.000930916   -0.002543273
     10        6          -0.001400176    0.001962160    0.007569561
     11        8          -0.004424284   -0.003037726    0.010232181
     12        8           0.005603930    0.003282750   -0.008267539
     13        6           0.000067980   -0.001028560   -0.002428202
     14        1           0.000778672    0.000164997    0.003255877
     15        1           0.001804537   -0.001471559   -0.001731914
     16        1          -0.003259093    0.001305719   -0.001387300
     17        1           0.002441605    0.000933775    0.000200865
     18        1          -0.002169113    0.000022369   -0.002940961
     19        1          -0.002353925    0.000365904   -0.006238188
     20        1          -0.000175120   -0.004007537    0.002000259
     21        1           0.004655106   -0.001732383    0.001077957
     22        1          -0.002072690    0.001361589    0.001871654
     23        1          -0.005580667    0.001992370   -0.003344855
     24        1           0.004307358   -0.001403983   -0.002686519
     25        1           0.001120024   -0.000450417    0.003210129
     26        1          -0.000292075    0.002795673   -0.001432687
     27        1          -0.004936802    0.003445016    0.006885741
     28        1          -0.005543642    0.002132201   -0.002262962
     29        1          -0.000511715   -0.003205413    0.002931508
     30        1           0.002097648    0.002846101    0.001169524
     31        1          -0.001168009    0.004118301   -0.004209472
 -------------------------------------------------------------------
 Cartesian Forces:  Max     0.010232181 RMS     0.003468100

 GradGradGradGradGradGradGradGradGradGradGradGradGradGradGradGradGradGrad
 Berny optimization.
 FormGI is forming the generalized inverse of G from B-inverse, IUseBI=4.
 Internal  Forces:  Max     0.017511807 RMS     0.002330208
 Search for a local minimum.
 Step number   1 out of a maximum of  186
 All quantities printed in internal units (Hartrees-Bohrs-Radians)
 Mixed Optimization -- RFO/linear search
 Second derivative matrix not updated -- first step.
 ITU=  0
     Eigenvalues ---    0.00509   0.00622   0.00696   0.00718   0.01412
     Eigenvalues ---    0.01434   0.01748   0.02701   0.02778   0.02903
     Eigenvalues ---    0.03080   0.03958   0.04081   0.04434   0.04748
     Eigenvalues ---    0.04790   0.04892   0.04928   0.05083   0.05142
     Eigenvalues ---    0.05307   0.05500   0.05693   0.06158   0.06180
     Eigenvalues ---    0.06325   0.06576   0.07054   0.07609   0.07845
     Eigenvalues ---    0.07950   0.08003   0.08163   0.08259   0.08610
     Eigenvalues ---    0.08831   0.09150   0.09840   0.10866   0.11600
     Eigenvalues ---    0.11708   0.11763   0.11815   0.12398   0.12698
     Eigenvalues ---    0.14664   0.15128   0.16487   0.16500   0.18010
     Eigenvalues ---    0.19080   0.21578   0.21966   0.25000   0.28344
     Eigenvalues ---    0.28536   0.28599   0.28841   0.28874   0.28937
     Eigenvalues ---    0.30199   0.30238   0.35026   0.35043   0.35086
     Eigenvalues ---    0.35162   0.35183   0.35190   0.35231   0.35248
     Eigenvalues ---    0.35306   0.35441   0.35456   0.35463   0.35586
     Eigenvalues ---    0.35717   0.35819   0.35833   0.35892   0.36418
     Eigenvalues ---    0.40952   0.41020   0.41549   0.42410   0.43384
     Eigenvalues ---    0.463351000.000001000.000001000.000001000.00000
     Eigenvalues --- 1000.000001000.000001000.000001000.000001000.00000
     Eigenvalues --- 1000.000001000.000001000.000001000.000001000.00000
     Eigenvalues --- 1000.000001000.000001000.000001000.000001000.00000
     Eigenvalues --- 1000.000001000.000001000.000001000.000001000.00000
     Eigenvalues --- 1000.000001000.000001000.000001000.000001000.00000
     Eigenvalues --- 1000.000001000.000001000.000001000.000001000.00000
     Eigenvalues --- 1000.000001000.000001000.000001000.000001000.00000
     Eigenvalues --- 1000.000001000.000001000.000001000.000001000.00000
     Eigenvalues --- 1000.000001000.000001000.000001000.000001000.00000
     Eigenvalues --- 1000.000001000.000001000.000001000.000001000.00000
     Eigenvalues --- 1000.000001000.000001000.000001000.000001000.00000
     Eigenvalues --- 1000.000001000.000001000.000001000.000001000.00000
     Eigenvalues --- 1000.000001000.000001000.000001000.000001000.00000
     Eigenvalues --- 1000.000001000.000001000.000001000.000001000.00000
     Eigenvalues --- 1000.000001000.000001000.000001000.000001000.00000
     Eigenvalues --- 1000.000001000.000001000.000001000.000001000.00000
     Eigenvalues --- 1000.000001000.000001000.000001000.000001000.00000
     Eigenvalues --- 1000.000001000.000001000.000001000.000001000.00000
     Eigenvalues --- 1000.000001000.000001000.000001000.000001000.00000
 RFO step:  Lambda=-5.38994322D-03 EMin= 5.09350642D-03
 Linear search not attempted -- first point.
 Iteration  1 RMS(Cart)=  0.12500654 RMS(Int)=  0.00248338
 Iteration  2 RMS(Cart)=  0.00654678 RMS(Int)=  0.00009588
 Iteration  3 RMS(Cart)=  0.00001596 RMS(Int)=  0.00009555
 Iteration  4 RMS(Cart)=  0.00000000 RMS(Int)=  0.00009555
 Iteration  1 RMS(Cart)=  0.00005116 RMS(Int)=  0.00001094
 Iteration  2 RMS(Cart)=  0.00002837 RMS(Int)=  0.00001222
 Iteration  3 RMS(Cart)=  0.00001573 RMS(Int)=  0.00001383
 Iteration  4 RMS(Cart)=  0.00000872 RMS(Int)=  0.00001491
 Iteration  5 RMS(Cart)=  0.00000484 RMS(Int)=  0.00001556
 Iteration  6 RMS(Cart)=  0.00000268 RMS(Int)=  0.00001593
 Iteration  7 RMS(Cart)=  0.00000149 RMS(Int)=  0.00001613
 Iteration  8 RMS(Cart)=  0.00000082 RMS(Int)=  0.00001625
 Variable       Old X    -DE/DX   Delta X   Delta X   Delta X     New X
                                 (Linear)    (Quad)   (Total)
    R1        2.88864  -0.00083   0.00000  -0.00137  -0.00133   2.88731
    R2        2.87157   0.00036   0.00000   0.00217   0.00223   2.87380
    R3        2.05536   0.00327   0.00000   0.00919   0.00919   2.06455
    R4        2.05302   0.00287   0.00000   0.00803   0.00803   2.06105
    R5        2.65380   0.00299   0.00000   0.00565   0.00562   2.65942
    R6        2.63756   0.00282   0.00000   0.00602   0.00602   2.64358
    R7        2.87884  -0.00031   0.00000  -0.00212  -0.00218   2.87666
    R8        2.03432   0.00910   0.00000   0.02462   0.02462   2.05894
    R9        2.89706  -0.00268   0.00000  -0.01052  -0.01052   2.88654
   R10        2.89709  -0.00091   0.00000  -0.00473  -0.00481   2.89229
   R11        2.05413   0.00377   0.00000   0.01056   0.01056   2.06469
   R12        2.04929   0.00366   0.00000   0.01017   0.01017   2.05946
   R13        2.88974  -0.00158   0.00000  -0.00451  -0.00450   2.88524
   R14        2.05182   0.00262   0.00000   0.00732   0.00732   2.05913
   R15        2.05368   0.00343   0.00000   0.00960   0.00960   2.06327
   R16        2.67396   0.00204   0.00000   0.00575   0.00576   2.67972
   R17        2.87342   0.00064   0.00000   0.00129   0.00122   2.87464
   R18        2.05633   0.00623   0.00000   0.01752   0.01752   2.07385
   R19        2.04365   0.00437   0.00000   0.01203   0.01203   2.05568
   R20        2.66477   0.00134   0.00000   0.00404   0.00411   2.66888
   R21        2.68492   0.00167   0.00000   0.00331   0.00329   2.68821
   R22        2.04940   0.00662   0.00000   0.01840   0.01840   2.06780
   R23        2.04344   0.00448   0.00000   0.01231   0.01231   2.05575
   R24        2.87790  -0.00000   0.00000   0.00101   0.00109   2.87899
   R25        2.70190  -0.00193   0.00000  -0.00465  -0.00465   2.69725
   R26        2.04526   0.00596   0.00000   0.01645   0.01645   2.06170
   R27        2.04734   0.00467   0.00000   0.01292   0.01292   2.06026
   R28        2.05275   0.00308   0.00000   0.00862   0.00862   2.06136
   R29        2.05605   0.00674   0.00000   0.01895   0.01895   2.07500
   R30        2.04251   0.00508   0.00000   0.01394   0.01394   2.05646
   R31        2.05379   0.00337   0.00000   0.00943   0.00943   2.06322
   R32        2.04965   0.00314   0.00000   0.00872   0.00872   2.05837
    A1        1.92178  -0.00095   0.00000  -0.00274  -0.00302   1.91877
    A2        1.91619   0.00084   0.00000   0.00002   0.00013   1.91632
    A3        1.93962  -0.00053   0.00000  -0.00185  -0.00181   1.93781
    A4        1.90614   0.00001   0.00000  -0.00245  -0.00236   1.90379
    A5        1.90371   0.00065   0.00000   0.00412   0.00419   1.90790
    A6        1.87556   0.00001   0.00000   0.00303   0.00299   1.87856
    A7        1.95262   0.00135   0.00000   0.00583   0.00608   1.95870
    A8        1.93511   0.00352   0.00000   0.01129   0.01091   1.94602
    A9        1.83542  -0.00298   0.00000  -0.01690  -0.01688   1.81855
   A10        1.88976  -0.00413   0.00000  -0.01880  -0.01866   1.87110
   A11        1.93005   0.00174   0.00000   0.01064   0.01063   1.94068
   A12        1.92096   0.00069   0.00000   0.00893   0.00906   1.93002
   A13        1.99111  -0.00068   0.00000  -0.01857  -0.01882   1.97229
   A14        1.84137   0.00054   0.00000   0.01503   0.01517   1.85654
   A15        1.93258  -0.00041   0.00000  -0.00928  -0.00943   1.92316
   A16        1.88847   0.00023   0.00000   0.01354   0.01367   1.90214
   A17        1.94537   0.00045   0.00000  -0.00177  -0.00204   1.94333
   A18        1.85633  -0.00006   0.00000   0.00446   0.00447   1.86081
   A19        1.91274   0.00180   0.00000   0.00023   0.00028   1.91301
   A20        1.93062  -0.00025   0.00000   0.00222   0.00230   1.93292
   A21        1.91429  -0.00076   0.00000  -0.00244  -0.00259   1.91170
   A22        1.91625  -0.00044   0.00000   0.00219   0.00215   1.91841
   A23        1.92287  -0.00104   0.00000  -0.00787  -0.00788   1.91499
   A24        1.86670   0.00063   0.00000   0.00569   0.00571   1.87241
   A25        1.93497   0.00085   0.00000   0.00735   0.00720   1.94216
   A26        1.90096   0.00145   0.00000   0.01030   0.01038   1.91134
   A27        1.85926  -0.00118   0.00000  -0.00559  -0.00552   1.85374
   A28        1.93229  -0.00137   0.00000  -0.00931  -0.00932   1.92297
   A29        1.94345  -0.00018   0.00000  -0.00348  -0.00344   1.94001
   A30        1.89068   0.00047   0.00000   0.00112   0.00108   1.89176
   A31        1.96991  -0.00299   0.00000  -0.02042  -0.02035   1.94956
   A32        1.94496   0.00242   0.00000   0.00494   0.00483   1.94979
   A33        1.93044  -0.00118   0.00000  -0.00301  -0.00308   1.92736
   A34        1.94587  -0.00035   0.00000  -0.00241  -0.00229   1.94359
   A35        1.91057  -0.00027   0.00000  -0.00137  -0.00128   1.90929
   A36        1.84243  -0.00128   0.00000  -0.00173  -0.00174   1.84069
   A37        1.88668   0.00062   0.00000   0.00366   0.00364   1.89032
   A38        1.92469   0.00140   0.00000   0.00127   0.00089   1.92558
   A39        2.03791  -0.00319   0.00000  -0.03089  -0.03090   2.00701
   A40        1.88621  -0.00008   0.00000   0.00489   0.00506   1.89127
   A41        1.94321   0.00058   0.00000  -0.00214  -0.00248   1.94072
   A42        1.86114  -0.00038   0.00000   0.00934   0.00928   1.87042
   A43        1.79743   0.00186   0.00000   0.02293   0.02299   1.82043
   A44        1.92941  -0.00003   0.00000  -0.00763  -0.00789   1.92152
   A45        1.94418   0.00042   0.00000  -0.00248  -0.00246   1.94172
   A46        1.91247  -0.00082   0.00000   0.00002   0.00010   1.91257
   A47        1.90303  -0.00060   0.00000  -0.00426  -0.00426   1.89877
   A48        1.90405   0.00053   0.00000   0.00521   0.00531   1.90936
   A49        1.86938   0.00052   0.00000   0.00984   0.00981   1.87919
   A50        1.97764   0.00069   0.00000   0.00529   0.00533   1.98297
   A51        1.90408   0.00168   0.00000   0.01382   0.01379   1.91786
   A52        1.86865  -0.00099   0.00000  -0.00716  -0.00721   1.86144
   A53        1.89191  -0.00133   0.00000  -0.00269  -0.00278   1.88913
   A54        1.92731  -0.00075   0.00000  -0.01380  -0.01384   1.91347
   A55        1.89258   0.00077   0.00000   0.00496   0.00495   1.89752
   A56        2.02498  -0.00577   0.00000  -0.03901  -0.03902   1.98597
   A57        2.17253  -0.01751   0.00000  -0.06857  -0.06857   2.10396
   A58        1.95718  -0.00215   0.00000  -0.01899  -0.01922   1.93796
   A59        1.87166   0.00028   0.00000   0.00558   0.00558   1.87724
   A60        1.90058   0.00094   0.00000   0.00060   0.00065   1.90123
   A61        1.90814   0.00130   0.00000   0.00902   0.00917   1.91731
   A62        1.94744  -0.00020   0.00000  -0.00220  -0.00232   1.94512
   A63        1.87554  -0.00007   0.00000   0.00739   0.00734   1.88288
    D1        0.92126  -0.00025   0.00000   0.00110   0.00111   0.92238
    D2        3.03649   0.00023   0.00000   0.00541   0.00547   3.04196
    D3       -1.19176   0.00039   0.00000   0.01222   0.01227  -1.17949
    D4       -1.17800  -0.00019   0.00000   0.00585   0.00584  -1.17216
    D5        0.93723   0.00028   0.00000   0.01015   0.01019   0.94742
    D6        2.99216   0.00044   0.00000   0.01697   0.01700   3.00916
[...]
 2997,0.00029922,0.00099429,-0.09518056,-0.00538478,-0.27179179,-0.0001
 1138,-0.00061738,0.00039966,0.00024593,0.00000239,0.00026031,-0.000028
 39,0.00000087,0.00002371,0.00013576,0.00041740,0.00073540,0.00248859,-
 0.00272763,-0.00094158,0.00004117,0.00005792,-0.00001861,-0.00008296,-
 0.00003116,0.00002878,0.00000119,0.00000497,-0.00001347,-0.00001063,-0
 .00000470,0.00000732,-0.00000768,-0.00002658,-0.00000889,0.00001502,-0
 .00000029,0.00000458,0.10024787,0.00785632,0.29661419,-0.00178726,0.00
 212902,0.00322635,0.00263290,-0.02801632,0.01070600,-0.00001315,0.0000
 0239,0.00003941,0.00058498,0.01697356,-0.00857424,0.00006802,0.0000198
 5,-0.00002415,-0.00012281,-0.00000541,-0.00010355,-0.00144517,0.001406
 13,0.00120737,0.00012422,0.00035095,0.00001610,0.00002704,0.00002041,0
 .00005546,0.00013211,-0.00005593,0.00012007,-0.00651643,-0.00706415,0.
 00120572,0.00119674,0.00023335,0.00047093,-0.04917443,-0.00136124,-0.0
 0018743,-0.00005197,-0.00037950,0.00012937,0.00040514,0.00136950,-0.00
 016926,0.00000038,-0.00000352,-0.00002565,0.00035007,-0.00057028,-0.00
 071830,0.00067607,-0.00073591,0.00000948,0.00012318,-0.00011298,-0.000
 18885,0.00026293,-0.00015708,-0.00015056,0.00005247,-0.00001267,-0.000
 07492,-0.00003447,0.00001068,-0.00001341,0.00000157,0.00004529,0.00000
 453,0.00000103,0.00000254,0.00000543,-0.00013417,0.01205389,-0.0040297
 0,0.05188959,0.00282306,-0.00069823,-0.00367727,0.00225693,-0.01027934
 ,0.00414048,0.00001888,-0.00001466,0.00003328,-0.00080441,-0.01732103,
 0.00740919,0.00004609,0.00001820,-0.00002821,-0.00012014,0.00000255,-0
 .00007779,0.00032228,0.00108984,0.00053676,-0.00019051,0.00036825,-0.0
 0016548,0.00001765,0.00001082,0.00004593,0.00014313,-0.00006792,0.0001
 0341,-0.00287200,-0.00083226,0.00052603,0.00110745,0.00138136,-0.00012
 991,-0.00493917,-0.27884150,0.09356585,0.00005503,0.00013890,0.0001155
 9,-0.00032754,-0.00119832,0.00049097,-0.00000106,-0.00000729,-0.000020
 77,0.00020006,0.00065249,0.00013359,-0.00045336,0.00066208,-0.00007966
 ,-0.00003480,-0.00005227,-0.00010977,-0.00005548,-0.00006538,0.0000343
 4,0.00003802,0.00000512,-0.00006800,-0.00003302,0.00000731,-0.00001172
 ,0.00000732,0.00003534,0.00001102,0.00000328,-0.00000532,0.00000612,0.
 00050005,0.00226318,-0.00030708,0.00288833,0.30256494,0.00251460,-0.00
 201337,-0.00223423,-0.00241918,0.00133823,-0.00324216,0.00002171,0.000
 00357,-0.00000028,-0.00126132,-0.01986331,0.00777955,-0.00003022,-0.00
 000891,0.00001120,0.00005630,0.00002060,0.00004149,0.00056680,-0.00030
 768,-0.00047080,0.00010752,-0.00015296,0.00006888,-0.00001000,-0.00000
 952,-0.00002748,-0.00003975,0.00001774,-0.00003643,0.00133915,0.001182
 68,0.00115347,-0.00088736,-0.00074236,0.00014182,0.00237435,0.09607576
 ,-0.08652704,0.00005933,-0.00026125,0.00023493,0.00000544,-0.00107149,
 0.00043694,0.00000931,-0.00000097,-0.00000103,-0.00036187,0.00086043,0
 .00056017,-0.00076251,0.00056304,0.00083683,-0.00006325,0.00006896,0.0
 0008425,-0.00008756,0.00009177,0.00007802,-0.00000671,0.00000135,0.000
 02411,0.00001358,-0.00000137,0.00000231,0.00000460,-0.00000661,-0.0000
 0262,-0.00000042,0.00000038,0.00000144,0.00178253,0.02667872,-0.010106
 19,-0.00297431,-0.10237871,0.09118931,0.00032619,-0.00053322,-0.000052
 52,-0.12575045,0.07549826,0.09474306,-0.00181598,0.00006632,-0.0004035
 3,-0.00425182,-0.00380589,-0.00085184,-0.00000550,-0.00016273,-0.00016
 287,-0.00002857,0.00002614,0.00006667,0.00104228,-0.00128322,-0.000096
 91,0.00200934,-0.00109959,-0.00036858,-0.00106675,-0.00008782,0.000346
 29,-0.00033645,-0.00004402,0.00008715,0.00397862,-0.00046402,-0.001822
 37,0.00839279,-0.00679270,-0.01708758,-0.01591110,0.01606440,0.0198712
 4,-0.00001398,0.00008100,-0.00010782,0.00009023,0.00014392,-0.00002471
 ,0.00030499,-0.00009249,-0.00021937,-0.00101151,0.00117750,0.00101299,
 0.00008202,-0.00002158,0.00018115,-0.00012107,0.00013573,0.00004181,0.
 00011358,-0.00007581,-0.00006824,-0.00084170,-0.00082135,0.00009942,-0
 .00015986,-0.00006991,-0.00004483,-0.00005084,-0.00001762,-0.00000680,
 0.00002795,0.00011023,0.00005042,0.00091198,0.00037155,-0.00047539,0.0
 0082816,-0.00051509,0.00000677,0.13536186,-0.00014047,-0.00055369,-0.0
 0019089,0.06610143,-0.11931293,-0.09170222,0.00064184,-0.00013827,0.00
 020271,-0.00227634,-0.00067952,-0.00008670,0.00028670,-0.00022933,-0.0
 0008412,-0.00020921,0.00009165,0.00005067,-0.00277681,-0.00225434,0.00
 517983,0.00083451,-0.00011743,-0.00028692,-0.00059074,-0.00011290,-0.0
 0017025,-0.00003280,-0.00009609,-0.00009927,0.02086487,-0.03827185,-0.
 01999281,-0.00176894,0.00669155,0.00198522,-0.00562556,0.00864367,0.00
 694851,0.00006519,0.00007009,0.00002711,0.00029493,0.00022290,-0.00008
 291,-0.00001030,0.00002581,0.00028909,-0.00047826,0.00050632,0.0003838
 8,0.00008147,-0.00005665,0.00004875,-0.00000296,-0.00011457,-0.0003434
 7,0.00089461,-0.00130200,-0.00097102,-0.00072874,-0.00085371,0.0003963
 5,0.00018604,-0.00000373,0.00004879,0.00000835,-0.00001708,-0.00000593
 ,-0.00003338,-0.00000061,0.00004183,0.00065105,0.00025948,-0.00016740,
 0.00096437,0.00022613,-0.00011111,-0.07851514,0.14714132,0.00004807,0.
 00004925,-0.00005338,0.08918429,-0.09769487,-0.16462991,-0.00058069,-0
 .00061273,0.00011572,-0.00011445,0.00020155,0.00096088,0.00031642,-0.0
 0005827,-0.00023568,-0.00016596,-0.00021250,0.00026004,0.00049114,0.00
 225912,0.00073788,0.00583221,0.00001282,0.00101550,0.00008651,0.000286
 89,0.00013260,-0.00058785,0.00032203,-0.00006666,-0.00482992,0.0086912
 5,0.00964492,0.00381105,-0.01293240,-0.04113185,0.00111264,-0.00071630
 ,0.00094166,-0.00001879,-0.00002755,-0.00002974,-0.00005263,-0.0000489
 6,-0.00004723,0.00018123,0.00033002,0.00032710,-0.00004300,-0.00010914
 ,-0.00007275,-0.00018239,0.00009384,0.00013646,-0.00014566,0.00036244,
 0.00013341,-0.00013342,0.00034228,0.00020825,0.00045701,0.00014055,0.0
 0034197,0.00020182,-0.00002953,0.00011025,-0.00024952,-0.00019848,-0.0
 0004606,0.00003782,0.00020061,0.00016060,0.00022708,0.00033256,0.00065
 725,0.00006559,-0.00009046,-0.00000147,-0.09426282,0.09817364,0.189919
 25,0.00000644,0.00000421,-0.00007201,0.00018282,0.00028402,0.00008628,
 0.00014491,0.00071811,0.00028209,-0.00001987,-0.00000039,-0.00002511,-
 0.23075451,0.02125999,-0.10056161,-0.03403995,0.00867577,0.00734002,0.
 00012324,-0.00018889,0.00013110,-0.00007930,-0.00028285,0.00054255,-0.
 00727223,0.00094101,-0.00674994,0.00087003,0.00293609,-0.00408362,-0.0
 0042764,-0.00009228,-0.00005924,-0.00005544,-0.00007398,-0.00011197,0.
 00000333,0.00001363,0.00000648,-0.00004544,-0.00001774,-0.00000848,-0.
 00002052,0.00000636,0.00001219,-0.00016359,-0.00057579,0.00030020,-0.0
 0001995,-0.00000796,0.00001119,0.00000661,0.00000109,-0.00000054,0.000
 07051,-0.00000219,-0.00012112,0.00000487,0.00001782,0.00000484,0.00086
 222,-0.00149976,-0.00084232,0.00046256,-0.00039655,-0.00029723,0.00044
 136,-0.00107152,0.00106791,0.00042299,-0.00013369,0.00043148,-0.000021
 09,-0.00000187,-0.00000499,-0.00001544,-0.00001610,0.00000552,0.000055
 31,-0.00000077,-0.00001648,0.26606861,-0.00000729,0.00001806,0.0000566
 0,-0.00005366,-0.00010285,-0.00036679,-0.00029229,0.00201895,-0.000530
 47,-0.00002156,-0.00001648,-0.00000517,0.02308256,-0.05692296,0.016626
 21,0.01429971,-0.00010287,-0.00078219,-0.00003935,-0.00005531,-0.00009
 908,-0.00029450,-0.00019316,-0.00011487,-0.02565566,0.00248120,-0.0148
 4552,-0.00221993,-0.00058406,0.00090345,-0.00002364,0.00006788,0.00021
 602,0.00030749,0.00007496,0.00022221,0.00000038,0.00005094,0.00007014,
 0.00001791,0.00000540,0.00000022,-0.00000815,-0.00000139,-0.00000084,0
 .00042028,-0.00021708,0.00022453,-0.00000330,0.00000958,0.00000634,-0.
 00000171,0.00000080,0.00000469,-0.00005943,0.00002409,0.00005805,-0.00
 000369,0.00000827,0.00000011,-0.00167568,-0.00451936,-0.00254898,0.000
 72643,0.00115255,0.00059304,-0.00016337,0.00040873,-0.00039088,-0.0000
 4277,-0.00001563,-0.00013843,0.00001312,0.00000159,0.00000034,-0.00000
 231,-0.00000335,0.00000067,-0.00001800,0.00010849,0.00007611,-0.030289
 12,0.05786800,-0.00001259,0.00002696,0.00009936,0.00004267,-0.00013986
 ,-0.00016291,0.00084565,0.00071518,0.00031151,-0.00001899,-0.00002284,
 -0.00001232,-0.10365976,0.01816878,-0.10672551,0.03117656,-0.00454323,
 0.00394965,0.00004658,-0.00009875,-0.00020061,-0.00014946,0.00017349,-
 0.00035487,-0.01546919,0.00201730,-0.00852709,0.00332875,-0.00301406,0
 .00453528,-0.00010698,0.00013979,0.00017122,-0.00011138,-0.00000543,-0
 .00006901,-0.00000554,0.00006659,0.00003046,0.00002716,0.00000886,-0.0
 0000357,-0.00001746,0.00000023,0.00000032,0.00006713,-0.00039907,0.000
 51612,-0.00000977,0.00001256,0.00000717,0.00000039,0.00000136,0.000001
 92,-0.00001800,0.00001021,0.00012402,-0.00001208,0.00000863,0.00000325
 ,-0.00060065,-0.00378851,-0.00047090,0.00027183,0.00023086,0.00034039,
 -0.00158865,-0.00032362,0.00034687,-0.00017403,-0.00011076,0.00010840,
 -0.00001047,-0.00000046,-0.00000244,-0.00000384,-0.00000294,0.00000257
 ,0.00004505,0.00009450,0.00004997,0.10319209,-0.01084400,0.11374351,-0
 .00000026,-0.00000090,-0.00001110,0.00013601,-0.00006051,0.00017947,0.
 00048913,-0.00093589,-0.00116107,-0.00000108,-0.00000532,-0.00000145,-
 0.05133752,-0.00351770,-0.00018291,-0.00551651,-0.01976701,0.02471941,
 0.00004197,-0.00000455,0.00002797,0.00017179,0.00011869,0.00044783,-0.
 00036621,-0.00906281,0.00477182,-0.00296457,0.00253741,0.00114497,-0.0
 0003952,0.00010518,-0.00010798,-0.00015789,-0.00000086,-0.00014357,-0.
 00000192,0.00002177,-0.00002177,-0.00000632,-0.00000190,-0.00000220,-0
 .00000202,0.00000213,0.00000134,0.00006697,-0.00037663,0.00027228,-0.0
 0000604,0.00000123,0.00000107,0.00000215,0.00000082,-0.00000312,0.0000
 3529,-0.00001860,-0.00000651,0.00000012,0.00000991,-0.00001155,0.00037
 701,0.00033842,0.00077729,0.00018092,0.00004677,-0.00010242,0.00042237
 ,-0.00023722,0.00040460,0.00007053,-0.00079392,0.00094563,-0.00001389,
 -0.00000054,-0.00000233,0.00000156,0.00000015,0.00000017,0.00000273,0.
 00000301,-0.00001933,0.00311887,0.02157479,-0.01715081,0.05515294,-0.0
 0000188,0.00000493,0.00001223,0.00023319,-0.00010896,0.00012392,-0.001
 79383,-0.00336191,-0.00475829,-0.00001742,-0.00001736,-0.00001270,-0.0
 1057504,-0.21609455,0.13569731,0.00072387,0.01060283,-0.00792334,0.000
 03236,-0.00008588,-0.00003300,0.00066662,0.00021637,-0.00067299,-0.000
 67902,-0.02044798,0.01744063,0.00125461,0.00067600,-0.00215980,-0.0002
 1496,0.00013452,0.00002758,-0.00034275,0.00005881,0.00002495,-0.000003
 14,0.00004742,0.00000341,-0.00000583,-0.00000251,-0.00000520,-0.000011
 53,0.00000442,0.00000400,0.00018546,0.00024759,-0.00010395,-0.00001468
 ,0.00000645,0.00000628,0.00000383,0.00000038,-0.00000328,0.00000206,0.
 00000051,-0.00000596,-0.00001135,0.00001243,0.00000565,-0.00005271,0.0
 0145578,0.00008606,0.00044769,0.00042460,-0.00018295,-0.00002652,-0.00
 004603,-0.00004372,0.00010995,0.00028376,-0.00035134,-0.00002113,-0.00
 000289,-0.00000610,-0.00000165,-0.00000372,0.00000195,0.00006932,0.000
 02594,0.00003352,0.00011999,-0.00176441,0.00154999,0.01043852,0.228947
 60,-0.00000344,-0.00000021,0.00002341,-0.00004179,-0.00005474,-0.00019
 083,-0.00111914,-0.00296933,-0.00172929,0.00000116,-0.00000183,0.00000
 623,0.00621186,0.12814471,-0.15154487,0.00733963,0.01885829,-0.0250019
 7,-0.00004607,0.00005007,-0.00004357,-0.00017703,-0.00029863,-0.000703
 62,-0.00181585,-0.01359637,0.01288227,0.00379480,-0.00372124,-0.000611
 43,0.00013843,0.00003779,0.00005110,0.00017469,0.00017680,0.00029129,0
 .00000404,0.00000152,0.00002572,0.00001630,0.00000539,0.00000290,0.000
 00675,-0.00000269,-0.00000441,0.00009593,-0.00004667,-0.00001555,0.000
 00718,0.00000325,-0.00000197,-0.00000365,-0.00000006,0.00000236,-0.000
 05194,0.00002158,0.00002671,0.00000966,-0.00000269,0.00000575,0.000302
 18,0.00070123,0.00073570,0.00047164,0.00112032,0.00028617,-0.00013075,
 -0.00012255,0.00018339,0.00047898,0.00113736,-0.00097530,0.00001639,0.
 00000001,0.00000258,0.00000403,0.00000331,-0.00000225,0.00003204,-0.00
 000156,0.00003907,-0.00054360,0.01149743,-0.00795294,-0.01490142,-0.14
 025620,0.17336133,0.00000346,-0.00000266,-0.00002824,-0.00122769,0.000
 84145,-0.00063739,-0.08465268,-0.08415455,-0.04438352,0.00003930,0.000
 01790,0.00002007,0.00024183,-0.00038202,0.00172919,0.00031561,-0.00021
 251,-0.00091777,-0.00005336,0.00009265,0.00008172,0.00786589,0.0185488
 8,0.00998282,-0.00212870,-0.00225412,-0.00222228,-0.00280679,-0.000006
 64,0.00341724,0.00002863,0.00000673,0.00003533,0.00202760,-0.00112303,
 -0.00178111,-0.00001534,-0.00016097,-0.00002512,-0.00000172,-0.0000012
 7,0.00000380,0.00000968,-0.00000936,-0.00000231,-0.01072470,-0.0234773
 7,-0.01295437,0.00002592,-0.00001406,-0.00001015,-0.00000398,0.0000018
 8,0.00001311,0.00001240,0.00000266,-0.00000060,0.00000708,-0.00001602,
 0.00000731,0.00021570,0.00013261,0.00034972,-0.00019401,-0.00002152,-0
 .00008813,0.00017583,0.00010558,0.00013187,0.00033945,0.00103324,0.000
 46121,0.00002861,0.00000626,0.00001783,-0.00001983,-0.00001225,0.00000
 841,-0.00233679,0.00140336,-0.00041799,0.00017561,0.00041180,0.0001502
 1,0.00019805,-0.00049178,-0.00024671,0.09211302,0.00001724,-0.00000632
 ,0.00004472,-0.00000462,-0.00086952,-0.00099434,-0.08251059,-0.2243359
 8,-0.09540847,-0.00013873,-0.00011877,-0.00003585,-0.00054669,-0.00151
 582,0.00588368,0.00015799,0.00052445,-0.00037394,0.00008116,-0.0000099
 6,-0.00017690,-0.00282434,-0.00852137,-0.00545063,-0.00893226,-0.01899
 247,-0.01073635,0.00178509,0.00147236,-0.00111930,-0.00005817,0.000588
 30,0.00025266,-0.00014119,0.00053052,0.00071733,-0.00000835,0.00030522
 ,0.00031527,0.00000533,0.00000313,-0.00000860,-0.00001311,0.00001179,0
 .00000101,0.00250015,0.00752172,0.00408899,-0.00004942,0.00004469,0.00
 003434,0.00000512,0.00000487,0.00000928,-0.00002906,0.00001566,0.00004
 476,-0.00002632,0.00004930,0.00002876,0.00047049,0.00085621,-0.0003567
 5,-0.00012747,0.00070874,0.00003176,-0.00026983,0.00000844,-0.00004370
 ,-0.00022612,-0.00044730,-0.00014884,0.00000795,0.00000657,-0.00001558
 ,-0.00000492,-0.00001606,0.00000515,0.00067745,0.00009620,0.00076458,-
 0.00011623,0.00010560,-0.00009791,-0.00025537,-0.00130423,-0.00091155,
 0.09021941,0.24298166,0.00000227,0.00000465,0.00002486,-0.00009413,0.0
 0025655,-0.00001045,-0.04323389,-0.09642256,-0.10019506,-0.00004814,-0
 .00002350,-0.00001007,0.00130456,0.00290631,-0.00467276,-0.00091602,-0
 .00059171,0.00147274,-0.00002654,0.00001220,-0.00010742,-0.01238267,-0
 .02139933,-0.01195224,0.00917992,0.01967189,0.01194520,0.00474836,0.00
 112971,-0.00452927,-0.00011012,0.00014810,0.00017689,-0.00088089,0.001
 08173,0.00131525,0.00001743,0.00001422,0.00019913,0.00000838,0.0000033
 7,0.00000115,-0.00000279,-0.00000134,-0.00000046,-0.00422540,-0.009445
 27,-0.00604793,-0.00000783,0.00001126,0.00000194,-0.00000083,-0.000005
 34,0.00000043,-0.00002354,0.00002561,0.00001418,-0.00000381,0.00001041
 ,0.00001817,-0.00045492,-0.00092553,0.00094491,0.00000237,-0.00101012,
 0.00068570,0.00001248,0.00029997,0.00019959,-0.00032870,-0.00177046,-0
 .00029023,0.00004847,0.00000676,-0.00000353,-0.00000665,-0.00000535,0.
 00000098,-0.00062233,0.00034100,0.00047325,0.00006263,0.00003453,0.000
 01265,0.00026572,0.00133671,0.00071095,0.04810891,0.10382359,0.1091144
 2,0.00003179,0.00000554,0.00010701,-0.00249524,0.00214800,0.00569283,-
 0.00037058,-0.01169818,0.01410117,0.00005611,-0.00010246,-0.00010130,0
 .00048246,0.00038904,-0.00031407,0.00051032,-0.00254931,-0.00049096,0.
 00039829,-0.00045801,-0.00035358,-0.04348818,0.01970621,-0.02038374,-0
 .00085885,0.00209289,0.00245452,0.00140281,-0.00399305,0.00624230,-0.0
 0044024,0.00205352,-0.00179365,-0.02944185,0.01809230,-0.03609613,-0.0
 0012851,0.00001889,-0.00099956,-0.00000947,-0.00000714,-0.00002796,-0.
 00005021,0.00003588,0.00001336,0.00037383,-0.00063543,0.00080729,-0.00
 008495,0.00003749,0.00003404,0.00002163,0.00001990,-0.00000463,-0.0000
 5540,-0.00006060,0.00007206,-0.00005247,0.00009403,0.00000084,-0.00003
 576,-0.00020119,0.00025612,-0.00021488,-0.00054973,0.00061325,-0.00001
 909,-0.00035676,0.00065933,0.00015599,0.00009232,-0.00046830,-0.000382
 64,-0.00013727,-0.00001957,-0.00004303,-0.00005278,0.00002836,0.000174
 34,-0.00009132,-0.00023196,-0.00008532,0.00002096,-0.00007446,-0.00005
 469,-0.00002225,-0.00002430,0.00034193,0.00035541,-0.00039230,0.074361
 84,-0.00000239,-0.00000147,0.00002173,-0.00122748,0.00020650,-0.001762
 32,-0.00037888,0.00843988,-0.00906707,0.00000119,0.00000905,0.00001345
 ,0.00154677,-0.00045547,-0.00160835,-0.00334835,-0.00814361,-0.0009317
 2,-0.00008532,0.00006023,-0.00006945,0.02275904,-0.16777821,0.12716411
 ,0.00110127,-0.00012574,-0.00171459,0.00271339,-0.01887369,0.02492606,
 0.00004663,0.00000043,-0.00004252,0.00207817,0.00598115,-0.00136971,-0
 .00001525,0.00000249,0.00000819,0.00001817,0.00000542,0.00000570,0.000
 01094,-0.00000746,-0.00000394,-0.00062301,0.00078151,0.00039055,0.0000
 1617,0.00000030,-0.00000126,-0.00000615,0.00000130,0.00000978,-0.00004
 664,0.00002708,0.00004388,0.00000703,-0.00001282,0.00000874,-0.0000013
 9,0.00001679,-0.00007131,0.00023894,0.00038754,-0.00037953,-0.00053008
 ,0.00090937,-0.00000060,0.00079573,0.00074662,-0.00045238,0.00002017,-
 0.00000672,0.00000782,0.00001361,-0.00001987,0.00001860,-0.00000160,0.
 00000516,0.00005813,-0.00021042,0.00009381,0.00016615,-0.00015907,0.00
 009011,0.00022725,-0.00048429,0.00030235,0.00048194,-0.02424690,0.1773
 5797,0.00000752,0.00000839,0.00005583,-0.00019490,0.00018873,0.0028465
 6,0.00038266,0.01824119,-0.02029271,-0.00000234,-0.00006324,-0.0000408
 2,0.00000433,-0.00080515,-0.00062665,-0.00069524,-0.00340072,0.0009372
 5,0.00016534,-0.00022251,-0.00016700,-0.02428577,0.12591746,-0.1919525
 2,0.00308308,-0.00355908,-0.00221199,0.00093559,-0.00657458,0.00810027
 ,-0.00024784,0.00050476,-0.00019302,-0.00946504,0.00283887,-0.00486979
 ,-0.00003666,0.00011590,-0.00034363,-0.00000785,-0.00000234,-0.0000156
 6,-0.00002974,0.00001850,0.00000932,0.00000903,0.00004938,0.00102212,-
 0.00005004,0.00002473,0.00001730,0.00001968,0.00000705,-0.00001700,-0.
 00001067,-0.00001804,0.00001204,-0.00002717,0.00004901,-0.00000452,-0.
 00008621,-0.00006806,0.00002221,0.00033427,0.00125429,-0.00093963,0.00
 009965,0.00071812,0.00072106,0.00039984,0.00073345,0.00004813,-0.00015
 756,-0.00003467,-0.00002416,-0.00002100,-0.00000277,0.00000374,0.00009
 445,0.00008470,-0.00005128,0.00002166,0.00007654,0.00012754,-0.0001300
 3,0.00016461,0.00014107,-0.00080308,-0.00016718,0.00050703,0.03069403,
 -0.13607733,0.20717894\\-0.00000663,0.00000003,0.00000008,-0.00003989,
 0.00073274,0.00006298,-0.00000404,-0.00062160,0.00020491,0.00000251,0.
 00000267,0.00000533,-0.00000997,0.00000746,0.00002225,0.00002956,-0.00
 000915,-0.00000855,0.00000344,0.00000267,0.00000972,0.00000655,0.00125
 482,-0.00022927,-0.00000511,0.00001660,0.00000102,-0.00002248,-0.00002
 335,-0.00002355,-0.00000836,-0.00001665,0.00003005,0.00006635,-0.00135
 637,-0.00006582,-0.00000932,-0.00000379,-0.00000979,-0.00000166,0.0000
 0145,0.00000693,0.00000354,-0.00000595,0.00000542,-0.00001004,0.000012
 59,-0.00001299,-0.00000119,0.00000289,0.00000352,-0.00000062,-0.000000
 06,-0.00000167,-0.00000146,-0.00000123,-0.00000181,0.00000325,-0.00000
 550,0.00000651,0.00001340,-0.00000304,-0.00000282,0.00000277,0.0000105
 2,-0.00001041,-0.00000004,-0.00001398,-0.00000289,0.00000991,0.0000045
 8,-0.00000453,0.00000166,0.00000683,0.00000884,0.00000144,0.00000329,-
 0.00000316,-0.00001155,0.00000064,0.00001205,-0.00000658,0.00000122,-0
 .00000006,-0.00000958,-0.00000516,-0.00000206,0.00000437,0.00000577,-0
 .00000627,-0.00000021,-0.00000096,0.00000604\\\@


 We make a living by what we get,
 we make a life by what we give.
                   -- Sir Winston Churchill
 Job cpu time:       0 days 14 hours 43 minutes  3.4 seconds.
 Elapsed time:       0 days  0 hours 55 minutes 12.8 seconds.
 File lengths (MBytes):  RWF=    683 Int=      0 D2E=      0 Chk=     33 Scr=      1
 Normal termination of Gaussian 16 at Sun Nov  4 23:03:20 2018.
