 Entering Gaussian System, Link 0=g16
 Initial command:
 /apps/gaussian/g16a03/g16/l1.exe "/jobfs/local/2011911.r-man2/Gau-14711.inp" -scrdir="/jobfs/local/2011911.r-man2/"
 Entering Link 1 = /apps/gaussian/g16a03/g16/l1.exe PID=     14712.
  
 Copyright (c) 1988,1990,1992,1993,1995,1998,2003,2009,2016,
            Gaussian, Inc.  All Rights Reserved.
  
 This is part of the Gaussian(R) 16 program.  It is based on
 the Gaussian(R) 09 system (copyright 2009, Gaussian, Inc.),
 the Gaussian(R) 03 system (copyright 2003, Gaussian, Inc.),
 the Gaussian(R) 98 system (copyright 1998, Gaussian, Inc.),
 the Gaussian(R) 94 system (copyright 1995, Gaussian, Inc.),
 the Gaussian 92(TM) system (copyright 1992, Gaussian, Inc.),
 the Gaussian 90(TM) system (copyright 1990, Gaussian, Inc.),
 the Gaussian 88(TM) system (copyright 1988, Gaussian, Inc.),
 the Gaussian 86(TM) system (copyright 1986, Carnegie Mellon
 University), and the Gaussian 82(TM) system (copyright 1983,
 Carnegie Mellon University). Gaussian is a federally registered
 trademark of Gaussian, Inc.
  
 This software contains proprietary and confidential information,
 including trade secrets, belonging to Gaussian, Inc.
  
 This software is provided under written license and may be
 used, copied, transmitted, or stored only in accord with that
 written license.
  
 The following legend is applicable only to US Government
 contracts under FAR:
  
                    RESTRICTED RIGHTS LEGEND
  
 Use, reproduction and disclosure by the US Government is
 subject to restrictions as set forth in subparagraphs (a)
 and (c) of the Commercial Computer Software - Restricted
 Rights clause in FAR 52.227-19.
  
 Gaussian, Inc.
 340 Quinnipiac St., Bldg. 40, Wallingford CT 06492
  
  
 ---------------------------------------------------------------
 Warning -- This program may not be used in any manner that
 competes with the business of Gaussian, Inc. or will provide
 assistance to any competitor of Gaussian, Inc.  The licensee
 of this program is prohibited from giving any competitor of
 Gaussian, Inc. access to this program.  By using this program,
 the user acknowledges that Gaussian, Inc. is engaged in the
 business of creating and licensing software in the field of
 computational chemistry and represents and warrants to the
 licensee that it is not a competitor of Gaussian, Inc. and that
 it will not use this program in any manner prohibited above.
 ---------------------------------------------------------------
  

 Cite this work as:
 Gaussian 16, Revision A.03,
 M. J. Frisch, G. W. Trucks, H. B. Schlegel, G. E. Scuseria, 
 M. A. Robb, J. R. Cheeseman, G. Scalmani, V. Barone, 
 G. A. Petersson, H. Nakatsuji, X. Li, M. Caricato, A. V. Marenich, 
 J. Bloino, B. G. Janesko, R. Gomperts, B. Mennucci, H. P. Hratchian, 
 J. V. Ortiz, A. F. Izmaylov, J. L. Sonnenberg, D. Williams-Young, 
 F. Ding, F. Lipparini, F. Egidi, J. Goings, B. Peng, A. Petrone, 
 T. Henderson, D. Ranasinghe, V. G. Zakrzewski, J. Gao, N. Rega, 
 G. Zheng, W. Liang, M. Hada, M. Ehara, K. Toyota, R. Fukuda, 
 J. Hasegawa, M. Ishida, T. Nakajima, Y. Honda, O. Kitao, H. Nakai, 
 T. Vreven, K. Throssell, J. A. Montgomery, Jr., J. E. Peralta, 
 F. Ogliaro, M. J. Bearpark, J. J. Heyd, E. N. Brothers, K. N. Kudin, 
 V. N. Staroverov, T. A. Keith, R. Kobayashi, J. Normand, 
 K. Raghavachari, A. P. Rendell, J. C. Burant, S. S. Iyengar, 
 J. Tomasi, M. Cossi, J. M. Millam, M. Klene, C. Adamo, R. Cammi, 
 J. W. Ochterski, R. L. Martin, K. Morokuma, O. Farkas, 
 J. B. Foresman, and D. J. Fox, Gaussian, Inc., Wallingford CT, 2016.
 
 ******************************************
 Gaussian 16:  ES64L-G16RevA.03 25-Dec-2016
                 4-Nov-2018 
 ******************************************
 %mem=6000mb
 %nproc=24
 Will use up to   24 processors via shared memory.
 %chk=D_1a_4a_L_PSI.inp_extract_20.chk
 ----------------------------------------------------------------------
 #M062X/6-311++G(2d,2p) opt=ModRedundant freq=noraman SCRF=(Solvent=Wat
 er)
 ----------------------------------------------------------------------
 1/18=120,19=15,26=3,38=1/1,3;
 2/9=110,12=2,17=6,18=5,40=1/2;
 3/5=4,6=6,7=1212,11=2,25=1,30=1,70=2201,71=1,72=1,74=-55/1,2,3;
 4//1;
 5/5=2,38=5,53=1/2;
 6/7=2,8=2,9=2,10=2,28=1/1;
 7//1,2,3,16;
 1/18=20,19=15,26=3/3(2);
 2/9=110/2;
 99//99;
 2/9=110/2;
 3/5=4,6=6,7=1212,11=2,25=1,30=1,70=2205,71=1,72=1,74=-55/1,2,3;
 4/5=5,16=3,69=1/1;
 5/5=2,38=5,53=1/2;
 7//1,2,3,16;
 1/18=20,19=15,26=3/3(-5);
 2/9=110/2;
 6/7=2,8=2,9=2,10=2,19=2,28=1/1;
 99/9=1/99;
 ----------------------------
 D_1a_4a_L_PSI.inp_extract_20
 ----------------------------
 Symbolic Z-matrix:
 Charge =  0 Multiplicity = 1
 C                     3.46393   0.47985   0.55165 
 C                     1.09663  -0.68727  -0.63408 
 C                    -1.75688   1.49807  -0.03587 
 C                     2.66755  -0.55899   1.34128 
 C                    -3.45696  -0.18686   0.69389 
 O                    -2.70414  -1.19602   0.04568 
 C                     2.55655   1.20273  -0.42978 
 C                    -1.04815   0.37701  -0.78974 
 C                    -2.5599    0.9537    1.14755 
 C                    -2.0327   -0.74039  -1.10952 
 O                     1.87602   0.28801  -1.27906 
 O                     0.01123  -0.10656   0.02544 
 C                     1.91758  -1.47628   0.37407 
 H                     4.2654   -0.00993   0.00337 
 H                     3.92071   1.2091    1.21474 
 H                    -2.4309    1.9926   -0.73098 
 H                     3.32745  -1.14884   1.97003 
 H                     1.96524  -0.05736   2.0016 
 H                     1.83113   1.81318   0.09712 
 H                     3.12091   1.84628  -1.09047 
 H                    -1.89227   0.59588   1.92568 
 H                    -3.17104   1.73949   1.5821 
 H                    -2.75759  -0.37655  -1.83416 
 H                    -1.53121  -1.59908  -1.53259 
 H                     2.63225  -2.0735   -0.18552 
 H                     1.26223  -2.16117   0.90122 
 H                     0.74667  -1.32892  -1.42978 
 H                    -4.22189   0.17662   0.01071 
 H                    -3.94736  -0.66335   1.53175 
 H                    -1.03079   2.23519   0.29011 
 H                    -0.63974   0.7575   -1.71806 
 
 The following ModRedundant input section has been read:
 D       3       8      12       2 F                                           
 

 GradGradGradGradGradGradGradGradGradGradGradGradGradGradGradGradGradGrad
 Berny optimization.
 Initialization pass.
                           ----------------------------
                           !    Initial Parameters    !
                           ! (Angstroms and Degrees)  !
 --------------------------                            --------------------------
 ! Name  Definition              Value          Derivative Info.                !
 --------------------------------------------------------------------------------
 ! R1    R(1,4)                  1.5287         estimate D2E/DX2                !
 ! R2    R(1,7)                  1.5196         estimate D2E/DX2                !
 ! R3    R(1,14)                 1.0876         estimate D2E/DX2                !
 ! R4    R(1,15)                 1.0863         estimate D2E/DX2                !
 ! R5    R(2,11)                 1.4052         estimate D2E/DX2                !
 ! R6    R(2,12)                 1.3965         estimate D2E/DX2                !
 ! R7    R(2,13)                 1.5208         estimate D2E/DX2                !
 ! R8    R(2,27)                 1.0804         estimate D2E/DX2                !
 ! R9    R(3,8)                  1.5256         estimate D2E/DX2                !
 ! R10   R(3,9)                  1.5303         estimate D2E/DX2                !
 ! R11   R(3,16)                 1.0872         estimate D2E/DX2                !
 ! R12   R(3,30)                 1.0848         estimate D2E/DX2                !
 ! R13   R(4,13)                 1.5295         estimate D2E/DX2                !
 ! R14   R(4,17)                 1.0857         estimate D2E/DX2                !
 ! R15   R(4,18)                 1.0867         estimate D2E/DX2                !
 ! R16   R(5,6)                  1.4161         estimate D2E/DX2                !
 ! R17   R(5,9)                  1.5203         estimate D2E/DX2                !
 ! R18   R(5,28)                 1.0881         estimate D2E/DX2                !
 ! R19   R(5,29)                 1.0815         estimate D2E/DX2                !
 ! R20   R(6,10)                 1.4117         estimate D2E/DX2                !
 ! R21   R(7,11)                 1.4217         estimate D2E/DX2                !
 ! R22   R(7,19)                 1.0847         estimate D2E/DX2                !
 ! R23   R(7,20)                 1.0813         estimate D2E/DX2                !
 ! R24   R(8,10)                 1.5232         estimate D2E/DX2                !
 ! R25   R(8,12)                 1.4215         estimate D2E/DX2                !
 ! R26   R(8,31)                 1.0832         estimate D2E/DX2                !
 ! R27   R(9,21)                 1.0859         estimate D2E/DX2                !
 ! R28   R(9,22)                 1.0862         estimate D2E/DX2                !
 ! R29   R(10,23)                1.0876         estimate D2E/DX2                !
 ! R30   R(10,24)                1.0807         estimate D2E/DX2                !
 ! R31   R(13,25)                1.0865         estimate D2E/DX2                !
 ! R32   R(13,26)                1.0846         estimate D2E/DX2                !
 ! A1    A(4,1,7)              110.2311         estimate D2E/DX2                !
 ! A2    A(4,1,14)             109.7716         estimate D2E/DX2                !
 ! A3    A(4,1,15)             111.097          estimate D2E/DX2                !
 ! A4    A(7,1,14)             109.1884         estimate D2E/DX2                !
 ! A5    A(7,1,15)             109.0235         estimate D2E/DX2                !
 ! A6    A(14,1,15)            107.4671         estimate D2E/DX2                !
 ! A7    A(11,2,12)            111.0532         estimate D2E/DX2                !
 ! A8    A(11,2,13)            111.4042         estimate D2E/DX2                !
 ! A9    A(11,2,27)            104.703          estimate D2E/DX2                !
 ! A10   A(12,2,13)            108.7969         estimate D2E/DX2                !
 ! A11   A(12,2,27)            110.0602         estimate D2E/DX2                !
 ! A12   A(13,2,27)            110.7902         estimate D2E/DX2                !
 ! A13   A(8,3,9)              111.3784         estimate D2E/DX2                !
 ! A14   A(8,3,16)             107.8374         estimate D2E/DX2                !
 ! A15   A(8,3,30)             109.6866         estimate D2E/DX2                !
 ! A16   A(9,3,16)             109.3248         estimate D2E/DX2                !
 ! A17   A(9,3,30)             111.1348         estimate D2E/DX2                !
 ! A18   A(16,3,30)            107.3376         estimate D2E/DX2                !
 ! A19   A(1,4,13)             109.6551         estimate D2E/DX2                !
 ! A20   A(1,4,17)             110.5911         estimate D2E/DX2                !
 ! A21   A(1,4,18)             109.6855         estimate D2E/DX2                !
 ! A22   A(13,4,17)            109.781          estimate D2E/DX2                !
 ! A23   A(13,4,18)            110.1329         estimate D2E/DX2                !
 ! A24   A(17,4,18)            106.9606         estimate D2E/DX2                !
 ! A25   A(6,5,9)              110.9495         estimate D2E/DX2                !
 ! A26   A(6,5,28)             108.9276         estimate D2E/DX2                !
 ! A27   A(6,5,29)             106.3628         estimate D2E/DX2                !
 ! A28   A(9,5,28)             110.5821         estimate D2E/DX2                !
 ! A29   A(9,5,29)             111.5256         estimate D2E/DX2                !
 ! A30   A(28,5,29)            108.3507         estimate D2E/DX2                !
 ! A31   A(5,6,10)             113.4167         estimate D2E/DX2                !
 ! A32   A(1,7,11)             111.4434         estimate D2E/DX2                !
 ! A33   A(1,7,19)             110.6925         estimate D2E/DX2                !
 ! A34   A(1,7,20)             111.4752         estimate D2E/DX2                !
 ! A35   A(11,7,19)            109.3999         estimate D2E/DX2                !
 ! A36   A(11,7,20)            105.5315         estimate D2E/DX2                !
 ! A37   A(19,7,20)            108.1155         estimate D2E/DX2                !
 ! A38   A(3,8,10)             110.0314         estimate D2E/DX2                !
 ! A39   A(3,8,12)             108.2292         estimate D2E/DX2                !
 ! A40   A(3,8,31)             109.909          estimate D2E/DX2                !
 ! A41   A(10,8,12)            110.6432         estimate D2E/DX2                !
 ! A42   A(10,8,31)            108.7515         estimate D2E/DX2                !
 ! A43   A(12,8,31)            109.2666         estimate D2E/DX2                !
 ! A44   A(3,9,5)              110.2271         estimate D2E/DX2                !
 ! A45   A(3,9,21)             110.4104         estimate D2E/DX2                !
 ! A46   A(3,9,22)             110.3221         estimate D2E/DX2                !
 ! A47   A(5,9,21)             109.2309         estimate D2E/DX2                !
 ! A48   A(5,9,22)             109.2761         estimate D2E/DX2                !
 ! A49   A(21,9,22)            107.3153         estimate D2E/DX2                !
 ! A50   A(6,10,8)             111.8638         estimate D2E/DX2                !
 ! A51   A(6,10,23)            109.6436         estimate D2E/DX2                !
 ! A52   A(6,10,24)            106.5363         estimate D2E/DX2                !
 ! A53   A(8,10,23)            108.9812         estimate D2E/DX2                !
 ! A54   A(8,10,24)            111.4158         estimate D2E/DX2                !
 ! A55   A(23,10,24)           108.3165         estimate D2E/DX2                !
 ! A56   A(2,11,7)             115.968          estimate D2E/DX2                !
 ! A57   A(2,12,8)             116.7345         estimate D2E/DX2                !
 ! A58   A(2,13,4)             111.8851         estimate D2E/DX2                !
 ! A59   A(2,13,25)            107.3865         estimate D2E/DX2                !
 ! A60   A(2,13,26)            108.882          estimate D2E/DX2                !
 ! A61   A(4,13,25)            109.4391         estimate D2E/DX2                !
 ! A62   A(4,13,26)            111.5697         estimate D2E/DX2                !
 ! A63   A(25,13,26)           107.4961         estimate D2E/DX2                !
 ! D1    D(7,1,4,13)            52.9639         estimate D2E/DX2                !
 ! D2    D(7,1,4,17)           174.1672         estimate D2E/DX2                !
 ! D3    D(7,1,4,18)           -68.0981         estimate D2E/DX2                !
 ! D4    D(14,1,4,13)          -67.3481         estimate D2E/DX2                !
 ! D5    D(14,1,4,17)           53.8553         estimate D2E/DX2                !
 ! D6    D(14,1,4,18)          171.59           estimate D2E/DX2                !
 ! D7    D(15,1,4,13)          173.93           estimate D2E/DX2                !
 ! D8    D(15,1,4,17)          -64.8666         estimate D2E/DX2                !
 ! D9    D(15,1,4,18)           52.8681         estimate D2E/DX2                !
 ! D10   D(4,1,7,11)           -54.7169         estimate D2E/DX2                !
 ! D11   D(4,1,7,19)            67.2769         estimate D2E/DX2                !
 ! D12   D(4,1,7,20)          -172.3407         estimate D2E/DX2                !
 ! D13   D(14,1,7,11)           65.9455         estimate D2E/DX2                !
 ! D14   D(14,1,7,19)         -172.0608         estimate D2E/DX2                !
 ! D15   D(14,1,7,20)          -51.6784         estimate D2E/DX2                !
 ! D16   D(15,1,7,11)         -176.9147         estimate D2E/DX2                !
 ! D17   D(15,1,7,19)          -54.921          estimate D2E/DX2                !
 ! D18   D(15,1,7,20)           65.4615         estimate D2E/DX2                !
 ! D19   D(12,2,11,7)           66.473          estimate D2E/DX2                !
 ! D20   D(13,2,11,7)          -54.9749         estimate D2E/DX2                !
 ! D21   D(27,2,11,7)         -174.7769         estimate D2E/DX2                !
 ! D22   D(11,2,12,8)           72.7206         estimate D2E/DX2                !
 ! D23   D(13,2,12,8)         -164.3164         estimate D2E/DX2                !
 ! D24   D(27,2,12,8)          -42.7526         estimate D2E/DX2                !
 ! D25   D(11,2,13,4)           51.8232         estimate D2E/DX2                !
 ! D26   D(11,2,13,25)         -68.2829         estimate D2E/DX2                !
 ! D27   D(11,2,13,26)         175.6102         estimate D2E/DX2                !
 ! D28   D(12,2,13,4)          -70.9286         estimate D2E/DX2                !
 ! D29   D(12,2,13,25)         168.9653         estimate D2E/DX2                !
 ! D30   D(12,2,13,26)          52.8584         estimate D2E/DX2                !
 ! D31   D(27,2,13,4)          167.9539         estimate D2E/DX2                !
 ! D32   D(27,2,13,25)          47.8478         estimate D2E/DX2                !
 ! D33   D(27,2,13,26)         -68.2591         estimate D2E/DX2                !
 ! D34   D(9,3,8,10)            49.9736         estimate D2E/DX2                !
 ! D35   D(9,3,8,12)           -71.0342         estimate D2E/DX2                !
 ! D36   D(9,3,8,31)           169.7065         estimate D2E/DX2                !
 ! D37   D(16,3,8,10)          -69.9793         estimate D2E/DX2                !
 ! D38   D(16,3,8,12)          169.0129         estimate D2E/DX2                !
 ! D39   D(16,3,8,31)           49.7536         estimate D2E/DX2                !
 ! D40   D(30,3,8,10)          173.43           estimate D2E/DX2                !
 ! D41   D(30,3,8,12)           52.4222         estimate D2E/DX2                !
 ! D42   D(30,3,8,31)          -66.8371         estimate D2E/DX2                !
 ! D43   D(8,3,9,5)            -50.9338         estimate D2E/DX2                !
 ! D44   D(8,3,9,21)            69.8396         estimate D2E/DX2                !
 ! D45   D(8,3,9,22)          -171.7064         estimate D2E/DX2                !
 ! D46   D(16,3,9,5)            68.1356         estimate D2E/DX2                !
 ! D47   D(16,3,9,21)         -171.091          estimate D2E/DX2                !
 ! D48   D(16,3,9,22)          -52.6369         estimate D2E/DX2                !
 ! D49   D(30,3,9,5)          -173.5618         estimate D2E/DX2                !
 ! D50   D(30,3,9,21)          -52.7884         estimate D2E/DX2                !
 ! D51   D(30,3,9,22)           65.6657         estimate D2E/DX2                !
 ! D52   D(1,4,13,2)           -51.906          estimate D2E/DX2                !
 ! D53   D(1,4,13,25)           66.9923         estimate D2E/DX2                !
 ! D54   D(1,4,13,26)         -174.1694         estimate D2E/DX2                !
 ! D55   D(17,4,13,2)         -173.5964         estimate D2E/DX2                !
 ! D56   D(17,4,13,25)         -54.6981         estimate D2E/DX2                !
 ! D57   D(17,4,13,26)          64.1402         estimate D2E/DX2                !
 ! D58   D(18,4,13,2)           68.8855         estimate D2E/DX2                !
 ! D59   D(18,4,13,25)        -172.2162         estimate D2E/DX2                !
 ! D60   D(18,4,13,26)         -53.3779         estimate D2E/DX2                !
 ! D61   D(9,5,6,10)           -60.6008         estimate D2E/DX2                !
 ! D62   D(28,5,6,10)           61.3531         estimate D2E/DX2                !
 ! D63   D(29,5,6,10)          177.9405         estimate D2E/DX2                !
 ! D64   D(6,5,9,3)             54.9641         estimate D2E/DX2                !
 ! D65   D(6,5,9,21)           -66.5133         estimate D2E/DX2                !
 ! D66   D(6,5,9,22)           176.3613         estimate D2E/DX2                !
 ! D67   D(28,5,9,3)           -66.0189         estimate D2E/DX2                !
 ! D68   D(28,5,9,21)          172.5037         estimate D2E/DX2                !
 ! D69   D(28,5,9,22)           55.3783         estimate D2E/DX2                !
 ! D70   D(29,5,9,3)           173.3421         estimate D2E/DX2                !
 ! D71   D(29,5,9,21)           51.8646         estimate D2E/DX2                !
 ! D72   D(29,5,9,22)          -65.2607         estimate D2E/DX2                !
 ! D73   D(5,6,10,8)            60.1985         estimate D2E/DX2                !
 ! D74   D(5,6,10,23)          -60.8225         estimate D2E/DX2                !
 ! D75   D(5,6,10,24)         -177.827          estimate D2E/DX2                !
 ! D76   D(1,7,11,2)            57.0213         estimate D2E/DX2                !
 ! D77   D(19,7,11,2)          -65.7166         estimate D2E/DX2                !
 ! D78   D(20,7,11,2)          178.1786         estimate D2E/DX2                !
 ! D79   D(3,8,10,6)           -53.7396         estimate D2E/DX2                !
 ! D80   D(3,8,10,23)           67.6645         estimate D2E/DX2                !
 ! D81   D(3,8,10,24)         -172.8705         estimate D2E/DX2                !
 ! D82   D(12,8,10,6)           65.809          estimate D2E/DX2                !
 ! D83   D(12,8,10,23)        -172.7869         estimate D2E/DX2                !
 ! D84   D(12,8,10,24)         -53.3219         estimate D2E/DX2                !
 ! D85   D(31,8,10,6)         -174.1735         estimate D2E/DX2                !
 ! D86   D(31,8,10,23)         -52.7694         estimate D2E/DX2                !
 ! D87   D(31,8,10,24)          66.6956         estimate D2E/DX2                !
 ! D88   D(3,8,12,2)          -153.518          Frozen                          !
 ! D89   D(10,8,12,2)           85.8544         estimate D2E/DX2                !
 ! D90   D(31,8,12,2)          -33.854          estimate D2E/DX2                !
 --------------------------------------------------------------------------------
 Trust Radius=3.00D-01 FncErr=1.00D-07 GrdErr=1.00D-06 EigMax=2.50D+02 EigMin=1.00D-04
 Number of steps in this run=    186 maximum allowed number of steps=    186.
 GradGradGradGradGradGradGradGradGradGradGradGradGradGradGradGradGradGrad

                          Input orientation:                          
 ---------------------------------------------------------------------
 Center     Atomic      Atomic             Coordinates (Angstroms)
 Number     Number       Type             X           Y           Z
 ---------------------------------------------------------------------
      1          6           0        3.463932    0.479847    0.551654
      2          6           0        1.096632   -0.687269   -0.634084
      3          6           0       -1.756877    1.498072   -0.035874
      4          6           0        2.667552   -0.558992    1.341277
      5          6           0       -3.456955   -0.186859    0.693887
      6          8           0       -2.704143   -1.196023    0.045676
      7          6           0        2.556548    1.202734   -0.429776
      8          6           0       -1.048155    0.377007   -0.789743
      9          6           0       -2.559897    0.953704    1.147551
     10          6           0       -2.032702   -0.740392   -1.109519
     11          8           0        1.876015    0.288013   -1.279057
     12          8           0        0.011232   -0.106562    0.025439
     13          6           0        1.917579   -1.476277    0.374074
     14          1           0        4.265401   -0.009933    0.003371
     15          1           0        3.920712    1.209096    1.214736
     16          1           0       -2.430896    1.992596   -0.730982
     17          1           0        3.327448   -1.148841    1.970025
     18          1           0        1.965236   -0.057355    2.001601
     19          1           0        1.831125    1.813183    0.097123
     20          1           0        3.120914    1.846275   -1.090467
     21          1           0       -1.892265    0.595880    1.925680
     22          1           0       -3.171040    1.739491    1.582096
     23          1           0       -2.757587   -0.376553   -1.834157
     24          1           0       -1.531205   -1.599079   -1.532592
     25          1           0        2.632254   -2.073504   -0.185516
     26          1           0        1.262227   -2.161173    0.901218
     27          1           0        0.746672   -1.328919   -1.429783
     28          1           0       -4.221891    0.176615    0.010707
     29          1           0       -3.947357   -0.663348    1.531750
     30          1           0       -1.030790    2.235192    0.290112
     31          1           0       -0.639742    0.757495   -1.718064
 ---------------------------------------------------------------------
                    Distance matrix (angstroms):
                    1          2          3          4          5
     1  C    0.000000
     2  C    2.893483   0.000000
     3  C    5.351525   3.643636   0.000000
     4  C    1.528696   2.527112   5.069875   0.000000
     5  C    6.954380   4.769599   2.502361   6.169861   0.000000
     6  O    6.411685   3.894457   2.856941   5.562328   1.416092
     7  C    1.519578   2.396916   4.341430   2.500526   6.273421
     8  C    4.708381   2.399380   1.525579   4.384498   2.884687
     9  C    6.071750   4.386026   1.530252   5.445365   1.520332
    10  C    5.870389   3.165690   2.497902   5.303932   2.363719
    11  O    2.431005   1.405206   4.025873   2.865327   5.706013
    12  O    3.541457   1.396526   2.388476   2.998693   3.532930
    13  C    2.499833   1.520812   4.745149   1.529494   5.536289
    14  H    1.087590   3.302458   6.208337   2.155129   7.755185
    15  H    1.086338   3.871662   5.820872   2.170843   7.526616
    16  H    6.219531   4.431086   1.087212   6.066220   2.798763
    17  H    2.164031   3.459909   6.072902   1.085683   6.970083
    18  H    2.153375   2.845716   4.519379   1.086699   5.579161
    19  H    2.156488   2.706733   3.604267   2.806197   5.685076
    20  H    2.163642   3.274881   5.002625   3.450250   7.112377
    21  H    5.530846   4.139127   2.163325   4.739956   2.139684
    22  H    6.831645   5.386431   2.162398   6.279345   2.140441
    23  H    6.718096   4.048669   2.783785   6.288784   2.629849
    24  H    5.798052   2.923053   3.447236   5.193310   3.264979
    25  H    2.784728   2.116836   5.660655   2.150835   6.435157
    26  H    3.456109   2.134705   4.835618   2.176137   5.119725
    27  H    3.818538   1.080428   4.025248   3.458517   4.846107
    28  H    7.710801   5.426669   2.797269   7.055208   1.088106
    29  H    7.562717   5.489375   3.453605   6.618473   1.081457
    30  H    4.832408   3.731064   1.084811   4.752909   3.451904
    31  H    4.697749   2.505464   2.150862   4.693708   3.827009
                    6          7          8          9         10
     6  O    0.000000
     7  C    5.801289   0.000000
     8  C    2.432004   3.715546   0.000000
     9  C    2.419971   5.359849   2.524094   0.000000
    10  C    1.411704   5.029812   1.523210   2.870934   0.000000
    11  O    4.993509   1.421660   2.966162   5.099891   4.045297
    12  O    2.925850   2.898294   1.421500   2.999000   2.422300
    13  C    4.641843   2.869069   3.685744   5.152753   4.283374
    14  H    7.069876   2.139709   5.386337   6.987305   6.437251
    15  H    7.144229   2.136681   5.422172   6.485987   6.681751
    16  H    3.293198   5.058577   2.127335   2.150540   2.787664
    17  H    6.331306   3.447207   5.393555   6.305394   6.195291
    18  H    5.188960   2.801619   4.130472   4.714708   5.111665
    19  H    5.443034   1.084670   3.337572   4.595996   4.786010
    20  H    6.669159   1.081280   4.430612   6.170658   5.766365
    21  H    2.721117   5.070343   2.852008   1.085935   3.319304
    22  H    3.346016   6.094342   3.462459   1.086180   3.832809
    23  H    2.051380   5.718957   2.140283   3.270970   1.087629
    24  H    2.007279   5.077015   2.165659   3.841624   1.080663
    25  H    5.412999   3.286203   4.462679   6.156256   4.938905
    26  H    4.170798   3.842224   3.826169   4.936777   4.113179
    27  H    3.755365   3.268781   2.557585   4.773512   2.858995
    28  H    2.046684   6.869802   3.279250   2.158357   2.624568
    29  H    2.009413   7.044901   3.857077   2.165066   3.263149
    30  H    3.825323   3.801737   2.149242   2.171539   3.437571
    31  H    3.344961   3.474794   1.083214   3.455031   2.134088
                   11         12         13         14         15
    11  O    0.000000
    12  O    2.309722   0.000000
    13  C    2.418117   2.373147   0.000000
    14  H    2.728105   4.255323   2.792822   0.000000
    15  H    3.353831   4.292950   3.454053   1.752783   0.000000
    16  H    4.664276   3.307964   5.671284   7.027787   6.688992
    17  H    3.837674   3.983095   2.154531   2.458576   2.546034
    18  H    3.299993   2.779527   2.159735   3.047283   2.459053
    19  H    2.054758   2.646237   3.302230   3.042736   2.445476
    20  H    2.003377   3.837830   3.825212   2.439639   2.521832
    21  H    4.956315   2.779864   4.606108   6.479130   5.888308
    22  H    5.980447   3.994740   6.139587   7.800866   7.121041
    23  H    4.713815   3.346244   5.286100   7.268650   7.510640
    24  H    3.903145   2.652203   3.942660   6.203645   6.719900
    25  H    2.710072   3.283766   1.086546   2.638403   3.794245
    26  H    3.335993   2.559962   1.084643   3.801712   4.304015
    27  H    1.978030   2.037817   2.155606   4.021829   4.848663
    28  H    6.233808   4.242610   6.368452   8.489345   8.295643
    29  H    6.535854   4.271933   6.033120   8.379277   8.094013
    30  H    3.834490   2.576756   4.740773   5.759553   5.140542
    31  H    2.596570   2.051869   3.988317   5.254780   5.440864
                   16         17         18         19         20
    16  H    0.000000
    17  H    7.093842   0.000000
    18  H    5.567341   1.745841   0.000000
    19  H    4.345431   3.810555   2.672814   0.000000
    20  H    5.565360   4.287189   3.810549   1.753574   0.000000
    21  H    3.049392   5.503764   3.913157   4.323087   5.982691
    22  H    2.441763   7.122029   5.457653   5.218451   6.836862
    23  H    2.633741   7.217748   6.092617   5.438848   6.328571
    24  H    3.788423   6.006459   5.205049   5.060115   5.805872
    25  H    6.516609   2.446355   3.048483   3.978445   4.052455
    26  H    5.792843   2.536198   2.476109   4.094596   4.845737
    27  H    4.649486   4.272181   3.856964   3.657907   3.979198
    28  H    2.656229   7.911275   6.503764   6.270951   7.610331
    29  H    3.804425   7.304148   5.962109   6.448427   7.945734
    30  H    1.749795   5.767844   4.142600   2.899292   4.392482
    31  H    2.389150   5.742361   4.613653   3.242617   3.965079
                   21         22         23         24         25
    21  H    0.000000
    22  H    1.749618   0.000000
    23  H    3.978792   4.039724   0.000000
    24  H    4.111916   4.851432   1.757704   0.000000
    25  H    5.661628   7.165306   5.886259   4.401600   0.000000
    26  H    4.312967   5.944126   5.179387   3.747351   1.750900
    27  H    4.682731   5.816788   3.653813   2.296145   2.378661
    28  H    3.044678   2.452781   2.419443   3.574165   7.216706
    29  H    2.442179   2.525636   3.581499   4.012926   6.944698
    30  H    2.470742   2.548649   3.783591   4.274845   5.675295
    31  H    3.856398   4.273505   2.405163   2.526370   4.590122
                   26         27         28         29         30
    26  H    0.000000
    27  H    2.528242   0.000000
    28  H    6.027754   5.387788   0.000000
    29  H    5.457180   5.589953   1.759113   0.000000
    30  H    4.995939   4.338237   3.807746   4.295295   0.000000
    31  H    4.358526   2.521581   4.019684   4.849784   2.523743
                   31
    31  H    0.000000
 Stoichiometry    C10H18O3
 Framework group  C1[X(C10H18O3)]
 Deg. of freedom    87
 Full point group                 C1      NOp   1
 Largest Abelian subgroup         C1      NOp   1
 Largest concise Abelian subgroup C1      NOp   1
                         Standard orientation:                         
 ---------------------------------------------------------------------
 Center     Atomic      Atomic             Coordinates (Angstroms)
 Number     Number       Type             X           Y           Z
 ---------------------------------------------------------------------
      1          6           0        3.463932    0.479847    0.551654
      2          6           0        1.096632   -0.687269   -0.634084
      3          6           0       -1.756877    1.498072   -0.035874
      4          6           0        2.667552   -0.558992    1.341277
      5          6           0       -3.456955   -0.186859    0.693887
      6          8           0       -2.704143   -1.196023    0.045676
      7          6           0        2.556548    1.202734   -0.429776
      8          6           0       -1.048155    0.377007   -0.789743
      9          6           0       -2.559897    0.953704    1.147551
     10          6           0       -2.032702   -0.740392   -1.109519
     11          8           0        1.876015    0.288013   -1.279057
     12          8           0        0.011232   -0.106562    0.025439
     13          6           0        1.917579   -1.476277    0.374074
     14          1           0        4.265401   -0.009933    0.003371
     15          1           0        3.920712    1.209096    1.214736
     16          1           0       -2.430896    1.992596   -0.730982
     17          1           0        3.327448   -1.148841    1.970025
     18          1           0        1.965236   -0.057355    2.001601
     19          1           0        1.831125    1.813183    0.097123
     20          1           0        3.120914    1.846275   -1.090467
     21          1           0       -1.892265    0.595880    1.925680
     22          1           0       -3.171040    1.739491    1.582096
     23          1           0       -2.757587   -0.376553   -1.834157
     24          1           0       -1.531205   -1.599079   -1.532592
     25          1           0        2.632254   -2.073504   -0.185516
     26          1           0        1.262227   -2.161173    0.901218
     27          1           0        0.746672   -1.328919   -1.429783
     28          1           0       -4.221891    0.176615    0.010707
     29          1           0       -3.947357   -0.663348    1.531750
     30          1           0       -1.030790    2.235192    0.290112
     31          1           0       -0.639742    0.757495   -1.718064
 ---------------------------------------------------------------------
 Rotational constants (GHZ):           1.6927358           0.4460245           0.4353461
 Standard basis: 6-311++G(2d,2p) (5D, 7F)
 There are   557 symmetry adapted cartesian basis functions of A   symmetry.
 There are   531 symmetry adapted basis functions of A   symmetry.
   531 basis functions,   762 primitive gaussians,   557 cartesian basis functions
    51 alpha electrons       51 beta electrons
       nuclear repulsion energy       904.0723850769 Hartrees.
 NAtoms=   31 NActive=   31 NUniq=   31 SFac= 1.00D+00 NAtFMM=   60 NAOKFM=F Big=F
 Integral buffers will be    131072 words long.
 Raffenetti 2 integral format.
 Two-electron integral symmetry is turned on.
 ------------------------------------------------------------------------------
 Polarizable Continuum Model (PCM)
 =================================
 Model                : PCM.
 Atomic radii         : UFF (Universal Force Field).
 Polarization charges : Total charges.
 Charge compensation  : None.
 Solution method      : On-the-fly selection.
 Cavity type          : Scaled VdW (van der Waals Surface) (Alpha=1.100).
 Cavity algorithm     : GePol (No added spheres)
                        Default sphere list used, NSphG=   31.
                        Lebedev-Laikov grids with approx.  5.0 points / Ang**2.
                        Smoothing algorithm: York/Karplus (Gamma=1.0000).
                        Polarization charges: spherical gaussians, with
                                              point-specific exponents (IZeta= 3).
                        Self-potential: point-specific (ISelfS= 7).
                        Self-field    : sphere-specific E.n sum rule (ISelfD= 2).
 1st derivatives      : Analytical E(r).r(x)/FMM algorithm (CHGder, D1EAlg=3).
                        Cavity 1st derivative terms included.
 Solvent              : Water, Eps=  78.355300 Eps(inf)=   1.777849
 ------------------------------------------------------------------------------
 One-electron integrals computed using PRISM.
 NBasis=   531 RedAO= T EigKep=  4.95D-06  NBF=   531
 NBsUse=   531 1.00D-06 EigRej= -1.00D+00 NBFU=   531
 ExpMin= 3.60D-02 ExpMax= 8.59D+03 ExpMxC= 1.30D+03 IAcc=3 IRadAn=         5 AccDes= 0.00D+00
 Harris functional with IExCor= 1009 and IRadAn=       5 diagonalized for initial guess.
 HarFok:  IExCor= 1009 AccDes= 0.00D+00 IRadAn=         5 IDoV= 1 UseB2=F ITyADJ=14
 ICtDFT=  3500011 ScaDFX=  1.000000  1.000000  1.000000  1.000000
 FoFCou: FMM=F IPFlag=           0 FMFlag=      100000 FMFlg1=           0
         NFxFlg=           0 DoJE=T BraDBF=F KetDBF=T FulRan=T
         wScrn=  0.000000 ICntrl=       500 IOpCl=  0 I1Cent=   200000004 NGrid=           0
         NMat0=    1 NMatS0=      1 NMatT0=    0 NMatD0=    1 NMtDS0=    0 NMtDT0=    0
 Petite list used in FoFCou.
 Requested convergence on RMS density matrix=1.00D-08 within 128 cycles.
 Requested convergence on MAX density matrix=1.00D-06.
 Requested convergence on             energy=1.00D-06.
 No special actions if energy rises.
 Inv3:  Mode=1 IEnd=    12941787.
 Iteration    1 A*A^-1 deviation from unit magnitude is 4.44D-15 for   2061.
 Iteration    1 A*A^-1 deviation from orthogonality  is 4.16D-15 for   2036    896.
 Iteration    1 A^-1*A deviation from unit magnitude is 4.44D-15 for   2061.
 Iteration    1 A^-1*A deviation from orthogonality  is 2.20D-15 for   2075    942.
 Error on total polarization charges =  0.01468
 SCF Done:  E(RM062X) =  -617.502602611     A.U. after   13 cycles
            NFock= 13  Conv=0.19D-08     -V/T= 2.0035

 **********************************************************************

            Population analysis using the SCF density.

 **********************************************************************

 Orbital symmetries:
       Occupied  (A) (A) (A) (A) (A) (A) (A) (A) (A) (A) (A) (A)
                 (A) (A) (A) (A) (A) (A) (A) (A) (A) (A) (A) (A)
                 (A) (A) (A) (A) (A) (A) (A) (A) (A) (A) (A) (A)
                 (A) (A) (A) (A) (A) (A) (A) (A) (A) (A) (A) (A)
                 (A) (A) (A)
       Virtual   (A) (A) (A) (A) (A) (A) (A) (A) (A) (A) (A) (A)
                 (A) (A) (A) (A) (A) (A) (A) (A) (A) (A) (A) (A)
                 (A) (A) (A) (A) (A) (A) (A) (A) (A) (A) (A) (A)
                 (A) (A) (A) (A) (A) (A) (A) (A) (A) (A) (A) (A)
                 (A) (A) (A) (A) (A) (A) (A) (A) (A) (A) (A) (A)
                 (A) (A) (A) (A) (A) (A) (A) (A) (A) (A) (A) (A)
                 (A) (A) (A) (A) (A) (A) (A) (A) (A) (A) (A) (A)
                 (A) (A) (A) (A) (A) (A) (A) (A) (A) (A) (A) (A)
                 (A) (A) (A) (A) (A) (A) (A) (A) (A) (A) (A) (A)
                 (A) (A) (A) (A) (A) (A) (A) (A) (A) (A) (A) (A)
                 (A) (A) (A) (A) (A) (A) (A) (A) (A) (A) (A) (A)
                 (A) (A) (A) (A) (A) (A) (A) (A) (A) (A) (A) (A)
                 (A) (A) (A) (A) (A) (A) (A) (A) (A) (A) (A) (A)
                 (A) (A) (A) (A) (A) (A) (A) (A) (A) (A) (A) (A)
                 (A) (A) (A) (A) (A) (A) (A) (A) (A) (A) (A) (A)
                 (A) (A) (A) (A) (A) (A) (A) (A) (A) (A) (A) (A)
                 (A) (A) (A) (A) (A) (A) (A) (A) (A) (A) (A) (A)
                 (A) (A) (A) (A) (A) (A) (A) (A) (A) (A) (A) (A)
                 (A) (A) (A) (A) (A) (A) (A) (A) (A) (A) (A) (A)
                 (A) (A) (A) (A) (A) (A) (A) (A) (A) (A) (A) (A)
                 (A) (A) (A) (A) (A) (A) (A) (A) (A) (A) (A) (A)
                 (A) (A) (A) (A) (A) (A) (A) (A) (A) (A) (A) (A)
                 (A) (A) (A) (A) (A) (A) (A) (A) (A) (A) (A) (A)
                 (A) (A) (A) (A) (A) (A) (A) (A) (A) (A) (A) (A)
                 (A) (A) (A) (A) (A) (A) (A) (A) (A) (A) (A) (A)
                 (A) (A) (A) (A) (A) (A) (A) (A) (A) (A) (A) (A)
                 (A) (A) (A) (A) (A) (A) (A) (A) (A) (A) (A) (A)
                 (A) (A) (A) (A) (A) (A) (A) (A) (A) (A) (A) (A)
                 (A) (A) (A) (A) (A) (A) (A) (A) (A) (A) (A) (A)
                 (A) (A) (A) (A) (A) (A) (A) (A) (A) (A) (A) (A)
                 (A) (A) (A) (A) (A) (A) (A) (A) (A) (A) (A) (A)
                 (A) (A) (A) (A) (A) (A) (A) (A) (A) (A) (A) (A)
                 (A) (A) (A) (A) (A) (A) (A) (A) (A) (A) (A) (A)
                 (A) (A) (A) (A) (A) (A) (A) (A) (A) (A) (A) (A)
                 (A) (A) (A) (A) (A) (A) (A) (A) (A) (A) (A) (A)
                 (A) (A) (A) (A) (A) (A) (A) (A) (A) (A) (A) (A)
                 (A) (A) (A) (A) (A) (A) (A) (A) (A) (A) (A) (A)
                 (A) (A) (A) (A) (A) (A) (A) (A) (A) (A) (A) (A)
                 (A) (A) (A) (A) (A) (A) (A) (A) (A) (A) (A) (A)
                 (A) (A) (A) (A) (A) (A) (A) (A) (A) (A) (A) (A)
 The electronic state is 1-A.
 Alpha  occ. eigenvalues --  -19.62778 -19.62638 -19.62638 -10.63302 -10.58619
 Alpha  occ. eigenvalues --  -10.57855 -10.57705 -10.57562 -10.53200 -10.52949
 Alpha  occ. eigenvalues --  -10.52910 -10.52808 -10.52725  -1.20154  -1.16525
 Alpha  occ. eigenvalues --   -1.13287  -0.90944  -0.89678  -0.87205  -0.84827
 Alpha  occ. eigenvalues --   -0.74741  -0.74112  -0.73115  -0.71613  -0.66322
 Alpha  occ. eigenvalues --   -0.62762  -0.59495  -0.58463  -0.58028  -0.55942
 Alpha  occ. eigenvalues --   -0.54361  -0.53234  -0.52133  -0.51070  -0.50044
 Alpha  occ. eigenvalues --   -0.48338  -0.46844  -0.46192  -0.45570  -0.45096
 Alpha  occ. eigenvalues --   -0.43771  -0.42982  -0.41035  -0.40133  -0.38802
 Alpha  occ. eigenvalues --   -0.38530  -0.37534  -0.36219  -0.35001  -0.33309
 Alpha  occ. eigenvalues --   -0.31697
 Alpha virt. eigenvalues --   -0.00161   0.00826   0.00864   0.01043   0.02222
 Alpha virt. eigenvalues --    0.02525   0.02696   0.03201   0.03363   0.04593
 Alpha virt. eigenvalues --    0.04818   0.04825   0.05278   0.05883   0.07178
 Alpha virt. eigenvalues --    0.07755   0.07796   0.08118   0.09126   0.09321
 Alpha virt. eigenvalues --    0.09984   0.10561   0.10858   0.11411   0.12061
 Alpha virt. eigenvalues --    0.12277   0.12679   0.13199   0.13331   0.13338
 Alpha virt. eigenvalues --    0.13820   0.14036   0.14290   0.14672   0.14763
 Alpha virt. eigenvalues --    0.15186   0.15381   0.15408   0.15790   0.16436
 Alpha virt. eigenvalues --    0.16646   0.16937   0.17266   0.17728   0.17813
 Alpha virt. eigenvalues --    0.17880   0.18274   0.18538   0.18870   0.19529
 Alpha virt. eigenvalues --    0.19653   0.20110   0.20594   0.20787   0.21270
 Alpha virt. eigenvalues --    0.21721   0.22450   0.22990   0.23840   0.24035
 Alpha virt. eigenvalues --    0.24657   0.25489   0.26264   0.26644   0.27232
 Alpha virt. eigenvalues --    0.27475   0.28078   0.28397   0.28898   0.29136
 Alpha virt. eigenvalues --    0.29361   0.30397   0.30893   0.31707   0.32248
 Alpha virt. eigenvalues --    0.32620   0.33265   0.33542   0.34156   0.34687
 Alpha virt. eigenvalues --    0.34771   0.35260   0.35602   0.36270   0.36587
 Alpha virt. eigenvalues --    0.36876   0.37144   0.37267   0.38022   0.38269
 Alpha virt. eigenvalues --    0.38593   0.39140   0.39506   0.40235   0.40633
 Alpha virt. eigenvalues --    0.41169   0.41871   0.43924   0.44221   0.44904
 Alpha virt. eigenvalues --    0.47063   0.47994   0.49274   0.50280   0.50582
 Alpha virt. eigenvalues --    0.51928   0.52309   0.52641   0.54246   0.55000
 Alpha virt. eigenvalues --    0.56515   0.57931   0.58220   0.59450   0.60058
 Alpha virt. eigenvalues --    0.60290   0.60778   0.61243   0.61749   0.62132
 Alpha virt. eigenvalues --    0.62658   0.62930   0.63748   0.64452   0.64703
 Alpha virt. eigenvalues --    0.65090   0.65442   0.66176   0.66403   0.66521
 Alpha virt. eigenvalues --    0.67641   0.68407   0.68571   0.69596   0.69652
 Alpha virt. eigenvalues --    0.70133   0.70935   0.72065   0.72888   0.72999
 Alpha virt. eigenvalues --    0.73681   0.74443   0.74749   0.75337   0.75756
 Alpha virt. eigenvalues --    0.76847   0.77343   0.78452   0.78545   0.79381
 Alpha virt. eigenvalues --    0.80280   0.81940   0.83046   0.85292   0.86087
 Alpha virt. eigenvalues --    0.86477   0.86971   0.87883   0.88388   0.89444
 Alpha virt. eigenvalues --    0.91062   0.92615   0.92940   0.94593   0.97244
 Alpha virt. eigenvalues --    0.97432   0.98301   0.99655   1.00307   1.01894
 Alpha virt. eigenvalues --    1.03155   1.03692   1.04315   1.04944   1.06265
 Alpha virt. eigenvalues --    1.08000   1.09499   1.09918   1.11736   1.12352
 Alpha virt. eigenvalues --    1.12854   1.14096   1.14650   1.16514   1.16821
 Alpha virt. eigenvalues --    1.17891   1.18292   1.19469   1.20558   1.21552
 Alpha virt. eigenvalues --    1.21859   1.22723   1.23545   1.23639   1.24389
 Alpha virt. eigenvalues --    1.24834   1.26037   1.26948   1.27300   1.28155
 Alpha virt. eigenvalues --    1.28344   1.29413   1.30377   1.30967   1.32044
 Alpha virt. eigenvalues --    1.32227   1.32745   1.33179   1.34326   1.35197
 Alpha virt. eigenvalues --    1.35831   1.36373   1.36621   1.37330   1.37952
 Alpha virt. eigenvalues --    1.38301   1.39613   1.39923   1.40561   1.41602
 Alpha virt. eigenvalues --    1.41815   1.43017   1.43905   1.44265   1.44942
 Alpha virt. eigenvalues --    1.45664   1.46592   1.47094   1.47853   1.48071
 Alpha virt. eigenvalues --    1.48859   1.49653   1.50533   1.51838   1.52057
 Alpha virt. eigenvalues --    1.52970   1.53159   1.54329   1.55347   1.55889
 Alpha virt. eigenvalues --    1.56382   1.56691   1.57304   1.57709   1.58220
 Alpha virt. eigenvalues --    1.59412   1.59852   1.61397   1.61840   1.63063
 Alpha virt. eigenvalues --    1.63183   1.63641   1.65190   1.66319   1.66577
 Alpha virt. eigenvalues --    1.67148   1.67626   1.69616   1.71218   1.73135
 Alpha virt. eigenvalues --    1.73807   1.74660   1.75575   1.76268   1.78230
 Alpha virt. eigenvalues --    1.79591   1.80605   1.81166   1.82223   1.82771
 Alpha virt. eigenvalues --    1.84472   1.88716   1.93822   1.98655   2.01005
 Alpha virt. eigenvalues --    2.03825   2.07247   2.12911   2.19392   2.21173
 Alpha virt. eigenvalues --    2.23955   2.26817   2.31262   2.34766   2.40482
 Alpha virt. eigenvalues --    2.41805   2.43080   2.44705   2.46720   2.50701
 Alpha virt. eigenvalues --    2.60214   2.75030   2.77294   2.80654   2.81079
 Alpha virt. eigenvalues --    2.82634   2.86620   2.91898   2.92932   2.93261
 Alpha virt. eigenvalues --    2.95746   2.97647   2.98586   3.00316   3.03517
 Alpha virt. eigenvalues --    3.06218   3.06976   3.09088   3.09261   3.11592
 Alpha virt. eigenvalues --    3.13262   3.14312   3.15939   3.18965   3.22507
 Alpha virt. eigenvalues --    3.24857   3.29793   3.31393   3.33421   3.33980
 Alpha virt. eigenvalues --    3.34998   3.36086   3.37198   3.39881   3.41470
 Alpha virt. eigenvalues --    3.42508   3.44728   3.45766   3.46253   3.47151
 Alpha virt. eigenvalues --    3.47420   3.48747   3.50328   3.51564   3.52511
 Alpha virt. eigenvalues --    3.53117   3.54238   3.54541   3.55913   3.56078
 Alpha virt. eigenvalues --    3.56897   3.57567   3.58054   3.59337   3.60042
 Alpha virt. eigenvalues --    3.61273   3.61910   3.62937   3.64040   3.64636
 Alpha virt. eigenvalues --    3.65860   3.66927   3.67781   3.68941   3.69185
 Alpha virt. eigenvalues --    3.70667   3.71064   3.71884   3.72490   3.73819
 Alpha virt. eigenvalues --    3.74656   3.75087   3.75921   3.76838   3.77738
 Alpha virt. eigenvalues --    3.78760   3.80068   3.81120   3.82720   3.83671
 Alpha virt. eigenvalues --    3.85647   3.89335   3.90246   3.91258   3.92397
 Alpha virt. eigenvalues --    3.92842   3.94173   3.94910   3.96361   3.97592
 Alpha virt. eigenvalues --    3.98839   4.01120   4.02804   4.03013   4.03752
 Alpha virt. eigenvalues --    4.05433   4.05814   4.06234   4.06899   4.07404
 Alpha virt. eigenvalues --    4.08638   4.08718   4.09453   4.10120   4.10673
 Alpha virt. eigenvalues --    4.12068   4.12562   4.13646   4.14602   4.15339
 Alpha virt. eigenvalues --    4.16188   4.17019   4.18131   4.19856   4.20660
 Alpha virt. eigenvalues --    4.21674   4.22627   4.24753   4.26786   4.27405
 Alpha virt. eigenvalues --    4.28146   4.29556   4.30767   4.31104   4.32084
 Alpha virt. eigenvalues --    4.32988   4.33470   4.34646   4.35602   4.37017
 Alpha virt. eigenvalues --    4.39922   4.44383   4.45822   4.46599   4.47064
 Alpha virt. eigenvalues --    4.57474   4.62419   4.73983   4.75447   4.81996
 Alpha virt. eigenvalues --    4.85180   4.93668   4.95902   5.00787   5.04128
 Alpha virt. eigenvalues --    5.06262   5.07595   5.08093   5.08838   5.11193
 Alpha virt. eigenvalues --    5.12222   5.13780   5.14172   5.32565   5.36767
 Alpha virt. eigenvalues --    5.43749   5.58210   5.59406   5.65103   5.86833
 Alpha virt. eigenvalues --    5.87344   6.07229   7.04040   7.06246   7.06821
 Alpha virt. eigenvalues --    7.08709   7.10234   7.12583   7.13571   7.19686
 Alpha virt. eigenvalues --    7.27491   7.36017   7.38388   7.45696   7.52717
 Alpha virt. eigenvalues --    7.56096   7.66696  23.95411  23.98087  24.06067
 Alpha virt. eigenvalues --   24.07675  24.10650  24.11953  24.13819  24.16073
 Alpha virt. eigenvalues --   24.16262  24.21811  50.16698  50.18575  50.26703
          Condensed to atoms (all electrons):
               1          2          3          4          5          6
     1  C    5.684219   0.234181   0.015386  -0.003840  -0.001341  -0.000586
     2  C    0.234181   7.101874   0.014334  -0.033864  -0.006037  -0.012604
     3  C    0.015386   0.014334   6.780927  -0.021641  -0.188377  -0.008642
     4  C   -0.003840  -0.033864  -0.021641   5.643011  -0.001609   0.000217
     5  C   -0.001341  -0.006037  -0.188377  -0.001609   5.477982   0.109917
     6  O   -0.000586  -0.012604  -0.008642   0.000217   0.109917   8.276412
     7  C   -0.069314  -0.466145  -0.022493  -0.018535  -0.000738   0.002493
     8  C    0.051979  -0.954188  -0.868242  -0.010625   0.311460   0.059098
     9  C   -0.010586   0.149803  -0.088707   0.001746   0.035911  -0.001737
    10  C   -0.012811   0.120585   0.186507   0.028829  -0.247037   0.095819
    11  O   -0.060729   0.322753  -0.041759  -0.009499   0.001475  -0.000336
    12  O   -0.022220   0.257419  -0.062392  -0.007619  -0.007716   0.027079
    13  C   -0.173218  -0.875000  -0.183613  -0.077242   0.016919   0.001738
    14  H    0.488059   0.006284  -0.001589  -0.018126  -0.000016  -0.000011
    15  H    0.443341   0.002522   0.004053  -0.042594  -0.000334   0.000019
    16  H    0.000010   0.004972   0.500273   0.000328  -0.012187   0.001671
    17  H   -0.019036   0.021208  -0.000240   0.430843   0.000148  -0.000110
    18  H   -0.073122  -0.013594  -0.007778   0.522576   0.002140   0.000341
    19  H   -0.107260   0.006920  -0.022119   0.007834   0.003532  -0.000658
    20  H   -0.017684  -0.011244  -0.000888   0.004942   0.000053   0.000044
    21  H    0.002359  -0.007153   0.020280   0.003006  -0.105493  -0.013200
    22  H    0.000078   0.008180  -0.060867  -0.000953  -0.024241   0.010601
    23  H   -0.000077  -0.010151  -0.029874   0.001048  -0.007761  -0.050782
    24  H   -0.000167   0.032120  -0.007463  -0.002663   0.008609  -0.082194
    25  H   -0.020992  -0.151519  -0.004138  -0.009692   0.000505   0.000115
    26  H   -0.005056  -0.020420   0.003469  -0.047980  -0.000651  -0.001248
    27  H    0.020534   0.459154   0.036875   0.002616   0.001149   0.000509
    28  H    0.000040  -0.001994  -0.020456   0.000090   0.444793  -0.062742
    29  H   -0.000295   0.002621   0.006905  -0.000114   0.448913  -0.064397
    30  H    0.008333  -0.014418   0.395118   0.000486  -0.015394  -0.001811
    31  H   -0.002231  -0.045053   0.028902  -0.005043  -0.012719   0.009167
               7          8          9         10         11         12
     1  C   -0.069314   0.051979  -0.010586  -0.012811  -0.060729  -0.022220
     2  C   -0.466145  -0.954188   0.149803   0.120585   0.322753   0.257419
     3  C   -0.022493  -0.868242  -0.088707   0.186507  -0.041759  -0.062392
     4  C   -0.018535  -0.010625   0.001746   0.028829  -0.009499  -0.007619
     5  C   -0.000738   0.311460   0.035911  -0.247037   0.001475  -0.007716
     6  O    0.002493   0.059098  -0.001737   0.095819  -0.000336   0.027079
     7  C    5.497608   0.067285   0.024654  -0.016354   0.108106   0.007572
     8  C    0.067285   7.918426  -0.432065  -0.598175   0.035827  -0.009410
     9  C    0.024654  -0.432065   5.672354   0.141242  -0.007793  -0.000512
    10  C   -0.016354  -0.598175   0.141242   5.999653  -0.001163  -0.106439
    11  O    0.108106   0.035827  -0.007793  -0.001163   8.189545  -0.045006
    12  O    0.007572  -0.009410  -0.000512  -0.106439  -0.045006   8.285454
    13  C    0.216927   0.199613  -0.014175  -0.039078  -0.035362  -0.082885
    14  H   -0.087161  -0.005272   0.000229   0.000142  -0.004232  -0.001158
    15  H   -0.039099   0.000689  -0.000022   0.000360   0.010284   0.001122
    16  H   -0.002072  -0.075240  -0.034942  -0.009814  -0.000254   0.006628
    17  H    0.007102   0.006055  -0.001782   0.000963  -0.003432   0.001129
    18  H    0.004652  -0.005179   0.003385  -0.002545   0.001674  -0.005269
    19  H    0.490109  -0.019992   0.001601   0.008915  -0.035739   0.011157
    20  H    0.436035   0.010606   0.000310  -0.000870  -0.071357   0.001231
    21  H   -0.002623  -0.041337   0.501240   0.019024  -0.000097  -0.001381
    22  H    0.000624  -0.007277   0.451040  -0.003343  -0.000333   0.002051
    23  H    0.001483  -0.057539   0.025284   0.458276   0.001252   0.014536
    24  H    0.003530  -0.050640   0.012844   0.421534  -0.001540  -0.011447
    25  H    0.015580   0.004891   0.000297  -0.004363  -0.007704   0.009407
    26  H    0.007565  -0.001510   0.000784  -0.005762   0.008510  -0.001259
    27  H   -0.025474   0.047017  -0.011145  -0.000674  -0.061704  -0.036116
    28  H    0.000186   0.013095  -0.010145  -0.020675  -0.000016   0.001805
    29  H    0.000236   0.009861  -0.061897  -0.002304   0.000005   0.001202
    30  H   -0.002717   0.004832  -0.012353  -0.000736   0.001165   0.002841
    31  H    0.006983   0.428616  -0.019873  -0.030826  -0.006549  -0.012558
              13         14         15         16         17         18
     1  C   -0.173218   0.488059   0.443341   0.000010  -0.019036  -0.073122
     2  C   -0.875000   0.006284   0.002522   0.004972   0.021208  -0.013594
     3  C   -0.183613  -0.001589   0.004053   0.500273  -0.000240  -0.007778
     4  C   -0.077242  -0.018126  -0.042594   0.000328   0.430843   0.522576
     5  C    0.016919  -0.000016  -0.000334  -0.012187   0.000148   0.002140
     6  O    0.001738  -0.000011   0.000019   0.001671  -0.000110   0.000341
     7  C    0.216927  -0.087161  -0.039099  -0.002072   0.007102   0.004652
     8  C    0.199613  -0.005272   0.000689  -0.075240   0.006055  -0.005179
     9  C   -0.014175   0.000229  -0.000022  -0.034942  -0.001782   0.003385
    10  C   -0.039078   0.000142   0.000360  -0.009814   0.000963  -0.002545
    11  O   -0.035362  -0.004232   0.010284  -0.000254  -0.003432   0.001674
    12  O   -0.082885  -0.001158   0.001122   0.006628   0.001129  -0.005269
    13  C    6.618203  -0.008659  -0.008372   0.003499  -0.066900  -0.046642
    14  H   -0.008659   0.485242  -0.012527   0.000018  -0.003307   0.001971
    15  H   -0.008372  -0.012527   0.490294  -0.000104  -0.005953  -0.005765
    16  H    0.003499   0.000018  -0.000104   0.430312   0.000040  -0.000132
    17  H   -0.066900  -0.003307  -0.005953   0.000040   0.468605  -0.008861
    18  H   -0.046642   0.001971  -0.005765  -0.000132  -0.008861   0.466135
    19  H    0.033260   0.003904  -0.001774   0.001280  -0.001976  -0.000878
    20  H    0.000901  -0.006489  -0.008969  -0.000197   0.001443  -0.002414
    21  H   -0.006098  -0.000027   0.000338   0.002138   0.000409  -0.003808
    22  H   -0.001186   0.000008  -0.000025  -0.006037  -0.000124   0.000280
    23  H    0.002255  -0.000048   0.000036  -0.006299   0.000091  -0.000024
    24  H    0.008663  -0.000117  -0.000038  -0.000413  -0.000478   0.000011
    25  H    0.553178  -0.001684  -0.002969   0.000073  -0.004077   0.002495
    26  H    0.431562  -0.001798   0.001231   0.000025  -0.008325  -0.000986
    27  H   -0.118754   0.000174   0.002058  -0.000398   0.003709  -0.003795
    28  H   -0.002403  -0.000000   0.000019  -0.006699  -0.000022  -0.000036
    29  H    0.001875   0.000003  -0.000025  -0.001360   0.000001   0.000282
    30  H   -0.002874   0.000050   0.000800   0.000901   0.000218  -0.000129
    31  H   -0.010380  -0.000395   0.000167  -0.008568   0.000156  -0.000619
              19         20         21         22         23         24
     1  C   -0.107260  -0.017684   0.002359   0.000078  -0.000077  -0.000167
     2  C    0.006920  -0.011244  -0.007153   0.008180  -0.010151   0.032120
     3  C   -0.022119  -0.000888   0.020280  -0.060867  -0.029874  -0.007463
     4  C    0.007834   0.004942   0.003006  -0.000953   0.001048  -0.002663
     5  C    0.003532   0.000053  -0.105493  -0.024241  -0.007761   0.008609
     6  O   -0.000658   0.000044  -0.013200   0.010601  -0.050782  -0.082194
     7  C    0.490109   0.436035  -0.002623   0.000624   0.001483   0.003530
     8  C   -0.019992   0.010606  -0.041337  -0.007277  -0.057539  -0.050640
     9  C    0.001601   0.000310   0.501240   0.451040   0.025284   0.012844
    10  C    0.008915  -0.000870   0.019024  -0.003343   0.458276   0.421534
    11  O   -0.035739  -0.071357  -0.000097  -0.000333   0.001252  -0.001540
    12  O    0.011157   0.001231  -0.001381   0.002051   0.014536  -0.011447
    13  C    0.033260   0.000901  -0.006098  -0.001186   0.002255   0.008663
    14  H    0.003904  -0.006489  -0.000027   0.000008  -0.000048  -0.000117
    15  H   -0.001774  -0.008969   0.000338  -0.000025   0.000036  -0.000038
    16  H    0.001280  -0.000197   0.002138  -0.006037  -0.006299  -0.000413
    17  H   -0.001976   0.001443   0.000409  -0.000124   0.000091  -0.000478
    18  H   -0.000878  -0.002414  -0.003808   0.000280  -0.000024   0.000011
    19  H    0.534157  -0.019858  -0.001724   0.000239  -0.001057   0.000562
    20  H   -0.019858   0.478181   0.000015   0.000003   0.000156   0.000224
    21  H   -0.001724   0.000015   0.484455  -0.014159  -0.000643  -0.001879
    22  H    0.000239   0.000003  -0.014159   0.481706   0.000198   0.002054
    23  H   -0.001057   0.000156  -0.000643   0.000198   0.479471  -0.008616
    24  H    0.000562   0.000224  -0.001879   0.002054  -0.008616   0.495294
    25  H   -0.000967   0.000453  -0.000312   0.000047  -0.000143   0.002039
    26  H    0.000368   0.001047  -0.000332   0.000177  -0.000282   0.000971
    27  H   -0.003087  -0.000099   0.001370  -0.000410   0.000747  -0.014873
    28  H   -0.000276   0.000020   0.000326   0.004880   0.008434  -0.002821
    29  H    0.000158  -0.000004  -0.005433  -0.008244  -0.001723   0.001522
    30  H   -0.009442   0.001770   0.003214  -0.010935   0.001152  -0.000887
    31  H   -0.001327  -0.000961   0.000495  -0.000133  -0.002724  -0.009505
              25         26         27         28         29         30
     1  C   -0.020992  -0.005056   0.020534   0.000040  -0.000295   0.008333
     2  C   -0.151519  -0.020420   0.459154  -0.001994   0.002621  -0.014418
     3  C   -0.004138   0.003469   0.036875  -0.020456   0.006905   0.395118
     4  C   -0.009692  -0.047980   0.002616   0.000090  -0.000114   0.000486
     5  C    0.000505  -0.000651   0.001149   0.444793   0.448913  -0.015394
     6  O    0.000115  -0.001248   0.000509  -0.062742  -0.064397  -0.001811
     7  C    0.015580   0.007565  -0.025474   0.000186   0.000236  -0.002717
     8  C    0.004891  -0.001510   0.047017   0.013095   0.009861   0.004832
     9  C    0.000297   0.000784  -0.011145  -0.010145  -0.061897  -0.012353
    10  C   -0.004363  -0.005762  -0.000674  -0.020675  -0.002304  -0.000736
    11  O   -0.007704   0.008510  -0.061704  -0.000016   0.000005   0.001165
    12  O    0.009407  -0.001259  -0.036116   0.001805   0.001202   0.002841
    13  C    0.553178   0.431562  -0.118754  -0.002403   0.001875  -0.002874
    14  H   -0.001684  -0.001798   0.000174  -0.000000   0.000003   0.000050
    15  H   -0.002969   0.001231   0.002058   0.000019  -0.000025   0.000800
    16  H    0.000073   0.000025  -0.000398  -0.006699  -0.001360   0.000901
    17  H   -0.004077  -0.008325   0.003709  -0.000022   0.000001   0.000218
    18  H    0.002495  -0.000986  -0.003795  -0.000036   0.000282  -0.000129
    19  H   -0.000967   0.000368  -0.003087  -0.000276   0.000158  -0.009442
    20  H    0.000453   0.001047  -0.000099   0.000020  -0.000004   0.001770
    21  H   -0.000312  -0.000332   0.001370   0.000326  -0.005433   0.003214
    22  H    0.000047   0.000177  -0.000410   0.004880  -0.008244  -0.010935
    23  H   -0.000143  -0.000282   0.000747   0.008434  -0.001723   0.001152
    24  H    0.002039   0.000971  -0.014873  -0.002821   0.001522  -0.000887
    25  H    0.452381  -0.004192  -0.017792  -0.000047   0.000034   0.000039
    26  H   -0.004192   0.473773  -0.007711   0.000049   0.000183  -0.000430
    27  H   -0.017792  -0.007711   0.465209   0.000037  -0.000167   0.001624
    28  H   -0.000047   0.000049   0.000037   0.499706  -0.005761   0.002056
    29  H    0.000034   0.000183  -0.000167  -0.005761   0.479495  -0.000215
    30  H    0.000039  -0.000430   0.001624   0.002056  -0.000215   0.491356
    31  H   -0.000260  -0.000083   0.000755   0.001889   0.000045  -0.007296
              31
     1  C   -0.002231
     2  C   -0.045053
     3  C    0.028902
     4  C   -0.005043
     5  C   -0.012719
     6  O    0.009167
     7  C    0.006983
     8  C    0.428616
     9  C   -0.019873
    10  C   -0.030826
    11  O   -0.006549
    12  O   -0.012558
    13  C   -0.010380
    14  H   -0.000395
    15  H    0.000167
    16  H   -0.008568
    17  H    0.000156
    18  H   -0.000619
    19  H   -0.001327
    20  H   -0.000961
    21  H    0.000495
    22  H   -0.000133
    23  H   -0.002724
    24  H   -0.009505
    25  H   -0.000260
    26  H   -0.000083
    27  H    0.000755
    28  H    0.001889
    29  H    0.000045
    30  H   -0.007296
    31  H    0.418838
 Mulliken charges:
               1
     1  C   -0.347954
     2  C   -0.121548
     3  C   -0.351752
     4  C   -0.335933
     5  C   -0.231854
     6  O   -0.294183
     7  C   -0.146003
     8  C   -0.032658
     9  C   -0.314989
    10  C   -0.378881
    11  O   -0.285991
    12  O   -0.217246
    13  C   -0.335751
    14  H    0.166533
    15  H    0.171238
    16  H    0.212548
    17  H    0.182504
    18  H    0.175634
    19  H    0.124136
    20  H    0.203601
    21  H    0.167030
    22  H    0.176105
    23  H    0.183324
    24  H    0.205764
    25  H    0.189319
    26  H    0.178310
    27  H    0.258660
    28  H    0.156669
    29  H    0.198599
    30  H    0.163683
    31  H    0.281088
 Sum of Mulliken charges =  -0.00000
 Mulliken charges with hydrogens summed into heavy atoms:
               1
     1  C   -0.010183
     2  C    0.137112
     3  C    0.024478
     4  C    0.022204
     5  C    0.123414
     6  O   -0.294183
     7  C    0.181734
     8  C    0.248430
     9  C    0.028146
    10  C    0.010207
    11  O   -0.285991
    12  O   -0.217246
    13  C    0.031878
 Electronic spatial extent (au):  <R**2>=           2847.1449
 Charge=              0.0000 electrons
 Dipole moment (field-independent basis, Debye):
    X=              0.0552    Y=              1.8207    Z=              0.0578  Tot=              1.8225
 Quadrupole moment (field-independent basis, Debye-Ang):
   XX=            -73.6245   YY=            -79.3520   ZZ=            -80.1648
   XY=             -5.8597   XZ=              4.1776   YZ=              1.8673
 Traceless Quadrupole moment (field-independent basis, Debye-Ang):
   XX=              4.0893   YY=             -1.6382   ZZ=             -2.4510
   XY=             -5.8597   XZ=              4.1776   YZ=              1.8673
 Octapole moment (field-independent basis, Debye-Ang**2):
  XXX=             -3.0657  YYY=              3.3476  ZZZ=              0.0500  XYY=             13.0145
  XXY=             19.5437  XXZ=              9.6572  XZZ=            -13.6071  YZZ=             -3.8402
  YYZ=             -4.1202  XYZ=             -1.2217
 Hexadecapole moment (field-independent basis, Debye-Ang**3):
 XXXX=          -2677.4180 YYYY=           -557.6841 ZZZZ=           -483.7245 XXXY=            -24.0548
 XXXZ=            -15.7214 YYYX=             -2.6688 YYYZ=              3.0991 ZZZX=              4.4976
 ZZZY=              0.6880 XXYY=           -559.9035 XXZZ=           -530.5118 YYZZ=           -164.4812
 XXYZ=             -5.1898 YYXZ=             -4.6829 ZZXY=              6.7587
 N-N= 9.040723850769D+02 E-N=-3.250240387844D+03  KE= 6.153393787781D+02
 D1PCM: PCM CHGder 1st derivatives, ID1Alg=3 FixD1E=F DoIter=F DoCFld=F I1PDM=0.
 Calling FoFJK, ICntrl=      2127 FMM=F ISym2X=0 I1Cent= 0 IOpClX= 0 NMat=1 NMatS=1 NMatT=0.
 ***** Axes restored to original set *****
 -------------------------------------------------------------------
 Center     Atomic                   Forces (Hartrees/Bohr)
 Number     Number              X              Y              Z
 -------------------------------------------------------------------
      1        6          -0.002688447    0.000210461    0.000915067
      2        6           0.003380042    0.004663468    0.005546530
      3        6          -0.000722342   -0.003870530    0.000607117
      4        6          -0.000292334    0.000598432   -0.003963165
      5        6           0.006347539    0.002438742   -0.001631575
      6        8           0.000997101   -0.008344388    0.002459652
      7        6           0.000394807   -0.005847025    0.003258603
      8        6          -0.000303887   -0.001405670    0.001188061
      9        6          -0.000722241    0.000179769   -0.002446045
     10        6          -0.001003978    0.004762556    0.006090535
     11        8           0.001060043   -0.000055526   -0.011437716
     12        8          -0.001964946    0.000370129    0.012521343
     13        6          -0.000656541    0.002205382    0.001408425
     14        1           0.001944034   -0.001733089   -0.002091776
     15        1           0.001318551    0.001626234    0.001939835
     16        1          -0.002471533    0.001334307   -0.002319820
     17        1           0.001609691   -0.001454328    0.001381424
     18        1          -0.002969175    0.001804272    0.001116495
     19        1          -0.004276639    0.002842951    0.004000569
     20        1           0.002414320    0.002517268   -0.002704365
     21        1           0.002586725   -0.001763485    0.001537142
     22        1          -0.001364156    0.002333634    0.001082361
     23        1          -0.003561555    0.002592933   -0.004690068
     24        1           0.003271219   -0.004064351   -0.001862843
     25        1           0.002388740   -0.001323270   -0.002041022
     26        1          -0.002160710   -0.001719213    0.001652483
     27        1          -0.002023167   -0.004686009   -0.006520309
     28        1          -0.004075388    0.003149051   -0.003620679
     29        1          -0.001915470   -0.001895887    0.003439904
     30        1           0.002767212    0.001619083    0.000761815
     31        1           0.002692487    0.002914098   -0.005577979
 -------------------------------------------------------------------
 Cartesian Forces:  Max     0.012521343 RMS     0.003375279

 GradGradGradGradGradGradGradGradGradGradGradGradGradGradGradGradGradGrad
 Berny optimization.
 FormGI is forming the generalized inverse of G from B-inverse, IUseBI=4.
 Internal  Forces:  Max     0.011565789 RMS     0.002014994
 Search for a local minimum.
 Step number   1 out of a maximum of  186
 All quantities printed in internal units (Hartrees-Bohrs-Radians)
 Mixed Optimization -- RFO/linear search
 Second derivative matrix not updated -- first step.
 ITU=  0
     Eigenvalues ---    0.00620   0.00625   0.00726   0.00727   0.01408
     Eigenvalues ---    0.01436   0.01738   0.02701   0.02823   0.03073
     Eigenvalues ---    0.03105   0.04097   0.04348   0.04676   0.04747
     Eigenvalues ---    0.04875   0.04889   0.05042   0.05139   0.05156
     Eigenvalues ---    0.05252   0.05685   0.05738   0.06168   0.06186
     Eigenvalues ---    0.06305   0.06642   0.06990   0.07601   0.07854
     Eigenvalues ---    0.07950   0.07962   0.07968   0.08157   0.08228
     Eigenvalues ---    0.08830   0.09286   0.09357   0.10726   0.11605
     Eigenvalues ---    0.11708   0.11724   0.11765   0.12404   0.12535
     Eigenvalues ---    0.14611   0.14744   0.15652   0.16488   0.17528
     Eigenvalues ---    0.19175   0.21298   0.21951   0.25000   0.28474
     Eigenvalues ---    0.28658   0.28777   0.28865   0.28945   0.29115
     Eigenvalues ---    0.30204   0.30348   0.35032   0.35088   0.35093
     Eigenvalues ---    0.35137   0.35197   0.35215   0.35239   0.35258
     Eigenvalues ---    0.35287   0.35316   0.35419   0.35436   0.35439
     Eigenvalues ---    0.35609   0.35819   0.35840   0.35914   0.35943
     Eigenvalues ---    0.40843   0.41416   0.42223   0.42235   0.43255
     Eigenvalues ---    0.462011000.000001000.000001000.000001000.00000
     Eigenvalues --- 1000.000001000.000001000.000001000.000001000.00000
     Eigenvalues --- 1000.000001000.000001000.000001000.000001000.00000
     Eigenvalues --- 1000.000001000.000001000.000001000.000001000.00000
     Eigenvalues --- 1000.000001000.000001000.000001000.000001000.00000
     Eigenvalues --- 1000.000001000.000001000.000001000.000001000.00000
     Eigenvalues --- 1000.000001000.000001000.000001000.000001000.00000
     Eigenvalues --- 1000.000001000.000001000.000001000.000001000.00000
     Eigenvalues --- 1000.000001000.000001000.000001000.000001000.00000
     Eigenvalues --- 1000.000001000.000001000.000001000.000001000.00000
     Eigenvalues --- 1000.000001000.000001000.000001000.000001000.00000
     Eigenvalues --- 1000.000001000.000001000.000001000.000001000.00000
     Eigenvalues --- 1000.000001000.000001000.000001000.000001000.00000
     Eigenvalues --- 1000.000001000.000001000.000001000.000001000.00000
     Eigenvalues --- 1000.000001000.000001000.000001000.000001000.00000
     Eigenvalues --- 1000.000001000.000001000.000001000.000001000.00000
     Eigenvalues --- 1000.000001000.000001000.000001000.000001000.00000
     Eigenvalues --- 1000.000001000.000001000.000001000.000001000.00000
     Eigenvalues --- 1000.000001000.000001000.000001000.000001000.00000
     Eigenvalues --- 1000.000001000.000001000.000001000.000001000.00000
 RFO step:  Lambda=-3.23992649D-03 EMin= 6.20056126D-03
 Linear search not attempted -- first point.
 Iteration  1 RMS(Cart)=  0.04295096 RMS(Int)=  0.00045212
 Iteration  2 RMS(Cart)=  0.00141506 RMS(Int)=  0.00005261
 Iteration  3 RMS(Cart)=  0.00000067 RMS(Int)=  0.00005261
 Iteration  1 RMS(Cart)=  0.00000257 RMS(Int)=  0.00000058
 Iteration  2 RMS(Cart)=  0.00000143 RMS(Int)=  0.00000065
 Iteration  3 RMS(Cart)=  0.00000079 RMS(Int)=  0.00000073
 Variable       Old X    -DE/DX   Delta X   Delta X   Delta X     New X
                                 (Linear)    (Quad)   (Total)
    R1        2.88882  -0.00096   0.00000  -0.00253  -0.00254   2.88628
    R2        2.87159   0.00016   0.00000   0.00094   0.00097   2.87256
    R3        2.05525   0.00327   0.00000   0.00922   0.00922   2.06447
    R4        2.05288   0.00283   0.00000   0.00796   0.00796   2.06085
    R5        2.65545   0.00356   0.00000   0.00744   0.00745   2.66291
    R6        2.63905   0.00326   0.00000   0.00701   0.00701   2.64606
    R7        2.87392  -0.00080   0.00000  -0.00306  -0.00309   2.87083
    R8        2.04171   0.00824   0.00000   0.02272   0.02272   2.06443
    R9        2.88293  -0.00206   0.00000  -0.00715  -0.00718   2.87575
   R10        2.89176  -0.00111   0.00000  -0.00445  -0.00447   2.88729
   R11        2.05453   0.00362   0.00000   0.01021   0.01021   2.06474
   R12        2.05000   0.00318   0.00000   0.00890   0.00890   2.05889
   R13        2.89033  -0.00162   0.00000  -0.00527  -0.00527   2.88505
   R14        2.05164   0.00257   0.00000   0.00721   0.00721   2.05885
   R15        2.05356   0.00343   0.00000   0.00966   0.00966   2.06322
   R16        2.67603   0.00312   0.00000   0.00743   0.00746   2.68349
   R17        2.87301   0.00049   0.00000   0.00117   0.00115   2.87416
   R18        2.05622   0.00619   0.00000   0.01751   0.01751   2.07373
   R19        2.04366   0.00437   0.00000   0.01209   0.01209   2.05575
   R20        2.66773   0.00214   0.00000   0.00532   0.00534   2.67308
   R21        2.68655   0.00302   0.00000   0.00697   0.00698   2.69353
   R22        2.04973   0.00641   0.00000   0.01792   0.01792   2.06765
   R23        2.04332   0.00441   0.00000   0.01220   0.01220   2.05552
   R24        2.87845   0.00058   0.00000   0.00240   0.00242   2.88087
   R25        2.68625   0.00097   0.00000   0.00227   0.00227   2.68851
   R26        2.04698   0.00682   0.00000   0.01898   0.01898   2.06596
   R27        2.05212   0.00327   0.00000   0.00920   0.00920   2.06132
   R28        2.05258   0.00289   0.00000   0.00811   0.00811   2.06069
   R29        2.05532   0.00637   0.00000   0.01798   0.01798   2.07330
   R30        2.04216   0.00548   0.00000   0.01512   0.01512   2.05727
   R31        2.05327   0.00335   0.00000   0.00943   0.00943   2.06270
   R32        2.04968   0.00319   0.00000   0.00892   0.00892   2.05860
    A1        1.92390  -0.00105   0.00000  -0.00545  -0.00567   1.91822
    A2        1.91588   0.00093   0.00000   0.00161   0.00170   1.91758
    A3        1.93901  -0.00051   0.00000  -0.00172  -0.00169   1.93732
    A4        1.90570   0.00007   0.00000  -0.00137  -0.00131   1.90439
    A5        1.90282   0.00062   0.00000   0.00374   0.00380   1.90662
    A6        1.87565  -0.00002   0.00000   0.00342   0.00339   1.87904
    A7        1.93824   0.00037   0.00000  -0.00185  -0.00167   1.93657
    A8        1.94437   0.00345   0.00000   0.01235   0.01211   1.95648
    A9        1.82741  -0.00226   0.00000  -0.00987  -0.00987   1.81754
   A10        1.89886  -0.00334   0.00000  -0.01627  -0.01618   1.88269
   A11        1.92091   0.00190   0.00000   0.01296   0.01294   1.93386
   A12        1.93365   0.00005   0.00000   0.00359   0.00367   1.93732
   A13        1.94392   0.00040   0.00000  -0.00963  -0.00972   1.93420
   A14        1.88212  -0.00008   0.00000   0.00545   0.00546   1.88758
   A15        1.91439  -0.00062   0.00000  -0.00740  -0.00737   1.90702
   A16        1.90808  -0.00023   0.00000   0.00456   0.00461   1.91268
   A17        1.93967   0.00023   0.00000   0.00178   0.00170   1.94136
   A18        1.87339   0.00031   0.00000   0.00601   0.00600   1.87940
   A19        1.91384   0.00198   0.00000  -0.00165  -0.00165   1.91219
   A20        1.93018  -0.00027   0.00000   0.00224   0.00231   1.93249
   A21        1.91437  -0.00086   0.00000  -0.00185  -0.00196   1.91241
   A22        1.91604  -0.00057   0.00000   0.00173   0.00172   1.91776
   A23        1.92218  -0.00102   0.00000  -0.00675  -0.00676   1.91542
   A24        1.86682   0.00067   0.00000   0.00639   0.00640   1.87322
   A25        1.93643   0.00132   0.00000   0.00692   0.00685   1.94328
   A26        1.90115   0.00103   0.00000   0.00854   0.00859   1.90974
   A27        1.85638  -0.00118   0.00000  -0.00466  -0.00464   1.85175
   A28        1.93002  -0.00133   0.00000  -0.00823  -0.00824   1.92178
   A29        1.94649  -0.00028   0.00000  -0.00327  -0.00326   1.94323
   A30        1.89108   0.00048   0.00000   0.00108   0.00104   1.89212
   A31        1.97949  -0.00390   0.00000  -0.02480  -0.02473   1.95476
   A32        1.94505   0.00233   0.00000   0.00574   0.00568   1.95074
   A33        1.93195  -0.00162   0.00000  -0.00754  -0.00759   1.92436
   A34        1.94561  -0.00027   0.00000  -0.00166  -0.00158   1.94403
   A35        1.90939   0.00013   0.00000   0.00102   0.00109   1.91048
   A36        1.84187  -0.00132   0.00000  -0.00176  -0.00178   1.84010
   A37        1.88697   0.00076   0.00000   0.00457   0.00455   1.89152
   A38        1.92041   0.00038   0.00000   0.00025   0.00017   1.92058
   A39        1.88896  -0.00019   0.00000  -0.00688  -0.00687   1.88208
   A40        1.91827  -0.00069   0.00000  -0.00184  -0.00182   1.91645
   A41        1.93109  -0.00021   0.00000  -0.00200  -0.00197   1.92911
   A42        1.89807   0.00031   0.00000   0.00595   0.00596   1.90403
   A43        1.90706   0.00038   0.00000   0.00448   0.00446   1.91152
   A44        1.92383  -0.00029   0.00000  -0.00658  -0.00665   1.91717
   A45        1.92702   0.00038   0.00000  -0.00268  -0.00267   1.92436
   A46        1.92548  -0.00066   0.00000  -0.00042  -0.00040   1.92508
   A47        1.90644  -0.00032   0.00000  -0.00180  -0.00185   1.90459
   A48        1.90723   0.00063   0.00000   0.00549   0.00554   1.91276
   A49        1.87300   0.00027   0.00000   0.00640   0.00639   1.87939
   A50        1.95239   0.00117   0.00000   0.00602   0.00605   1.95844
   A51        1.91364   0.00103   0.00000   0.01039   0.01036   1.92400
   A52        1.85941  -0.00079   0.00000  -0.00357  -0.00357   1.85584
   A53        1.90208  -0.00111   0.00000  -0.00364  -0.00371   1.89837
   A54        1.94457  -0.00077   0.00000  -0.01013  -0.01015   1.93442
   A55        1.89048   0.00051   0.00000   0.00118   0.00115   1.89163
   A56        2.02402  -0.00584   0.00000  -0.03802  -0.03793   1.98609
   A57        2.03740  -0.01157   0.00000  -0.04567  -0.04567   1.99173
   A58        1.95276  -0.00173   0.00000  -0.01602  -0.01618   1.93659
   A59        1.87425   0.00010   0.00000   0.00423   0.00423   1.87848
   A60        1.90035   0.00076   0.00000  -0.00074  -0.00071   1.89964
   A61        1.91007   0.00125   0.00000   0.00785   0.00795   1.91803
   A62        1.94726  -0.00030   0.00000  -0.00152  -0.00162   1.94564
   A63        1.87616  -0.00000   0.00000   0.00732   0.00729   1.88345
    D1        0.92439  -0.00011   0.00000   0.00875   0.00874   0.93314
    D2        3.03979   0.00030   0.00000   0.01126   0.01130   3.05109
    D3       -1.18854   0.00044   0.00000   0.01931   0.01934  -1.16919
    D4       -1.17545  -0.00012   0.00000   0.01286   0.01285  -1.16259
    D5        0.93995   0.00029   0.00000   0.01538   0.01541   0.95536
    D6        2.99481   0.00043   0.00000   0.02343   0.02345   3.01826
    D7        3.03565  -0.00038   0.00000   0.00867   0.00862   3.04428
    D8       -1.13214   0.00004   0.00000   0.01118   0.01118  -1.12096
    D9        0.92272   0.00017   0.00000   0.01923   0.01922   0.94194
   D10       -0.95499  -0.00134   0.00000  -0.01964  -0.01971  -0.97469
   D11        1.17420  -0.00070   0.00000  -0.01964  -0.01972   1.15449
[...]
 0003156,0.00014738,-0.00006404,0.00008766,-0.00104848,0.00066153,-0.00
 447915,0.00329580,-0.00273868,0.09404029,-0.06872684,-0.11496495,-0.00
 032198,-0.00019009,0.00052055,-0.00023723,0.00023137,0.00000423,-0.000
 10339,0.00011279,0.00006673,0.00027910,0.00070737,0.00054675,-0.002690
 88,-0.00307732,-0.00161069,-0.00001436,-0.00001736,-0.00005263,0.00006
 222,-0.00002336,0.00006537,0.00000044,-0.00000814,-0.00000175,-0.00001
 726,-0.00000052,0.00002233,-0.00006481,-0.00003803,-0.00002164,-0.0000
 0163,-0.00002985,0.00000214,-0.09686749,0.07717089,0.12519648,-0.00037
 498,-0.00198506,-0.00313585,0.01035136,0.01211690,-0.00807097,0.000038
 92,-0.00001045,0.00004059,-0.00821415,-0.00780312,0.00825864,-0.000000
 90,0.00000248,0.00000331,0.00002158,-0.00001560,0.00000768,-0.00080742
 ,-0.00037202,-0.00084264,0.00034286,-0.00018562,0.00002759,-0.00000026
 ,-0.00000219,-0.00000302,-0.00000486,-0.00002270,0.00001085,-0.0003437
 7,0.00434644,-0.00388186,0.00060191,0.00016252,-0.00032799,-0.13641242
 ,-0.09857011,0.08125162,0.00025779,0.00034398,-0.00025724,-0.00020098,
 -0.00101906,0.00065475,0.00001105,-0.00001591,-0.00000904,0.00000522,0
 .00045991,0.00023248,0.00078589,0.00027586,-0.00021745,0.00006488,0.00
 003540,0.00008940,0.00013411,0.00004382,0.00017969,0.00000230,0.000000
 24,0.00000389,0.00000140,0.00000151,-0.00000210,0.00000404,0.00000219,
 -0.00000386,-0.00000028,-0.00000856,-0.00000033,-0.01182616,-0.0141293
 7,0.01078720,0.14509181,-0.00140660,-0.00152164,-0.00415654,-0.0102757
 2,-0.01090337,0.00670963,-0.00002655,0.00000737,-0.00003481,-0.0111009
 2,-0.01366222,0.01115897,0.00000693,-0.00000053,-0.00000117,-0.0000009
 8,-0.00000491,-0.00001133,0.00011958,0.00121479,0.00005675,0.00019247,
 0.00023176,-0.00004900,0.00000660,-0.00000329,0.00000512,0.00002193,-0
 .00000981,0.00002304,0.00149145,-0.00193129,0.00331101,-0.00042747,0.0
 0113152,-0.00058365,-0.09505513,-0.15621861,0.08907800,-0.00017536,0.0
 0005138,0.00016503,-0.00061860,-0.00079346,0.00083327,-0.00001071,0.00
 001061,0.00000907,0.00020821,0.00078528,-0.00008760,0.00058688,0.00055
 949,0.00042971,0.00005052,-0.00008892,-0.00005769,-0.00001103,-0.00003
 274,0.00004152,0.00000259,-0.00000563,-0.00000578,-0.00000114,0.000001
 48,-0.00000029,-0.00000076,-0.00000313,-0.00000129,-0.00000110,-0.0000
 2257,-0.00000129,0.00906349,0.01221390,-0.00910849,0.10708126,0.168701
 90,-0.00185796,-0.00291486,-0.00291215,0.01606667,0.01173198,-0.010197
 78,0.00001133,-0.00003055,0.00003111,-0.01263089,-0.01453667,0.0130326
 9,0.00000202,0.00000163,0.00000345,-0.00001032,-0.00001115,0.00000460,
 -0.00093551,-0.00125209,-0.00121841,-0.00023557,-0.00024753,-0.0000138
 0,-0.00000135,0.00001015,0.00000619,-0.00002707,0.00002687,-0.00002178
 ,-0.00219378,0.00565305,-0.00406928,0.00067904,-0.00119872,0.00118963,
 0.07834100,0.09064995,-0.12168992,-0.00009750,0.00003863,0.00003261,-0
 .00063370,-0.00105881,0.00066095,0.00000403,-0.00000247,-0.00001251,0.
 00042550,0.00094803,0.00073150,0.00071972,0.00069791,0.00087571,0.0000
 7434,0.00015821,0.00018141,0.00016911,0.00014852,0.00018198,0.00000077
 ,0.00000421,-0.00000764,-0.00000406,-0.00000099,0.00000162,-0.00000482
 ,-0.00000416,-0.00000153,-0.00001042,0.00001133,-0.00000080,0.00739430
 ,0.00961040,-0.00835632,-0.08528618,-0.09767547,0.13116296,0.00037759,
 0.00009332,0.00013846,-0.08304168,-0.05381488,-0.06900169,-0.00015421,
 0.00007171,-0.00032909,-0.00085051,0.00309095,-0.00185056,0.00000031,0
 .00015022,0.00009238,0.00006409,-0.00003522,-0.00013946,0.00060222,-0.
 00069498,0.00327736,0.00304142,-0.00026699,0.00181358,0.00004771,-0.00
 002220,-0.00002870,-0.00049418,-0.00015140,0.00048300,-0.01047805,-0.0
 2086246,-0.00908408,-0.00019595,0.02400909,0.02742547,-0.00554402,-0.0
 1092326,-0.01362742,-0.00009371,0.00004500,0.00006640,-0.00005830,0.00
 001092,-0.00003238,-0.00017590,0.00004346,0.00001029,-0.00052928,-0.00
 072277,-0.00069120,0.00001922,-0.00012781,-0.00017165,-0.00017354,-0.0
 0037797,-0.00023429,-0.00038831,-0.00071301,-0.00045317,0.00002900,0.0
 0002235,-0.00007762,-0.00003176,0.00000752,-0.00001659,0.00029953,-0.0
 0018728,-0.00011765,-0.00187181,-0.00020571,-0.00022447,0.00027935,-0.
 00040377,0.00041505,0.00042963,0.00040497,-0.00006574,0.09907811,-0.00
 015699,-0.00059735,-0.00001123,-0.05045272,-0.14425449,-0.10412642,0.0
 0017649,-0.00015528,0.00032194,0.00170236,-0.00195975,0.00219402,-0.00
 002649,-0.00012921,0.00001093,-0.00015004,0.00021190,0.00027647,-0.000
 93659,0.00032916,0.00521234,-0.00245055,0.00077440,-0.00206922,-0.0000
 6557,0.00002088,0.00002110,0.00031441,-0.00033172,-0.00017930,-0.02115
 571,-0.02789844,-0.01345273,0.00635492,-0.01007773,-0.01713871,0.00659
 299,0.01249048,0.01103479,-0.00000318,0.00006913,-0.00005585,-0.000070
 60,0.00020127,-0.00027069,0.00013550,-0.00008153,-0.00004150,0.0005916
 0,0.00066966,0.00065644,-0.00007902,0.00005934,0.00011208,0.00017080,-
 0.00008278,-0.00016575,-0.00070027,-0.00101425,-0.00081779,-0.00001112
 ,-0.00001803,0.00006982,0.00003343,-0.00000671,0.00001884,0.00009337,0
 .00016079,0.00006536,-0.00021722,0.00047626,0.00014550,-0.00050727,0.0
 0063240,-0.00063225,-0.00078487,0.00023623,-0.00069544,0.06154421,0.17
 048148,0.00033866,0.00048378,-0.00002948,-0.07114939,-0.11376712,-0.17
 778557,0.00023850,-0.00005063,0.00028867,-0.00169972,0.00359355,-0.001
 26431,-0.00010161,-0.00007565,0.00003875,-0.00002696,0.00027176,0.0001
 0922,0.00137794,0.00243036,-0.00118998,-0.00212634,0.00255995,-0.00139
 738,-0.00009880,-0.00001257,0.00004637,0.00025350,-0.00091816,0.000302
 52,0.01055108,0.01712557,0.01273470,0.00742386,-0.01822298,-0.01583570
 ,-0.00867984,-0.01302298,-0.01310011,-0.00003855,-0.00006325,0.0000612
 0,0.00005827,-0.00021703,0.00015279,0.00018001,-0.00011873,-0.00004949
 ,-0.00061933,-0.00096509,-0.00077234,0.00020721,0.00001140,0.00007987,
 0.00006163,0.00028355,0.00010733,0.00037830,0.00058607,0.00041464,-0.0
 0001728,-0.00000968,0.00006614,0.00004895,-0.00000731,-0.00001775,0.00
 016840,0.00034700,0.00019119,-0.00025069,0.00039119,0.00052658,0.00001
 808,0.00023881,0.00091334,0.00054713,0.00003313,0.00032172,0.06274580,
 0.11915041,0.19449304,0.00000219,-0.00000365,-0.00000428,0.00020471,-0
 .00007455,-0.00005561,0.00068539,0.00142163,-0.00039472,0.00000119,0.0
 0000639,-0.00000016,-0.14757251,0.05611384,-0.09948635,-0.01694690,0.0
 1943981,-0.00179898,0.00002495,0.00002460,0.00002102,-0.00036367,-0.00
 003208,0.00037197,-0.01329799,0.00687873,-0.01621356,0.00098163,0.0012
 8679,-0.00357445,-0.00010374,-0.00003105,0.00003114,-0.00012015,-0.000
 03465,0.00009174,-0.00000594,-0.00000570,0.00000798,-0.00000161,0.0000
 0134,0.00000113,-0.00000322,-0.00000159,-0.00000228,-0.00022790,-0.000
 43371,0.00046637,-0.00000529,-0.00000105,-0.00000349,0.00000194,0.0000
 0050,0.00000280,0.00000237,0.00000244,-0.00000209,-0.00000543,-0.00000
 387,0.00000022,-0.00160691,-0.00300148,-0.00145528,0.00056919,-0.00021
 429,0.00003501,-0.00014389,-0.00049561,0.00074777,0.00020203,-0.000185
 24,0.00036597,-0.00000968,0.00000458,-0.00000355,0.00000088,-0.0000017
 0,0.00000016,-0.00000173,0.00000644,0.00001667,0.16545610,-0.00000112,
 0.00000321,0.00000325,-0.00020043,0.00008229,0.00016791,0.00062346,0.0
 0121034,-0.00082788,0.00000264,-0.00000924,-0.00000047,0.05749183,-0.0
 8561428,0.06527410,0.02816559,-0.02303804,0.00631205,-0.00002934,-0.00
 002625,-0.00002480,-0.00002755,-0.00005565,-0.00049491,-0.01647793,0.0
 0956682,-0.01555155,-0.00292044,-0.00049629,0.00358375,0.00010849,0.00
 003427,-0.00002014,0.00026089,0.00009261,0.00005719,0.00001941,0.00000
 355,-0.00001806,0.00000217,-0.00000200,-0.00000008,0.00000434,0.000001
 68,0.00000321,0.00034329,-0.00021322,0.00026983,0.00000556,0.00000168,
 0.00000537,0.00000212,-0.00000095,-0.00000418,-0.00000459,-0.00000434,
 -0.00000121,0.00000711,0.00000400,-0.00000102,-0.00365210,-0.00279933,
 -0.00153768,0.00105937,0.00085256,0.00055688,-0.00005810,0.00070440,-0
 .00097366,-0.00019369,0.00008906,-0.00036659,0.00001221,-0.00000724,0.
 00000699,-0.00000202,0.00000056,-0.00000026,-0.00003046,0.00000694,0.0
 0000055,-0.07374435,0.10411565,0.00000372,-0.00000246,-0.00000313,0.00
 020466,-0.00008062,-0.00009434,0.00111110,0.00017851,0.00056922,0.0000
 0033,0.00000754,-0.00000164,-0.10196379,0.06805444,-0.16202333,0.01534
 436,-0.01070544,0.01049634,0.00002589,0.00001609,0.00001131,0.00004780
 ,0.00014258,-0.00022960,-0.00863337,0.00563365,-0.00940006,0.00141962,
 -0.00246966,0.00429156,-0.00008478,-0.00003203,0.00002743,-0.00037728,
 0.00014111,-0.00004794,-0.00001090,-0.00000457,0.00001690,-0.00000251,
 0.00000156,0.00000124,-0.00000323,-0.00000128,-0.00000242,-0.00025566,
 -0.00023018,0.00057952,-0.00000581,-0.00000100,-0.00000358,0.00000306,
 0.00000131,0.00000423,0.00000300,0.00000448,-0.00000052,-0.00000645,-0
 .00000303,0.00000172,-0.00160968,-0.00252758,0.00025667,0.00017183,-0.
 00010550,0.00017545,-0.00163723,0.00041587,0.00036996,-0.00017157,-0.0
 0000230,0.00016590,-0.00001250,0.00000707,-0.00000590,-0.00000090,-0.0
 0000101,-0.00000124,-0.00000778,0.00000766,0.00002287,0.11103160,-0.06
 676561,0.16860360,0.00000109,-0.00000408,-0.00000032,0.00030447,-0.000
 06905,-0.00015843,-0.00129754,-0.00261213,-0.00289668,-0.00000325,0.00
 001730,-0.00000227,-0.11723666,-0.06067088,0.09340599,-0.01303354,-0.0
 0331812,0.01961808,0.00004996,0.00002689,0.00002514,0.00049461,-0.0000
 1247,0.00012821,-0.01010856,-0.01063570,0.01464706,-0.00021855,0.00342
 069,-0.00097914,-0.00016382,-0.00005278,0.00003140,-0.00037002,0.00019
 232,0.00003212,-0.00003123,-0.00001507,0.00002857,-0.00000465,0.000004
 52,-0.00000056,-0.00000595,-0.00000258,-0.00000486,0.00005224,-0.00016
 781,0.00023929,-0.00001000,-0.00000236,-0.00000873,0.00000076,0.000000
 04,0.00000650,0.00001422,0.00001143,0.00000520,-0.00001446,-0.00000530
 ,0.00000204,0.00060127,0.00090037,0.00040471,0.00053876,0.00004229,-0.
 00016135,0.00008920,-0.00023379,0.00039781,-0.00037124,-0.00035002,0.0
 0081078,-0.00002135,0.00001074,-0.00001173,0.00000071,0.00000119,-0.00
 000129,0.00000079,-0.00000859,0.00000740,0.01205798,0.00877519,-0.0146
 5738,0.12929320,-0.00000448,0.00000264,0.00000957,0.00008916,-0.000071
 39,-0.00012309,-0.00315505,-0.00275567,-0.00362524,0.00000330,-0.00000
 228,0.00000213,-0.06789411,-0.11052954,0.10030392,0.01922503,0.0102706
 9,-0.02703095,0.00001982,-0.00002171,-0.00002417,0.00050601,-0.0004820
 3,-0.00074797,-0.01028851,-0.00919892,0.01790078,0.00223775,-0.0036824
 2,-0.00145834,-0.00001908,0.00000788,0.00002495,-0.00014836,0.00021537
 ,0.00014573,-0.00001744,0.00002143,0.00002573,-0.00000433,0.00000391,-
 0.00000331,-0.00000088,-0.00000087,-0.00000147,0.00032285,0.00019510,-
 0.00028386,-0.00000172,0.00000193,-0.00000098,0.00000032,-0.00000038,0
 .00000302,0.00001289,0.00001520,0.00001073,-0.00000836,0.00000337,0.00
 000492,0.00039573,0.00107834,-0.00042406,0.00068284,0.00038999,-0.0000
 1733,-0.00013631,0.00009335,-0.00024233,0.00078058,0.00039112,-0.00106
 300,-0.00000949,0.00000485,-0.00000665,0.00000088,-0.00000033,-0.00000
 055,-0.00001699,0.00003620,0.00003723,-0.00668470,-0.00464586,0.008375
 97,0.06525147,0.11885140,-0.00000443,0.00000495,0.00000655,-0.00018426
 ,0.00000014,0.00004886,-0.00174726,-0.00197879,-0.00069414,0.00000335,
 -0.00001525,0.00000349,0.09696935,0.09119544,-0.19240093,0.01290735,0.
 00265845,-0.01725619,-0.00002394,-0.00003269,-0.00003508,-0.00027849,-
 0.00024904,-0.00044936,-0.00813974,-0.00597324,0.01175781,0.00057535,-
 0.00391868,0.00129549,0.00010287,0.00005460,-0.00001076,0.00027860,0.0
 0002616,0.00007557,0.00001141,0.00002264,-0.00000641,0.00000100,-0.000
 00059,-0.00000144,0.00000396,0.00000147,0.00000276,-0.00000924,-0.0001
 6189,0.00011593,0.00000722,0.00000324,0.00000577,-0.00000077,-0.000000
 43,-0.00000272,0.00000163,-0.00000015,0.00000508,0.00000561,0.00000602
 ,0.00000140,0.00054356,0.00052960,0.00068106,0.00084533,0.00077220,0.0
 0025837,-0.00015624,-0.00001512,0.00026281,0.00090344,0.00029892,-0.00
 068028,0.00001018,-0.00000521,0.00000478,-0.00000041,-0.00000020,0.000
 00134,-0.00000843,0.00002961,0.00002102,0.00964270,0.01023841,-0.01391
 022,-0.11183095,-0.09324364,0.21025995,0.00003150,-0.00002794,-0.00005
 879,-0.00004791,0.00005024,0.00031884,-0.17736795,-0.11836444,-0.06611
 086,0.00000407,-0.00000087,0.00000603,-0.00123252,-0.00024988,0.004839
 04,0.00049651,-0.00033240,-0.00084586,-0.00019836,0.00017096,0.0001827
 0,0.01010882,0.01173149,0.00543336,-0.01201412,-0.01000596,-0.00713495
 ,-0.00154875,0.00241435,0.00173481,0.00008929,-0.00005766,-0.00010008,
 0.00173923,-0.00093262,0.00035901,0.00004979,-0.00001592,-0.00007612,0
 .00001485,-0.00002100,0.00001870,0.00000272,0.00000455,0.00000400,-0.0
 1280105,-0.01166253,-0.00623085,0.00000559,-0.00000292,0.00000797,0.00
 002593,-0.00002078,-0.00000802,-0.00031523,-0.00002487,0.00000463,0.00
 003917,-0.00002844,-0.00001239,0.00086600,0.00020915,0.00010691,0.0000
 9839,0.00047207,-0.00030066,0.00000804,0.00008529,0.00005060,0.0005549
 1,0.00065429,0.00027855,0.00002860,-0.00001768,0.00001640,-0.00000373,
 -0.00000432,0.00000141,0.00001076,0.00000167,-0.00003354,0.00034561,0.
 00033384,0.00011030,-0.00053307,-0.00121812,-0.00048025,0.19088666,-0.
 00004291,0.00003794,0.00008541,0.00018857,0.00009401,-0.00011267,-0.11
 572051,-0.15247172,-0.05792287,0.00000373,-0.00001596,0.00000515,-0.00
 059447,0.00069664,0.00289585,-0.00007621,0.00055358,0.00028264,0.00008
 600,-0.00025981,-0.00020738,-0.01715010,-0.01851713,-0.01028372,-0.008
 10886,-0.00785503,-0.00352988,0.00477907,-0.00209522,-0.00257871,0.000
 11255,0.00008346,0.00006631,-0.00125659,0.00239164,0.00077499,-0.00000
 277,0.00001523,0.00002495,-0.00003320,0.00002689,-0.00002858,0.0000004
 2,-0.00000452,-0.00000435,0.01144981,0.01162440,0.00555761,-0.00000441
 ,0.00001344,-0.00000584,0.00000594,-0.00000654,0.00000892,0.00015147,0
 .00011427,0.00007976,-0.00007453,0.00003504,0.00004449,0.00029248,0.00
 017983,-0.00025666,0.00017573,0.00044485,0.00020090,-0.00015359,0.0001
 9314,-0.00008962,-0.00108992,-0.00103048,-0.00027774,-0.00001410,0.000
 00550,-0.00001099,-0.00000066,0.00000477,-0.00000397,-0.00013066,0.000
 11161,0.00011565,-0.00018440,-0.00002703,-0.00019683,-0.00044552,-0.00
 044407,-0.00042892,0.12766853,0.16522193,-0.00003243,0.00002566,0.0000
 7037,-0.00006427,0.00004447,0.00012167,-0.06523098,-0.05974977,-0.0810
 4336,-0.00001910,-0.00001050,0.00001930,0.00317760,0.00070941,-0.00531
 052,-0.00114901,0.00010665,0.00108702,0.00005289,-0.00016862,-0.000181
 10,-0.01430671,-0.01105110,-0.00774632,0.01896401,0.01764494,0.0104601
 2,0.00370006,-0.00228318,-0.00216555,0.00012875,0.00015288,-0.00001134
 ,-0.00006733,0.00177893,0.00091837,0.00003466,0.00000650,-0.00003110,-
 0.00002064,0.00001996,-0.00002362,0.00000145,0.00000019,-0.00000108,-0
 .01239311,-0.01259219,-0.00724653,0.00000995,0.00000735,-0.00000368,0.
 00002188,-0.00002221,-0.00001002,0.00018276,0.00003318,0.00007418,-0.0
 0003279,0.00002204,0.00002021,-0.00094879,-0.00035741,0.00108170,-0.00
 065114,-0.00080505,0.00088724,0.00028190,0.00026975,0.00023516,-0.0008
 2664,-0.00110968,0.00003423,0.00001165,-0.00001188,0.00000208,-0.00000
 137,0.00000395,-0.00000399,-0.00006526,0.00006126,0.00003738,0.0001462
 0,0.00002528,0.00007391,0.00099414,0.00125998,0.00058418,0.06848372,0.
 06539390,0.08779142,0.00002422,0.00011906,-0.00003389,0.00236562,0.001
 05719,-0.00214138,-0.00668328,-0.00467933,0.01056094,0.00006911,0.0000
 0455,-0.00002164,0.00119672,-0.00062270,-0.00075536,-0.00379501,-0.004
 24823,-0.00029669,-0.00024162,-0.00039958,-0.00016169,-0.10342320,-0.0
 4776305,0.09952595,0.00012519,0.00290158,0.00076323,-0.00722790,-0.004
 73629,0.01820923,-0.00192207,0.00011001,-0.00004704,0.00345701,0.01506
 448,-0.02886555,-0.00006798,-0.00010249,0.00024963,0.00001358,-0.00004
 045,0.00001565,0.00002608,-0.00001804,0.00004055,0.00005306,-0.0001105
 8,-0.00000658,-0.00003515,-0.00000361,0.00002430,0.00001439,0.00004511
 ,0.00006823,0.00008727,0.00000007,0.00000431,0.00001150,0.00002142,0.0
 0003609,-0.00001938,-0.00006836,0.00013737,-0.00037920,-0.00031801,0.0
 0056503,0.00000851,0.00055346,-0.00011382,0.00071765,-0.00011131,-0.00
 042799,-0.00012259,-0.00001123,0.00000490,0.00004356,-0.00011999,0.000
 10677,-0.00019679,0.00005859,0.00022067,-0.00011961,0.00012460,-0.0000
 3644,-0.00007536,0.00007930,0.00005150,0.00065625,0.00016911,-0.000382
 04,0.11543944,-0.00002075,-0.00010656,-0.00007386,-0.00191295,0.000193
 50,0.00342515,0.01300494,0.01057057,-0.02174144,-0.00007143,0.00002398
 ,-0.00001796,0.00053063,-0.00149704,-0.00089897,-0.00550302,-0.0035699
 5,0.00033113,0.00004947,0.00039482,0.00017380,-0.04553069,-0.08700984,
 0.07465885,0.00186335,-0.00434566,-0.00217120,-0.01018275,-0.00618091,
 0.01987969,-0.00026793,0.00067002,-0.00101343,0.00388796,-0.00816140,0
 .01608152,-0.00000688,-0.00023635,-0.00020509,0.00001329,-0.00000220,0
 .00000639,-0.00001983,0.00001650,-0.00003389,-0.00043569,0.00102580,0.
 00071420,0.00001480,-0.00001607,-0.00002087,-0.00001091,-0.00003083,-0
 .00004468,0.00007442,-0.00011960,-0.00008451,-0.00000259,-0.00003641,0
 .00000247,-0.00012971,0.00003250,-0.00008603,0.00099198,0.00054716,-0.
 00115357,0.00009613,0.00077488,-0.00057729,0.00108201,0.00034372,0.000
 07645,0.00010309,-0.00000204,0.00001746,0.00005392,0.00005144,-0.00005
 718,0.00019409,-0.00036085,-0.00020878,-0.00005341,0.00017013,0.000141
 24,-0.00004817,0.00025271,0.00018201,-0.00080808,0.00087936,0.00059532
 ,0.04304472,0.09572862,0.00006920,0.00004620,0.00001653,0.00450054,-0.
 00097712,-0.00281496,0.00870589,0.00539373,-0.01262837,0.00009619,0.00
 004262,-0.00000178,-0.00007227,-0.00071747,-0.00044817,-0.00256798,-0.
 00258583,0.00129508,-0.00038842,-0.00034296,-0.00019921,0.09194012,0.0
 7653787,-0.21921057,0.00097568,-0.00321315,0.00005802,-0.00256281,-0.0
 0231592,0.00839841,0.00123813,-0.00182677,0.00204098,-0.00454268,0.015
 19246,-0.02270434,-0.00015251,0.00014406,0.00015218,-0.00000854,-0.000
 01033,0.00002391,0.00000338,-0.00002353,0.00003857,-0.00004260,-0.0000
 6386,0.00082736,-0.00005512,-0.00000456,0.00000320,0.00000659,0.000034
 77,0.00007279,-0.00017830,0.00001745,-0.00015085,0.00000136,-0.0000014
 0,-0.00002239,-0.00018853,-0.00001808,0.00012272,0.00056287,0.00052396
 ,-0.00064175,0.00047758,0.00088496,0.00038199,0.00056894,0.00026390,0.
 00005111,-0.00017725,0.00005243,-0.00004821,-0.00005361,-0.00008262,0.
 00008770,-0.00024058,0.00026832,0.00051278,0.00001437,0.00008333,0.000
 05610,-0.00007075,0.00019228,0.00005533,-0.00056461,0.00040220,0.00027
 968,-0.09729426,-0.08789694,0.24439616\\0.00000896,0.00000958,0.000010
 03,-0.00002868,0.00002357,0.00004682,0.00003464,0.00002537,-0.00000522
 ,-0.00000766,0.00000602,-0.00000552,-0.00001512,0.00000174,-0.00000106
 ,0.00000934,-0.00000143,-0.00000388,0.00000101,0.00002648,-0.00000378,
 -0.00005829,-0.00001604,-0.00001060,-0.00000462,0.00000520,0.00000403,
 0.00000318,-0.00000172,0.00000943,0.00002417,0.00000663,-0.00002187,0.
 00001923,-0.00007126,-0.00001767,-0.00001209,0.00001549,-0.00000849,-0
 .00000412,0.00000689,-0.00000281,0.00000325,-0.00000221,-0.00000562,-0
 .00000190,-0.00000457,-0.00000220,-0.00000113,0.00000186,-0.00000483,0
 .00000404,0.00000240,-0.00000592,0.00000607,-0.00000144,-0.00001178,-0
 .00001179,-0.00000541,-0.00000570,-0.00000179,0.00000149,0.00000133,0.
 00000851,-0.00000352,-0.00000173,0.00000321,-0.00000970,0.00000590,-0.
 00000150,0.,0.00000868,0.00000271,0.00000029,0.00000309,0.00001256,0.0
 0000194,0.00000743,0.00001085,0.00001214,0.00000909,0.00000439,-0.0000
 1237,0.00001047,0.00000638,-0.00000191,-0.00000225,-0.00000900,-0.0000
 0847,-0.00000556,-0.00000481,-0.00000703,0.00001019\\\@


 HE THAT FOLLOWS NATURE IS NEVER LOST.

                             -- BACON
 Job cpu time:       0 days 15 hours 45 minutes 47.1 seconds.
 Elapsed time:       0 days  0 hours 59 minutes  8.0 seconds.
 File lengths (MBytes):  RWF=    688 Int=      0 D2E=      0 Chk=     33 Scr=      1
 Normal termination of Gaussian 16 at Sun Nov  4 22:59:17 2018.
