 Entering Gaussian System, Link 0=g16
 Initial command:
 /apps/gaussian/g16a03/g16/l1.exe "/jobfs/local/2011914.r-man2/Gau-29950.inp" -scrdir="/jobfs/local/2011914.r-man2/"
 Entering Link 1 = /apps/gaussian/g16a03/g16/l1.exe PID=     29951.
  
 Copyright (c) 1988,1990,1992,1993,1995,1998,2003,2009,2016,
            Gaussian, Inc.  All Rights Reserved.
  
 This is part of the Gaussian(R) 16 program.  It is based on
 the Gaussian(R) 09 system (copyright 2009, Gaussian, Inc.),
 the Gaussian(R) 03 system (copyright 2003, Gaussian, Inc.),
 the Gaussian(R) 98 system (copyright 1998, Gaussian, Inc.),
 the Gaussian(R) 94 system (copyright 1995, Gaussian, Inc.),
 the Gaussian 92(TM) system (copyright 1992, Gaussian, Inc.),
 the Gaussian 90(TM) system (copyright 1990, Gaussian, Inc.),
 the Gaussian 88(TM) system (copyright 1988, Gaussian, Inc.),
 the Gaussian 86(TM) system (copyright 1986, Carnegie Mellon
 University), and the Gaussian 82(TM) system (copyright 1983,
 Carnegie Mellon University). Gaussian is a federally registered
 trademark of Gaussian, Inc.
  
 This software contains proprietary and confidential information,
 including trade secrets, belonging to Gaussian, Inc.
  
 This software is provided under written license and may be
 used, copied, transmitted, or stored only in accord with that
 written license.
  
 The following legend is applicable only to US Government
 contracts under FAR:
  
                    RESTRICTED RIGHTS LEGEND
  
 Use, reproduction and disclosure by the US Government is
 subject to restrictions as set forth in subparagraphs (a)
 and (c) of the Commercial Computer Software - Restricted
 Rights clause in FAR 52.227-19.
  
 Gaussian, Inc.
 340 Quinnipiac St., Bldg. 40, Wallingford CT 06492
  
  
 ---------------------------------------------------------------
 Warning -- This program may not be used in any manner that
 competes with the business of Gaussian, Inc. or will provide
 assistance to any competitor of Gaussian, Inc.  The licensee
 of this program is prohibited from giving any competitor of
 Gaussian, Inc. access to this program.  By using this program,
 the user acknowledges that Gaussian, Inc. is engaged in the
 business of creating and licensing software in the field of
 computational chemistry and represents and warrants to the
 licensee that it is not a competitor of Gaussian, Inc. and that
 it will not use this program in any manner prohibited above.
 ---------------------------------------------------------------
  

 Cite this work as:
 Gaussian 16, Revision A.03,
 M. J. Frisch, G. W. Trucks, H. B. Schlegel, G. E. Scuseria, 
 M. A. Robb, J. R. Cheeseman, G. Scalmani, V. Barone, 
 G. A. Petersson, H. Nakatsuji, X. Li, M. Caricato, A. V. Marenich, 
 J. Bloino, B. G. Janesko, R. Gomperts, B. Mennucci, H. P. Hratchian, 
 J. V. Ortiz, A. F. Izmaylov, J. L. Sonnenberg, D. Williams-Young, 
 F. Ding, F. Lipparini, F. Egidi, J. Goings, B. Peng, A. Petrone, 
 T. Henderson, D. Ranasinghe, V. G. Zakrzewski, J. Gao, N. Rega, 
 G. Zheng, W. Liang, M. Hada, M. Ehara, K. Toyota, R. Fukuda, 
 J. Hasegawa, M. Ishida, T. Nakajima, Y. Honda, O. Kitao, H. Nakai, 
 T. Vreven, K. Throssell, J. A. Montgomery, Jr., J. E. Peralta, 
 F. Ogliaro, M. J. Bearpark, J. J. Heyd, E. N. Brothers, K. N. Kudin, 
 V. N. Staroverov, T. A. Keith, R. Kobayashi, J. Normand, 
 K. Raghavachari, A. P. Rendell, J. C. Burant, S. S. Iyengar, 
 J. Tomasi, M. Cossi, J. M. Millam, M. Klene, C. Adamo, R. Cammi, 
 J. W. Ochterski, R. L. Martin, K. Morokuma, O. Farkas, 
 J. B. Foresman, and D. J. Fox, Gaussian, Inc., Wallingford CT, 2016.
 
 ******************************************
 Gaussian 16:  ES64L-G16RevA.03 25-Dec-2016
                 4-Nov-2018 
 ******************************************
 %mem=6000mb
 %nproc=24
 Will use up to   24 processors via shared memory.
 %chk=D_1a_4a_L_PSI.inp_extract_23.chk
 ----------------------------------------------------------------------
 #M062X/6-311++G(2d,2p) opt=ModRedundant freq=noraman SCRF=(Solvent=Wat
 er)
 ----------------------------------------------------------------------
 1/18=120,19=15,26=3,38=1/1,3;
 2/9=110,12=2,17=6,18=5,40=1/2;
 3/5=4,6=6,7=1212,11=2,25=1,30=1,70=2201,71=1,72=1,74=-55/1,2,3;
 4//1;
 5/5=2,38=5,53=1/2;
 6/7=2,8=2,9=2,10=2,28=1/1;
 7//1,2,3,16;
 1/18=20,19=15,26=3/3(2);
 2/9=110/2;
 99//99;
 2/9=110/2;
 3/5=4,6=6,7=1212,11=2,25=1,30=1,70=2205,71=1,72=1,74=-55/1,2,3;
 4/5=5,16=3,69=1/1;
 5/5=2,38=5,53=1/2;
 7//1,2,3,16;
 1/18=20,19=15,26=3/3(-5);
 2/9=110/2;
 6/7=2,8=2,9=2,10=2,19=2,28=1/1;
 99/9=1/99;
 ----------------------------
 D_1a_4a_L_PSI.inp_extract_23
 ----------------------------
 Symbolic Z-matrix:
 Charge =  0 Multiplicity = 1
 C                     3.21151   0.77531   0.66834 
 C                     1.21525  -0.7783   -0.74183 
 C                    -1.57344   1.15905  -0.78857 
 C                     2.6672   -0.49884   1.31323 
 C                    -3.2522    0.39689   0.90614 
 O                    -2.74317  -0.91973   0.78992 
 C                     2.17171   1.36969  -0.26619 
 C                    -1.13484  -0.29812  -0.92177 
 C                    -2.17816   1.42675   0.59155 
 C                    -2.26831  -1.22144  -0.50492 
 O                     1.74288   0.42463  -1.23861 
 O                    -0.00788  -0.57692  -0.09921 
 C                     2.17742  -1.45355   0.22403 
 H                     4.1137    0.54777   0.10518 
 H                     3.47368   1.5139    1.42058 
 H                    -2.32385   1.34923  -1.55268 
 H                     3.4335   -0.9841    1.90987 
 H                     1.85153  -0.24841   1.98646 
 H                     1.31496   1.72292   0.29641 
 H                     2.57218   2.20183  -0.82861 
 H                    -1.40757   1.38373   1.35579 
 H                    -2.61417   2.42097   0.62796 
 H                    -3.08282  -1.13451  -1.22028 
 H                    -1.93373  -2.24918  -0.48355 
 H                     3.02666  -1.80091  -0.35814 
 H                     1.69351  -2.32734   0.64663 
 H                     1.06039  -1.39384  -1.61711 
 H                    -4.0982    0.50877   0.23109 
 H                    -3.61123   0.49586   1.92146 
 H                    -0.73928   1.82152  -0.98533 
 H                    -0.88084  -0.51669  -1.95252 
 
 The following ModRedundant input section has been read:
 D       3       8      12       2 F                                           
 

 GradGradGradGradGradGradGradGradGradGradGradGradGradGradGradGradGradGrad
 Berny optimization.
 Initialization pass.
                           ----------------------------
                           !    Initial Parameters    !
                           ! (Angstroms and Degrees)  !
 --------------------------                            --------------------------
 ! Name  Definition              Value          Derivative Info.                !
 --------------------------------------------------------------------------------
 ! R1    R(1,4)                  1.5283         estimate D2E/DX2                !
 ! R2    R(1,7)                  1.5191         estimate D2E/DX2                !
 ! R3    R(1,14)                 1.0876         estimate D2E/DX2                !
 ! R4    R(1,15)                 1.0863         estimate D2E/DX2                !
 ! R5    R(2,11)                 1.4044         estimate D2E/DX2                !
 ! R6    R(2,12)                 1.3963         estimate D2E/DX2                !
 ! R7    R(2,13)                 1.5214         estimate D2E/DX2                !
 ! R8    R(2,27)                 1.0812         estimate D2E/DX2                !
 ! R9    R(3,8)                  1.5276         estimate D2E/DX2                !
 ! R10   R(3,9)                  1.5304         estimate D2E/DX2                !
 ! R11   R(3,16)                 1.0877         estimate D2E/DX2                !
 ! R12   R(3,30)                 1.0832         estimate D2E/DX2                !
 ! R13   R(4,13)                 1.529          estimate D2E/DX2                !
 ! R14   R(4,17)                 1.0857         estimate D2E/DX2                !
 ! R15   R(4,18)                 1.0869         estimate D2E/DX2                !
 ! R16   R(5,6)                  1.4164         estimate D2E/DX2                !
 ! R17   R(5,9)                  1.5209         estimate D2E/DX2                !
 ! R18   R(5,28)                 1.0881         estimate D2E/DX2                !
 ! R19   R(5,29)                 1.0815         estimate D2E/DX2                !
 ! R20   R(6,10)                 1.4118         estimate D2E/DX2                !
 ! R21   R(7,11)                 1.4222         estimate D2E/DX2                !
 ! R22   R(7,19)                 1.0841         estimate D2E/DX2                !
 ! R23   R(7,20)                 1.0813         estimate D2E/DX2                !
 ! R24   R(8,10)                 1.5202         estimate D2E/DX2                !
 ! R25   R(8,12)                 1.4228         estimate D2E/DX2                !
 ! R26   R(8,31)                 1.0839         estimate D2E/DX2                !
 ! R27   R(9,21)                 1.0861         estimate D2E/DX2                !
 ! R28   R(9,22)                 1.0862         estimate D2E/DX2                !
 ! R29   R(10,23)                1.0875         estimate D2E/DX2                !
 ! R30   R(10,24)                1.081          estimate D2E/DX2                !
 ! R31   R(13,25)                1.0866         estimate D2E/DX2                !
 ! R32   R(13,26)                1.0846         estimate D2E/DX2                !
 ! A1    A(4,1,7)              109.9988         estimate D2E/DX2                !
 ! A2    A(4,1,14)             109.8471         estimate D2E/DX2                !
 ! A3    A(4,1,15)             111.1371         estimate D2E/DX2                !
 ! A4    A(7,1,14)             109.3359         estimate D2E/DX2                !
 ! A5    A(7,1,15)             108.9746         estimate D2E/DX2                !
 ! A6    A(14,1,15)            107.494          estimate D2E/DX2                !
 ! A7    A(11,2,12)            111.6157         estimate D2E/DX2                !
 ! A8    A(11,2,13)            111.5396         estimate D2E/DX2                !
 ! A9    A(11,2,27)            104.7795         estimate D2E/DX2                !
 ! A10   A(12,2,13)            109.0166         estimate D2E/DX2                !
 ! A11   A(12,2,27)            109.2218         estimate D2E/DX2                !
 ! A12   A(13,2,27)            110.6001         estimate D2E/DX2                !
 ! A13   A(8,3,9)              111.036          estimate D2E/DX2                !
 ! A14   A(8,3,16)             107.6745         estimate D2E/DX2                !
 ! A15   A(8,3,30)             110.2694         estimate D2E/DX2                !
 ! A16   A(9,3,16)             109.2885         estimate D2E/DX2                !
 ! A17   A(9,3,30)             111.1687         estimate D2E/DX2                !
 ! A18   A(16,3,30)            107.2614         estimate D2E/DX2                !
 ! A19   A(1,4,13)             109.5165         estimate D2E/DX2                !
 ! A20   A(1,4,17)             110.6807         estimate D2E/DX2                !
 ! A21   A(1,4,18)             109.6681         estimate D2E/DX2                !
 ! A22   A(13,4,17)            109.7854         estimate D2E/DX2                !
 ! A23   A(13,4,18)            110.1662         estimate D2E/DX2                !
 ! A24   A(17,4,18)            106.9947         estimate D2E/DX2                !
 ! A25   A(6,5,9)              111.0193         estimate D2E/DX2                !
 ! A26   A(6,5,28)             108.9111         estimate D2E/DX2                !
 ! A27   A(6,5,29)             106.3448         estimate D2E/DX2                !
 ! A28   A(9,5,28)             110.5559         estimate D2E/DX2                !
 ! A29   A(9,5,29)             111.5107         estimate D2E/DX2                !
 ! A30   A(28,5,29)            108.3557         estimate D2E/DX2                !
 ! A31   A(5,6,10)             113.2537         estimate D2E/DX2                !
 ! A32   A(1,7,11)             111.5312         estimate D2E/DX2                !
 ! A33   A(1,7,19)             110.4356         estimate D2E/DX2                !
 ! A34   A(1,7,20)             111.5663         estimate D2E/DX2                !
 ! A35   A(11,7,19)            109.4544         estimate D2E/DX2                !
 ! A36   A(11,7,20)            105.5116         estimate D2E/DX2                !
 ! A37   A(19,7,20)            108.1717         estimate D2E/DX2                !
 ! A38   A(3,8,10)             109.9609         estimate D2E/DX2                !
 ! A39   A(3,8,12)             111.3419         estimate D2E/DX2                !
 ! A40   A(3,8,31)             110.0341         estimate D2E/DX2                !
 ! A41   A(10,8,12)            108.2421         estimate D2E/DX2                !
 ! A42   A(10,8,31)            108.2415         estimate D2E/DX2                !
 ! A43   A(12,8,31)            108.9452         estimate D2E/DX2                !
 ! A44   A(3,9,5)              110.3121         estimate D2E/DX2                !
 ! A45   A(3,9,21)             110.32           estimate D2E/DX2                !
 ! A46   A(3,9,22)             110.4226         estimate D2E/DX2                !
 ! A47   A(5,9,21)             109.1871         estimate D2E/DX2                !
 ! A48   A(5,9,22)             109.2315         estimate D2E/DX2                !
 ! A49   A(21,9,22)            107.3044         estimate D2E/DX2                !
 ! A50   A(6,10,8)             111.8686         estimate D2E/DX2                !
 ! A51   A(6,10,23)            109.5298         estimate D2E/DX2                !
 ! A52   A(6,10,24)            106.8068         estimate D2E/DX2                !
 ! A53   A(8,10,23)            109.2392         estimate D2E/DX2                !
 ! A54   A(8,10,24)            110.6141         estimate D2E/DX2                !
 ! A55   A(23,10,24)           108.7107         estimate D2E/DX2                !
 ! A56   A(2,11,7)             116.1432         estimate D2E/DX2                !
 ! A57   A(2,12,8)             117.132          estimate D2E/DX2                !
 ! A58   A(2,13,4)             112.1914         estimate D2E/DX2                !
 ! A59   A(2,13,25)            107.2187         estimate D2E/DX2                !
 ! A60   A(2,13,26)            108.8311         estimate D2E/DX2                !
 ! A61   A(4,13,25)            109.3242         estimate D2E/DX2                !
 ! A62   A(4,13,26)            111.6179         estimate D2E/DX2                !
 ! A63   A(25,13,26)           107.4528         estimate D2E/DX2                !
 ! D1    D(7,1,4,13)            53.4522         estimate D2E/DX2                !
 ! D2    D(7,1,4,17)           174.6278         estimate D2E/DX2                !
 ! D3    D(7,1,4,18)           -67.5524         estimate D2E/DX2                !
 ! D4    D(14,1,4,13)          -66.9437         estimate D2E/DX2                !
 ! D5    D(14,1,4,17)           54.232          estimate D2E/DX2                !
 ! D6    D(14,1,4,18)          172.0518         estimate D2E/DX2                !
 ! D7    D(15,1,4,13)          174.2279         estimate D2E/DX2                !
 ! D8    D(15,1,4,17)          -64.5964         estimate D2E/DX2                !
 ! D9    D(15,1,4,18)           53.2233         estimate D2E/DX2                !
 ! D10   D(4,1,7,11)           -55.2377         estimate D2E/DX2                !
 ! D11   D(4,1,7,19)            66.7067         estimate D2E/DX2                !
 ! D12   D(4,1,7,20)          -172.953          estimate D2E/DX2                !
 ! D13   D(14,1,7,11)           65.4664         estimate D2E/DX2                !
 ! D14   D(14,1,7,19)         -172.5892         estimate D2E/DX2                !
 ! D15   D(14,1,7,20)          -52.2489         estimate D2E/DX2                !
 ! D16   D(15,1,7,11)         -177.3058         estimate D2E/DX2                !
 ! D17   D(15,1,7,19)          -55.3614         estimate D2E/DX2                !
 ! D18   D(15,1,7,20)           64.9789         estimate D2E/DX2                !
 ! D19   D(12,2,11,7)           68.2907         estimate D2E/DX2                !
 ! D20   D(13,2,11,7)          -53.9317         estimate D2E/DX2                !
 ! D21   D(27,2,11,7)         -173.6238         estimate D2E/DX2                !
 ! D22   D(11,2,12,8)           72.9375         estimate D2E/DX2                !
 ! D23   D(13,2,12,8)         -163.4013         estimate D2E/DX2                !
 ! D24   D(27,2,12,8)          -42.451          estimate D2E/DX2                !
 ! D25   D(11,2,13,4)           51.0107         estimate D2E/DX2                !
 ! D26   D(11,2,13,25)         -69.0271         estimate D2E/DX2                !
 ! D27   D(11,2,13,26)         175.0322         estimate D2E/DX2                !
 ! D28   D(12,2,13,4)          -72.6956         estimate D2E/DX2                !
 ! D29   D(12,2,13,25)         167.2665         estimate D2E/DX2                !
 ! D30   D(12,2,13,26)          51.3259         estimate D2E/DX2                !
 ! D31   D(27,2,13,4)          167.2008         estimate D2E/DX2                !
 ! D32   D(27,2,13,25)          47.1629         estimate D2E/DX2                !
 ! D33   D(27,2,13,26)         -68.7777         estimate D2E/DX2                !
 ! D34   D(9,3,8,10)            50.485          estimate D2E/DX2                !
 ! D35   D(9,3,8,12)           -69.48           estimate D2E/DX2                !
 ! D36   D(9,3,8,31)           169.6232         estimate D2E/DX2                !
 ! D37   D(16,3,8,10)          -69.1183         estimate D2E/DX2                !
 ! D38   D(16,3,8,12)          170.9167         estimate D2E/DX2                !
 ! D39   D(16,3,8,31)           50.0199         estimate D2E/DX2                !
 ! D40   D(30,3,8,10)          174.1591         estimate D2E/DX2                !
 ! D41   D(30,3,8,12)           54.1941         estimate D2E/DX2                !
 ! D42   D(30,3,8,31)          -66.7027         estimate D2E/DX2                !
 ! D43   D(8,3,9,5)            -51.094          estimate D2E/DX2                !
 ! D44   D(8,3,9,21)            69.6213         estimate D2E/DX2                !
 ! D45   D(8,3,9,22)          -171.9317         estimate D2E/DX2                !
 ! D46   D(16,3,9,5)            67.5408         estimate D2E/DX2                !
 ! D47   D(16,3,9,21)         -171.7438         estimate D2E/DX2                !
 ! D48   D(16,3,9,22)          -53.2969         estimate D2E/DX2                !
 ! D49   D(30,3,9,5)          -174.2527         estimate D2E/DX2                !
 ! D50   D(30,3,9,21)          -53.5373         estimate D2E/DX2                !
 ! D51   D(30,3,9,22)           64.9096         estimate D2E/DX2                !
 ! D52   D(1,4,13,2)           -51.8702         estimate D2E/DX2                !
 ! D53   D(1,4,13,25)           66.9349         estimate D2E/DX2                !
 ! D54   D(1,4,13,26)         -174.3248         estimate D2E/DX2                !
 ! D55   D(17,4,13,2)         -173.5855         estimate D2E/DX2                !
 ! D56   D(17,4,13,25)         -54.7804         estimate D2E/DX2                !
 ! D57   D(17,4,13,26)          63.9599         estimate D2E/DX2                !
 ! D58   D(18,4,13,2)           68.8323         estimate D2E/DX2                !
 ! D59   D(18,4,13,25)        -172.3626         estimate D2E/DX2                !
 ! D60   D(18,4,13,26)         -53.6223         estimate D2E/DX2                !
 ! D61   D(9,5,6,10)           -60.3601         estimate D2E/DX2                !
 ! D62   D(28,5,6,10)           61.5949         estimate D2E/DX2                !
 ! D63   D(29,5,6,10)          178.1703         estimate D2E/DX2                !
 ! D64   D(6,5,9,3)             54.9194         estimate D2E/DX2                !
 ! D65   D(6,5,9,21)           -66.4716         estimate D2E/DX2                !
 ! D66   D(6,5,9,22)           176.4664         estimate D2E/DX2                !
 ! D67   D(28,5,9,3)           -66.0717         estimate D2E/DX2                !
 ! D68   D(28,5,9,21)          172.5372         estimate D2E/DX2                !
 ! D69   D(28,5,9,22)           55.4753         estimate D2E/DX2                !
 ! D70   D(29,5,9,3)           173.3108         estimate D2E/DX2                !
 ! D71   D(29,5,9,21)           51.9197         estimate D2E/DX2                !
 ! D72   D(29,5,9,22)          -65.1422         estimate D2E/DX2                !
 ! D73   D(5,6,10,8)            60.3983         estimate D2E/DX2                !
 ! D74   D(5,6,10,23)          -60.8737         estimate D2E/DX2                !
 ! D75   D(5,6,10,24)         -178.435          estimate D2E/DX2                !
 ! D76   D(1,7,11,2)            56.7954         estimate D2E/DX2                !
 ! D77   D(19,7,11,2)          -65.7138         estimate D2E/DX2                !
 ! D78   D(20,7,11,2)          178.1002         estimate D2E/DX2                !
 ! D79   D(3,8,10,6)           -54.4168         estimate D2E/DX2                !
 ! D80   D(3,8,10,23)           67.023          estimate D2E/DX2                !
 ! D81   D(3,8,10,24)         -173.3542         estimate D2E/DX2                !
 ! D82   D(12,8,10,6)           67.4126         estimate D2E/DX2                !
 ! D83   D(12,8,10,23)        -171.1477         estimate D2E/DX2                !
 ! D84   D(12,8,10,24)         -51.5248         estimate D2E/DX2                !
 ! D85   D(31,8,10,6)         -174.6464         estimate D2E/DX2                !
 ! D86   D(31,8,10,23)         -53.2066         estimate D2E/DX2                !
 ! D87   D(31,8,10,24)          66.4163         estimate D2E/DX2                !
 ! D88   D(3,8,12,2)          -108.518          Frozen                          !
 ! D89   D(10,8,12,2)          130.5053         estimate D2E/DX2                !
 ! D90   D(31,8,12,2)           13.0148         estimate D2E/DX2                !
 --------------------------------------------------------------------------------
 Trust Radius=3.00D-01 FncErr=1.00D-07 GrdErr=1.00D-06 EigMax=2.50D+02 EigMin=1.00D-04
 Number of steps in this run=    186 maximum allowed number of steps=    186.
 GradGradGradGradGradGradGradGradGradGradGradGradGradGradGradGradGradGrad

                          Input orientation:                          
 ---------------------------------------------------------------------
 Center     Atomic      Atomic             Coordinates (Angstroms)
 Number     Number       Type             X           Y           Z
 ---------------------------------------------------------------------
      1          6           0        3.211511    0.775312    0.668337
      2          6           0        1.215255   -0.778304   -0.741828
      3          6           0       -1.573443    1.159052   -0.788566
      4          6           0        2.667200   -0.498839    1.313225
      5          6           0       -3.252196    0.396894    0.906141
      6          8           0       -2.743171   -0.919726    0.789915
      7          6           0        2.171709    1.369687   -0.266190
      8          6           0       -1.134837   -0.298122   -0.921770
      9          6           0       -2.178162    1.426749    0.591550
     10          6           0       -2.268310   -1.221439   -0.504922
     11          8           0        1.742880    0.424629   -1.238606
     12          8           0       -0.007876   -0.576921   -0.099213
     13          6           0        2.177424   -1.453553    0.224025
     14          1           0        4.113696    0.547768    0.105183
     15          1           0        3.473683    1.513904    1.420575
     16          1           0       -2.323853    1.349229   -1.552682
     17          1           0        3.433498   -0.984103    1.909866
     18          1           0        1.851534   -0.248408    1.986464
     19          1           0        1.314959    1.722924    0.296414
     20          1           0        2.572183    2.201834   -0.828611
     21          1           0       -1.407571    1.383725    1.355788
     22          1           0       -2.614170    2.420967    0.627960
     23          1           0       -3.082823   -1.134515   -1.220280
     24          1           0       -1.933728   -2.249182   -0.483553
     25          1           0        3.026662   -1.800911   -0.358142
     26          1           0        1.693513   -2.327344    0.646631
     27          1           0        1.060394   -1.393841   -1.617105
     28          1           0       -4.098204    0.508773    0.231092
     29          1           0       -3.611232    0.495859    1.921460
     30          1           0       -0.739279    1.821522   -0.985326
     31          1           0       -0.880836   -0.516689   -1.952523
 ---------------------------------------------------------------------
                    Distance matrix (angstroms):
                    1          2          3          4          5
     1  C    0.000000
     2  C    2.896088   0.000000
     3  C    5.016533   3.395934   0.000000
     4  C    1.528272   2.531697   5.014896   0.000000
     5  C    6.479140   4.904591   2.504222   6.000609   0.000000
     6  O    6.192429   4.246807   2.860277   5.451891   1.416370
     7  C    1.519148   2.398937   3.787269   2.496288   5.633776
     8  C    4.750941   2.405387   1.527571   4.414858   2.882276
     9  C    5.429442   4.260919   1.530381   5.263671   1.520894
    10  C    5.949117   3.519619   2.496003   5.309149   2.361807
    11  O    2.432342   1.404359   3.426355   2.866880   5.436129
    12  O    3.575209   1.396266   2.437173   3.026072   3.533364
    13  C    2.496916   1.521382   4.681885   1.528959   5.776695
    14  H    1.087592   3.298008   5.789301   2.155714   7.410848
    15  H    1.086331   3.876945   5.520843   2.170961   6.837383
    16  H    5.991875   4.208226   1.087730   6.044782   2.795456
    17  H    2.164766   3.463298   6.078166   1.085668   6.900226
    18  H    2.152905   2.851178   4.627332   1.086866   5.256574
    19  H    2.152488   2.709987   3.136559   2.792614   4.794687
    20  H    2.164384   3.275669   4.274952   3.448206   6.339603
    21  H    4.709424   3.994193   2.162463   4.488833   2.139780
    22  H    6.053790   5.174568   2.163813   6.073527   2.140405
    23  H    6.843461   4.339271   2.779398   6.315497   2.625941
    24  H    6.078478   3.485152   3.440770   5.240291   3.266699
    25  H    2.779344   2.115215   5.487040   2.148970   6.771471
    26  H    3.454166   2.134496   4.988762   2.176200   5.652332
    27  H    3.815203   1.081193   3.760430   3.459724   5.307724
    28  H    7.327630   5.553016   2.799461   6.925098   1.088089
    29  H    6.942495   5.657877   3.454946   6.385772   1.081468
    30  H    4.408843   3.261685   1.083241   4.719270   3.452820
    31  H    5.028467   2.434712   2.154671   4.822239   3.824911
                    6          7          8          9         10
     6  O    0.000000
     7  C    5.523841   0.000000
     8  C    2.429608   3.760933   0.000000
     9  C    2.421679   4.434000   2.520683   0.000000
    10  C    1.411781   5.146328   1.520210   2.867626   0.000000
    11  O    5.103611   1.422189   2.983959   4.441654   4.397440
    12  O    2.896533   2.927073   1.422804   3.033478   2.385281
    13  C    4.981712   2.865489   3.690385   5.234725   4.511074
    14  H    7.045497   2.141210   5.414542   6.371549   6.650738
    15  H    6.705935   2.135676   5.477999   5.712988   6.645308
    16  H    3.288122   4.676062   2.127340   2.150573   2.776548
    17  H    6.277713   3.444947   5.418341   6.248271   6.196624
    18  H    4.795176   2.791987   4.168778   4.581527   4.911915
    19  H    4.867809   1.084122   3.401485   3.518056   4.706509
    20  H    6.373127   1.081280   4.472187   5.018306   5.937503
    21  H    2.722118   3.929663   2.844339   1.086150   3.315116
    22  H    3.347103   4.980897   3.461724   1.086231   3.830165
    23  H    2.049971   5.898425   2.140867   3.265151   1.087531
    24  H    2.011062   5.477050   2.153345   3.837716   1.081045
    25  H    5.948571   3.285132   4.460283   6.197572   5.328608
    26  H    4.656832   3.837962   3.818008   5.393155   4.271433
    27  H    4.526106   3.270639   2.550124   4.829299   3.513822
    28  H    2.046706   6.348249   3.280505   2.158511   2.623712
    29  H    2.009429   6.244341   3.853167   2.165388   3.261883
    30  H    3.831645   3.032353   2.157173   2.170891   3.439235
    31  H    3.339416   3.964866   1.083854   3.454318   2.125395
                   11         12         13         14         15
    11  O    0.000000
    12  O    2.316563   0.000000
    13  C    2.419852   2.376658   0.000000
    14  H    2.727948   4.277155   2.787213   0.000000
    15  H    3.354615   4.336192   3.452220   1.753081   0.000000
    16  H    4.182325   3.344604   5.592296   6.695737   6.517576
    17  H    3.841301   4.005652   2.154104   2.462961   2.545793
    18  H    3.296341   2.813428   2.159808   3.048031   2.461167
    19  H    2.055474   2.682480   3.292278   3.041462   2.442850
    20  H    2.003571   3.861373   3.824360   2.446256   2.518886
    21  H    4.192384   2.814304   4.709907   5.722519   4.883419
    22  H    5.143279   4.038426   6.175309   7.003310   6.205881
    23  H    5.071358   3.320091   5.464247   7.508450   7.548245
    24  H    4.608342   2.579357   4.246794   6.688862   6.857595
    25  H    2.715942   3.282319   1.086638   2.629184   3.788359
    26  H    3.336152   2.552448   1.084563   3.796936   4.303856
    27  H    1.978859   2.027944   2.154317   4.007340   4.848345
    28  H    6.023733   4.244834   6.575278   8.212958   7.730371
    29  H    6.217524   4.268273   6.339561   7.935746   7.175188
    30  H    2.859471   2.659450   4.549264   5.134494   4.861279
    31  H    2.877437   2.049499   3.868854   5.505685   5.870514
                   16         17         18         19         20
    16  H    0.000000
    17  H    7.112016   0.000000
    18  H    5.701917   1.746346   0.000000
    19  H    4.098751   3.797292   2.651477   0.000000
    20  H    5.022189   4.288510   3.801009   1.753753   0.000000
    21  H    3.049584   5.417524   3.699105   2.941003   4.612954
    22  H    2.447061   7.057767   5.377138   4.004403   5.391463
    23  H    2.618303   7.230690   5.951157   5.459469   6.577516
    24  H    3.774095   6.011322   4.942903   5.190370   6.343015
    25  H    6.322841   2.444699   3.047683   3.971874   4.055843
    26  H    5.873108   2.535273   2.478326   4.082968   4.843744
    27  H    4.356801   4.270718   3.863111   3.666140   3.979461
    28  H    2.652647   7.859612   6.249323   5.548041   6.963009
    29  H    3.802006   7.198517   5.513617   5.330462   6.979102
    30  H    1.748093   5.802218   4.452916   2.423319   3.336911
    31  H    2.392451   5.809475   4.801400   3.859417   4.536175
                   21         22         23         24         25
    21  H    0.000000
    22  H    1.749710   0.000000
    23  H    3.972924   4.034486   0.000000
    24  H    4.105853   4.848583   1.762291   0.000000
    25  H    5.722052   7.114467   6.205898   4.982183   0.000000
    26  H    4.887909   6.411157   5.265129   3.800040   1.750425
    27  H    4.758552   5.752869   4.170248   3.313807   2.370001
    28  H    3.044666   2.452824   2.416169   3.577987   7.513026
    29  H    2.442215   2.524543   3.578808   4.016635   7.384672
    30  H    2.473680   2.545043   3.779624   4.271898   5.262860
    31  H    3.851486   4.277051   2.401382   2.503595   4.411328
                   26         27         28         29         30
    26  H    0.000000
    27  H    2.529183   0.000000
    28  H    6.462215   5.800595   0.000000
    29  H    6.142962   6.157637   1.759162   0.000000
    30  H    5.078863   3.738519   3.805964   4.295917   0.000000
    31  H    4.081831   2.156450   4.021344   4.846448   2.534312
                   31
    31  H    0.000000
 Stoichiometry    C10H18O3
 Framework group  C1[X(C10H18O3)]
 Deg. of freedom    87
 Full point group                 C1      NOp   1
 Largest Abelian subgroup         C1      NOp   1
 Largest concise Abelian subgroup C1      NOp   1
                         Standard orientation:                         
 ---------------------------------------------------------------------
 Center     Atomic      Atomic             Coordinates (Angstroms)
 Number     Number       Type             X           Y           Z
 ---------------------------------------------------------------------
      1          6           0        3.211511    0.775312    0.668337
      2          6           0        1.215255   -0.778304   -0.741828
      3          6           0       -1.573443    1.159052   -0.788566
      4          6           0        2.667200   -0.498839    1.313225
      5          6           0       -3.252196    0.396894    0.906141
      6          8           0       -2.743171   -0.919726    0.789915
      7          6           0        2.171709    1.369687   -0.266190
      8          6           0       -1.134837   -0.298122   -0.921770
      9          6           0       -2.178162    1.426749    0.591550
     10          6           0       -2.268310   -1.221439   -0.504922
     11          8           0        1.742880    0.424629   -1.238606
     12          8           0       -0.007876   -0.576921   -0.099213
     13          6           0        2.177424   -1.453553    0.224025
     14          1           0        4.113696    0.547768    0.105183
     15          1           0        3.473683    1.513904    1.420575
     16          1           0       -2.323853    1.349229   -1.552682
     17          1           0        3.433498   -0.984103    1.909866
     18          1           0        1.851534   -0.248408    1.986464
     19          1           0        1.314959    1.722924    0.296414
     20          1           0        2.572183    2.201834   -0.828611
     21          1           0       -1.407571    1.383725    1.355788
     22          1           0       -2.614170    2.420967    0.627960
     23          1           0       -3.082823   -1.134515   -1.220280
     24          1           0       -1.933728   -2.249182   -0.483553
     25          1           0        3.026662   -1.800911   -0.358142
     26          1           0        1.693513   -2.327344    0.646631
     27          1           0        1.060394   -1.393841   -1.617105
     28          1           0       -4.098204    0.508773    0.231092
     29          1           0       -3.611232    0.495859    1.921460
     30          1           0       -0.739279    1.821522   -0.985326
     31          1           0       -0.880836   -0.516689   -1.952523
 ---------------------------------------------------------------------
 Rotational constants (GHZ):           1.5655846           0.4779553           0.4526171
 Standard basis: 6-311++G(2d,2p) (5D, 7F)
 There are   557 symmetry adapted cartesian basis functions of A   symmetry.
 There are   531 symmetry adapted basis functions of A   symmetry.
   531 basis functions,   762 primitive gaussians,   557 cartesian basis functions
    51 alpha electrons       51 beta electrons
       nuclear repulsion energy       908.2570127599 Hartrees.
 NAtoms=   31 NActive=   31 NUniq=   31 SFac= 1.00D+00 NAtFMM=   60 NAOKFM=F Big=F
 Integral buffers will be    131072 words long.
 Raffenetti 2 integral format.
 Two-electron integral symmetry is turned on.
 ------------------------------------------------------------------------------
 Polarizable Continuum Model (PCM)
 =================================
 Model                : PCM.
 Atomic radii         : UFF (Universal Force Field).
 Polarization charges : Total charges.
 Charge compensation  : None.
 Solution method      : On-the-fly selection.
 Cavity type          : Scaled VdW (van der Waals Surface) (Alpha=1.100).
 Cavity algorithm     : GePol (No added spheres)
                        Default sphere list used, NSphG=   31.
                        Lebedev-Laikov grids with approx.  5.0 points / Ang**2.
                        Smoothing algorithm: York/Karplus (Gamma=1.0000).
                        Polarization charges: spherical gaussians, with
                                              point-specific exponents (IZeta= 3).
                        Self-potential: point-specific (ISelfS= 7).
                        Self-field    : sphere-specific E.n sum rule (ISelfD= 2).
 1st derivatives      : Analytical E(r).r(x)/FMM algorithm (CHGder, D1EAlg=3).
                        Cavity 1st derivative terms included.
 Solvent              : Water, Eps=  78.355300 Eps(inf)=   1.777849
 ------------------------------------------------------------------------------
 One-electron integrals computed using PRISM.
 NBasis=   531 RedAO= T EigKep=  4.33D-06  NBF=   531
 NBsUse=   531 1.00D-06 EigRej= -1.00D+00 NBFU=   531
 ExpMin= 3.60D-02 ExpMax= 8.59D+03 ExpMxC= 1.30D+03 IAcc=3 IRadAn=         5 AccDes= 0.00D+00
 Harris functional with IExCor= 1009 and IRadAn=       5 diagonalized for initial guess.
 HarFok:  IExCor= 1009 AccDes= 0.00D+00 IRadAn=         5 IDoV= 1 UseB2=F ITyADJ=14
 ICtDFT=  3500011 ScaDFX=  1.000000  1.000000  1.000000  1.000000
 FoFCou: FMM=F IPFlag=           0 FMFlag=      100000 FMFlg1=           0
         NFxFlg=           0 DoJE=T BraDBF=F KetDBF=T FulRan=T
         wScrn=  0.000000 ICntrl=       500 IOpCl=  0 I1Cent=   200000004 NGrid=           0
         NMat0=    1 NMatS0=      1 NMatT0=    0 NMatD0=    1 NMtDS0=    0 NMtDT0=    0
 Petite list used in FoFCou.
 Requested convergence on RMS density matrix=1.00D-08 within 128 cycles.
 Requested convergence on MAX density matrix=1.00D-06.
 Requested convergence on             energy=1.00D-06.
 No special actions if energy rises.
 Inv3:  Mode=1 IEnd=    12656748.
 Iteration    1 A*A^-1 deviation from unit magnitude is 4.22D-15 for   2050.
 Iteration    1 A*A^-1 deviation from orthogonality  is 1.90D-15 for   1709    478.
 Iteration    1 A^-1*A deviation from unit magnitude is 4.22D-15 for   2050.
 Iteration    1 A^-1*A deviation from orthogonality  is 5.00D-14 for   1967   1958.
 Error on total polarization charges =  0.01470
 SCF Done:  E(RM062X) =  -617.502026410     A.U. after   13 cycles
            NFock= 13  Conv=0.24D-08     -V/T= 2.0035

 **********************************************************************

            Population analysis using the SCF density.

 **********************************************************************

 Orbital symmetries:
       Occupied  (A) (A) (A) (A) (A) (A) (A) (A) (A) (A) (A) (A)
                 (A) (A) (A) (A) (A) (A) (A) (A) (A) (A) (A) (A)
                 (A) (A) (A) (A) (A) (A) (A) (A) (A) (A) (A) (A)
                 (A) (A) (A) (A) (A) (A) (A) (A) (A) (A) (A) (A)
                 (A) (A) (A)
       Virtual   (A) (A) (A) (A) (A) (A) (A) (A) (A) (A) (A) (A)
                 (A) (A) (A) (A) (A) (A) (A) (A) (A) (A) (A) (A)
                 (A) (A) (A) (A) (A) (A) (A) (A) (A) (A) (A) (A)
                 (A) (A) (A) (A) (A) (A) (A) (A) (A) (A) (A) (A)
                 (A) (A) (A) (A) (A) (A) (A) (A) (A) (A) (A) (A)
                 (A) (A) (A) (A) (A) (A) (A) (A) (A) (A) (A) (A)
                 (A) (A) (A) (A) (A) (A) (A) (A) (A) (A) (A) (A)
                 (A) (A) (A) (A) (A) (A) (A) (A) (A) (A) (A) (A)
                 (A) (A) (A) (A) (A) (A) (A) (A) (A) (A) (A) (A)
                 (A) (A) (A) (A) (A) (A) (A) (A) (A) (A) (A) (A)
                 (A) (A) (A) (A) (A) (A) (A) (A) (A) (A) (A) (A)
                 (A) (A) (A) (A) (A) (A) (A) (A) (A) (A) (A) (A)
                 (A) (A) (A) (A) (A) (A) (A) (A) (A) (A) (A) (A)
                 (A) (A) (A) (A) (A) (A) (A) (A) (A) (A) (A) (A)
                 (A) (A) (A) (A) (A) (A) (A) (A) (A) (A) (A) (A)
                 (A) (A) (A) (A) (A) (A) (A) (A) (A) (A) (A) (A)
                 (A) (A) (A) (A) (A) (A) (A) (A) (A) (A) (A) (A)
                 (A) (A) (A) (A) (A) (A) (A) (A) (A) (A) (A) (A)
                 (A) (A) (A) (A) (A) (A) (A) (A) (A) (A) (A) (A)
                 (A) (A) (A) (A) (A) (A) (A) (A) (A) (A) (A) (A)
                 (A) (A) (A) (A) (A) (A) (A) (A) (A) (A) (A) (A)
                 (A) (A) (A) (A) (A) (A) (A) (A) (A) (A) (A) (A)
                 (A) (A) (A) (A) (A) (A) (A) (A) (A) (A) (A) (A)
                 (A) (A) (A) (A) (A) (A) (A) (A) (A) (A) (A) (A)
                 (A) (A) (A) (A) (A) (A) (A) (A) (A) (A) (A) (A)
                 (A) (A) (A) (A) (A) (A) (A) (A) (A) (A) (A) (A)
                 (A) (A) (A) (A) (A) (A) (A) (A) (A) (A) (A) (A)
                 (A) (A) (A) (A) (A) (A) (A) (A) (A) (A) (A) (A)
                 (A) (A) (A) (A) (A) (A) (A) (A) (A) (A) (A) (A)
                 (A) (A) (A) (A) (A) (A) (A) (A) (A) (A) (A) (A)
                 (A) (A) (A) (A) (A) (A) (A) (A) (A) (A) (A) (A)
                 (A) (A) (A) (A) (A) (A) (A) (A) (A) (A) (A) (A)
                 (A) (A) (A) (A) (A) (A) (A) (A) (A) (A) (A) (A)
                 (A) (A) (A) (A) (A) (A) (A) (A) (A) (A) (A) (A)
                 (A) (A) (A) (A) (A) (A) (A) (A) (A) (A) (A) (A)
                 (A) (A) (A) (A) (A) (A) (A) (A) (A) (A) (A) (A)
                 (A) (A) (A) (A) (A) (A) (A) (A) (A) (A) (A) (A)
                 (A) (A) (A) (A) (A) (A) (A) (A) (A) (A) (A) (A)
                 (A) (A) (A) (A) (A) (A) (A) (A) (A) (A) (A) (A)
                 (A) (A) (A) (A) (A) (A) (A) (A) (A) (A) (A) (A)
 The electronic state is 1-A.
 Alpha  occ. eigenvalues --  -19.62739 -19.62681 -19.62638 -10.63338 -10.58699
 Alpha  occ. eigenvalues --  -10.57801 -10.57698 -10.57608 -10.53023 -10.52948
 Alpha  occ. eigenvalues --  -10.52896 -10.52795 -10.52741  -1.20070  -1.16534
 Alpha  occ. eigenvalues --   -1.13301  -0.90901  -0.89668  -0.87367  -0.84717
 Alpha  occ. eigenvalues --   -0.74457  -0.74047  -0.73169  -0.71879  -0.66428
 Alpha  occ. eigenvalues --   -0.62840  -0.59800  -0.58063  -0.57810  -0.55499
 Alpha  occ. eigenvalues --   -0.54679  -0.53225  -0.51958  -0.51243  -0.50383
 Alpha  occ. eigenvalues --   -0.48201  -0.46942  -0.46041  -0.45583  -0.44804
 Alpha  occ. eigenvalues --   -0.43593  -0.43011  -0.41355  -0.40210  -0.39209
 Alpha  occ. eigenvalues --   -0.38368  -0.37144  -0.35961  -0.35238  -0.33376
 Alpha  occ. eigenvalues --   -0.31609
 Alpha virt. eigenvalues --   -0.00153   0.00819   0.00836   0.01135   0.02256
 Alpha virt. eigenvalues --    0.02558   0.02734   0.03239   0.03391   0.04723
 Alpha virt. eigenvalues --    0.04821   0.04948   0.05497   0.05636   0.07244
 Alpha virt. eigenvalues --    0.07659   0.07939   0.08579   0.08737   0.09087
 Alpha virt. eigenvalues --    0.09828   0.10665   0.11150   0.11762   0.11787
 Alpha virt. eigenvalues --    0.12202   0.12801   0.13062   0.13302   0.13741
 Alpha virt. eigenvalues --    0.13932   0.14073   0.14311   0.14655   0.14930
 Alpha virt. eigenvalues --    0.15098   0.15539   0.15699   0.15825   0.16243
 Alpha virt. eigenvalues --    0.16609   0.16886   0.17327   0.17458   0.17898
 Alpha virt. eigenvalues --    0.18348   0.18612   0.18993   0.19161   0.19635
 Alpha virt. eigenvalues --    0.19966   0.20088   0.20833   0.21315   0.21688
 Alpha virt. eigenvalues --    0.22373   0.22636   0.23335   0.23845   0.24171
 Alpha virt. eigenvalues --    0.24546   0.25754   0.25796   0.26193   0.26953
 Alpha virt. eigenvalues --    0.27325   0.27602   0.28259   0.28746   0.29264
 Alpha virt. eigenvalues --    0.29801   0.30312   0.30897   0.31242   0.32345
 Alpha virt. eigenvalues --    0.33036   0.33076   0.33476   0.34081   0.34645
 Alpha virt. eigenvalues --    0.35254   0.35314   0.35580   0.35967   0.36694
 Alpha virt. eigenvalues --    0.36984   0.37180   0.37549   0.37823   0.37970
 Alpha virt. eigenvalues --    0.38435   0.38782   0.39555   0.40239   0.40621
 Alpha virt. eigenvalues --    0.41488   0.42298   0.43072   0.44578   0.45763
 Alpha virt. eigenvalues --    0.46289   0.48025   0.49379   0.50533   0.50774
 Alpha virt. eigenvalues --    0.51873   0.52069   0.53801   0.54710   0.55612
 Alpha virt. eigenvalues --    0.56903   0.57311   0.58046   0.59475   0.59715
 Alpha virt. eigenvalues --    0.60388   0.60547   0.61323   0.61781   0.62250
 Alpha virt. eigenvalues --    0.62409   0.62815   0.63434   0.63544   0.64744
 Alpha virt. eigenvalues --    0.64943   0.65129   0.66667   0.66769   0.67117
 Alpha virt. eigenvalues --    0.67494   0.68398   0.69498   0.69862   0.70162
 Alpha virt. eigenvalues --    0.70587   0.70994   0.71850   0.72424   0.73213
 Alpha virt. eigenvalues --    0.73930   0.74713   0.74902   0.75087   0.75797
 Alpha virt. eigenvalues --    0.76414   0.76807   0.77737   0.78932   0.79434
 Alpha virt. eigenvalues --    0.79956   0.82145   0.82977   0.85559   0.86370
 Alpha virt. eigenvalues --    0.86772   0.87695   0.87959   0.88437   0.90057
 Alpha virt. eigenvalues --    0.91305   0.92263   0.94073   0.96134   0.96847
 Alpha virt. eigenvalues --    0.97839   0.98466   0.99788   1.00907   1.01907
 Alpha virt. eigenvalues --    1.02658   1.04034   1.04715   1.06420   1.06827
 Alpha virt. eigenvalues --    1.07446   1.09145   1.10361   1.10385   1.11371
 Alpha virt. eigenvalues --    1.13138   1.13753   1.15033   1.16291   1.16506
 Alpha virt. eigenvalues --    1.17802   1.18085   1.19419   1.19783   1.20260
 Alpha virt. eigenvalues --    1.21867   1.22694   1.22992   1.24337   1.25282
 Alpha virt. eigenvalues --    1.25381   1.25816   1.26084   1.27517   1.27794
 Alpha virt. eigenvalues --    1.28406   1.29455   1.30414   1.31329   1.32147
 Alpha virt. eigenvalues --    1.32933   1.33546   1.33799   1.34509   1.35524
 Alpha virt. eigenvalues --    1.35993   1.36234   1.37357   1.37553   1.38550
 Alpha virt. eigenvalues --    1.39072   1.40378   1.40468   1.41711   1.41720
 Alpha virt. eigenvalues --    1.42240   1.42902   1.43529   1.45106   1.45727
 Alpha virt. eigenvalues --    1.45964   1.46534   1.47479   1.47788   1.48481
 Alpha virt. eigenvalues --    1.48646   1.49434   1.50078   1.50950   1.51205
 Alpha virt. eigenvalues --    1.52387   1.53182   1.54659   1.55232   1.55488
 Alpha virt. eigenvalues --    1.56175   1.57021   1.58091   1.58913   1.59621
 Alpha virt. eigenvalues --    1.60027   1.60928   1.61239   1.62405   1.62839
 Alpha virt. eigenvalues --    1.63258   1.63914   1.64599   1.65398   1.66026
 Alpha virt. eigenvalues --    1.66680   1.67749   1.68903   1.71259   1.72225
 Alpha virt. eigenvalues --    1.74768   1.75312   1.75961   1.77160   1.78241
 Alpha virt. eigenvalues --    1.78761   1.79628   1.80614   1.82409   1.83414
 Alpha virt. eigenvalues --    1.86811   1.87104   1.91399   1.97215   2.00696
 Alpha virt. eigenvalues --    2.03721   2.07778   2.13867   2.19605   2.21658
 Alpha virt. eigenvalues --    2.24994   2.27445   2.30940   2.33247   2.40274
 Alpha virt. eigenvalues --    2.40882   2.43509   2.45389   2.45713   2.50436
 Alpha virt. eigenvalues --    2.61095   2.77013   2.77792   2.79936   2.81061
 Alpha virt. eigenvalues --    2.81605   2.87299   2.91860   2.93054   2.93906
 Alpha virt. eigenvalues --    2.95989   2.97157   2.99200   3.01468   3.03630
 Alpha virt. eigenvalues --    3.06374   3.06958   3.09488   3.10573   3.11457
 Alpha virt. eigenvalues --    3.13524   3.15712   3.17977   3.19178   3.20645
 Alpha virt. eigenvalues --    3.24002   3.30322   3.31310   3.33024   3.34221
 Alpha virt. eigenvalues --    3.35900   3.36587   3.38743   3.40207   3.41055
 Alpha virt. eigenvalues --    3.41450   3.44001   3.44212   3.45872   3.47767
 Alpha virt. eigenvalues --    3.48485   3.50026   3.50647   3.51538   3.52393
 Alpha virt. eigenvalues --    3.53649   3.54365   3.54404   3.54776   3.56336
 Alpha virt. eigenvalues --    3.56952   3.57738   3.58257   3.59038   3.59943
 Alpha virt. eigenvalues --    3.60529   3.61995   3.62480   3.64604   3.65255
 Alpha virt. eigenvalues --    3.66340   3.67628   3.67921   3.69082   3.69399
 Alpha virt. eigenvalues --    3.69697   3.70525   3.71649   3.72708   3.74184
 Alpha virt. eigenvalues --    3.74647   3.75185   3.75822   3.76960   3.77624
 Alpha virt. eigenvalues --    3.78500   3.79906   3.82740   3.83159   3.84703
 Alpha virt. eigenvalues --    3.85782   3.89536   3.89904   3.90344   3.92686
 Alpha virt. eigenvalues --    3.93386   3.94432   3.94816   3.96517   3.98330
 Alpha virt. eigenvalues --    3.99183   4.00253   4.02026   4.03094   4.04035
 Alpha virt. eigenvalues --    4.05437   4.05599   4.06602   4.07267   4.08163
 Alpha virt. eigenvalues --    4.08598   4.08803   4.09059   4.09611   4.10791
 Alpha virt. eigenvalues --    4.11632   4.12840   4.13913   4.14568   4.15793
 Alpha virt. eigenvalues --    4.16349   4.17182   4.17826   4.18590   4.20952
 Alpha virt. eigenvalues --    4.22632   4.22831   4.24428   4.25755   4.27922
 Alpha virt. eigenvalues --    4.28563   4.28825   4.31256   4.31592   4.32268
 Alpha virt. eigenvalues --    4.32837   4.33921   4.34279   4.35905   4.38165
 Alpha virt. eigenvalues --    4.42787   4.43214   4.44619   4.45781   4.47216
 Alpha virt. eigenvalues --    4.58382   4.62142   4.74490   4.75586   4.82257
 Alpha virt. eigenvalues --    4.85181   4.94709   4.95492   5.00138   5.03730
 Alpha virt. eigenvalues --    5.06712   5.07229   5.07621   5.08626   5.11959
 Alpha virt. eigenvalues --    5.13072   5.14321   5.14530   5.32329   5.39027
 Alpha virt. eigenvalues --    5.44340   5.57346   5.58679   5.65436   5.86547
 Alpha virt. eigenvalues --    5.87191   6.08155   7.02203   7.05471   7.06892
 Alpha virt. eigenvalues --    7.09998   7.10496   7.12899   7.17183   7.18917
 Alpha virt. eigenvalues --    7.28267   7.37258   7.37700   7.43738   7.54003
 Alpha virt. eigenvalues --    7.55047   7.67350  23.95691  23.98083  24.06350
 Alpha virt. eigenvalues --   24.07973  24.10707  24.11498  24.14530  24.15575
 Alpha virt. eigenvalues --   24.16930  24.20527  50.14558  50.19091  50.26018
          Condensed to atoms (all electrons):
               1          2          3          4          5          6
     1  C    5.883949   0.056181  -0.085927  -0.040932   0.003016   0.000235
     2  C    0.056181   6.915873   0.218629  -0.009168   0.025291  -0.012228
     3  C   -0.085927   0.218629   7.239294   0.062096  -0.214968  -0.002685
     4  C   -0.040932  -0.009168   0.062096   5.743704   0.007110  -0.000295
     5  C    0.003016   0.025291  -0.214968   0.007110   5.471139   0.113903
     6  O    0.000235  -0.012228  -0.002685  -0.000295   0.113903   8.304857
     7  C   -0.102064  -0.436620  -0.002599   0.001408  -0.006774  -0.000105
     8  C    0.112156  -0.871173  -1.462082  -0.065759   0.238910   0.023002
     9  C    0.006873   0.053669  -0.199046  -0.025106   0.123974  -0.001151
    10  C    0.015753   0.128540   0.177847   0.020679  -0.215485   0.107085
    11  O   -0.084028   0.329831  -0.106808   0.003386   0.002489  -0.000426
    12  O   -0.032938   0.195102   0.060411  -0.002158  -0.010821   0.024482
    13  C   -0.048473  -0.817344  -0.153565  -0.226971  -0.009564   0.008378
    14  H    0.477906   0.026809   0.001108  -0.015703   0.000026  -0.000009
    15  H    0.441646  -0.003239   0.003122  -0.039895  -0.000048  -0.000012
    16  H    0.000613   0.005812   0.492449  -0.000248  -0.026576   0.001726
    17  H   -0.029660   0.020452   0.000263   0.431396   0.000169  -0.000006
    18  H   -0.085017   0.002875   0.004286   0.523945   0.001739  -0.000162
    19  H   -0.109235   0.037851   0.043557   0.013811   0.001789   0.000823
    20  H   -0.005648  -0.008621   0.007282   0.002404  -0.000728   0.000011
    21  H    0.006160  -0.018789  -0.004378  -0.002807  -0.112297  -0.012900
    22  H   -0.001469   0.002811  -0.031049  -0.000191  -0.023672   0.009408
    23  H   -0.000067  -0.000084  -0.041057   0.000485   0.006954  -0.059123
    24  H    0.000889  -0.008200  -0.002837  -0.004102   0.004181  -0.076883
    25  H   -0.014078  -0.160513  -0.003478  -0.020906  -0.000288  -0.000027
    26  H   -0.006722  -0.017454   0.011569  -0.035114  -0.000018   0.000793
    27  H    0.004796   0.537961   0.018879   0.002470   0.002883   0.000278
    28  H    0.000101  -0.002410  -0.053912   0.000115   0.458939  -0.061484
    29  H   -0.000122   0.001803   0.008460  -0.000903   0.449455  -0.064910
    30  H   -0.011287  -0.010267   0.454442   0.001627  -0.011752  -0.004210
    31  H    0.009517  -0.045406  -0.023054  -0.003564  -0.013542   0.007261
               7          8          9         10         11         12
     1  C   -0.102064   0.112156   0.006873   0.015753  -0.084028  -0.032938
     2  C   -0.436620  -0.871173   0.053669   0.128540   0.329831   0.195102
     3  C   -0.002599  -1.462082  -0.199046   0.177847  -0.106808   0.060411
     4  C    0.001408  -0.065759  -0.025106   0.020679   0.003386  -0.002158
     5  C   -0.006774   0.238910   0.123974  -0.215485   0.002489  -0.010821
     6  O   -0.000105   0.023002  -0.001151   0.107085  -0.000426   0.024482
     7  C    5.455079   0.098518   0.006854  -0.018301   0.135881   0.017071
     8  C    0.098518   7.964954  -0.110203  -0.519936   0.075946  -0.040924
     9  C    0.006854  -0.110203   5.558690   0.099999   0.001601  -0.038946
    10  C   -0.018301  -0.519936   0.099999   5.932785   0.010584  -0.131454
    11  O    0.135881   0.075946   0.001601   0.010584   8.176625  -0.033170
    12  O    0.017071  -0.040924  -0.038946  -0.131454  -0.033170   8.297387
    13  C    0.213785   0.234840   0.023541  -0.070247  -0.076240  -0.063031
    14  H   -0.090132  -0.005659   0.000012   0.000494   0.000988  -0.000336
    15  H   -0.039143  -0.000893   0.000016  -0.000194   0.010260   0.000585
    16  H   -0.002586  -0.071238  -0.038325   0.002836   0.000008   0.005024
    17  H    0.014730   0.002020  -0.001320   0.000237  -0.005414   0.000544
    18  H    0.002388  -0.009492   0.000743  -0.004012   0.002306  -0.003066
    19  H    0.460765  -0.055235  -0.012288   0.001695  -0.026980   0.010649
    20  H    0.431073   0.000719  -0.001749   0.000481  -0.071694  -0.000168
    21  H   -0.001289  -0.018074   0.487169   0.013654   0.001077   0.013873
    22  H    0.000836  -0.025535   0.437236   0.002758  -0.001161   0.001962
    23  H    0.000533  -0.067784   0.030233   0.456753   0.000285   0.014479
    24  H    0.001138  -0.006723   0.002264   0.433346  -0.000746  -0.006328
    25  H    0.015980   0.011210  -0.000389  -0.000872  -0.011796   0.010700
    26  H    0.005873  -0.012434   0.000091  -0.003913   0.010479  -0.005039
    27  H   -0.025457  -0.051534  -0.002292   0.006677  -0.048066  -0.025650
    28  H    0.000258   0.048753  -0.017480  -0.034270   0.000149   0.001180
    29  H   -0.000035   0.007390  -0.066092   0.006433  -0.000003   0.000216
    30  H    0.006674  -0.050824  -0.013302  -0.008340   0.004644  -0.002323
    31  H    0.001651   0.483291  -0.028432  -0.019433  -0.009421  -0.024747
              13         14         15         16         17         18
     1  C   -0.048473   0.477906   0.441646   0.000613  -0.029660  -0.085017
     2  C   -0.817344   0.026809  -0.003239   0.005812   0.020452   0.002875
     3  C   -0.153565   0.001108   0.003122   0.492449   0.000263   0.004286
     4  C   -0.226971  -0.015703  -0.039895  -0.000248   0.431396   0.523945
     5  C   -0.009564   0.000026  -0.000048  -0.026576   0.000169   0.001739
     6  O    0.008378  -0.000009  -0.000012   0.001726  -0.000006  -0.000162
     7  C    0.213785  -0.090132  -0.039143  -0.002586   0.014730   0.002388
     8  C    0.234840  -0.005659  -0.000893  -0.071238   0.002020  -0.009492
     9  C    0.023541   0.000012   0.000016  -0.038325  -0.001320   0.000743
    10  C   -0.070247   0.000494  -0.000194   0.002836   0.000237  -0.004012
    11  O   -0.076240   0.000988   0.010260   0.000008  -0.005414   0.002306
    12  O   -0.063031  -0.000336   0.000585   0.005024   0.000544  -0.003066
    13  C    6.578474  -0.031979  -0.000874   0.002808  -0.059461  -0.060003
    14  H   -0.031979   0.486131  -0.011576   0.000147  -0.002067   0.002535
    15  H   -0.000874  -0.011576   0.487544  -0.000194  -0.005656  -0.005458
    16  H    0.002808   0.000147  -0.000194   0.430234  -0.000001   0.000022
    17  H   -0.059461  -0.002067  -0.005656  -0.000001   0.464224  -0.007886
    18  H   -0.060003   0.002535  -0.005458   0.000022  -0.007886   0.468187
    19  H   -0.009436   0.006740  -0.003119   0.002155  -0.003324   0.005634
    20  H    0.003228  -0.008280  -0.009112   0.000036   0.001809  -0.002841
    21  H    0.011185  -0.000189   0.000365   0.006500   0.000504  -0.006809
    22  H   -0.001331  -0.000024   0.000133  -0.008955  -0.000076   0.000527
    23  H    0.004558  -0.000011   0.000038  -0.007109   0.000032   0.000040
    24  H    0.002024  -0.000053  -0.000049  -0.000408  -0.000111  -0.000035
    25  H    0.554229  -0.003540  -0.002580   0.000098  -0.002764   0.001727
    26  H    0.422674  -0.001288   0.001175  -0.000036  -0.008444  -0.000699
    27  H   -0.082376   0.001296   0.000970   0.000100   0.002099  -0.002364
    28  H    0.000586  -0.000005   0.000017  -0.004784   0.000006  -0.000160
    29  H    0.000780   0.000014  -0.000062  -0.002204  -0.000041   0.000517
    30  H    0.002206   0.000265   0.000564  -0.000312   0.000265   0.000168
    31  H   -0.002966  -0.000856   0.000337  -0.004399   0.000053  -0.000724
              19         20         21         22         23         24
     1  C   -0.109235  -0.005648   0.006160  -0.001469  -0.000067   0.000889
     2  C    0.037851  -0.008621  -0.018789   0.002811  -0.000084  -0.008200
     3  C    0.043557   0.007282  -0.004378  -0.031049  -0.041057  -0.002837
     4  C    0.013811   0.002404  -0.002807  -0.000191   0.000485  -0.004102
     5  C    0.001789  -0.000728  -0.112297  -0.023672   0.006954   0.004181
     6  O    0.000823   0.000011  -0.012900   0.009408  -0.059123  -0.076883
     7  C    0.460765   0.431073  -0.001289   0.000836   0.000533   0.001138
     8  C   -0.055235   0.000719  -0.018074  -0.025535  -0.067784  -0.006723
     9  C   -0.012288  -0.001749   0.487169   0.437236   0.030233   0.002264
    10  C    0.001695   0.000481   0.013654   0.002758   0.456753   0.433346
    11  O   -0.026980  -0.071694   0.001077  -0.001161   0.000285  -0.000746
    12  O    0.010649  -0.000168   0.013873   0.001962   0.014479  -0.006328
    13  C   -0.009436   0.003228   0.011185  -0.001331   0.004558   0.002024
    14  H    0.006740  -0.008280  -0.000189  -0.000024  -0.000011  -0.000053
    15  H   -0.003119  -0.009112   0.000365   0.000133   0.000038  -0.000049
    16  H    0.002155   0.000036   0.006500  -0.008955  -0.007109  -0.000408
    17  H   -0.003324   0.001809   0.000504  -0.000076   0.000032  -0.000111
    18  H    0.005634  -0.002841  -0.006809   0.000527   0.000040  -0.000035
    19  H    0.557422  -0.027442  -0.010341   0.000547  -0.000101  -0.001265
    20  H   -0.027442   0.477898   0.001621   0.000262   0.000053   0.000088
    21  H   -0.010341   0.001621   0.511380  -0.017414  -0.001651  -0.000775
    22  H    0.000547   0.000262  -0.017414   0.489453   0.001075   0.001256
    23  H   -0.000101   0.000053  -0.001651   0.001075   0.488766  -0.009760
    24  H   -0.001265   0.000088  -0.000775   0.001256  -0.009760   0.484929
    25  H   -0.002434   0.001082   0.000482  -0.000015  -0.000133   0.000792
    26  H    0.001020   0.000741  -0.000678   0.000195   0.000453  -0.001964
    27  H   -0.000052  -0.000105   0.000503  -0.000335   0.001224  -0.006252
    28  H   -0.000029  -0.000019   0.001568   0.004436   0.006245  -0.002817
    29  H    0.000603  -0.000044  -0.006918  -0.009205  -0.000242   0.001464
    30  H   -0.009269  -0.001957   0.001352  -0.007746   0.001124  -0.001006
    31  H   -0.003533   0.000398   0.002114  -0.000133  -0.006758  -0.005398
              25         26         27         28         29         30
     1  C   -0.014078  -0.006722   0.004796   0.000101  -0.000122  -0.011287
     2  C   -0.160513  -0.017454   0.537961  -0.002410   0.001803  -0.010267
     3  C   -0.003478   0.011569   0.018879  -0.053912   0.008460   0.454442
     4  C   -0.020906  -0.035114   0.002470   0.000115  -0.000903   0.001627
     5  C   -0.000288  -0.000018   0.002883   0.458939   0.449455  -0.011752
     6  O   -0.000027   0.000793   0.000278  -0.061484  -0.064910  -0.004210
     7  C    0.015980   0.005873  -0.025457   0.000258  -0.000035   0.006674
     8  C    0.011210  -0.012434  -0.051534   0.048753   0.007390  -0.050824
     9  C   -0.000389   0.000091  -0.002292  -0.017480  -0.066092  -0.013302
    10  C   -0.000872  -0.003913   0.006677  -0.034270   0.006433  -0.008340
    11  O   -0.011796   0.010479  -0.048066   0.000149  -0.000003   0.004644
    12  O    0.010700  -0.005039  -0.025650   0.001180   0.000216  -0.002323
    13  C    0.554229   0.422674  -0.082376   0.000586   0.000780   0.002206
    14  H   -0.003540  -0.001288   0.001296  -0.000005   0.000014   0.000265
    15  H   -0.002580   0.001175   0.000970   0.000017  -0.000062   0.000564
    16  H    0.000098  -0.000036   0.000100  -0.004784  -0.002204  -0.000312
    17  H   -0.002764  -0.008444   0.002099   0.000006  -0.000041   0.000265
    18  H    0.001727  -0.000699  -0.002364  -0.000160   0.000517   0.000168
    19  H   -0.002434   0.001020  -0.000052  -0.000029   0.000603  -0.009269
    20  H    0.001082   0.000741  -0.000105  -0.000019  -0.000044  -0.001957
    21  H    0.000482  -0.000678   0.000503   0.001568  -0.006918   0.001352
    22  H   -0.000015   0.000195  -0.000335   0.004436  -0.009205  -0.007746
    23  H   -0.000133   0.000453   0.001224   0.006245  -0.000242   0.001124
    24  H    0.000792  -0.001964  -0.006252  -0.002817   0.001464  -0.001006
    25  H    0.451983  -0.004872  -0.014373  -0.000008  -0.000006  -0.000086
    26  H   -0.004872   0.474451  -0.007483   0.000040   0.000046   0.000066
    27  H   -0.014373  -0.007483   0.449912  -0.000641   0.000302  -0.002106
    28  H   -0.000008   0.000040  -0.000641   0.497529  -0.003245   0.000871
    29  H   -0.000006   0.000046   0.000302  -0.003245   0.479053  -0.000087
    30  H   -0.000086   0.000066  -0.002106   0.000871  -0.000087   0.473210
    31  H    0.001876  -0.001319   0.003760   0.002360   0.000020  -0.000726
              31
     1  C    0.009517
     2  C   -0.045406
     3  C   -0.023054
     4  C   -0.003564
     5  C   -0.013542
     6  O    0.007261
     7  C    0.001651
     8  C    0.483291
     9  C   -0.028432
    10  C   -0.019433
    11  O   -0.009421
    12  O   -0.024747
    13  C   -0.002966
    14  H   -0.000856
    15  H    0.000337
    16  H   -0.004399
    17  H    0.000053
    18  H   -0.000724
    19  H   -0.003533
    20  H    0.000398
    21  H    0.002114
    22  H   -0.000133
    23  H   -0.006758
    24  H   -0.005398
    25  H    0.001876
    26  H   -0.001319
    27  H    0.003760
    28  H    0.002360
    29  H    0.000020
    30  H   -0.000726
    31  H    0.451175
 Mulliken charges:
               1
     1  C   -0.362124
     2  C   -0.137973
     3  C   -0.416250
     4  C   -0.320815
     5  C   -0.265433
     6  O   -0.305626
     7  C   -0.145389
     8  C    0.143792
     9  C   -0.276844
    10  C   -0.392177
    11  O   -0.290585
    12  O   -0.232567
    13  C   -0.349434
    14  H    0.167235
    15  H    0.175330
    16  H    0.216807
    17  H    0.187429
    18  H    0.171085
    19  H    0.129021
    20  H    0.209222
    21  H    0.155801
    22  H    0.175418
    23  H    0.180552
    24  H    0.203341
    25  H    0.193001
    26  H    0.177809
    27  H    0.234975
    28  H    0.158111
    29  H    0.197566
    30  H    0.188123
    31  H    0.230599
 Sum of Mulliken charges =  -0.00000
 Mulliken charges with hydrogens summed into heavy atoms:
               1
     1  C   -0.019559
     2  C    0.097002
     3  C   -0.011321
     4  C    0.037700
     5  C    0.090244
     6  O   -0.305626
     7  C    0.192854
     8  C    0.374391
     9  C    0.054375
    10  C   -0.008285
    11  O   -0.290585
    12  O   -0.232567
    13  C    0.021376
 Electronic spatial extent (au):  <R**2>=           2748.3242
 Charge=             -0.0000 electrons
 Dipole moment (field-independent basis, Debye):
    X=              0.2831    Y=              1.2742    Z=             -0.9300  Tot=              1.6027
 Quadrupole moment (field-independent basis, Debye-Ang):
   XX=            -74.9514   YY=            -76.9185   ZZ=            -81.9477
   XY=             -5.0108   XZ=              7.3323   YZ=              5.2842
 Traceless Quadrupole moment (field-independent basis, Debye-Ang):
   XX=              2.9878   YY=              1.0207   ZZ=             -4.0085
   XY=             -5.0108   XZ=              7.3323   YZ=              5.2842
 Octapole moment (field-independent basis, Debye-Ang**2):
  XXX=              0.7538  YYY=             -1.9121  ZZZ=              1.5139  XYY=              6.7466
  XXY=             14.8448  XXZ=             -1.2368  XZZ=             -7.7510  YZZ=             -1.8857
  YYZ=             -5.7118  XYZ=             -6.8033
 Hexadecapole moment (field-independent basis, Debye-Ang**3):
 XXXX=          -2522.8996 YYYY=           -618.7902 ZZZZ=           -461.6353 XXXY=            -38.5489
 XXXZ=             18.0786 YYYX=             13.4323 YYYZ=             -0.0743 ZZZX=             -3.5084
 ZZZY=              9.0991 XXYY=           -526.8534 XXZZ=           -506.6549 YYZZ=           -182.0995
 XXYZ=             23.3472 YYXZ=              1.1197 ZZXY=             -6.7270
 N-N= 9.082570127599D+02 E-N=-3.258599610181D+03  KE= 6.153385928313D+02
 D1PCM: PCM CHGder 1st derivatives, ID1Alg=3 FixD1E=F DoIter=F DoCFld=F I1PDM=0.
 Calling FoFJK, ICntrl=      2127 FMM=F ISym2X=0 I1Cent= 0 IOpClX= 0 NMat=1 NMatS=1 NMatT=0.
 ***** Axes restored to original set *****
 -------------------------------------------------------------------
 Center     Atomic                   Forces (Hartrees/Bohr)
 Number     Number              X              Y              Z
 -------------------------------------------------------------------
      1        6          -0.002766518   -0.000307707    0.000942661
      2        6           0.001629305    0.003916479    0.006353353
      3        6          -0.001827141   -0.002780685    0.003141445
      4        6          -0.000216800    0.000839807   -0.003831148
      5        6           0.006126210    0.000046424   -0.003278473
      6        8           0.000746864   -0.005703535    0.006412278
      7        6           0.002161954   -0.006414436    0.001949353
      8        6           0.001383510    0.001560423    0.001791350
      9        6          -0.001321577   -0.000930708   -0.002274356
     10        6           0.000612647    0.006083287    0.002415881
     11        8           0.001112698    0.002221453   -0.011058022
     12        8          -0.002115693   -0.000884769    0.011259078
     13        6          -0.001300983    0.001965699    0.001591356
     14        1           0.002252305   -0.000977334   -0.002214715
     15        1           0.000864396    0.001669976    0.002147186
     16        1          -0.002790326    0.000697055   -0.002408897
     17        1           0.001883240   -0.001154090    0.001331284
     18        1          -0.003305915    0.000954221    0.001260979
     19        1          -0.005596496    0.001491702    0.004424443
     20        1           0.001700109    0.003370914   -0.002294544
     21        1           0.002961375   -0.001225916    0.002050622
     22        1          -0.000858129    0.002751530   -0.000116967
     23        1          -0.004203395    0.000976063   -0.004873758
     24        1           0.002314149   -0.004233316    0.000195450
     25        1           0.002700600   -0.000503802   -0.002056194
     26        1          -0.001672959   -0.002313244    0.001340917
     27        1          -0.000324932   -0.003934697   -0.006834373
     28        1          -0.004362066    0.001652159   -0.004245772
     29        1          -0.001377194    0.000459005    0.004134027
     30        1           0.004123819    0.001363741   -0.000749830
     31        1           0.001466946   -0.000655698   -0.006504614
 -------------------------------------------------------------------
 Cartesian Forces:  Max     0.011259078 RMS     0.003318702

 GradGradGradGradGradGradGradGradGradGradGradGradGradGradGradGradGradGrad
 Berny optimization.
 FormGI is forming the generalized inverse of G from B-inverse, IUseBI=4.
 Internal  Forces:  Max     0.010402637 RMS     0.002017471
 Search for a local minimum.
 Step number   1 out of a maximum of  186
 All quantities printed in internal units (Hartrees-Bohrs-Radians)
 Mixed Optimization -- RFO/linear search
 Second derivative matrix not updated -- first step.
 ITU=  0
     Eigenvalues ---    0.00614   0.00630   0.00729   0.00737   0.01401
     Eigenvalues ---    0.01443   0.01741   0.02696   0.02810   0.03079
     Eigenvalues ---    0.03106   0.04093   0.04345   0.04620   0.04754
     Eigenvalues ---    0.04889   0.04891   0.05037   0.05140   0.05143
     Eigenvalues ---    0.05266   0.05697   0.05716   0.06184   0.06189
     Eigenvalues ---    0.06337   0.06760   0.06915   0.07570   0.07834
     Eigenvalues ---    0.07929   0.07933   0.07974   0.08124   0.08276
     Eigenvalues ---    0.08844   0.09285   0.09341   0.10698   0.11622
     Eigenvalues ---    0.11695   0.11718   0.11764   0.12408   0.12526
     Eigenvalues ---    0.14653   0.14791   0.15755   0.16530   0.17472
     Eigenvalues ---    0.19225   0.21350   0.21971   0.25000   0.28513
     Eigenvalues ---    0.28677   0.28777   0.28895   0.28973   0.28998
     Eigenvalues ---    0.30313   0.30343   0.35034   0.35076   0.35092
     Eigenvalues ---    0.35099   0.35177   0.35204   0.35240   0.35252
     Eigenvalues ---    0.35261   0.35318   0.35449   0.35501   0.35533
     Eigenvalues ---    0.35606   0.35818   0.35840   0.35851   0.35868
     Eigenvalues ---    0.40772   0.41386   0.42041   0.42211   0.43404
     Eigenvalues ---    0.462451000.000001000.000001000.000001000.00000
     Eigenvalues --- 1000.000001000.000001000.000001000.000001000.00000
     Eigenvalues --- 1000.000001000.000001000.000001000.000001000.00000
     Eigenvalues --- 1000.000001000.000001000.000001000.000001000.00000
     Eigenvalues --- 1000.000001000.000001000.000001000.000001000.00000
     Eigenvalues --- 1000.000001000.000001000.000001000.000001000.00000
     Eigenvalues --- 1000.000001000.000001000.000001000.000001000.00000
     Eigenvalues --- 1000.000001000.000001000.000001000.000001000.00000
     Eigenvalues --- 1000.000001000.000001000.000001000.000001000.00000
     Eigenvalues --- 1000.000001000.000001000.000001000.000001000.00000
     Eigenvalues --- 1000.000001000.000001000.000001000.000001000.00000
     Eigenvalues --- 1000.000001000.000001000.000001000.000001000.00000
     Eigenvalues --- 1000.000001000.000001000.000001000.000001000.00000
     Eigenvalues --- 1000.000001000.000001000.000001000.000001000.00000
     Eigenvalues --- 1000.000001000.000001000.000001000.000001000.00000
     Eigenvalues --- 1000.000001000.000001000.000001000.000001000.00000
     Eigenvalues --- 1000.000001000.000001000.000001000.000001000.00000
     Eigenvalues --- 1000.000001000.000001000.000001000.000001000.00000
     Eigenvalues --- 1000.000001000.000001000.000001000.000001000.00000
     Eigenvalues --- 1000.000001000.000001000.000001000.000001000.00000
 RFO step:  Lambda=-3.73734441D-03 EMin= 6.14167061D-03
 Linear search not attempted -- first point.
 Iteration  1 RMS(Cart)=  0.08459362 RMS(Int)=  0.00145458
 Iteration  2 RMS(Cart)=  0.00288066 RMS(Int)=  0.00006273
 Iteration  3 RMS(Cart)=  0.00000259 RMS(Int)=  0.00006271
 Iteration  4 RMS(Cart)=  0.00000000 RMS(Int)=  0.00006271
 Iteration  1 RMS(Cart)=  0.00001059 RMS(Int)=  0.00000226
 Iteration  2 RMS(Cart)=  0.00000587 RMS(Int)=  0.00000253
 Iteration  3 RMS(Cart)=  0.00000325 RMS(Int)=  0.00000286
 Iteration  4 RMS(Cart)=  0.00000180 RMS(Int)=  0.00000309
 Iteration  5 RMS(Cart)=  0.00000100 RMS(Int)=  0.00000322
 Variable       Old X    -DE/DX   Delta X   Delta X   Delta X     New X
                                 (Linear)    (Quad)   (Total)
    R1        2.88802  -0.00082   0.00000  -0.00183  -0.00182   2.88619
    R2        2.87077   0.00022   0.00000   0.00087   0.00090   2.87167
    R3        2.05525   0.00322   0.00000   0.00907   0.00907   2.06432
    R4        2.05287   0.00283   0.00000   0.00796   0.00796   2.06082
    R5        2.65385   0.00378   0.00000   0.00776   0.00776   2.66161
    R6        2.63856   0.00229   0.00000   0.00492   0.00492   2.64348
    R7        2.87499  -0.00088   0.00000  -0.00312  -0.00314   2.87186
    R8        2.04316   0.00782   0.00000   0.02158   0.02158   2.06474
    R9        2.88669  -0.00181   0.00000  -0.00600  -0.00602   2.88067
   R10        2.89200  -0.00133   0.00000  -0.00534  -0.00537   2.88663
   R11        2.05551   0.00374   0.00000   0.01055   0.01055   2.06606
   R12        2.04703   0.00414   0.00000   0.01152   0.01152   2.05855
   R13        2.88931  -0.00133   0.00000  -0.00400  -0.00399   2.88532
   R14        2.05161   0.00258   0.00000   0.00722   0.00722   2.05883
   R15        2.05388   0.00348   0.00000   0.00980   0.00980   2.06368
   R16        2.67655   0.00316   0.00000   0.00731   0.00733   2.68388
   R17        2.87407   0.00044   0.00000   0.00055   0.00053   2.87460
   R18        2.05619   0.00620   0.00000   0.01750   0.01750   2.07369
   R19        2.04368   0.00438   0.00000   0.01210   0.01210   2.05578
   R20        2.66788   0.00246   0.00000   0.00613   0.00615   2.67403
   R21        2.68755   0.00258   0.00000   0.00572   0.00571   2.69326
   R22        2.04869   0.00721   0.00000   0.02009   0.02009   2.06878
   R23        2.04332   0.00442   0.00000   0.01220   0.01220   2.05552
   R24        2.87278   0.00046   0.00000   0.00244   0.00247   2.87525
   R25        2.68871   0.00014   0.00000   0.00033   0.00033   2.68904
   R26        2.04819   0.00666   0.00000   0.01856   0.01856   2.06674
   R27        2.05253   0.00359   0.00000   0.01007   0.01007   2.06260
   R28        2.05268   0.00286   0.00000   0.00802   0.00802   2.06070
   R29        2.05514   0.00643   0.00000   0.01813   0.01813   2.07327
   R30        2.04288   0.00475   0.00000   0.01310   0.01310   2.05598
   R31        2.05345   0.00337   0.00000   0.00948   0.00948   2.06292
   R32        2.04953   0.00313   0.00000   0.00874   0.00874   2.05827
    A1        1.91984  -0.00105   0.00000  -0.00418  -0.00442   1.91542
    A2        1.91719   0.00098   0.00000   0.00117   0.00127   1.91847
    A3        1.93971  -0.00053   0.00000  -0.00154  -0.00151   1.93820
    A4        1.90827   0.00000   0.00000  -0.00280  -0.00274   1.90554
    A5        1.90197   0.00064   0.00000   0.00409   0.00417   1.90613
    A6        1.87612  -0.00001   0.00000   0.00341   0.00338   1.87950
    A7        1.94806  -0.00065   0.00000  -0.01165  -0.01149   1.93658
    A8        1.94673   0.00374   0.00000   0.01189   0.01154   1.95827
    A9        1.82875  -0.00235   0.00000  -0.01033  -0.01033   1.81842
   A10        1.90270  -0.00317   0.00000  -0.01693  -0.01684   1.88586
   A11        1.90628   0.00236   0.00000   0.01987   0.01988   1.92615
   A12        1.93034   0.00019   0.00000   0.00839   0.00848   1.93881
   A13        1.93794   0.00041   0.00000  -0.00907  -0.00918   1.92876
   A14        1.87927   0.00018   0.00000   0.00978   0.00982   1.88910
   A15        1.92456  -0.00111   0.00000  -0.01456  -0.01456   1.91000
   A16        1.90744  -0.00027   0.00000   0.00670   0.00674   1.91418
   A17        1.94026   0.00046   0.00000   0.00155   0.00138   1.94164
   A18        1.87206   0.00034   0.00000   0.00667   0.00669   1.87875
   A19        1.91142   0.00211   0.00000   0.00001   0.00005   1.91147
   A20        1.93174  -0.00021   0.00000   0.00212   0.00218   1.93392
   A21        1.91407  -0.00104   0.00000  -0.00283  -0.00294   1.91112
   A22        1.91612  -0.00059   0.00000   0.00213   0.00212   1.91824
   A23        1.92276  -0.00101   0.00000  -0.00694  -0.00696   1.91580
   A24        1.86741   0.00067   0.00000   0.00552   0.00554   1.87294
   A25        1.93765   0.00119   0.00000   0.00631   0.00624   1.94389
   A26        1.90086   0.00111   0.00000   0.00859   0.00865   1.90950
   A27        1.85607  -0.00114   0.00000  -0.00424  -0.00421   1.85185
   A28        1.92956  -0.00131   0.00000  -0.00856  -0.00857   1.92099
   A29        1.94623  -0.00030   0.00000  -0.00304  -0.00303   1.94320
   A30        1.89116   0.00049   0.00000   0.00136   0.00132   1.89249
   A31        1.97665  -0.00342   0.00000  -0.02279  -0.02274   1.95391
   A32        1.94659   0.00236   0.00000   0.00542   0.00531   1.95190
   A33        1.92746  -0.00151   0.00000  -0.00622  -0.00627   1.92120
   A34        1.94720  -0.00024   0.00000  -0.00152  -0.00142   1.94578
   A35        1.91034   0.00002   0.00000   0.00007   0.00016   1.91050
   A36        1.84152  -0.00134   0.00000  -0.00163  -0.00164   1.83988
   A37        1.88795   0.00070   0.00000   0.00416   0.00414   1.89209
   A38        1.91918   0.00064   0.00000  -0.00224  -0.00237   1.91681
   A39        1.94328  -0.00173   0.00000  -0.01921  -0.01921   1.92408
   A40        1.92046  -0.00071   0.00000   0.00046   0.00053   1.92098
   A41        1.88918   0.00076   0.00000   0.00053   0.00042   1.88960
   A42        1.88917   0.00023   0.00000   0.00850   0.00848   1.89765
   A43        1.90145   0.00090   0.00000   0.01284   0.01280   1.91425
   A44        1.92531  -0.00037   0.00000  -0.00752  -0.00761   1.91770
   A45        1.92545   0.00035   0.00000  -0.00333  -0.00332   1.92213
   A46        1.92724  -0.00066   0.00000  -0.00022  -0.00019   1.92705
   A47        1.90567  -0.00029   0.00000  -0.00110  -0.00114   1.90453
   A48        1.90645   0.00073   0.00000   0.00610   0.00614   1.91259
   A49        1.87282   0.00026   0.00000   0.00654   0.00652   1.87934
   A50        1.95248   0.00072   0.00000   0.00457   0.00460   1.95707
   A51        1.91166   0.00123   0.00000   0.01035   0.01035   1.92200
   A52        1.86413  -0.00073   0.00000  -0.00412  -0.00413   1.86000
   A53        1.90658  -0.00130   0.00000  -0.00495  -0.00500   1.90158
   A54        1.93058  -0.00052   0.00000  -0.00940  -0.00941   1.92117
   A55        1.89736   0.00066   0.00000   0.00383   0.00380   1.90116
   A56        2.02708  -0.00587   0.00000  -0.03904  -0.03896   1.98812
   A57        2.04434  -0.01040   0.00000  -0.04100  -0.04100   2.00334
   A58        1.95811  -0.00199   0.00000  -0.01619  -0.01635   1.94176
   A59        1.87132   0.00006   0.00000   0.00439   0.00440   1.87571
   A60        1.89946   0.00099   0.00000  -0.00048  -0.00046   1.89900
   A61        1.90807   0.00143   0.00000   0.00875   0.00886   1.91693
   A62        1.94810  -0.00034   0.00000  -0.00239  -0.00250   1.94560
   A63        1.87541  -0.00005   0.00000   0.00717   0.00714   1.88255
    D1        0.93292  -0.00018   0.00000   0.00306   0.00304   0.93595
    D2        3.04783   0.00033   0.00000   0.00709   0.00712   3.05495
    D3       -1.17901   0.00038   0.00000   0.01339   0.01342  -1.16559
    D4       -1.16839  -0.00014   0.00000   0.00842   0.00840  -1.15999
    D5        0.94653   0.00037   0.00000   0.01245   0.01248   0.95901
    D6        3.00287   0.00042   0.00000   0.01876   0.01878   3.02165
    D7        3.04085  -0.00043   0.00000   0.00440   0.00434   3.04519
    D8       -1.12742   0.00009   0.00000   0.00843   0.00842  -1.11900
[...]
 023577,0.00041859,-0.00092554,0.00036834,-0.00522405,0.00239922,-0.002
 37230,0.11223702,-0.03697130,-0.11773948,-0.00035642,-0.00034749,0.000
 52189,-0.00033190,0.00021962,0.00002563,-0.00005137,0.00011951,-0.0000
 0397,0.00009385,0.00083649,0.00076532,-0.00202409,-0.00377785,-0.00261
 984,-0.00002275,-0.00000153,-0.00006427,0.00006544,-0.00002091,0.00007
 219,0.00000043,-0.00000666,-0.00000595,-0.00001231,0.00001318,0.000014
 74,-0.00009907,-0.00004997,0.00002131,0.00001236,-0.00000903,0.0000087
 7,-0.11754247,0.04370565,0.12977068,0.00040403,-0.00118909,-0.00215180
 ,0.00842132,0.01743068,-0.00663584,0.00005647,0.00001086,0.00001020,-0
 .00408464,-0.00555817,0.00414539,-0.00000598,0.00001331,0.00000424,0.0
 0000909,-0.00000502,-0.00000602,-0.00060060,-0.00068738,-0.00091125,0.
 00026472,-0.00008630,0.00003853,-0.00000494,-0.00001172,0.00000201,0.0
 0000524,-0.00002092,0.00002114,-0.00148365,0.00478020,-0.00387045,0.00
 081029,0.00020285,-0.00020655,-0.09728076,-0.09454543,0.04694343,0.000
 22510,0.00040884,-0.00023960,0.00014032,-0.00081492,0.00032031,0.00000
 783,-0.00001386,0.00000186,-0.00010951,0.00018782,0.00024662,0.0005492
 3,0.00028031,-0.00028635,0.00002785,0.00005005,0.00010315,0.00010835,0
 .00004659,0.00016623,0.00000199,-0.00000208,-0.00000124,0.00000145,-0.
 00000157,-0.00000197,0.00000821,0.00000015,-0.00000254,0.00000685,-0.0
 0001980,-0.00000402,-0.01002748,-0.02115552,0.00987297,0.10207255,-0.0
 0068098,-0.00122878,-0.00457549,-0.00742781,-0.01212220,0.00423387,-0.
 00011648,-0.00001750,-0.00007482,-0.00796542,-0.01640331,0.00855970,0.
 00000668,-0.00001400,-0.00000511,-0.00000698,0.00001013,-0.00000540,-0
 .00023268,0.00122307,0.00018139,0.00023832,0.00031134,-0.00000501,0.00
 001190,0.00000716,0.00000125,0.00003518,-0.00003214,0.00002909,0.00188
 544,-0.00150733,0.00275129,-0.00067068,0.00124117,-0.00074303,-0.09049
 939,-0.22496616,0.08819365,-0.00012557,0.00009099,0.00010646,-0.000372
 66,-0.00106954,0.00072741,0.00000035,0.00004663,0.00000396,-0.00001846
 ,0.00076783,-0.00003336,0.00052409,0.00057701,0.00032391,0.00007285,-0
 .00007430,-0.00007378,0.00000432,-0.00005034,0.00005264,-0.00000584,-0
 .00000457,0.00000740,0.00000150,-0.00000015,0.00000102,0.00000188,0.00
 000525,-0.00000165,0.00000708,0.00000134,0.00000791,0.00344586,0.00892
 794,-0.00399904,0.10149048,0.24400451,-0.00114206,-0.00310882,-0.00406
 875,0.01269201,0.01565279,-0.00735035,0.00010774,0.00001139,0.00006696
 ,-0.01065804,-0.02113408,0.01179318,0.00000297,0.00000306,0.00000404,-
 0.00001368,-0.00000539,0.00000119,-0.00064536,-0.00114803,-0.00144357,
 -0.00005856,-0.00034489,-0.00002809,-0.00001247,-0.00000616,-0.0000015
 8,-0.00001913,0.00004162,-0.00001398,-0.00317051,0.00538210,-0.0032601
 0,0.00079275,-0.00093504,0.00108700,0.04415562,0.08884180,-0.09200511,
 -0.00011203,0.00004273,0.00003696,-0.00044490,-0.00143758,0.00061327,-
 0.00000271,-0.00002985,-0.00000440,0.00017580,0.00104340,0.00089150,0.
 00060852,0.00081498,0.00101640,0.00003029,0.00013755,0.00019616,0.0001
 3247,0.00015198,0.00022054,0.00000119,-0.00000034,-0.00000797,-0.00000
 340,0.00000236,-0.00000195,-0.00001143,-0.00000602,0.00000142,0.000001
 21,-0.00000965,-0.00000282,0.00539731,0.01258427,-0.00690226,-0.047975
 38,-0.09576370,0.09887829,0.00032819,0.00027740,0.00016549,-0.05626324
 ,-0.02246260,-0.03895342,-0.00019850,0.00012532,-0.00057845,-0.0017208
 7,0.00319923,-0.00192827,0.00012566,0.00000389,-0.00004717,-0.00029639
 ,-0.00013603,-0.00006572,0.00102479,-0.00092535,0.00187035,0.00335822,
 0.00044397,0.00603470,0.00000757,0.00002964,-0.00000081,0.00008209,0.0
 0009051,0.00040052,-0.00167113,-0.01398448,-0.00797135,-0.01381820,0.0
 2111522,0.03173225,-0.00262803,-0.01180486,-0.01724193,-0.00010105,0.0
 0000089,0.00007954,-0.00003892,-0.00004123,0.00001891,-0.00009381,0.00
 021225,-0.00002110,-0.00041209,-0.00080879,-0.00090093,0.00007065,-0.0
 0009852,-0.00018777,-0.00012631,-0.00034926,-0.00027217,-0.00011265,-0
 .00047164,-0.00032574,-0.00003134,-0.00002667,-0.00019205,-0.00010355,
 0.00002045,-0.00004318,-0.00002488,-0.00002724,-0.00003542,0.00004429,
 -0.00011508,-0.00002292,0.00047340,-0.00052063,0.00037612,0.00044387,0
 .00046085,0.00014248,0.07198216,0.00003588,-0.00060981,-0.00005650,-0.
 01906761,-0.13284830,-0.11240722,-0.00000195,-0.00010156,0.00031894,0.
 00188428,-0.00140915,0.00175280,-0.00000575,0.00001428,-0.00000213,0.0
 0003990,-0.00005746,0.00006597,-0.00076969,-0.00131857,0.00585269,-0.0
 0132094,0.00041190,-0.00170452,-0.00004205,0.00011387,-0.00001729,0.00
 029590,0.00004129,0.00018070,-0.01444950,-0.03621330,-0.02265607,0.005
 41706,0.00150379,-0.00703119,0.00303650,0.01087900,0.01076314,-0.00004
 376,0.00008987,-0.00003898,-0.00013198,0.00023126,-0.00025850,0.000078
 39,-0.00004721,-0.00000746,0.00036022,0.00061086,0.00065738,-0.0000975
 1,-0.00001660,0.00004334,0.00015779,-0.00017168,-0.00027054,-0.0004963
 2,-0.00125240,-0.00116516,0.00000754,-0.00000082,0.00004944,0.00000207
 ,-0.00000365,0.00003169,0.00011100,-0.00001261,-0.00002307,0.00005785,
 -0.00012837,-0.00004224,-0.00049609,0.00047616,-0.00055480,-0.00077203
 ,0.00023163,-0.00074933,0.02563533,0.15988731,0.00023177,0.00044528,0.
 00003257,-0.03693580,-0.12277274,-0.21317218,0.00009360,-0.00000869,0.
 00037356,-0.00220458,0.00319452,-0.00078300,-0.00009934,0.00004129,0.0
 0002740,0.00005268,-0.00007072,0.00000402,0.00062950,0.00270874,0.0001
 7518,-0.00383283,0.00271418,-0.00054512,-0.00012596,0.00012505,-0.0000
 3977,0.00028925,-0.00008172,0.00070636,0.00330045,0.01144656,0.0118786
 5,0.01301474,-0.01256270,-0.01847216,-0.00446916,-0.01175895,-0.014592
 13,-0.00003756,-0.00006637,0.00005104,0.00007020,-0.00018297,0.0000848
 7,0.00012053,-0.00017002,0.00000486,-0.00033839,-0.00091748,-0.0008613
 0,0.00017096,0.00002884,0.00009016,0.00003483,0.00025652,0.00011119,0.
 00014670,0.00039579,0.00033481,0.00004734,0.00002411,0.00011492,0.0000
 3098,-0.00002882,0.00002647,0.00028187,0.00007454,-0.00009383,0.000036
 81,-0.00003758,-0.00003597,-0.00012590,0.00016228,0.00087641,0.0004237
 7,0.00017867,0.00026070,0.02888928,0.12676321,0.23225924,-0.00000282,0
 .00000003,0.00000938,0.00026281,-0.00001251,-0.00006949,0.00099974,0.0
 0092468,-0.00123938,0.00000083,0.00000559,-0.00000153,-0.19028259,0.02
 187621,-0.11449501,-0.00857522,0.01493102,-0.00434477,0.00006511,-0.00
 002054,-0.00001656,-0.00026646,0.00016299,0.00025846,-0.02013476,0.001
 00115,-0.01722836,0.00055870,-0.00077568,-0.00227667,-0.00007040,-0.00
 002483,0.00004438,-0.00018986,0.00007792,0.00014711,-0.00000704,-0.000
 01043,0.00001001,-0.00000846,0.00000464,-0.00000198,-0.00000209,-0.000
 00231,-0.00000364,-0.00008478,-0.00002923,0.00087966,-0.00000739,0.000
 00021,-0.00000481,0.00000268,-0.00000273,0.00000625,0.00005567,0.00002
 383,-0.00000587,-0.00002037,-0.00000082,0.00000672,-0.00274819,-0.0034
 7343,0.00122445,0.00066055,-0.00022467,0.00006286,-0.00030561,0.000151
 35,0.00095723,0.00022277,0.00001748,0.00038097,-0.00001368,0.00000432,
 -0.00000513,-0.00000017,0.00000017,-0.00000216,-0.00002463,0.00000877,
 0.00003157,0.21033848,-0.00000946,0.00000393,0.00001877,-0.00010285,0.
 00002572,0.00004637,0.00082782,0.00033131,-0.00094462,0.00000328,-0.00
 000510,-0.00000232,0.02125463,-0.04991413,0.01675129,0.03437881,-0.025
 58221,0.01743728,0.00003339,-0.00006873,-0.00006467,-0.00009350,-0.000
 33755,-0.00056042,-0.01839839,0.00376963,-0.01409908,-0.00053605,0.001
 63371,0.00623226,0.00007394,0.00007791,0.00001019,0.00010521,0.0001803
 0,-0.00004298,0.00001387,0.00000120,-0.00001085,-0.00000636,0.00000398
 ,-0.00000441,0.00000255,0.00000045,0.00000054,0.00029564,0.00002197,0.
 00043738,0.00000021,0.00000324,0.00000216,0.00000347,-0.00000381,0.000
 00106,0.00004310,0.00002610,0.00000060,-0.00001623,0.00000759,0.000009
 22,-0.00388469,-0.00232943,0.00155401,0.00101509,0.00071658,-0.0000803
 4,-0.00095947,0.00050140,-0.00100788,-0.00034949,-0.00000759,-0.000280
 64,0.00000647,-0.00000131,0.00000347,-0.00000199,0.00000247,-0.0000007
 7,-0.00000427,-0.00000038,0.00000592,-0.03211822,0.06919803,0.00000328
 ,-0.00000072,-0.00000210,0.00028467,-0.00001828,-0.00017578,0.00067722
 ,-0.00023289,0.00118515,-0.00000070,0.00000788,0.00000109,-0.11668312,
 0.01980931,-0.15490727,0.00261358,0.00235819,0.00478707,0.00003299,0.0
 0002974,0.00001567,0.00019658,0.00009934,-0.00010974,0.00482375,-0.000
 45280,0.00294643,0.00282056,-0.00105822,0.00261552,-0.00009208,-0.0000
 5372,0.00002872,-0.00052040,0.00000906,-0.00001295,-0.00002181,-0.0000
 0689,0.00002392,-0.00000408,0.00000210,0.00000125,-0.00000356,-0.00000
 221,-0.00000307,-0.00026527,0.00024614,0.00022940,-0.00000620,-0.00000
 197,-0.00000540,-0.00000067,0.00000033,0.00000498,0.00001156,0.0000039
 5,0.00000606,-0.00000289,-0.00000700,-0.00000143,0.00121395,0.00042048
 ,0.00092539,-0.00057489,-0.00040460,0.00023814,-0.00106239,0.00058788,
 0.00070229,-0.00002656,0.00013213,0.00022939,-0.00001782,0.00000662,-0
 .00000861,0.00000068,-0.00000006,-0.00000102,-0.00000558,0.00000642,0.
 00002834,0.12946680,-0.02493609,0.15864998,-0.00000573,0.00000083,0.00
 001201,0.00028476,-0.00003927,-0.00013289,-0.00289854,-0.00393721,-0.0
 0052730,-0.00000939,0.00000938,0.00000246,-0.07895396,0.00499338,0.077
 16093,-0.00443550,0.00614653,0.01284349,0.00007063,0.00003263,0.000009
 13,0.00045847,-0.00024347,-0.00006396,-0.00801362,0.00101602,0.0240411
 2,0.00007556,0.00137587,-0.00160290,-0.00014443,-0.00002461,0.00000706
 ,-0.00033401,0.00016713,-0.00000788,-0.00002140,-0.00000980,0.00001798
 ,-0.00000980,0.00000644,-0.00000456,-0.00000465,-0.00000321,-0.0000057
 8,0.00013891,-0.00004130,0.00028399,-0.00000712,-0.00000019,-0.0000083
 1,0.00000155,-0.00000064,0.00000581,0.00002518,0.00001141,0.00003306,-
 0.00000889,-0.00000734,0.00000201,0.00092288,0.00102931,-0.00025430,0.
 00073482,0.00002720,-0.00036436,0.00012898,0.00001237,0.00047991,0.000
 05398,0.00008264,0.00058682,-0.00001890,0.00000488,-0.00001032,-0.0000
 0006,0.00000163,-0.00000211,-0.00001364,0.00000570,0.00002221,0.009310
 49,-0.00198119,-0.02262842,0.08315742,-0.00001374,0.00000539,0.0000217
 3,-0.00006441,-0.00003602,0.00004805,-0.00407634,-0.00316710,-0.000208
 83,-0.00000252,-0.00000363,0.00000088,0.00261054,-0.04771516,-0.006508
 49,0.01578858,-0.01332678,-0.03961096,0.00004711,-0.00000224,-0.000032
 87,-0.00000741,-0.00096475,-0.00047429,-0.00617963,0.00371805,0.021641
 16,0.00153237,-0.00549533,0.00224465,-0.00003809,0.00008347,-0.0000280
 0,0.00008343,0.00018952,-0.00000774,0.00000608,0.00000337,-0.00000790,
 -0.00000859,0.00000557,-0.00000721,0.00000036,-0.00000045,-0.00000222,
 0.00019682,-0.00006360,-0.00030859,0.00000035,0.00000313,-0.00000081,-
 0.00000059,-0.00000101,-0.00000066,0.00001675,0.00001038,0.00004195,-0
 .00000217,-0.00000062,0.00000400,0.00050971,0.00069298,-0.00069670,0.0
 0093524,0.00049494,-0.00042690,-0.00023837,0.00006747,-0.00015320,0.00
 082604,-0.00043326,-0.00167632,0.00000220,-0.00000173,0.00000133,-0.00
 000219,0.00000275,-0.00000282,-0.00000642,0.00000328,0.00000039,-0.002
 35093,0.00164587,0.00345759,-0.00893067,0.06354883,0.00000578,0.000000
 26,-0.00001162,-0.00028020,0.00003673,0.00015112,0.00096907,0.00115334
 ,0.00127362,0.00000449,-0.00000892,-0.00000379,0.08199240,-0.01739116,
 -0.29389782,0.00181116,-0.00467777,-0.00239086,-0.00005748,-0.00002504
 ,-0.00000218,-0.00055960,0.00018618,0.00006150,0.00005471,0.00026761,-
 0.00320340,-0.00029937,-0.00054229,0.00285212,0.00012950,0.00004399,-0
 .00001939,0.00040947,-0.00009538,-0.00004176,0.00002461,0.00000664,-0.
 00002113,0.00000925,-0.00000582,0.00000442,0.00000391,0.00000302,0.000
 00536,-0.00013665,-0.00004035,0.00031792,0.00000673,0.00000028,0.00000
 744,-0.00000073,0.00000193,-0.00000411,-0.00001136,-0.00001464,-0.0000
 2507,0.00001063,0.00000687,-0.00000298,0.00029632,0.00007974,0.0007138
 6,0.00032192,0.00044060,-0.00006435,-0.00000867,0.00012210,0.00025897,
 0.00035366,-0.00005402,-0.00027174,0.00001861,-0.00000517,0.00000999,-
 0.00000117,-0.00000088,0.00000161,0.00001294,-0.00000822,-0.00002247,0
 .00595911,-0.00044019,-0.01748902,-0.09128071,0.02127392,0.31219575,-0
 .00018030,0.00001497,0.00000925,-0.00008766,0.00036810,0.00013145,-0.2
 1653806,-0.12704409,0.03995882,0.00005153,-0.00002742,0.00002119,0.000
 44527,0.00173072,0.00280919,-0.00001325,-0.00056245,-0.00038601,-0.001
 47197,0.00058798,-0.00055740,0.00712360,0.00726091,-0.00276314,-0.0081
 6437,-0.00543824,0.00088743,-0.00000329,0.00217050,0.00031124,-0.00020
 233,-0.00041646,-0.00010598,0.00167334,-0.00114241,0.00028877,0.000044
 75,0.00000431,-0.00002677,-0.00000789,-0.00000898,-0.00003586,0.000025
 33,0.00000668,0.00002019,-0.01705544,-0.01278016,0.00404303,-0.0000015
 6,-0.00001239,0.00002748,-0.00000334,0.00000454,-0.00000634,-0.0014807
 9,0.00026831,-0.00082421,0.00008588,-0.00018412,0.00013835,0.00055926,
 0.00020043,0.00008324,-0.00002167,0.00020048,-0.00018203,0.00017111,0.
 00016933,0.00001358,0.00043607,0.00034041,-0.00000758,0.00002297,-0.00
 001003,0.00001813,0.00000624,-0.00000749,0.00001185,0.00000395,-0.0000
 3742,-0.00001364,0.00038767,0.00024751,-0.00014616,-0.00039103,-0.0008
 1099,0.00022409,0.23431514,-0.00020219,0.00001088,0.00020061,0.0001106
 7,-0.00127096,0.00035660,-0.12337970,-0.13950905,0.03008172,-0.0000366
 7,-0.00003002,0.00004031,0.00103586,0.00003304,-0.00181067,-0.00038229
 ,0.00111629,0.00062849,0.00068075,0.00047120,-0.00017194,-0.02802859,-
 0.02185162,0.00543237,0.00607635,0.00450482,-0.00011167,0.00477302,-0.
 00588156,-0.00235223,-0.00076160,0.00057307,-0.00054206,-0.00000993,0.
 00361492,-0.00054735,0.00008634,0.00002859,-0.00007618,-0.00010246,0.0
 0006439,-0.00007933,-0.00001172,-0.00000739,-0.00004165,0.00612262,0.0
 0457547,-0.00229193,-0.00001461,0.00002539,-0.00002391,0.00000528,-0.0
 0000685,0.00000493,-0.00001961,0.00035337,0.00041290,-0.00002133,-0.00
 011900,0.00008742,-0.00037473,0.00016646,0.00037164,-0.00000431,0.0003
 1279,0.00068874,0.00001851,0.00023911,-0.00012266,-0.00156942,-0.00119
 657,0.00084538,0.00000372,-0.00000340,0.00000749,-0.00001574,0.0000355
 8,-0.00003348,-0.00000659,0.00006773,0.00001531,-0.00018856,-0.0001062
 6,-0.00005840,0.00027406,0.00040313,-0.00029404,0.13577188,0.15196141,
 0.00013862,-0.00005539,-0.00026343,-0.00017214,0.00037995,0.00018952,0
 .03918412,0.02907239,-0.05740814,0.00001914,0.00001782,-0.00001185,0.0
 0117232,-0.00372448,-0.00633409,-0.00074362,0.00050170,0.00100448,-0.0
 0068275,0.00024685,0.00062831,-0.00453260,-0.00100498,0.00003792,0.025
 34746,0.01934459,-0.00541673,0.00046688,-0.00157633,0.00000657,0.00041
 216,-0.00037180,-0.00016488,0.00038180,-0.00009209,-0.00005236,0.00000
 193,-0.00001674,-0.00001722,0.00009734,-0.00006827,0.00006936,-0.00000
 311,0.00001153,0.00001414,-0.01632571,-0.01364082,0.00411047,0.0000101
 4,-0.00002333,0.00002036,-0.00000260,0.00000460,-0.00001567,-0.0010462
 5,0.00005338,-0.00086631,0.00008118,0.00001682,-0.00008206,-0.00079880
 ,0.00033226,0.00113478,-0.00054594,-0.00034752,0.00128418,0.00039640,0
 .00015860,0.00008307,-0.00017605,-0.00034899,0.00040878,0.00002346,-0.
 00000791,0.00000271,0.00000120,-0.00002124,0.00001037,0.00000168,-0.00
 004957,-0.00004173,0.00019391,0.00001847,0.00008901,0.00140198,0.00141
 504,-0.00031990,-0.04380605,-0.03052920,0.06178184,0.00000687,0.000077
 89,-0.00001452,0.00174640,-0.00143070,-0.00604993,-0.00163957,0.001142
 24,0.00702977,-0.00008175,0.00004023,-0.00006386,0.00090059,-0.0014782
 0,-0.00048365,-0.00523852,-0.00343241,0.00359829,0.00004133,-0.0001400
 4,-0.00009610,-0.07092653,0.01170070,0.07284387,0.00069560,0.00177429,
 -0.00068365,-0.00334235,0.00825926,0.02206728,-0.00017835,0.00003599,0
 .00034101,-0.00519914,-0.00064725,-0.03294639,0.00015173,0.00005279,0.
 00011041,-0.00000408,-0.00001781,0.00000628,0.00000603,-0.00001018,0.0
 0000962,0.00010936,0.00005056,0.00010393,-0.00009583,-0.00001746,0.000
 03074,-0.00003474,0.00006241,0.00014280,-0.00001337,0.00009264,-0.0000
 0070,-0.00001213,0.00002229,0.00004073,-0.00002931,0.00003676,0.000179
 20,-0.00011857,0.00008179,0.00044027,0.00011780,0.00056139,-0.00047182
 ,0.00094867,-0.00030420,-0.00050512,-0.00007848,0.00000239,0.00002180,
 0.00002679,-0.00005815,0.00002172,-0.00026562,0.00059842,0.00026411,-0
 .00012099,0.00015718,-0.00008306,-0.00009296,0.00017749,0.00001756,0.0
 0027085,0.00017099,-0.00049609,0.08245029,-0.00001551,0.00002663,0.000
 04118,0.00011637,0.00228783,0.00197518,0.01079157,-0.00593962,-0.03147
 971,0.00005990,-0.00001301,-0.00000276,-0.00023615,-0.00162823,0.00009
 040,-0.00486208,-0.00134110,0.00323643,0.00000436,-0.00019348,-0.00017
 078,0.01173395,-0.05982891,-0.04726350,0.00131762,-0.00643784,0.001246
 63,-0.00406762,0.00540420,0.01852911,0.00039176,-0.00019347,0.00001900
 ,0.00090895,0.00068778,0.00776517,-0.00004947,-0.00004864,0.00003098,-
 0.00000654,0.00000523,-0.00000757,0.00000642,-0.00000081,0.00001419,-0
 .00002524,0.00117409,0.00054222,0.00002228,0.00000521,-0.00000694,-0.0
 0000732,-0.00002600,-0.00003079,0.00000543,0.00002659,0.00002277,0.000
 00480,0.00000789,0.00000978,-0.00022839,0.00006115,0.00001509,0.000856
 25,-0.00028518,-0.00189941,0.00037076,0.00061750,-0.00078845,0.0010891
 7,0.00040302,-0.00020964,0.00000218,0.00000853,-0.00003089,0.00000159,
 0.00000353,0.00000592,0.00017469,-0.00037037,0.00007756,0.00004452,0.0
 0020512,0.00005670,0.00002147,0.00033357,-0.00001933,-0.00086442,0.001
 42505,0.00030469,-0.01756128,0.06362375,0.00001787,0.00003825,0.000055
 97,0.00595305,-0.00015903,-0.00138147,0.00166844,-0.00083494,-0.001220
 87,0.00024713,-0.00009905,0.00003849,-0.00047755,0.00042219,0.00013343
 ,0.00152317,0.00065547,0.00032797,0.00020193,-0.00009760,-0.00005037,0
 .06455828,-0.04556741,-0.27590067,0.00006338,-0.00033588,0.00142388,0.
 00243487,-0.00216660,-0.00682138,-0.00056663,-0.00097139,0.00098492,-0
 .00938372,-0.00010405,-0.02650194,-0.00000311,0.00053641,0.00052287,-0
 .00002501,0.00000057,0.00000613,0.00000041,-0.00001618,0.00000289,0.00
 026369,-0.00050666,0.00034332,-0.00004020,0.00004897,0.00005611,-0.000
 06324,0.00001844,0.00010220,-0.00001996,0.00007417,0.00003673,-0.00003
 856,0.00000496,0.00002530,-0.00006755,0.00007786,0.00012960,0.00005449
 ,0.00014554,-0.00018849,0.00045107,0.00034908,0.00031344,-0.00018059,0
 .00015147,0.00008702,-0.00016347,0.00004578,-0.00008649,-0.00000756,-0
 .00005706,0.00001233,-0.00093031,0.00055706,0.00121892,0.00005649,-0.0
 0005374,0.00000860,-0.00001617,0.00000383,-0.00006208,-0.00013613,-0.0
 0008722,0.00011847,-0.06537449,0.04792677,0.30626515\\0.00002298,-0.00
 004545,-0.00000402,-0.00017053,-0.00124263,-0.00024593,-0.00071219,-0.
 00026812,0.00082766,0.00001636,0.00001966,0.00002629,0.00000668,0.0000
 2785,-0.00002750,0.00001208,-0.00001813,0.00002776,-0.00005058,-0.0000
 4717,-0.00004716,0.00102707,-0.00021243,-0.00117166,0.00000899,-0.0000
 0925,0.00003884,-0.00000381,0.00002950,0.00003451,-0.00001194,0.000080
 54,0.00007740,-0.00003645,0.00173162,0.00043520,-0.00003997,-0.0000439
 2,0.00003142,0.00000507,-0.00000413,0.00001441,-0.00001652,0.00000315,
 -0.00001979,0.00004287,-0.00003394,0.00002209,-0.00000902,0.00002225,-
 0.00000412,0.00000528,-0.00001074,-0.00000464,-0.00000693,0.00001808,-
 0.00001736,0.00000230,-0.00003070,0.00001089,-0.00001094,0.00000775,-0
 .00000768,-0.00001027,-0.00001587,0.00001360,0.00001791,0.00000427,-0.
 00000962,-0.00003052,0.00003354,0.00002372,-0.00006080,0.00002607,-0.0
 0001444,-0.00000644,0.00000009,-0.00001436,-0.00005415,0.00001933,0.00
 002304,0.00000238,0.00000252,0.00000671,0.00001298,-0.00003322,-0.0000
 3213,0.00002416,-0.00000148,0.00000594,0.00002394,-0.00000905,0.000000
 92\\\@


 I take a simple view of life: keep your eyes open and get on with it.
 -- Laurence Olivier
 Job cpu time:       0 days 14 hours 48 minutes 17.9 seconds.
 Elapsed time:       0 days  0 hours 55 minutes 32.4 seconds.
 File lengths (MBytes):  RWF=    689 Int=      0 D2E=      0 Chk=     33 Scr=      1
 Normal termination of Gaussian 16 at Sun Nov  4 22:48:54 2018.
