 Entering Gaussian System, Link 0=g16
 Initial command:
 /apps/gaussian/g16a03/g16/l1.exe "/jobfs/local/2011902.r-man2/Gau-18679.inp" -scrdir="/jobfs/local/2011902.r-man2/"
 Entering Link 1 = /apps/gaussian/g16a03/g16/l1.exe PID=     18680.
  
 Copyright (c) 1988,1990,1992,1993,1995,1998,2003,2009,2016,
            Gaussian, Inc.  All Rights Reserved.
  
 This is part of the Gaussian(R) 16 program.  It is based on
 the Gaussian(R) 09 system (copyright 2009, Gaussian, Inc.),
 the Gaussian(R) 03 system (copyright 2003, Gaussian, Inc.),
 the Gaussian(R) 98 system (copyright 1998, Gaussian, Inc.),
 the Gaussian(R) 94 system (copyright 1995, Gaussian, Inc.),
 the Gaussian 92(TM) system (copyright 1992, Gaussian, Inc.),
 the Gaussian 90(TM) system (copyright 1990, Gaussian, Inc.),
 the Gaussian 88(TM) system (copyright 1988, Gaussian, Inc.),
 the Gaussian 86(TM) system (copyright 1986, Carnegie Mellon
 University), and the Gaussian 82(TM) system (copyright 1983,
 Carnegie Mellon University). Gaussian is a federally registered
 trademark of Gaussian, Inc.
  
 This software contains proprietary and confidential information,
 including trade secrets, belonging to Gaussian, Inc.
  
 This software is provided under written license and may be
 used, copied, transmitted, or stored only in accord with that
 written license.
  
 The following legend is applicable only to US Government
 contracts under FAR:
  
                    RESTRICTED RIGHTS LEGEND
  
 Use, reproduction and disclosure by the US Government is
 subject to restrictions as set forth in subparagraphs (a)
 and (c) of the Commercial Computer Software - Restricted
 Rights clause in FAR 52.227-19.
  
 Gaussian, Inc.
 340 Quinnipiac St., Bldg. 40, Wallingford CT 06492
  
  
 ---------------------------------------------------------------
 Warning -- This program may not be used in any manner that
 competes with the business of Gaussian, Inc. or will provide
 assistance to any competitor of Gaussian, Inc.  The licensee
 of this program is prohibited from giving any competitor of
 Gaussian, Inc. access to this program.  By using this program,
 the user acknowledges that Gaussian, Inc. is engaged in the
 business of creating and licensing software in the field of
 computational chemistry and represents and warrants to the
 licensee that it is not a competitor of Gaussian, Inc. and that
 it will not use this program in any manner prohibited above.
 ---------------------------------------------------------------
  

 Cite this work as:
 Gaussian 16, Revision A.03,
 M. J. Frisch, G. W. Trucks, H. B. Schlegel, G. E. Scuseria, 
 M. A. Robb, J. R. Cheeseman, G. Scalmani, V. Barone, 
 G. A. Petersson, H. Nakatsuji, X. Li, M. Caricato, A. V. Marenich, 
 J. Bloino, B. G. Janesko, R. Gomperts, B. Mennucci, H. P. Hratchian, 
 J. V. Ortiz, A. F. Izmaylov, J. L. Sonnenberg, D. Williams-Young, 
 F. Ding, F. Lipparini, F. Egidi, J. Goings, B. Peng, A. Petrone, 
 T. Henderson, D. Ranasinghe, V. G. Zakrzewski, J. Gao, N. Rega, 
 G. Zheng, W. Liang, M. Hada, M. Ehara, K. Toyota, R. Fukuda, 
 J. Hasegawa, M. Ishida, T. Nakajima, Y. Honda, O. Kitao, H. Nakai, 
 T. Vreven, K. Throssell, J. A. Montgomery, Jr., J. E. Peralta, 
 F. Ogliaro, M. J. Bearpark, J. J. Heyd, E. N. Brothers, K. N. Kudin, 
 V. N. Staroverov, T. A. Keith, R. Kobayashi, J. Normand, 
 K. Raghavachari, A. P. Rendell, J. C. Burant, S. S. Iyengar, 
 J. Tomasi, M. Cossi, J. M. Millam, M. Klene, C. Adamo, R. Cammi, 
 J. W. Ochterski, R. L. Martin, K. Morokuma, O. Farkas, 
 J. B. Foresman, and D. J. Fox, Gaussian, Inc., Wallingford CT, 2016.
 
 ******************************************
 Gaussian 16:  ES64L-G16RevA.03 25-Dec-2016
                 5-Nov-2018 
 ******************************************
 %mem=6000mb
 %nproc=24
 Will use up to   24 processors via shared memory.
 %chk=D_1a_4a_L_PSI.inp_extract_12.chk
 ----------------------------------------------------------------------
 #M062X/6-311++G(2d,2p) opt=ModRedundant freq=noraman SCRF=(Solvent=Wat
 er)
 ----------------------------------------------------------------------
 1/18=120,19=15,26=3,38=1/1,3;
 2/9=110,12=2,17=6,18=5,40=1/2;
 3/5=4,6=6,7=1212,11=2,25=1,30=1,70=2201,71=1,72=1,74=-55/1,2,3;
 4//1;
 5/5=2,38=5,53=1/2;
 6/7=2,8=2,9=2,10=2,28=1/1;
 7//1,2,3,16;
 1/18=20,19=15,26=3/3(2);
 2/9=110/2;
 99//99;
 2/9=110/2;
 3/5=4,6=6,7=1212,11=2,25=1,30=1,70=2205,71=1,72=1,74=-55/1,2,3;
 4/5=5,16=3,69=1/1;
 5/5=2,38=5,53=1/2;
 7//1,2,3,16;
 1/18=20,19=15,26=3/3(-5);
 2/9=110/2;
 6/7=2,8=2,9=2,10=2,19=2,28=1/1;
 99/9=1/99;
 ----------------------------
 D_1a_4a_L_PSI.inp_extract_12
 ----------------------------
 Symbolic Z-matrix:
 Charge =  0 Multiplicity = 1
 C                     3.498    -0.3772    0.02606 
 C                     0.70875   0.26391   0.47945 
 C                    -2.17813   1.20501  -0.82609 
 C                     3.03415   1.07388  -0.1021 
 C                    -3.09553  -0.38254   0.88255 
 O                    -2.01528  -1.25782   0.61423 
 C                     2.34369  -1.32459  -0.25703 
 C                    -1.13358   0.14546  -1.19193 
 C                    -2.7137    1.06312   0.60166 
 C                    -1.59823  -1.23144  -0.73382 
 O                     1.22446  -1.04016   0.56997 
 O                     0.1842    0.51826  -0.79237 
 C                     1.79247   1.29508   0.76308 
 H                     3.86847  -0.55702   1.03273 
 H                     4.31025  -0.59074  -0.66307 
 H                    -3.00696   1.08434  -1.52 
 H                     3.82231   1.75489   0.2044 
 H                     2.81037   1.2961   -1.14201 
 H                     2.04706  -1.26662  -1.29901 
 H                     2.61166  -2.34973  -0.04106 
 H                    -1.97667   1.39142   1.32707 
 H                    -3.58924   1.69257   0.73293 
 H                    -2.43213  -1.52184  -1.36877 
 H                    -0.81749  -1.96829  -0.8407 
 H                     2.06217   1.20088   1.81168 
 H                     1.3794    2.28789   0.62076 
 H                    -0.06107   0.30819   1.22829 
 H                    -3.94741  -0.67693   0.27292 
 H                    -3.35512  -0.5285    1.92219 
 H                    -1.76464   2.19391  -0.99363 
 H                    -1.05543   0.10314  -2.27044 
 
 The following ModRedundant input section has been read:
 D       3       8      12       2 F                                           
 

 GradGradGradGradGradGradGradGradGradGradGradGradGradGradGradGradGradGrad
 Berny optimization.
 Initialization pass.
                           ----------------------------
                           !    Initial Parameters    !
                           ! (Angstroms and Degrees)  !
 --------------------------                            --------------------------
 ! Name  Definition              Value          Derivative Info.                !
 --------------------------------------------------------------------------------
 ! R1    R(1,4)                  1.5288         estimate D2E/DX2                !
 ! R2    R(1,7)                  1.5199         estimate D2E/DX2                !
 ! R3    R(1,14)                 1.0876         estimate D2E/DX2                !
 ! R4    R(1,15)                 1.0864         estimate D2E/DX2                !
 ! R5    R(2,11)                 1.4053         estimate D2E/DX2                !
 ! R6    R(2,12)                 1.3991         estimate D2E/DX2                !
 ! R7    R(2,13)                 1.5226         estimate D2E/DX2                !
 ! R8    R(2,27)                 1.0749         estimate D2E/DX2                !
 ! R9    R(3,8)                  1.5322         estimate D2E/DX2                !
 ! R10   R(3,9)                  1.5315         estimate D2E/DX2                !
 ! R11   R(3,16)                 1.0877         estimate D2E/DX2                !
 ! R12   R(3,30)                 1.0849         estimate D2E/DX2                !
 ! R13   R(4,13)                 1.5295         estimate D2E/DX2                !
 ! R14   R(4,17)                 1.0858         estimate D2E/DX2                !
 ! R15   R(4,18)                 1.0867         estimate D2E/DX2                !
 ! R16   R(5,6)                  1.416          estimate D2E/DX2                !
 ! R17   R(5,9)                  1.5214         estimate D2E/DX2                !
 ! R18   R(5,28)                 1.0881         estimate D2E/DX2                !
 ! R19   R(5,29)                 1.0815         estimate D2E/DX2                !
 ! R20   R(6,10)                 1.4113         estimate D2E/DX2                !
 ! R21   R(7,11)                 1.4204         estimate D2E/DX2                !
 ! R22   R(7,19)                 1.0849         estimate D2E/DX2                !
 ! R23   R(7,20)                 1.0814         estimate D2E/DX2                !
 ! R24   R(8,10)                 1.5237         estimate D2E/DX2                !
 ! R25   R(8,12)                 1.4266         estimate D2E/DX2                !
 ! R26   R(8,31)                 1.0822         estimate D2E/DX2                !
 ! R27   R(9,21)                 1.085          estimate D2E/DX2                !
 ! R28   R(9,22)                 1.0863         estimate D2E/DX2                !
 ! R29   R(10,23)                1.0876         estimate D2E/DX2                !
 ! R30   R(10,24)                1.0789         estimate D2E/DX2                !
 ! R31   R(13,25)                1.0868         estimate D2E/DX2                !
 ! R32   R(13,26)                1.0847         estimate D2E/DX2                !
 ! A1    A(4,1,7)              110.2183         estimate D2E/DX2                !
 ! A2    A(4,1,14)             109.7469         estimate D2E/DX2                !
 ! A3    A(4,1,15)             111.1141         estimate D2E/DX2                !
 ! A4    A(7,1,14)             109.1486         estimate D2E/DX2                !
 ! A5    A(7,1,15)             109.0963         estimate D2E/DX2                !
 ! A6    A(14,1,15)            107.4541         estimate D2E/DX2                !
 ! A7    A(11,2,12)            111.399          estimate D2E/DX2                !
 ! A8    A(11,2,13)            110.8109         estimate D2E/DX2                !
 ! A9    A(11,2,27)            104.8439         estimate D2E/DX2                !
 ! A10   A(12,2,13)            108.2452         estimate D2E/DX2                !
 ! A11   A(12,2,27)            110.9343         estimate D2E/DX2                !
 ! A12   A(13,2,27)            110.6153         estimate D2E/DX2                !
 ! A13   A(8,3,9)              113.3871         estimate D2E/DX2                !
 ! A14   A(8,3,16)             106.8853         estimate D2E/DX2                !
 ! A15   A(8,3,30)             109.49           estimate D2E/DX2                !
 ! A16   A(9,3,16)             108.5417         estimate D2E/DX2                !
 ! A17   A(9,3,30)             111.2053         estimate D2E/DX2                !
 ! A18   A(16,3,30)            107.0397         estimate D2E/DX2                !
 ! A19   A(1,4,13)             109.6437         estimate D2E/DX2                !
 ! A20   A(1,4,17)             110.5742         estimate D2E/DX2                !
 ! A21   A(1,4,18)             109.6825         estimate D2E/DX2                !
 ! A22   A(13,4,17)            109.8105         estimate D2E/DX2                !
 ! A23   A(13,4,18)            110.1558         estimate D2E/DX2                !
 ! A24   A(17,4,18)            106.9397         estimate D2E/DX2                !
 ! A25   A(6,5,9)              111.1564         estimate D2E/DX2                !
 ! A26   A(6,5,28)             108.8966         estimate D2E/DX2                !
 ! A27   A(6,5,29)             106.3713         estimate D2E/DX2                !
 ! A28   A(9,5,28)             110.4951         estimate D2E/DX2                !
 ! A29   A(9,5,29)             111.468          estimate D2E/DX2                !
 ! A30   A(28,5,29)            108.3098         estimate D2E/DX2                !
 ! A31   A(5,6,10)             113.2581         estimate D2E/DX2                !
 ! A32   A(1,7,11)             111.4183         estimate D2E/DX2                !
 ! A33   A(1,7,19)             110.6843         estimate D2E/DX2                !
 ! A34   A(1,7,20)             111.4392         estimate D2E/DX2                !
 ! A35   A(11,7,19)            109.4539         estimate D2E/DX2                !
 ! A36   A(11,7,20)            105.594          estimate D2E/DX2                !
 ! A37   A(19,7,20)            108.0719         estimate D2E/DX2                !
 ! A38   A(3,8,10)             110.1953         estimate D2E/DX2                !
 ! A39   A(3,8,12)             112.4668         estimate D2E/DX2                !
 ! A40   A(3,8,31)             108.3152         estimate D2E/DX2                !
 ! A41   A(10,8,12)            115.6981         estimate D2E/DX2                !
 ! A42   A(10,8,31)            106.6386         estimate D2E/DX2                !
 ! A43   A(12,8,31)            102.8646         estimate D2E/DX2                !
 ! A44   A(3,9,5)              110.3607         estimate D2E/DX2                !
 ! A45   A(3,9,21)             110.9601         estimate D2E/DX2                !
 ! A46   A(3,9,22)             109.9276         estimate D2E/DX2                !
 ! A47   A(5,9,21)             109.5461         estimate D2E/DX2                !
 ! A48   A(5,9,22)             109.027          estimate D2E/DX2                !
 ! A49   A(21,9,22)            106.9405         estimate D2E/DX2                !
 ! A50   A(6,10,8)             113.215          estimate D2E/DX2                !
 ! A51   A(6,10,23)            109.0306         estimate D2E/DX2                !
 ! A52   A(6,10,24)            107.1999         estimate D2E/DX2                !
 ! A53   A(8,10,23)            107.4319         estimate D2E/DX2                !
 ! A54   A(8,10,24)            111.5132         estimate D2E/DX2                !
 ! A55   A(23,10,24)           108.3409         estimate D2E/DX2                !
 ! A56   A(2,11,7)             115.9443         estimate D2E/DX2                !
 ! A57   A(2,12,8)             123.6033         estimate D2E/DX2                !
 ! A58   A(2,13,4)             111.9945         estimate D2E/DX2                !
 ! A59   A(2,13,25)            107.317          estimate D2E/DX2                !
 ! A60   A(2,13,26)            108.9289         estimate D2E/DX2                !
 ! A61   A(4,13,25)            109.3776         estimate D2E/DX2                !
 ! A62   A(4,13,26)            111.5506         estimate D2E/DX2                !
 ! A63   A(25,13,26)           107.4832         estimate D2E/DX2                !
 ! D1    D(7,1,4,13)            52.5631         estimate D2E/DX2                !
 ! D2    D(7,1,4,17)           173.785          estimate D2E/DX2                !
 ! D3    D(7,1,4,18)           -68.518          estimate D2E/DX2                !
 ! D4    D(14,1,4,13)          -67.6756         estimate D2E/DX2                !
 ! D5    D(14,1,4,17)           53.5462         estimate D2E/DX2                !
 ! D6    D(14,1,4,18)          171.2432         estimate D2E/DX2                !
 ! D7    D(15,1,4,13)          173.6237         estimate D2E/DX2                !
 ! D8    D(15,1,4,17)          -65.1545         estimate D2E/DX2                !
 ! D9    D(15,1,4,18)           52.5426         estimate D2E/DX2                !
 ! D10   D(4,1,7,11)           -54.5607         estimate D2E/DX2                !
 ! D11   D(4,1,7,19)            67.4789         estimate D2E/DX2                !
 ! D12   D(4,1,7,20)          -172.2233         estimate D2E/DX2                !
 ! D13   D(14,1,7,11)           66.0379         estimate D2E/DX2                !
 ! D14   D(14,1,7,19)         -171.9225         estimate D2E/DX2                !
 ! D15   D(14,1,7,20)          -51.6247         estimate D2E/DX2                !
 ! D16   D(15,1,7,11)         -176.8192         estimate D2E/DX2                !
 ! D17   D(15,1,7,19)          -54.7795         estimate D2E/DX2                !
 ! D18   D(15,1,7,20)           65.5182         estimate D2E/DX2                !
 ! D19   D(12,2,11,7)           64.7556         estimate D2E/DX2                !
 ! D20   D(13,2,11,7)          -55.8204         estimate D2E/DX2                !
 ! D21   D(27,2,11,7)         -175.1875         estimate D2E/DX2                !
 ! D22   D(11,2,12,8)           83.5287         estimate D2E/DX2                !
 ! D23   D(13,2,12,8)         -154.3999         estimate D2E/DX2                !
 ! D24   D(27,2,12,8)          -32.8635         estimate D2E/DX2                !
 ! D25   D(11,2,13,4)           52.4049         estimate D2E/DX2                !
 ! D26   D(11,2,13,25)         -67.6456         estimate D2E/DX2                !
 ! D27   D(11,2,13,26)         176.2756         estimate D2E/DX2                !
 ! D28   D(12,2,13,4)          -70.0262         estimate D2E/DX2                !
 ! D29   D(12,2,13,25)         169.9233         estimate D2E/DX2                !
 ! D30   D(12,2,13,26)          53.8446         estimate D2E/DX2                !
 ! D31   D(27,2,13,4)          168.241          estimate D2E/DX2                !
 ! D32   D(27,2,13,25)          48.1905         estimate D2E/DX2                !
 ! D33   D(27,2,13,26)         -67.8883         estimate D2E/DX2                !
 ! D34   D(9,3,8,10)            45.1329         estimate D2E/DX2                !
 ! D35   D(9,3,8,12)           -85.5669         estimate D2E/DX2                !
 ! D36   D(9,3,8,31)           161.4365         estimate D2E/DX2                !
 ! D37   D(16,3,8,10)          -74.4276         estimate D2E/DX2                !
 ! D38   D(16,3,8,12)          154.8726         estimate D2E/DX2                !
 ! D39   D(16,3,8,31)           41.876          estimate D2E/DX2                !
 ! D40   D(30,3,8,10)          169.96           estimate D2E/DX2                !
 ! D41   D(30,3,8,12)           39.2603         estimate D2E/DX2                !
 ! D42   D(30,3,8,31)          -73.7364         estimate D2E/DX2                !
 ! D43   D(8,3,9,5)            -47.6183         estimate D2E/DX2                !
 ! D44   D(8,3,9,21)            74.0034         estimate D2E/DX2                !
 ! D45   D(8,3,9,22)          -167.912          estimate D2E/DX2                !
 ! D46   D(16,3,9,5)            70.991          estimate D2E/DX2                !
 ! D47   D(16,3,9,21)         -167.3872         estimate D2E/DX2                !
 ! D48   D(16,3,9,22)          -49.3027         estimate D2E/DX2                !
 ! D49   D(30,3,9,5)          -171.515          estimate D2E/DX2                !
 ! D50   D(30,3,9,21)          -49.8933         estimate D2E/DX2                !
 ! D51   D(30,3,9,22)           68.1913         estimate D2E/DX2                !
 ! D52   D(1,4,13,2)           -52.0389         estimate D2E/DX2                !
 ! D53   D(1,4,13,25)           66.801          estimate D2E/DX2                !
 ! D54   D(1,4,13,26)         -174.4283         estimate D2E/DX2                !
 ! D55   D(17,4,13,2)         -173.72           estimate D2E/DX2                !
 ! D56   D(17,4,13,25)         -54.8801         estimate D2E/DX2                !
 ! D57   D(17,4,13,26)          63.8907         estimate D2E/DX2                !
 ! D58   D(18,4,13,2)           68.7561         estimate D2E/DX2                !
 ! D59   D(18,4,13,25)        -172.4041         estimate D2E/DX2                !
 ! D60   D(18,4,13,26)         -53.6333         estimate D2E/DX2                !
 ! D61   D(9,5,6,10)           -61.3514         estimate D2E/DX2                !
 ! D62   D(28,5,6,10)           60.6062         estimate D2E/DX2                !
 ! D63   D(29,5,6,10)          177.1348         estimate D2E/DX2                !
 ! D64   D(6,5,9,3)             54.1757         estimate D2E/DX2                !
 ! D65   D(6,5,9,21)           -68.2797         estimate D2E/DX2                !
 ! D66   D(6,5,9,22)           175.0088         estimate D2E/DX2                !
 ! D67   D(28,5,9,3)           -66.8477         estimate D2E/DX2                !
 ! D68   D(28,5,9,21)          170.6968         estimate D2E/DX2                !
 ! D69   D(28,5,9,22)           53.9853         estimate D2E/DX2                !
 ! D70   D(29,5,9,3)           172.6625         estimate D2E/DX2                !
 ! D71   D(29,5,9,21)           50.2071         estimate D2E/DX2                !
 ! D72   D(29,5,9,22)          -66.5044         estimate D2E/DX2                !
 ! D73   D(5,6,10,8)            59.8082         estimate D2E/DX2                !
 ! D74   D(5,6,10,23)          -59.7134         estimate D2E/DX2                !
 ! D75   D(5,6,10,24)         -176.7923         estimate D2E/DX2                !
 ! D76   D(1,7,11,2)            57.6857         estimate D2E/DX2                !
 ! D77   D(19,7,11,2)          -65.0624         estimate D2E/DX2                !
 ! D78   D(20,7,11,2)          178.8245         estimate D2E/DX2                !
 ! D79   D(3,8,10,6)           -50.1514         estimate D2E/DX2                !
 ! D80   D(3,8,10,23)           70.2832         estimate D2E/DX2                !
 ! D81   D(3,8,10,24)         -171.1435         estimate D2E/DX2                !
 ! D82   D(12,8,10,6)           78.8167         estimate D2E/DX2                !
 ! D83   D(12,8,10,23)        -160.7487         estimate D2E/DX2                !
 ! D84   D(12,8,10,24)         -42.1754         estimate D2E/DX2                !
 ! D85   D(31,8,10,6)         -167.4989         estimate D2E/DX2                !
 ! D86   D(31,8,10,23)         -47.0643         estimate D2E/DX2                !
 ! D87   D(31,8,10,24)          71.509          estimate D2E/DX2                !
 ! D88   D(3,8,12,2)            86.4821         Frozen                          !
 ! D89   D(10,8,12,2)          -41.3671         estimate D2E/DX2                !
 ! D90   D(31,8,12,2)         -157.2063         estimate D2E/DX2                !
 --------------------------------------------------------------------------------
 Trust Radius=3.00D-01 FncErr=1.00D-07 GrdErr=1.00D-06 EigMax=2.50D+02 EigMin=1.00D-04
 Number of steps in this run=    186 maximum allowed number of steps=    186.
 GradGradGradGradGradGradGradGradGradGradGradGradGradGradGradGradGradGrad

                          Input orientation:                          
 ---------------------------------------------------------------------
 Center     Atomic      Atomic             Coordinates (Angstroms)
 Number     Number       Type             X           Y           Z
 ---------------------------------------------------------------------
      1          6           0        3.497995   -0.377202    0.026061
      2          6           0        0.708754    0.263911    0.479452
      3          6           0       -2.178125    1.205006   -0.826090
      4          6           0        3.034152    1.073879   -0.102104
      5          6           0       -3.095527   -0.382542    0.882551
      6          8           0       -2.015279   -1.257818    0.614233
      7          6           0        2.343692   -1.324586   -0.257026
      8          6           0       -1.133579    0.145456   -1.191935
      9          6           0       -2.713696    1.063115    0.601660
     10          6           0       -1.598233   -1.231441   -0.733820
     11          8           0        1.224461   -1.040157    0.569973
     12          8           0        0.184197    0.518257   -0.792367
     13          6           0        1.792470    1.295083    0.763081
     14          1           0        3.868466   -0.557024    1.032730
     15          1           0        4.310252   -0.590737   -0.663074
     16          1           0       -3.006963    1.084344   -1.519997
     17          1           0        3.822308    1.754886    0.204403
     18          1           0        2.810373    1.296100   -1.142008
     19          1           0        2.047065   -1.266617   -1.299007
     20          1           0        2.611662   -2.349731   -0.041062
     21          1           0       -1.976674    1.391415    1.327074
     22          1           0       -3.589235    1.692565    0.732927
     23          1           0       -2.432127   -1.521836   -1.368767
     24          1           0       -0.817487   -1.968286   -0.840700
     25          1           0        2.062165    1.200883    1.811681
     26          1           0        1.379401    2.287887    0.620764
     27          1           0       -0.061072    0.308191    1.228291
     28          1           0       -3.947408   -0.676931    0.272923
     29          1           0       -3.355118   -0.528501    1.922187
     30          1           0       -1.764637    2.193908   -0.993631
     31          1           0       -1.055427    0.103139   -2.270442
 ---------------------------------------------------------------------
                    Distance matrix (angstroms):
                    1          2          3          4          5
     1  C    0.000000
     2  C    2.897664   0.000000
     3  C    5.953812   3.305173   0.000000
     4  C    1.528795   2.530164   5.263951   0.000000
     5  C    6.648920   3.879812   2.506270   6.376807   0.000000
     6  O    5.614056   3.123168   2.857718   5.607736   1.415994
     7  C    1.519898   2.395568   5.212437   2.500674   5.636593
     8  C    4.817485   2.490333   1.532177   4.406777   2.903707
     9  C    6.402416   3.516650   1.531483   5.790782   1.521387
    10  C    5.222900   3.005045   2.506205   5.212730   2.361181
    11  O    2.429878   1.405255   4.308984   2.862834   4.380920
    12  O    3.528871   1.399062   2.460351   2.984531   3.791224
    13  C    2.499710   1.522564   4.277757   1.529461   5.169257
    14  H    1.087643   3.311168   6.566675   2.154941   6.967797
    15  H    1.086400   3.873832   6.734263   2.171190   7.568214
    16  H    6.844041   4.298542   1.087676   6.205288   2.816351
    17  H    2.163974   3.463073   6.113058   1.085775   7.272202
    18  H    2.153404   2.848043   4.999321   1.086674   6.465008
    19  H    2.156864   2.701205   4.917805   2.807996   5.655708
    20  H    2.163553   3.274617   6.016185   3.450120   6.106955
    21  H    5.898529   3.033357   2.170587   5.220321   2.143911
    22  H    7.417036   4.536299   2.158583   6.704424   2.138271
    23  H    6.198555   4.058317   2.791896   6.182425   2.608931
    24  H    4.680407   3.009139   3.452728   4.963408   3.267054
    25  H    2.782157   2.117657   4.993787   2.150224   5.474697
    26  H    3.456127   2.136870   3.990239   2.175903   5.217730
    27  H    3.818649   1.074873   3.083289   3.454944   3.131224
    28  H    7.455522   4.754754   2.807112   7.207507   1.088123
    29  H    7.112197   4.384570   3.455920   6.891164   1.081450
    30  H    5.945223   3.465909   1.084882   5.007760   3.453899
    31  H    5.122334   3.271101   2.135583   4.729554   3.786721
                    6          7          8          9         10
     6  O    0.000000
     7  C    4.445692   0.000000
     8  C    2.451289   3.889279   0.000000
     9  C    2.423773   5.658236   2.560440   0.000000
    10  C    1.411336   3.971748   1.523686   2.879714   0.000000
    11  O    3.247345   1.420389   3.173382   4.464733   3.115135
    12  O    3.157635   2.888958   1.426593   3.261589   2.498385
    13  C    4.586765   2.864809   3.702093   4.515019   4.485633
    14  H    5.940093   2.139523   5.519336   6.792314   5.784491
    15  H    6.487592   2.137935   5.518783   7.326024   5.943543
    16  H    3.320256   6.002295   2.121015   2.141935   2.822314
    17  H    6.581927   3.447081   5.394520   6.584505   6.259447
    18  H    5.735311   2.805170   4.108678   5.797413   5.098126
    19  H    4.490346   1.084930   3.481653   5.630722   3.689020
    20  H    4.798986   1.081374   4.645137   6.357676   4.410635
    21  H    2.743733   5.343369   2.934047   1.084992   3.357063
    22  H    3.346070   6.729252   3.482655   1.086281   3.829523
    23  H    2.043467   4.907476   2.120698   3.262489   1.087597
    24  H    2.014026   3.278426   2.165914   3.855568   1.078855
    25  H    4.909648   3.276706   4.510922   4.928689   5.078808
    26  H    4.908759   3.840616   3.767089   4.272455   4.804880
    27  H    2.578445   3.264202   2.652216   2.828249   2.929712
    28  H    2.046227   6.346514   3.277158   2.158211   2.615270
    29  H    2.009432   6.152979   3.884226   2.165284   3.261157
    30  H    3.816079   5.459007   2.152606   2.173559   3.439216
    31  H    3.330896   4.200744   1.082163   3.452590   2.106407
                   11         12         13         14         15
    11  O    0.000000
    12  O    2.316630   0.000000
    13  C    2.411073   2.368421   0.000000
    14  H    2.727329   4.249829   2.795133   0.000000
    15  H    3.353280   4.274449   3.453905   1.752730   0.000000
    16  H    5.175561   3.321657   5.318967   7.515453   7.555253
    17  H    3.833369   3.969717   2.154944   2.456254   2.548049
    18  H    3.302135   2.761175   2.159975   3.046820   2.457472
    19  H    2.054519   2.629208   3.298383   3.042700   2.446066
    20  H    2.003166   3.831762   3.821307   2.438521   2.523126
    21  H    4.090600   3.150206   3.812324   6.168364   6.885859
    22  H    5.537688   4.236072   5.396448   7.795373   8.340514
    23  H    4.166697   3.367398   5.506998   6.811426   6.842852
    24  H    2.649712   2.681157   4.475887   5.240187   5.312523
    25  H    2.695524   3.282348   1.086817   2.638129   3.793179
    26  H    3.332036   2.560672   1.084684   3.802457   4.304022
    27  H    1.975859   2.046300   2.150812   4.028413   4.847041
    28  H    5.193111   4.430968   6.088948   7.853634   8.310985
    29  H    4.802376   4.581622   5.582710   7.278194   8.089830
    30  H    4.673194   2.578036   4.067792   6.588294   6.690874
    31  H    3.817456   1.973245   4.328222   5.965860   5.644077
                   16         17         18         19         20
    16  H    0.000000
    17  H    7.075459   0.000000
    18  H    5.833448   1.745657   0.000000
    19  H    5.578445   3.813294   2.678583   0.000000
    20  H    6.749005   4.286467   3.813614   1.753377   0.000000
    21  H    3.043288   5.917828   5.387139   5.491076   6.076249
    22  H    2.405128   7.430625   6.680385   6.682319   7.442469
    23  H    2.673103   7.233929   5.956172   4.486999   5.280911
    24  H    3.817565   6.040029   4.889619   2.984634   3.541749
    25  H    6.067101   2.447114   3.048469   3.970537   4.042458
    26  H    5.027083   2.534806   2.477637   4.094606   4.843963
    27  H    4.102898   4.268713   3.852204   3.648492   3.977350
    28  H    2.683484   8.141678   7.180702   6.225143   6.776300
    29  H    3.817213   7.725288   7.122622   6.332810   6.540160
    30  H    1.746874   5.730792   4.664632   5.157282   6.379971
    31  H    2.309637   5.713617   4.200111   3.527800   4.943101
                   21         22         23         24         25
    21  H    0.000000
    22  H    1.744722   0.000000
    23  H    3.995251   4.011034   0.000000
    24  H    4.162998   4.853938   1.756484   0.000000
    25  H    4.072268   5.774408   6.142240   5.036979   0.000000
    26  H    3.544824   5.005430   5.744560   5.007714   1.751008
    27  H    2.202876   3.822278   3.964292   3.167844   2.376000
    28  H    3.045174   2.440165   2.388532   3.564289   6.481430
    29  H    2.437282   2.530274   3.559355   4.018221   5.687700
    30  H    2.464676   2.561544   3.793814   4.271339   4.847710
    31  H    3.930709   4.238712   2.312761   2.528157   5.252442
                   26         27         28         29         30
    26  H    0.000000
    27  H    2.522548   0.000000
    28  H    6.106229   4.121505   0.000000
    29  H    5.660514   3.468758   1.758667   0.000000
    30  H    3.535545   3.375648   3.822351   4.294547   0.000000
    31  H    4.365843   3.643065   3.929474   4.823452   2.550400
                   31
    31  H    0.000000
 Stoichiometry    C10H18O3
 Framework group  C1[X(C10H18O3)]
 Deg. of freedom    87
 Full point group                 C1      NOp   1
 Largest Abelian subgroup         C1      NOp   1
 Largest concise Abelian subgroup C1      NOp   1
                         Standard orientation:                         
 ---------------------------------------------------------------------
 Center     Atomic      Atomic             Coordinates (Angstroms)
 Number     Number       Type             X           Y           Z
 ---------------------------------------------------------------------
      1          6           0       -3.497995   -0.377202   -0.026061
      2          6           0       -0.708754    0.263911   -0.479452
      3          6           0        2.178125    1.205006    0.826090
      4          6           0       -3.034152    1.073879    0.102104
      5          6           0        3.095527   -0.382542   -0.882551
      6          8           0        2.015279   -1.257818   -0.614233
      7          6           0       -2.343692   -1.324586    0.257026
      8          6           0        1.133579    0.145456    1.191935
      9          6           0        2.713696    1.063115   -0.601660
     10          6           0        1.598233   -1.231441    0.733820
     11          8           0       -1.224461   -1.040157   -0.569973
     12          8           0       -0.184197    0.518257    0.792367
     13          6           0       -1.792470    1.295083   -0.763081
     14          1           0       -3.868466   -0.557024   -1.032730
     15          1           0       -4.310252   -0.590737    0.663074
     16          1           0        3.006963    1.084344    1.519997
     17          1           0       -3.822308    1.754886   -0.204403
     18          1           0       -2.810373    1.296100    1.142008
     19          1           0       -2.047065   -1.266617    1.299007
     20          1           0       -2.611662   -2.349731    0.041062
     21          1           0        1.976674    1.391415   -1.327074
     22          1           0        3.589235    1.692565   -0.732927
     23          1           0        2.432127   -1.521836    1.368767
     24          1           0        0.817487   -1.968286    0.840700
     25          1           0       -2.062165    1.200883   -1.811681
     26          1           0       -1.379401    2.287887   -0.620764
     27          1           0        0.061072    0.308191   -1.228291
     28          1           0        3.947408   -0.676931   -0.272923
     29          1           0        3.355118   -0.528501   -1.922187
     30          1           0        1.764637    2.193908    0.993631
     31          1           0        1.055427    0.103139    2.270442
 ---------------------------------------------------------------------
 Rotational constants (GHZ):           1.7001337           0.5026628           0.4616481
 Standard basis: 6-311++G(2d,2p) (5D, 7F)
 There are   557 symmetry adapted cartesian basis functions of A   symmetry.
 There are   531 symmetry adapted basis functions of A   symmetry.
   531 basis functions,   762 primitive gaussians,   557 cartesian basis functions
    51 alpha electrons       51 beta electrons
       nuclear repulsion energy       916.9634922611 Hartrees.
 NAtoms=   31 NActive=   31 NUniq=   31 SFac= 1.00D+00 NAtFMM=   60 NAOKFM=F Big=F
 Integral buffers will be    131072 words long.
 Raffenetti 2 integral format.
 Two-electron integral symmetry is turned on.
 ------------------------------------------------------------------------------
 Polarizable Continuum Model (PCM)
 =================================
 Model                : PCM.
 Atomic radii         : UFF (Universal Force Field).
 Polarization charges : Total charges.
 Charge compensation  : None.
 Solution method      : On-the-fly selection.
 Cavity type          : Scaled VdW (van der Waals Surface) (Alpha=1.100).
 Cavity algorithm     : GePol (No added spheres)
                        Default sphere list used, NSphG=   31.
                        Lebedev-Laikov grids with approx.  5.0 points / Ang**2.
                        Smoothing algorithm: York/Karplus (Gamma=1.0000).
                        Polarization charges: spherical gaussians, with
                                              point-specific exponents (IZeta= 3).
                        Self-potential: point-specific (ISelfS= 7).
                        Self-field    : sphere-specific E.n sum rule (ISelfD= 2).
 1st derivatives      : Analytical E(r).r(x)/FMM algorithm (CHGder, D1EAlg=3).
                        Cavity 1st derivative terms included.
 Solvent              : Water, Eps=  78.355300 Eps(inf)=   1.777849
 ------------------------------------------------------------------------------
 One-electron integrals computed using PRISM.
 NBasis=   531 RedAO= T EigKep=  4.04D-06  NBF=   531
 NBsUse=   531 1.00D-06 EigRej= -1.00D+00 NBFU=   531
 ExpMin= 3.60D-02 ExpMax= 8.59D+03 ExpMxC= 1.30D+03 IAcc=3 IRadAn=         5 AccDes= 0.00D+00
 Harris functional with IExCor= 1009 and IRadAn=       5 diagonalized for initial guess.
 HarFok:  IExCor= 1009 AccDes= 0.00D+00 IRadAn=         5 IDoV= 1 UseB2=F ITyADJ=14
 ICtDFT=  3500011 ScaDFX=  1.000000  1.000000  1.000000  1.000000
 FoFCou: FMM=F IPFlag=           0 FMFlag=      100000 FMFlg1=           0
         NFxFlg=           0 DoJE=T BraDBF=F KetDBF=T FulRan=T
         wScrn=  0.000000 ICntrl=       500 IOpCl=  0 I1Cent=   200000004 NGrid=           0
         NMat0=    1 NMatS0=      1 NMatT0=    0 NMatD0=    1 NMtDS0=    0 NMtDT0=    0
 Petite list used in FoFCou.
 Requested convergence on RMS density matrix=1.00D-08 within 128 cycles.
 Requested convergence on MAX density matrix=1.00D-06.
 Requested convergence on             energy=1.00D-06.
 No special actions if energy rises.
 Inv3:  Mode=1 IEnd=    12314028.
 Iteration    1 A*A^-1 deviation from unit magnitude is 4.88D-15 for   2009.
 Iteration    1 A*A^-1 deviation from orthogonality  is 2.53D-15 for   2025   1131.
 Iteration    1 A^-1*A deviation from unit magnitude is 4.66D-15 for   2009.
 Iteration    1 A^-1*A deviation from orthogonality  is 4.76D-15 for   2008    962.
 Error on total polarization charges =  0.01466
 SCF Done:  E(RM062X) =  -617.495149012     A.U. after   13 cycles
            NFock= 13  Conv=0.14D-08     -V/T= 2.0035

 **********************************************************************

            Population analysis using the SCF density.

 **********************************************************************

 Orbital symmetries:
       Occupied  (A) (A) (A) (A) (A) (A) (A) (A) (A) (A) (A) (A)
                 (A) (A) (A) (A) (A) (A) (A) (A) (A) (A) (A) (A)
                 (A) (A) (A) (A) (A) (A) (A) (A) (A) (A) (A) (A)
                 (A) (A) (A) (A) (A) (A) (A) (A) (A) (A) (A) (A)
                 (A) (A) (A)
       Virtual   (A) (A) (A) (A) (A) (A) (A) (A) (A) (A) (A) (A)
                 (A) (A) (A) (A) (A) (A) (A) (A) (A) (A) (A) (A)
                 (A) (A) (A) (A) (A) (A) (A) (A) (A) (A) (A) (A)
                 (A) (A) (A) (A) (A) (A) (A) (A) (A) (A) (A) (A)
                 (A) (A) (A) (A) (A) (A) (A) (A) (A) (A) (A) (A)
                 (A) (A) (A) (A) (A) (A) (A) (A) (A) (A) (A) (A)
                 (A) (A) (A) (A) (A) (A) (A) (A) (A) (A) (A) (A)
                 (A) (A) (A) (A) (A) (A) (A) (A) (A) (A) (A) (A)
                 (A) (A) (A) (A) (A) (A) (A) (A) (A) (A) (A) (A)
                 (A) (A) (A) (A) (A) (A) (A) (A) (A) (A) (A) (A)
                 (A) (A) (A) (A) (A) (A) (A) (A) (A) (A) (A) (A)
                 (A) (A) (A) (A) (A) (A) (A) (A) (A) (A) (A) (A)
                 (A) (A) (A) (A) (A) (A) (A) (A) (A) (A) (A) (A)
                 (A) (A) (A) (A) (A) (A) (A) (A) (A) (A) (A) (A)
                 (A) (A) (A) (A) (A) (A) (A) (A) (A) (A) (A) (A)
                 (A) (A) (A) (A) (A) (A) (A) (A) (A) (A) (A) (A)
                 (A) (A) (A) (A) (A) (A) (A) (A) (A) (A) (A) (A)
                 (A) (A) (A) (A) (A) (A) (A) (A) (A) (A) (A) (A)
                 (A) (A) (A) (A) (A) (A) (A) (A) (A) (A) (A) (A)
                 (A) (A) (A) (A) (A) (A) (A) (A) (A) (A) (A) (A)
                 (A) (A) (A) (A) (A) (A) (A) (A) (A) (A) (A) (A)
                 (A) (A) (A) (A) (A) (A) (A) (A) (A) (A) (A) (A)
                 (A) (A) (A) (A) (A) (A) (A) (A) (A) (A) (A) (A)
                 (A) (A) (A) (A) (A) (A) (A) (A) (A) (A) (A) (A)
                 (A) (A) (A) (A) (A) (A) (A) (A) (A) (A) (A) (A)
                 (A) (A) (A) (A) (A) (A) (A) (A) (A) (A) (A) (A)
                 (A) (A) (A) (A) (A) (A) (A) (A) (A) (A) (A) (A)
                 (A) (A) (A) (A) (A) (A) (A) (A) (A) (A) (A) (A)
                 (A) (A) (A) (A) (A) (A) (A) (A) (A) (A) (A) (A)
                 (A) (A) (A) (A) (A) (A) (A) (A) (A) (A) (A) (A)
                 (A) (A) (A) (A) (A) (A) (A) (A) (A) (A) (A) (A)
                 (A) (A) (A) (A) (A) (A) (A) (A) (A) (A) (A) (A)
                 (A) (A) (A) (A) (A) (A) (A) (A) (A) (A) (A) (A)
                 (A) (A) (A) (A) (A) (A) (A) (A) (A) (A) (A) (A)
                 (A) (A) (A) (A) (A) (A) (A) (A) (A) (A) (A) (A)
                 (A) (A) (A) (A) (A) (A) (A) (A) (A) (A) (A) (A)
                 (A) (A) (A) (A) (A) (A) (A) (A) (A) (A) (A) (A)
                 (A) (A) (A) (A) (A) (A) (A) (A) (A) (A) (A) (A)
                 (A) (A) (A) (A) (A) (A) (A) (A) (A) (A) (A) (A)
                 (A) (A) (A) (A) (A) (A) (A) (A) (A) (A) (A) (A)
 The electronic state is 1-A.
 Alpha  occ. eigenvalues --  -19.62719 -19.62467 -19.62273 -10.62945 -10.58875
 Alpha  occ. eigenvalues --  -10.57833 -10.57812 -10.57392 -10.53160 -10.53017
 Alpha  occ. eigenvalues --  -10.52806 -10.52688 -10.52613  -1.19542  -1.16511
 Alpha  occ. eigenvalues --   -1.12964  -0.90663  -0.89554  -0.87451  -0.84750
 Alpha  occ. eigenvalues --   -0.75146  -0.74212  -0.73166  -0.71114  -0.66409
 Alpha  occ. eigenvalues --   -0.62514  -0.59544  -0.58781  -0.56753  -0.55247
 Alpha  occ. eigenvalues --   -0.54472  -0.53285  -0.52429  -0.50454  -0.49934
 Alpha  occ. eigenvalues --   -0.48898  -0.46687  -0.45737  -0.45630  -0.45052
 Alpha  occ. eigenvalues --   -0.43438  -0.42505  -0.42086  -0.40063  -0.39394
 Alpha  occ. eigenvalues --   -0.38398  -0.37057  -0.36058  -0.34172  -0.32819
 Alpha  occ. eigenvalues --   -0.31547
 Alpha virt. eigenvalues --   -0.00210   0.00748   0.00881   0.01198   0.02276
 Alpha virt. eigenvalues --    0.02512   0.02665   0.03222   0.03437   0.04566
 Alpha virt. eigenvalues --    0.04754   0.05038   0.05429   0.05729   0.07385
 Alpha virt. eigenvalues --    0.07513   0.07971   0.08218   0.08394   0.09637
 Alpha virt. eigenvalues --    0.09927   0.10669   0.11223   0.11471   0.11916
 Alpha virt. eigenvalues --    0.12234   0.12745   0.12968   0.13438   0.13685
 Alpha virt. eigenvalues --    0.13906   0.14196   0.14255   0.14641   0.14770
 Alpha virt. eigenvalues --    0.14966   0.15316   0.15612   0.16060   0.16267
 Alpha virt. eigenvalues --    0.16498   0.17013   0.17484   0.17746   0.18200
 Alpha virt. eigenvalues --    0.18318   0.18487   0.18752   0.19111   0.19438
 Alpha virt. eigenvalues --    0.19741   0.20126   0.20613   0.20716   0.21243
 Alpha virt. eigenvalues --    0.22212   0.22561   0.22969   0.23674   0.24331
 Alpha virt. eigenvalues --    0.25035   0.25416   0.25806   0.26683   0.26875
 Alpha virt. eigenvalues --    0.27759   0.28185   0.28837   0.29290   0.29694
 Alpha virt. eigenvalues --    0.30005   0.30499   0.30978   0.31658   0.31861
 Alpha virt. eigenvalues --    0.32595   0.32884   0.33801   0.34489   0.34639
 Alpha virt. eigenvalues --    0.35334   0.35791   0.36154   0.36247   0.36555
 Alpha virt. eigenvalues --    0.37209   0.37623   0.37846   0.38200   0.38313
 Alpha virt. eigenvalues --    0.38784   0.39466   0.39997   0.40534   0.41415
 Alpha virt. eigenvalues --    0.42739   0.43344   0.43729   0.44285   0.45042
 Alpha virt. eigenvalues --    0.47461   0.47493   0.49152   0.50166   0.50852
 Alpha virt. eigenvalues --    0.51383   0.52446   0.53915   0.55293   0.56510
 Alpha virt. eigenvalues --    0.57242   0.57420   0.58369   0.58842   0.60060
 Alpha virt. eigenvalues --    0.60383   0.60768   0.60984   0.61539   0.62076
 Alpha virt. eigenvalues --    0.62727   0.62842   0.63419   0.64125   0.64332
 Alpha virt. eigenvalues --    0.64585   0.65519   0.66059   0.66906   0.67342
 Alpha virt. eigenvalues --    0.67930   0.68499   0.68903   0.69935   0.70298
 Alpha virt. eigenvalues --    0.71122   0.71501   0.72383   0.72899   0.73230
 Alpha virt. eigenvalues --    0.74465   0.74593   0.75273   0.75615   0.75989
 Alpha virt. eigenvalues --    0.76277   0.77420   0.78271   0.78586   0.79329
 Alpha virt. eigenvalues --    0.80530   0.81519   0.83714   0.85255   0.86271
 Alpha virt. eigenvalues --    0.87120   0.87419   0.88378   0.89190   0.90158
 Alpha virt. eigenvalues --    0.90440   0.92129   0.93165   0.96215   0.97679
 Alpha virt. eigenvalues --    0.98106   0.99724   1.00163   1.01263   1.02128
 Alpha virt. eigenvalues --    1.02897   1.03431   1.04117   1.05598   1.06595
 Alpha virt. eigenvalues --    1.07949   1.08488   1.10731   1.11966   1.13155
 Alpha virt. eigenvalues --    1.13571   1.14002   1.15813   1.16555   1.16990
 Alpha virt. eigenvalues --    1.17994   1.18367   1.19308   1.20096   1.21038
 Alpha virt. eigenvalues --    1.21484   1.22359   1.23496   1.23603   1.24252
 Alpha virt. eigenvalues --    1.25712   1.26065   1.26443   1.27536   1.28235
 Alpha virt. eigenvalues --    1.29272   1.30789   1.31328   1.32029   1.32215
 Alpha virt. eigenvalues --    1.33217   1.33864   1.34814   1.35152   1.35655
 Alpha virt. eigenvalues --    1.36295   1.36373   1.37150   1.38135   1.38515
 Alpha virt. eigenvalues --    1.39787   1.40008   1.40368   1.41383   1.41995
 Alpha virt. eigenvalues --    1.42739   1.43102   1.43597   1.44321   1.45003
 Alpha virt. eigenvalues --    1.45529   1.46999   1.47634   1.48435   1.48944
 Alpha virt. eigenvalues --    1.50122   1.50329   1.51790   1.52472   1.53218
 Alpha virt. eigenvalues --    1.53750   1.53851   1.54895   1.55594   1.56745
 Alpha virt. eigenvalues --    1.57205   1.58014   1.58309   1.58825   1.59639
 Alpha virt. eigenvalues --    1.60248   1.60580   1.61729   1.62827   1.63698
 Alpha virt. eigenvalues --    1.64315   1.65007   1.65461   1.66883   1.67956
 Alpha virt. eigenvalues --    1.68407   1.69189   1.70915   1.71787   1.73406
 Alpha virt. eigenvalues --    1.73902   1.74694   1.76125   1.78432   1.78801
 Alpha virt. eigenvalues --    1.79583   1.80829   1.81737   1.82796   1.85531
 Alpha virt. eigenvalues --    1.86630   1.89309   1.91687   1.95695   1.98491
 Alpha virt. eigenvalues --    2.03210   2.06831   2.13686   2.17629   2.22144
 Alpha virt. eigenvalues --    2.23225   2.27859   2.33665   2.35354   2.38403
 Alpha virt. eigenvalues --    2.41567   2.43640   2.46635   2.48085   2.54925
 Alpha virt. eigenvalues --    2.62439   2.76884   2.78491   2.79261   2.80877
 Alpha virt. eigenvalues --    2.87235   2.88610   2.92698   2.93484   2.95131
 Alpha virt. eigenvalues --    2.95917   2.96863   3.00308   3.01382   3.03737
 Alpha virt. eigenvalues --    3.06268   3.07893   3.09058   3.11209   3.12377
 Alpha virt. eigenvalues --    3.14024   3.14493   3.16623   3.19088   3.22099
 Alpha virt. eigenvalues --    3.25820   3.29117   3.30763   3.33812   3.34836
 Alpha virt. eigenvalues --    3.35506   3.37208   3.37838   3.40704   3.41998
 Alpha virt. eigenvalues --    3.42910   3.44317   3.44854   3.45911   3.46936
 Alpha virt. eigenvalues --    3.48245   3.49774   3.51432   3.51596   3.52267
 Alpha virt. eigenvalues --    3.53467   3.54966   3.55182   3.55809   3.56252
 Alpha virt. eigenvalues --    3.57288   3.58474   3.58538   3.59337   3.60303
 Alpha virt. eigenvalues --    3.60768   3.62054   3.64605   3.65535   3.66255
 Alpha virt. eigenvalues --    3.66719   3.67502   3.68482   3.68845   3.70640
 Alpha virt. eigenvalues --    3.70847   3.72053   3.73338   3.74000   3.74453
 Alpha virt. eigenvalues --    3.75372   3.75512   3.76355   3.78023   3.78613
 Alpha virt. eigenvalues --    3.80226   3.81114   3.83369   3.84807   3.85714
 Alpha virt. eigenvalues --    3.86768   3.87281   3.88315   3.89699   3.91013
 Alpha virt. eigenvalues --    3.92194   3.93300   3.94495   3.95717   3.99030
 Alpha virt. eigenvalues --    3.99577   4.01487   4.02133   4.02893   4.03751
 Alpha virt. eigenvalues --    4.05708   4.06187   4.06749   4.07545   4.07611
 Alpha virt. eigenvalues --    4.08768   4.09327   4.10320   4.11714   4.11879
 Alpha virt. eigenvalues --    4.12397   4.13400   4.14487   4.15207   4.16275
 Alpha virt. eigenvalues --    4.16811   4.17969   4.18778   4.19854   4.20871
 Alpha virt. eigenvalues --    4.22624   4.24143   4.25178   4.26244   4.28271
 Alpha virt. eigenvalues --    4.29074   4.30720   4.31337   4.31882   4.32647
 Alpha virt. eigenvalues --    4.33396   4.33993   4.36557   4.37401   4.39482
 Alpha virt. eigenvalues --    4.42148   4.42867   4.45924   4.46873   4.49390
 Alpha virt. eigenvalues --    4.58058   4.61146   4.73368   4.76226   4.80344
 Alpha virt. eigenvalues --    4.85909   4.93730   4.95764   5.01427   5.04104
 Alpha virt. eigenvalues --    5.06985   5.07077   5.08154   5.08770   5.12043
 Alpha virt. eigenvalues --    5.13044   5.14242   5.14547   5.34672   5.40570
 Alpha virt. eigenvalues --    5.42981   5.59065   5.62138   5.67566   5.86966
 Alpha virt. eigenvalues --    5.87074   6.01849   7.02010   7.05770   7.08247
 Alpha virt. eigenvalues --    7.09078   7.11103   7.12833   7.14792   7.19544
 Alpha virt. eigenvalues --    7.28969   7.38279   7.42049   7.49409   7.52558
 Alpha virt. eigenvalues --    7.54209   7.63517  23.96610  23.97609  24.06140
 Alpha virt. eigenvalues --   24.08325  24.09685  24.11931  24.14044  24.15566
 Alpha virt. eigenvalues --   24.16190  24.20941  50.17476  50.18113  50.29863
          Condensed to atoms (all electrons):
               1          2          3          4          5          6
     1  C    5.727893   0.319286   0.004330   0.032541   0.002059  -0.001456
     2  C    0.319286   8.054520   0.276506  -0.366468   0.033556  -0.028959
     3  C    0.004330   0.276506   6.540308  -0.023164   0.018231   0.016575
     4  C    0.032541  -0.366468  -0.023164   5.729237   0.007855   0.004246
     5  C    0.002059   0.033556   0.018231   0.007855   5.528570   0.068612
     6  O   -0.001456  -0.028959   0.016575   0.004246   0.068612   8.266651
     7  C   -0.091456  -0.495117   0.010037  -0.055949   0.004901  -0.002322
     8  C    0.003639  -1.177248  -1.197691   0.141019   0.194602   0.002739
     9  C   -0.004377  -0.004171  -0.226586   0.002693  -0.095214   0.054312
    10  C   -0.021911   0.252384   0.527893  -0.075730  -0.230740   0.130032
    11  O   -0.081797   0.220052  -0.006750   0.022681  -0.000279   0.017702
    12  O   -0.009486   0.369747   0.011932  -0.030473  -0.012295  -0.013224
    13  C   -0.222451  -1.477712  -0.073294   0.087423  -0.036055   0.032550
    14  H    0.489761  -0.008548  -0.000143  -0.015120  -0.000223   0.000046
    15  H    0.448089   0.016126   0.000732  -0.056931   0.000147  -0.000068
    16  H   -0.001399   0.000195   0.493079   0.000086  -0.020062   0.000480
    17  H   -0.012638  -0.004522  -0.002971   0.421166  -0.000440   0.000173
    18  H   -0.070399  -0.031539   0.007071   0.528816   0.000398   0.000042
    19  H   -0.070874  -0.002005  -0.001023  -0.010881  -0.000048   0.001034
    20  H   -0.025347  -0.012926   0.000371   0.015692   0.000705   0.000043
    21  H   -0.005181   0.013785  -0.066807  -0.001893  -0.090520  -0.013077
    22  H    0.000099  -0.000427  -0.070355   0.000405  -0.026256   0.008921
    23  H    0.000788  -0.030086  -0.066701   0.001246  -0.009634  -0.052683
    24  H   -0.005273   0.061386   0.010528  -0.009326  -0.000480  -0.069682
    25  H   -0.024919  -0.170667  -0.000064   0.009685   0.001855  -0.000534
    26  H   -0.005178  -0.027408   0.000597  -0.036910   0.002860   0.000386
    27  H    0.046917   0.516806  -0.046370  -0.044222   0.014400  -0.019301
    28  H    0.000081  -0.007461  -0.061183  -0.000174   0.442073  -0.060381
    29  H   -0.000051   0.000049   0.013646   0.001010   0.456580  -0.069186
    30  H    0.003126  -0.009865   0.423339   0.003937  -0.000979  -0.000564
    31  H   -0.001169  -0.043294  -0.027129   0.003958  -0.004420   0.004801
               7          8          9         10         11         12
     1  C   -0.091456   0.003639  -0.004377  -0.021911  -0.081797  -0.009486
     2  C   -0.495117  -1.177248  -0.004171   0.252384   0.220052   0.369747
     3  C    0.010037  -1.197691  -0.226586   0.527893  -0.006750   0.011932
     4  C   -0.055949   0.141019   0.002693  -0.075730   0.022681  -0.030473
     5  C    0.004901   0.194602  -0.095214  -0.230740  -0.000279  -0.012295
     6  O   -0.002322   0.002739   0.054312   0.130032   0.017702  -0.013224
     7  C    5.581761   0.057636  -0.021538   0.055641   0.112916  -0.019437
     8  C    0.057636   8.524262  -0.107178  -1.333921   0.050709  -0.078857
     9  C   -0.021538  -0.107178   5.832589  -0.034048  -0.012876  -0.044050
    10  C    0.055641  -1.333921  -0.034048   6.568245  -0.043787   0.056948
    11  O    0.112916   0.050709  -0.012876  -0.043787   8.244249  -0.057429
    12  O   -0.019437  -0.078857  -0.044050   0.056948  -0.057429   8.284022
    13  C    0.197336   0.249987   0.035388  -0.195991  -0.020853  -0.084654
    14  H   -0.088227  -0.003043   0.000408  -0.000833   0.000085   0.000741
    15  H   -0.039800   0.001588  -0.000232   0.001114   0.008553  -0.000357
    16  H    0.001822  -0.082668  -0.025885   0.007359   0.000031   0.004305
    17  H    0.006461   0.010035   0.000752  -0.003559  -0.003329  -0.000314
    18  H    0.001668  -0.009630   0.000173  -0.002096   0.000890  -0.001757
    19  H    0.479414  -0.033109   0.001095   0.016560  -0.031352   0.007602
    20  H    0.438670   0.011010  -0.001203   0.001650  -0.072007  -0.000489
    21  H    0.004083  -0.057701   0.550093   0.053122   0.002472   0.005874
    22  H   -0.000428   0.034162   0.441533  -0.016914  -0.000481  -0.003126
    23  H    0.002428   0.081369   0.017078   0.404200   0.002299  -0.006047
    24  H   -0.009244  -0.086007   0.027126   0.387079  -0.011143   0.011517
    25  H    0.018065   0.005686  -0.003394  -0.001188  -0.002890   0.010372
    26  H    0.007664   0.011117  -0.003441  -0.000007   0.010088   0.000048
    27  H   -0.050910   0.094494  -0.014209  -0.015513  -0.108772  -0.042784
    28  H    0.000085   0.064844   0.005868  -0.044927  -0.000292  -0.001020
    29  H   -0.000002   0.022765  -0.065686  -0.017968   0.000691  -0.000430
    30  H   -0.003981  -0.016325  -0.009874  -0.020880  -0.000379   0.000160
    31  H    0.010368   0.514618  -0.025952  -0.036857   0.004042  -0.063612
              13         14         15         16         17         18
     1  C   -0.222451   0.489761   0.448089  -0.001399  -0.012638  -0.070399
     2  C   -1.477712  -0.008548   0.016126   0.000195  -0.004522  -0.031539
     3  C   -0.073294  -0.000143   0.000732   0.493079  -0.002971   0.007071
     4  C    0.087423  -0.015120  -0.056931   0.000086   0.421166   0.528816
     5  C   -0.036055  -0.000223   0.000147  -0.020062  -0.000440   0.000398
     6  O    0.032550   0.000046  -0.000068   0.000480   0.000173   0.000042
     7  C    0.197336  -0.088227  -0.039800   0.001822   0.006461   0.001668
     8  C    0.249987  -0.003043   0.001588  -0.082668   0.010035  -0.009630
     9  C    0.035388   0.000408  -0.000232  -0.025885   0.000752   0.000173
    10  C   -0.195991  -0.000833   0.001114   0.007359  -0.003559  -0.002096
    11  O   -0.020853   0.000085   0.008553   0.000031  -0.003329   0.000890
    12  O   -0.084654   0.000741  -0.000357   0.004305  -0.000314  -0.001757
    13  C    7.236079  -0.005992  -0.009001   0.002211  -0.036472  -0.039933
    14  H   -0.005992   0.482095  -0.011741   0.000003  -0.001009   0.002000
    15  H   -0.009001  -0.011741   0.489421  -0.000026  -0.008182  -0.005435
    16  H    0.002211   0.000003  -0.000026   0.431862  -0.000034   0.000294
    17  H   -0.036472  -0.001009  -0.008182  -0.000034   0.467777  -0.007497
    18  H   -0.039933   0.002000  -0.005435   0.000294  -0.007497   0.460189
    19  H    0.022087   0.004364   0.000664   0.000052  -0.001665  -0.000230
    20  H   -0.008335  -0.006900  -0.008367  -0.000005   0.000993  -0.002431
    21  H    0.010257   0.000040  -0.000129   0.004285  -0.000182   0.000558
    22  H   -0.001319  -0.000016   0.000013  -0.007610   0.000017  -0.000050
    23  H    0.000886  -0.000064   0.000048  -0.005020   0.000049  -0.000363
    24  H    0.015679   0.000408  -0.000453  -0.000963  -0.000035   0.000884
    25  H    0.552587  -0.001604  -0.003109   0.000124  -0.004133   0.002384
    26  H    0.401094  -0.001820   0.001664  -0.000287  -0.008581  -0.002508
    27  H   -0.206279   0.000326   0.003101  -0.003629   0.002065  -0.005789
    28  H   -0.000612  -0.000013   0.000019  -0.004722  -0.000004   0.000008
    29  H    0.003542   0.000049  -0.000031  -0.001307   0.000022   0.000016
    30  H    0.004805  -0.000089   0.000081   0.000819   0.000454  -0.000722
    31  H   -0.011897  -0.000277   0.000435  -0.004953   0.000468  -0.001648
              19         20         21         22         23         24
     1  C   -0.070874  -0.025347  -0.005181   0.000099   0.000788  -0.005273
     2  C   -0.002005  -0.012926   0.013785  -0.000427  -0.030086   0.061386
     3  C   -0.001023   0.000371  -0.066807  -0.070355  -0.066701   0.010528
     4  C   -0.010881   0.015692  -0.001893   0.000405   0.001246  -0.009326
     5  C   -0.000048   0.000705  -0.090520  -0.026256  -0.009634  -0.000480
     6  O    0.001034   0.000043  -0.013077   0.008921  -0.052683  -0.069682
     7  C    0.479414   0.438670   0.004083  -0.000428   0.002428  -0.009244
     8  C   -0.033109   0.011010  -0.057701   0.034162   0.081369  -0.086007
     9  C    0.001095  -0.001203   0.550093   0.441533   0.017078   0.027126
    10  C    0.016560   0.001650   0.053122  -0.016914   0.404200   0.387079
    11  O   -0.031352  -0.072007   0.002472  -0.000481   0.002299  -0.011143
    12  O    0.007602  -0.000489   0.005874  -0.003126  -0.006047   0.011517
    13  C    0.022087  -0.008335   0.010257  -0.001319   0.000886   0.015679
    14  H    0.004364  -0.006900   0.000040  -0.000016  -0.000064   0.000408
    15  H    0.000664  -0.008367  -0.000129   0.000013   0.000048  -0.000453
    16  H    0.000052  -0.000005   0.004285  -0.007610  -0.005020  -0.000963
    17  H   -0.001665   0.000993  -0.000182   0.000017   0.000049  -0.000035
    18  H   -0.000230  -0.002431   0.000558  -0.000050  -0.000363   0.000884
    19  H    0.490763  -0.012406   0.000448  -0.000088   0.000077  -0.000012
    20  H   -0.012406   0.480315  -0.000097  -0.000013   0.000376  -0.003547
    21  H    0.000448  -0.000097   0.496908  -0.011292  -0.002175   0.001310
    22  H   -0.000088  -0.000013  -0.011292   0.464428   0.001093   0.001018
    23  H    0.000077   0.000376  -0.002175   0.001093   0.466939  -0.014796
    24  H   -0.000012  -0.003547   0.001310   0.001018  -0.014796   0.487827
    25  H   -0.000279  -0.000097   0.000935  -0.000115   0.000039   0.000145
    26  H   -0.000904   0.001585  -0.003667   0.000255   0.000158  -0.001225
    27  H    0.000088  -0.000092  -0.032205   0.001612   0.001902   0.000462
    28  H   -0.000211   0.000059  -0.000682   0.007703   0.005827  -0.001100
    29  H    0.000048  -0.000048  -0.004797  -0.008329  -0.001307   0.000673
    30  H   -0.000313   0.000016  -0.005448  -0.004625  -0.000260   0.001522
    31  H   -0.004766   0.001224  -0.001135   0.000973   0.004321  -0.020994
              25         26         27         28         29         30
     1  C   -0.024919  -0.005178   0.046917   0.000081  -0.000051   0.003126
     2  C   -0.170667  -0.027408   0.516806  -0.007461   0.000049  -0.009865
     3  C   -0.000064   0.000597  -0.046370  -0.061183   0.013646   0.423339
     4  C    0.009685  -0.036910  -0.044222  -0.000174   0.001010   0.003937
     5  C    0.001855   0.002860   0.014400   0.442073   0.456580  -0.000979
     6  O   -0.000534   0.000386  -0.019301  -0.060381  -0.069186  -0.000564
     7  C    0.018065   0.007664  -0.050910   0.000085  -0.000002  -0.003981
     8  C    0.005686   0.011117   0.094494   0.064844   0.022765  -0.016325
     9  C   -0.003394  -0.003441  -0.014209   0.005868  -0.065686  -0.009874
    10  C   -0.001188  -0.000007  -0.015513  -0.044927  -0.017968  -0.020880
    11  O   -0.002890   0.010088  -0.108772  -0.000292   0.000691  -0.000379
    12  O    0.010372   0.000048  -0.042784  -0.001020  -0.000430   0.000160
    13  C    0.552587   0.401094  -0.206279  -0.000612   0.003542   0.004805
    14  H   -0.001604  -0.001820   0.000326  -0.000013   0.000049  -0.000089
    15  H   -0.003109   0.001664   0.003101   0.000019  -0.000031   0.000081
    16  H    0.000124  -0.000287  -0.003629  -0.004722  -0.001307   0.000819
    17  H   -0.004133  -0.008581   0.002065  -0.000004   0.000022   0.000454
    18  H    0.002384  -0.002508  -0.005789   0.000008   0.000016  -0.000722
    19  H   -0.000279  -0.000904   0.000088  -0.000211   0.000048  -0.000313
    20  H   -0.000097   0.001585  -0.000092   0.000059  -0.000048   0.000016
    21  H    0.000935  -0.003667  -0.032205  -0.000682  -0.004797  -0.005448
    22  H   -0.000115   0.000255   0.001612   0.007703  -0.008329  -0.004625
    23  H    0.000039   0.000158   0.001902   0.005827  -0.001307  -0.000260
    24  H    0.000145  -0.001225   0.000462  -0.001100   0.000673   0.001522
    25  H    0.454406  -0.004116  -0.024310  -0.000121   0.000159   0.000032
    26  H   -0.004116   0.485883  -0.002737   0.000092  -0.000026  -0.003082
    27  H   -0.024310  -0.002737   0.557658  -0.000535  -0.003046   0.004120
    28  H   -0.000121   0.000092  -0.000535   0.494909  -0.008601  -0.000475
    29  H    0.000159  -0.000026  -0.003046  -0.008601   0.480700   0.000085
    30  H    0.000032  -0.003082   0.004120  -0.000475   0.000085   0.470814
    31  H   -0.000543   0.002171   0.000192   0.004177   0.000561  -0.011683
              31
     1  C   -0.001169
     2  C   -0.043294
     3  C   -0.027129
     4  C    0.003958
     5  C   -0.004420
     6  O    0.004801
     7  C    0.010368
     8  C    0.514618
     9  C   -0.025952
    10  C   -0.036857
    11  O    0.004042
    12  O   -0.063612
    13  C   -0.011897
    14  H   -0.000277
    15  H    0.000435
    16  H   -0.004953
    17  H    0.000468
    18  H   -0.001648
    19  H   -0.004766
    20  H    0.001224
    21  H   -0.001135
    22  H    0.000973
    23  H    0.004321
    24  H   -0.020994
    25  H   -0.000543
    26  H    0.002171
    27  H    0.000192
    28  H    0.004177
    29  H    0.000561
    30  H   -0.011683
    31  H    0.458793
 Mulliken charges:
               1
     1  C   -0.423247
     2  C   -0.235975
     3  C   -0.484945
     4  C   -0.286457
     5  C   -0.249760
     6  O   -0.277907
     7  C   -0.112545
     8  C    0.107094
     9  C   -0.269194
    10  C   -0.365357
    11  O   -0.243046
    12  O   -0.293427
    13  C   -0.421061
    14  H    0.165338
    15  H    0.172069
    16  H    0.211562
    17  H    0.185136
    18  H    0.176638
    19  H    0.145873
    20  H    0.201602
    21  H    0.152818
    22  H    0.189211
    23  H    0.198013
    24  H    0.226713
    25  H    0.185608
    26  H    0.176237
    27  H    0.376559
    28  H    0.166768
    29  H    0.200221
    30  H    0.176234
    31  H    0.249228
 Sum of Mulliken charges =  -0.00000
 Mulliken charges with hydrogens summed into heavy atoms:
               1
     1  C   -0.085840
     2  C    0.140584
     3  C   -0.097150
     4  C    0.075317
     5  C    0.117229
     6  O   -0.277907
     7  C    0.234930
     8  C    0.356322
     9  C    0.072835
    10  C    0.059369
    11  O   -0.243046
    12  O   -0.293427
    13  C   -0.059215
 Electronic spatial extent (au):  <R**2>=           2666.6667
 Charge=              0.0000 electrons
 Dipole moment (field-independent basis, Debye):
    X=              0.9736    Y=              1.8956    Z=              1.3672  Tot=              2.5318
 Quadrupole moment (field-independent basis, Debye-Ang):
   XX=            -68.1900   YY=            -82.3523   ZZ=            -79.1866
   XY=              3.3097   XZ=              1.4699   YZ=             -5.8013
 Traceless Quadrupole moment (field-independent basis, Debye-Ang):
   XX=              8.3863   YY=             -5.7761   ZZ=             -2.6103
   XY=              3.3097   XZ=              1.4699   YZ=             -5.8013
 Octapole moment (field-independent basis, Debye-Ang**2):
  XXX=             11.8943  YYY=             -2.1480  ZZZ=              0.6359  XYY=             -5.6300
  XXY=              1.1953  XXZ=              1.3946  XZZ=              7.2710  YZZ=             -0.5575
  YYZ=              5.4582  XYZ=             -0.4287
 Hexadecapole moment (field-independent basis, Debye-Ang**3):
 XXXX=          -2449.2188 YYYY=           -619.6443 ZZZZ=           -374.0701 XXXY=             17.1444
 XXXZ=            -14.3140 YYYX=             15.9072 YYYZ=             -5.2801 ZZZX=             -3.4734
 ZZZY=              1.5670 XXYY=           -530.1007 XXZZ=           -477.9644 YYZZ=           -175.1259
 XXYZ=            -11.8654 YYXZ=              6.5381 ZZXY=             -2.8843
 N-N= 9.169634922611D+02 E-N=-3.276158858425D+03  KE= 6.153223467788D+02
 D1PCM: PCM CHGder 1st derivatives, ID1Alg=3 FixD1E=F DoIter=F DoCFld=F I1PDM=0.
 Calling FoFJK, ICntrl=      2127 FMM=F ISym2X=0 I1Cent= 0 IOpClX= 0 NMat=1 NMatS=1 NMatT=0.
 ***** Axes restored to original set *****
 -------------------------------------------------------------------
 Center     Atomic                   Forces (Hartrees/Bohr)
 Number     Number              X              Y              Z
 -------------------------------------------------------------------
      1        6          -0.001837018    0.000925686   -0.001867238
      2        6           0.004098258   -0.000364721   -0.004435712
      3        6          -0.000035764   -0.003276071    0.002789366
      4        6          -0.001928462   -0.002763255    0.001887001
      5        6           0.004579096    0.003187420   -0.003398877
      6        8           0.005502731   -0.003936656    0.006903381
      7        6           0.000939714    0.006375054    0.002191328
      8        6           0.000406175   -0.000930289    0.007006322
      9        6          -0.000462298   -0.001977418   -0.002924987
     10        6          -0.001854308    0.006161080    0.002004752
     11        8          -0.004784376   -0.008123437    0.006908946
     12        8           0.004669930    0.006404032   -0.007780370
     13        6           0.000864386   -0.000563004   -0.002747437
     14        1           0.000473226   -0.000533535    0.003269506
     15        1           0.002304543   -0.000250522   -0.001702936
     16        1          -0.003108298   -0.000565271   -0.002142990
     17        1           0.001907433    0.001587410    0.000806221
     18        1          -0.001810516    0.000113018   -0.003189544
     19        1          -0.001416124    0.001462312   -0.006061289
     20        1           0.001196002   -0.004175794    0.001047232
     21        1           0.003180732    0.000570593    0.002481510
     22        1          -0.001992574    0.002066633    0.000456500
     23        1          -0.004991119   -0.001203286   -0.004383704
     24        1           0.005538885   -0.002558119    0.000230800
     25        1           0.000949517   -0.000911624    0.003161904
     26        1          -0.001363260    0.002878581   -0.000793797
     27        1          -0.007059967   -0.000914311    0.006250897
     28        1          -0.004898347   -0.000506296   -0.003819599
     29        1          -0.000995405   -0.000498193    0.004206625
     30        1           0.001912496    0.002346170   -0.000631611
     31        1           0.000014710   -0.000026187   -0.005722200
 -------------------------------------------------------------------
 Cartesian Forces:  Max     0.008123437 RMS     0.003395749

 GradGradGradGradGradGradGradGradGradGradGradGradGradGradGradGradGradGrad
 Berny optimization.
 FormGI is forming the generalized inverse of G from B-inverse, IUseBI=4.
 Internal  Forces:  Max     0.022185601 RMS     0.002527188
 Search for a local minimum.
 Step number   1 out of a maximum of  186
 All quantities printed in internal units (Hartrees-Bohrs-Radians)
 Mixed Optimization -- RFO/linear search
 Second derivative matrix not updated -- first step.
 ITU=  0
     Eigenvalues ---    0.00537   0.00621   0.00694   0.00719   0.01415
     Eigenvalues ---    0.01415   0.01704   0.02703   0.02781   0.02971
     Eigenvalues ---    0.03075   0.04054   0.04084   0.04494   0.04743
     Eigenvalues ---    0.04744   0.04892   0.04955   0.05079   0.05141
     Eigenvalues ---    0.05274   0.05536   0.05686   0.06164   0.06170
     Eigenvalues ---    0.06303   0.06444   0.07075   0.07627   0.07852
     Eigenvalues ---    0.07965   0.07980   0.08114   0.08238   0.08460
     Eigenvalues ---    0.08827   0.09183   0.09762   0.10919   0.11593
     Eigenvalues ---    0.11730   0.11763   0.11803   0.12397   0.12664
     Eigenvalues ---    0.14646   0.15123   0.16262   0.16463   0.18115
     Eigenvalues ---    0.19057   0.21594   0.21949   0.25000   0.28365
     Eigenvalues ---    0.28609   0.28664   0.28827   0.28833   0.28922
     Eigenvalues ---    0.30124   0.30255   0.35030   0.35083   0.35086
     Eigenvalues ---    0.35092   0.35183   0.35200   0.35232   0.35246
     Eigenvalues ---    0.35306   0.35398   0.35405   0.35411   0.35434
     Eigenvalues ---    0.35734   0.35820   0.35829   0.36133   0.36621
     Eigenvalues ---    0.41008   0.41433   0.41483   0.42273   0.43235
     Eigenvalues ---    0.457761000.000001000.000001000.000001000.00000
     Eigenvalues --- 1000.000001000.000001000.000001000.000001000.00000
     Eigenvalues --- 1000.000001000.000001000.000001000.000001000.00000
     Eigenvalues --- 1000.000001000.000001000.000001000.000001000.00000
     Eigenvalues --- 1000.000001000.000001000.000001000.000001000.00000
     Eigenvalues --- 1000.000001000.000001000.000001000.000001000.00000
     Eigenvalues --- 1000.000001000.000001000.000001000.000001000.00000
     Eigenvalues --- 1000.000001000.000001000.000001000.000001000.00000
     Eigenvalues --- 1000.000001000.000001000.000001000.000001000.00000
     Eigenvalues --- 1000.000001000.000001000.000001000.000001000.00000
     Eigenvalues --- 1000.000001000.000001000.000001000.000001000.00000
     Eigenvalues --- 1000.000001000.000001000.000001000.000001000.00000
     Eigenvalues --- 1000.000001000.000001000.000001000.000001000.00000
     Eigenvalues --- 1000.000001000.000001000.000001000.000001000.00000
     Eigenvalues --- 1000.000001000.000001000.000001000.000001000.00000
     Eigenvalues --- 1000.000001000.000001000.000001000.000001000.00000
     Eigenvalues --- 1000.000001000.000001000.000001000.000001000.00000
     Eigenvalues --- 1000.000001000.000001000.000001000.000001000.00000
     Eigenvalues --- 1000.000001000.000001000.000001000.000001000.00000
     Eigenvalues --- 1000.000001000.000001000.000001000.000001000.00000
 RFO step:  Lambda=-5.51713014D-03 EMin= 5.37079781D-03
 Linear search not attempted -- first point.
 Iteration  1 RMS(Cart)=  0.09895640 RMS(Int)=  0.00204471
 Iteration  2 RMS(Cart)=  0.00519920 RMS(Int)=  0.00010152
 Iteration  3 RMS(Cart)=  0.00001216 RMS(Int)=  0.00010135
 Iteration  4 RMS(Cart)=  0.00000000 RMS(Int)=  0.00010135
 Iteration  1 RMS(Cart)=  0.00007951 RMS(Int)=  0.00001740
 Iteration  2 RMS(Cart)=  0.00004426 RMS(Int)=  0.00001942
 Iteration  3 RMS(Cart)=  0.00002464 RMS(Int)=  0.00002199
 Iteration  4 RMS(Cart)=  0.00001372 RMS(Int)=  0.00002372
 Iteration  5 RMS(Cart)=  0.00000764 RMS(Int)=  0.00002476
 Iteration  6 RMS(Cart)=  0.00000425 RMS(Int)=  0.00002536
 Iteration  7 RMS(Cart)=  0.00000237 RMS(Int)=  0.00002570
 Iteration  8 RMS(Cart)=  0.00000132 RMS(Int)=  0.00002589
 Iteration  9 RMS(Cart)=  0.00000073 RMS(Int)=  0.00002599
 Variable       Old X    -DE/DX   Delta X   Delta X   Delta X     New X
                                 (Linear)    (Quad)   (Total)
    R1        2.88900  -0.00076   0.00000  -0.00198  -0.00201   2.88700
    R2        2.87219   0.00025   0.00000   0.00110   0.00112   2.87331
    R3        2.05535   0.00328   0.00000   0.00919   0.00919   2.06454
    R4        2.05300   0.00285   0.00000   0.00797   0.00797   2.06097
    R5        2.65555   0.00387   0.00000   0.00817   0.00820   2.66374
    R6        2.64384   0.00247   0.00000   0.00534   0.00534   2.64918
    R7        2.87723  -0.00037   0.00000  -0.00154  -0.00155   2.87568
    R8        2.03122   0.00937   0.00000   0.02522   0.02522   2.05643
    R9        2.89539  -0.00169   0.00000  -0.00476  -0.00466   2.89073
   R10        2.89408  -0.00089   0.00000  -0.00392  -0.00394   2.89014
   R11        2.05541   0.00380   0.00000   0.01066   0.01066   2.06607
   R12        2.05013   0.00297   0.00000   0.00825   0.00825   2.05838
   R13        2.89026  -0.00148   0.00000  -0.00480  -0.00481   2.88545
   R14        2.05182   0.00261   0.00000   0.00728   0.00728   2.05909
   R15        2.05352   0.00344   0.00000   0.00964   0.00964   2.06315
   R16        2.67584   0.00333   0.00000   0.00693   0.00684   2.68268
   R17        2.87501   0.00005   0.00000  -0.00029  -0.00042   2.87458
   R18        2.05626   0.00611   0.00000   0.01718   0.01718   2.07344
   R19        2.04364   0.00435   0.00000   0.01195   0.01195   2.05560
   R20        2.66704   0.00304   0.00000   0.00753   0.00753   2.67457
   R21        2.68415   0.00283   0.00000   0.00649   0.00650   2.69064
   R22        2.05022   0.00629   0.00000   0.01749   0.01749   2.06771
   R23        2.04350   0.00446   0.00000   0.01227   0.01227   2.05577
   R24        2.87935  -0.00088   0.00000  -0.00234  -0.00222   2.87713
   R25        2.69587  -0.00314   0.00000  -0.00746  -0.00746   2.68841
   R26        2.04499   0.00571   0.00000   0.01572   0.01572   2.06071
   R27        2.05034   0.00399   0.00000   0.01110   0.01110   2.06144
   R28        2.05277   0.00286   0.00000   0.00799   0.00799   2.06076
   R29        2.05526   0.00671   0.00000   0.01882   0.01882   2.07408
   R30        2.03874   0.00573   0.00000   0.01563   0.01563   2.05437
   R31        2.05379   0.00337   0.00000   0.00943   0.00943   2.06321
   R32        2.04976   0.00326   0.00000   0.00905   0.00905   2.05881
    A1        1.92367  -0.00102   0.00000  -0.00468  -0.00486   1.91882
    A2        1.91544   0.00094   0.00000   0.00206   0.00213   1.91757
    A3        1.93931  -0.00054   0.00000  -0.00238  -0.00235   1.93696
    A4        1.90500   0.00006   0.00000  -0.00098  -0.00092   1.90408
    A5        1.90409   0.00061   0.00000   0.00306   0.00310   1.90719
    A6        1.87543  -0.00001   0.00000   0.00314   0.00311   1.87854
    A7        1.94428  -0.00011   0.00000  -0.00509  -0.00496   1.93931
    A8        1.93402   0.00338   0.00000   0.01436   0.01421   1.94822
    A9        1.82987  -0.00251   0.00000  -0.01366  -0.01375   1.81612
   A10        1.88924  -0.00258   0.00000  -0.01162  -0.01154   1.87769
   A11        1.93617   0.00110   0.00000   0.00509   0.00508   1.94125
   A12        1.93060   0.00086   0.00000   0.01165   0.01169   1.94229
   A13        1.97898  -0.00039   0.00000  -0.00992  -0.00982   1.96916
   A14        1.86550  -0.00008   0.00000   0.00920   0.00919   1.87469
   A15        1.91096  -0.00005   0.00000  -0.00916  -0.00928   1.90168
   A16        1.89441   0.00054   0.00000   0.00806   0.00807   1.90248
   A17        1.94090  -0.00011   0.00000  -0.00172  -0.00193   1.93897
   A18        1.86819   0.00013   0.00000   0.00512   0.00517   1.87336
   A19        1.91364   0.00195   0.00000  -0.00094  -0.00094   1.91271
   A20        1.92988  -0.00026   0.00000   0.00197   0.00202   1.93190
   A21        1.91432  -0.00086   0.00000  -0.00189  -0.00197   1.91235
   A22        1.91656  -0.00052   0.00000   0.00186   0.00185   1.91841
   A23        1.92258  -0.00104   0.00000  -0.00678  -0.00678   1.91580
   A24        1.86645   0.00066   0.00000   0.00585   0.00586   1.87231
   A25        1.94004   0.00057   0.00000   0.00380   0.00367   1.94372
   A26        1.90060   0.00135   0.00000   0.00894   0.00899   1.90959
   A27        1.85653  -0.00097   0.00000  -0.00379  -0.00374   1.85279
   A28        1.92850  -0.00098   0.00000  -0.00749  -0.00750   1.92101
   A29        1.94548  -0.00038   0.00000  -0.00313  -0.00309   1.94239
   A30        1.89036   0.00046   0.00000   0.00213   0.00210   1.89246
   A31        1.97673  -0.00357   0.00000  -0.02310  -0.02311   1.95362
   A32        1.94462   0.00243   0.00000   0.00709   0.00707   1.95168
   A33        1.93180  -0.00166   0.00000  -0.00763  -0.00766   1.92414
   A34        1.94498  -0.00028   0.00000  -0.00203  -0.00199   1.94299
   A35        1.91033   0.00010   0.00000   0.00090   0.00095   1.91128
   A36        1.84296  -0.00137   0.00000  -0.00250  -0.00251   1.84045
   A37        1.88621   0.00078   0.00000   0.00446   0.00445   1.89066
   A38        1.92327   0.00149   0.00000   0.00041  -0.00006   1.92321
   A39        1.96292   0.00107   0.00000  -0.00754  -0.00822   1.95470
   A40        1.89046  -0.00086   0.00000   0.00856   0.00854   1.89899
   A41        2.01931  -0.00406   0.00000  -0.03731  -0.03754   1.98177
   A42        1.86119   0.00062   0.00000   0.01604   0.01614   1.87734
   A43        1.79533   0.00187   0.00000   0.02629   0.02663   1.82195
   A44        1.92616   0.00042   0.00000  -0.00528  -0.00535   1.92081
   A45        1.93662   0.00051   0.00000  -0.00034  -0.00035   1.93627
   A46        1.91860  -0.00090   0.00000   0.00071   0.00074   1.91933
   A47        1.91194  -0.00107   0.00000  -0.00337  -0.00337   1.90857
   A48        1.90288   0.00088   0.00000   0.00622   0.00625   1.90913
   A49        1.86646   0.00017   0.00000   0.00245   0.00244   1.86891
   A50        1.97597   0.00031   0.00000  -0.00271  -0.00263   1.97334
   A51        1.90294   0.00130   0.00000   0.01807   0.01797   1.92091
   A52        1.87099  -0.00062   0.00000  -0.01199  -0.01230   1.85869
   A53        1.87504  -0.00055   0.00000   0.00556   0.00551   1.88055
   A54        1.94627  -0.00137   0.00000  -0.01821  -0.01844   1.92783
   A55        1.89090   0.00104   0.00000   0.01089   0.01099   1.90189
   A56        2.02361  -0.00579   0.00000  -0.03623  -0.03609   1.98752
   A57        2.15728  -0.02219   0.00000  -0.08683  -0.08683   2.07046
   A58        1.95467  -0.00173   0.00000  -0.01456  -0.01465   1.94002
   A59        1.87304   0.00010   0.00000   0.00393   0.00392   1.87696
   A60        1.90117   0.00077   0.00000  -0.00072  -0.00072   1.90045
   A61        1.90900   0.00121   0.00000   0.00712   0.00720   1.91620
   A62        1.94693  -0.00028   0.00000  -0.00150  -0.00160   1.94532
   A63        1.87594   0.00000   0.00000   0.00680   0.00678   1.88272
    D1        0.91740  -0.00013   0.00000   0.00745   0.00745   0.92485
    D2        3.03312   0.00034   0.00000   0.01043   0.01045   3.04357
    D3       -1.19586   0.00046   0.00000   0.01762   0.01764  -1.17822
    D4       -1.18116  -0.00016   0.00000   0.01031   0.01030  -1.17086
    D5        0.93456   0.00031   0.00000   0.01328   0.01330   0.94786
[...]
 388,0.00019778,0.00001828,0.00033637,-0.00005694,0.00002652,0.00001459
 ,-0.00001734,0.00021834,0.00092833,0.00349757,-0.00080545,-0.00105477,
 0.00002503,0.00009162,0.00003573,-0.00005298,-0.00006748,0.00000497,0.
 00000483,-0.00001074,-0.00001276,-0.00001815,0.00000277,0.00001224,-0.
 00004528,-0.00006746,0.00002945,0.00000641,0.00000365,0.00000172,0.070
 94267,-0.03228940,0.31520001,-0.00415972,-0.00049222,0.00442734,0.0097
 4659,-0.02025959,0.00265736,0.00001690,-0.00002059,0.00000721,-0.00854
 717,0.02502996,-0.00467732,0.00003456,-0.00001374,0.00000802,-0.000006
 11,0.00003062,-0.00000303,-0.00175396,-0.00013294,0.00072831,-0.000033
 57,0.00019531,0.00021155,-0.00003828,0.00001595,-0.00003554,0.00005138
 ,-0.00002624,-0.00002299,-0.00184647,-0.00733786,-0.00182242,0.0010106
 5,-0.00022624,0.00069547,-0.08226462,0.08946060,-0.01249618,0.00009691
 ,-0.00037873,-0.00005397,-0.00029791,0.00191772,0.00017561,-0.00000096
 ,0.00001765,-0.00000183,0.00067246,-0.00041805,-0.00088899,0.00118877,
 -0.00052114,-0.00009905,0.00017031,0.00001980,-0.00011285,0.00030799,0
 .00004780,-0.00012577,0.00005581,0.00003908,0.00003130,-0.00000383,0.0
 0000294,0.00000225,-0.00001082,0.00001608,-0.00000243,0.00001969,0.000
 03526,0.00002841,-0.00353409,0.00745689,-0.00072379,0.08854716,0.00064
 875,0.00150228,-0.00080530,0.01129593,-0.01889188,0.00398905,-0.000059
 88,-0.00005164,-0.00004022,0.00085976,-0.00231902,0.00007158,0.0000439
 2,-0.00003856,-0.00002827,-0.00010749,-0.00000738,-0.00005165,-0.00114
 633,0.00085991,0.00130523,-0.00030754,0.00037158,-0.00006927,-0.000008
 31,0.00001969,0.00004812,0.00017375,-0.00004251,0.00012223,-0.00332605
 ,-0.00553601,-0.00156846,0.00080989,0.00204222,0.00078976,0.08618697,-
 0.27938038,0.02935320,-0.00002663,0.00003540,0.00008668,-0.00006331,-0
 .00028636,0.00014198,-0.00000118,0.00001151,0.00000382,0.00036769,0.00
 034899,-0.00021324,0.00008677,0.00022933,-0.00025428,0.00009500,-0.000
 02380,-0.00020879,0.00013117,-0.00007422,-0.00006934,-0.00012335,-0.00
 005866,-0.00002737,-0.00000798,0.00000062,-0.00001171,-0.00002753,0.00
 006035,-0.00001600,0.00002645,0.00007240,0.00003843,0.00046150,-0.0019
 9593,0.00082429,-0.09554709,0.30262465,0.00335823,0.00034676,-0.002147
 05,0.00178916,-0.00657807,-0.00189165,-0.00000612,-0.00000837,0.000000
 62,0.00662502,-0.01993815,0.00193580,-0.00000002,-0.00000054,-0.000003
 71,-0.00000762,-0.00000232,-0.00001176,0.00015154,0.00035539,0.0000697
 7,-0.00000009,0.00009279,0.00009086,0.00001131,0.00000474,0.00001595,0
 .00003120,0.00000532,0.00001146,-0.00058733,-0.00116249,0.00107078,0.0
 0006177,-0.00055563,0.00026899,-0.01234711,0.03307066,-0.05187754,0.00
 015536,-0.00031676,0.00021249,0.00041246,-0.00105855,0.00023134,0.0000
 0620,0.00000499,-0.00000585,-0.00062316,0.00054470,0.00058774,-0.00092
 331,-0.00002551,0.00072689,-0.00005368,0.00000607,0.00000647,-0.000055
 92,0.00000183,0.00004891,-0.00000372,-0.00000560,-0.00000824,0.0000002
 0,0.00000037,-0.00000343,0.00000762,0.00000798,-0.00000393,0.00000974,
 0.00000110,0.00000385,-0.00957739,0.02847545,-0.00249850,0.01154653,-0
 .03344052,0.05310874,0.00039327,-0.00010112,0.00001742,-0.20761111,0.0
 1028570,0.13889788,0.00081907,0.00043296,0.00060538,-0.00104352,-0.003
 36225,-0.00204978,-0.00057108,-0.00048909,-0.00002571,-0.00296317,-0.0
 0242882,-0.00045712,0.00208303,0.00121394,-0.00174061,0.00255518,-0.00
 026177,0.00037183,-0.00204498,0.00129189,0.00025116,0.00002566,-0.0002
 0383,-0.00013259,-0.01137775,0.00914255,0.00851863,0.01168037,0.000384
 51,-0.01609379,-0.01583021,-0.00000158,0.01357391,-0.00003957,0.000050
 69,-0.00008019,-0.00002827,0.00001204,0.00001265,0.00004541,-0.0000775
 1,0.00007154,-0.00097330,0.00024862,0.00072452,0.00005588,-0.00003160,
 0.00012890,-0.00014368,0.00004425,0.00017215,-0.00042538,0.00016578,0.
 00035598,-0.00313408,0.00167785,-0.00061720,-0.00028311,-0.00025277,-0
 .00001835,0.00003546,-0.00000086,0.00005218,-0.00000794,0.00001933,0.0
 0002028,0.00041016,0.00045335,-0.00021755,0.00052094,-0.00038565,-0.00
 002155,0.22799701,0.00027946,-0.00056735,-0.00033738,0.00021572,-0.047
 05536,-0.00505550,-0.00012753,0.00006978,-0.00001523,-0.00225883,-0.00
 292296,-0.00191857,-0.00087598,0.00033050,0.00001805,-0.00051990,-0.00
 080379,0.00039924,-0.00089399,-0.00504499,0.00261331,-0.00006239,-0.00
 016492,-0.00074664,0.00092134,0.00009151,0.00017540,0.00017235,-0.0002
 9158,-0.00070143,0.03682666,-0.01742412,-0.02457880,-0.00327380,0.0043
 2557,0.00820394,-0.01710428,0.00365906,0.01364919,0.00001514,0.0001151
 7,0.00003672,0.00017893,0.00036591,0.00006377,0.00005144,-0.00008349,-
 0.00007912,-0.00115123,0.00027931,0.00077344,0.00018735,-0.00003503,0.
 00006877,0.00011954,-0.00006039,-0.00038281,0.00143061,-0.00047758,-0.
 00104075,0.00189094,-0.00051879,-0.00013115,0.00000836,-0.00006730,-0.
 00008283,0.00006698,0.00006966,0.00011695,-0.00000382,0.00001990,0.000
 06571,0.00065861,0.00069705,-0.00029441,0.00101929,0.00052502,0.000154
 86,-0.01789727,0.06530819,0.00016796,-0.00010476,-0.00009990,0.1306663
 5,-0.01310248,-0.16771262,-0.00085095,-0.00000997,-0.00041536,-0.00127
 286,-0.00172176,0.00003313,-0.00091307,-0.00001592,0.00025748,0.001383
 05,0.00146821,0.00109787,-0.00067171,0.00053047,0.00199791,0.00362735,
 0.00119089,0.00178757,0.00011299,-0.00068724,-0.00081730,-0.00053594,-
 0.00058073,-0.00172560,0.00123321,-0.00143663,0.00373128,0.01543132,0.
 00357234,-0.03972413,-0.00648035,0.00099027,0.00764319,-0.00000783,0.0
 0002444,-0.00005197,-0.00000018,0.00007074,-0.00004381,-0.00012141,0.0
 0003689,0.00018534,-0.00056748,0.00002887,0.00028182,-0.00017066,-0.00
 004880,0.00018058,-0.00028934,0.00020973,0.00014216,0.00006649,0.00007
 328,-0.00000987,0.00070650,0.00013144,0.00106858,0.00044363,0.00014154
 ,0.00037088,-0.00003750,-0.00014961,0.00022644,-0.00001891,0.00005136,
 0.00003478,0.00037044,0.00051987,0.00064777,0.00051106,0.00004543,0.00
 004082,-0.14258330,0.00894184,0.19080143,-0.00002513,0.00000622,0.0000
 4375,0.00023292,0.00004914,-0.00020440,-0.00004930,0.00064824,-0.00033
 001,-0.00002730,-0.00003893,-0.00004155,-0.18189977,-0.06054562,-0.101
 92324,-0.03796689,0.00709834,-0.00976967,0.00013444,-0.00010142,-0.000
 14072,-0.00022020,0.00016250,0.00060278,-0.00432846,-0.00422006,-0.005
 65304,0.00130802,-0.00089145,-0.00563946,-0.00035068,-0.00001739,0.000
 14503,0.00003359,-0.00006134,-0.00002382,-0.00006751,0.00007299,0.0001
 0651,-0.00000221,-0.00000076,-0.00000841,-0.00002579,-0.00000719,0.000
 00239,-0.00016684,-0.00020942,0.00045909,-0.00003064,-0.00000311,0.000
 01436,0.00000368,0.00000350,0.00000339,-0.00000798,-0.00000302,0.00001
 963,-0.00002095,0.00001916,0.00000867,0.00098509,-0.00118827,0.0002146
 3,0.00042128,-0.00043446,0.00010334,0.00032178,0.00010632,0.00143073,0
 .00031600,0.00021989,0.00039607,-0.00001345,-0.00000550,-0.00001009,-0
 .00000405,-0.00001642,-0.00000083,-0.00002783,0.00012549,0.00019543,0.
 21391277,0.00001726,-0.00000505,-0.00001643,0.00010760,-0.00010919,-0.
 00006150,0.00048635,0.00140278,-0.00129188,0.00000529,-0.00000407,0.00
 000344,-0.06146485,-0.07447509,-0.04593074,0.02681422,0.00319923,0.009
 31298,-0.00003270,0.00007357,0.00004604,-0.00018121,-0.00023735,-0.000
 23695,-0.02531511,-0.01209165,-0.02002976,-0.00011650,0.00075867,0.003
 95572,0.00011317,0.00013176,0.00000310,-0.00002359,-0.00000229,0.00003
 332,0.00001677,0.00000333,-0.00001213,-0.00000003,0.00000016,0.0000010
 8,0.00000748,0.00000580,-0.00000009,0.00020677,0.00004089,0.00080064,0
 .00000042,0.00000103,0.,-0.00000053,0.00000033,-0.00000042,0.00000152,
 -0.00000143,-0.00000654,-0.00000286,-0.00000219,0.00000244,-0.00177288
 ,-0.00593571,0.00209869,0.00065933,0.00119228,-0.00012370,-0.00108856,
 -0.00009201,-0.00017178,-0.00010597,-0.00006706,0.00006762,-0.00000163
 ,-0.00000075,-0.00000005,0.00000970,0.00000541,-0.00000187,0.00012457,
 -0.00013900,0.00004164,0.05756507,0.08383773,0.00000301,-0.00000114,0.
 00000255,0.00014665,-0.00009795,0.00007044,0.00066870,-0.00000359,0.00
 106362,-0.00000224,-0.00001540,-0.00001352,-0.10579233,-0.04453540,-0.
 13892057,0.00428812,0.00260008,0.00528867,0.00004401,-0.00000359,-0.00
 001593,0.00002059,0.00005506,-0.00018351,0.00466650,0.00240087,0.00319
 226,0.00341781,0.00081364,0.00278137,-0.00000838,0.00008532,0.00000121
 ,-0.00021747,-0.00019999,-0.00011200,-0.00003891,0.00002776,0.00001008
 ,-0.00000227,-0.00000074,-0.00000305,-0.00000494,0.00000169,0.00000123
 ,-0.00031948,0.00002567,0.00023669,-0.00001125,-0.00000062,0.00000365,
 0.00000214,0.00000327,-0.00000126,0.00000232,-0.00000230,-0.00000179,-
 0.00000776,0.00000547,0.00000194,0.00067547,0.00114683,0.00087554,-0.0
 0023923,-0.00067179,0.00028308,-0.00108092,-0.00009542,0.00074016,-0.0
 0003999,0.00009909,0.00024299,-0.00001324,-0.00000731,-0.00000591,-0.0
 0000213,0.00000108,-0.00000008,0.00007787,0.00004723,0.00002060,0.1165
 6026,0.04844704,0.14049644,-0.00000449,0.00000298,0.00000709,0.0001237
 5,0.00002575,0.00017347,0.00079801,-0.00108139,-0.00030913,-0.00000524
 ,-0.00001056,-0.00001236,-0.06238574,-0.00982626,0.04864382,-0.0142456
 7,0.00281336,0.03410758,0.00008528,-0.00003142,-0.00003536,0.00011188,
 0.00055677,0.00029969,-0.00114722,-0.00312641,0.00735247,-0.00343764,0
 .00270051,-0.00223300,-0.00014265,0.00001537,-0.00004335,-0.00014314,-
 0.00011915,-0.00016514,-0.00001698,0.00002165,0.00000478,-0.00000308,-
 0.00000228,-0.00000446,-0.00000869,-0.00000217,0.00000195,-0.00000239,
 -0.00006264,0.00042431,-0.00001092,-0.00000229,0.00000332,0.00000338,0
 .00000293,-0.00000155,0.00000718,-0.00000069,-0.00000464,-0.00000891,0
 .00000872,0.00000217,0.00015595,0.00067165,0.00023548,0.00013364,-0.00
 020329,-0.00001933,0.00032691,0.00014236,0.00045567,-0.00029278,0.0000
 0962,0.00144577,-0.00001403,-0.00000651,-0.00000781,-0.00000383,-0.000
 00463,0.00000021,0.00000667,0.00001914,0.00002362,0.00747919,0.0035739
 6,-0.02258405,0.07252246,0.00000461,-0.00000451,0.00000090,0.00005985,
 -0.00016466,0.00012244,-0.00138183,-0.00673872,-0.00068296,0.00000221,
 -0.00000293,0.00000213,-0.01176402,-0.05464515,0.04243027,0.01045318,0
 .00005143,-0.02620359,-0.00003178,0.00002097,0.00000942,0.00065166,-0.
 00058289,-0.00052622,-0.00770656,-0.00300526,0.03233357,0.00341226,-0.
 00228475,0.00059583,0.00003909,0.00009781,0.00001549,-0.00026678,0.000
 26505,-0.00010458,0.00000029,0.00000611,-0.00001795,0.00000160,0.00000
 213,0.00000042,0.00000206,0.00000188,-0.00000042,0.00022591,0.00006692
 ,-0.00005911,-0.00000118,0.00000135,-0.00000027,0.00000124,0.00000083,
 -0.00000295,-0.00000531,-0.00000605,0.00000348,-0.00000107,-0.00000141
 ,-0.00000071,0.00007670,0.00155888,-0.00070575,0.00068780,0.00089971,-
 0.00059056,-0.00009943,-0.00001596,0.00019042,0.00060452,0.00014365,-0
 .00115094,-0.00000705,-0.00000280,-0.00000335,0.00000196,0.00000607,0.
 00000083,-0.00001989,-0.00003533,0.00001308,0.00183657,0.00223315,-0.0
 1002847,0.00411690,0.06202233,0.00000552,-0.00000219,-0.00001449,-0.00
 018595,0.00003400,-0.00017086,0.00023835,0.00136576,0.00132036,0.00000
 591,0.00001693,0.00001802,0.05873422,0.03604368,-0.30313380,0.00498866
 ,-0.00300847,-0.00556977,-0.00009876,0.00003272,0.00005612,-0.00053962
 ,-0.00025293,0.00017458,-0.00031895,0.00043048,-0.00338043,0.00075162,
 -0.00081739,0.00282894,0.00021159,-0.00004126,0.00002822,0.00028224,0.
 00011149,0.00012767,0.00002013,-0.00003116,-0.00000798,0.00000260,0.00
 000127,0.00000501,0.00001213,0.00000210,-0.00000231,-0.00008563,-0.000
 12577,0.00025071,0.00001592,0.00000241,-0.00000476,-0.00000440,-0.0000
 0362,0.00000228,-0.00000481,0.00000174,-0.00000066,0.00001210,-0.00001
 091,-0.00000222,0.00022648,0.00016868,0.00075114,0.00003455,0.00057205
 ,-0.00010313,-0.00003851,0.00010499,0.00024789,0.00030117,0.00018781,-
 0.00043929,0.00001834,0.00000674,0.00001056,0.00000100,0.00000487,-0.0
 0000047,0.00003335,-0.00001337,-0.00008459,0.00317263,0.00299401,-0.01
 615302,-0.06805802,-0.03769479,0.32369390,-0.00000452,0.00000647,-0.00
 001008,-0.00025746,0.00017480,-0.00041072,-0.08062495,-0.09018242,0.01
 670623,-0.00000059,0.00000694,0.00000270,-0.00048656,0.00110419,0.0027
 8420,0.00066452,-0.00078406,-0.00061012,-0.00000903,-0.00001049,0.0000
 2010,0.00577664,0.02463499,-0.00448873,-0.00372869,-0.00879938,0.00030
 380,-0.00426633,0.00257296,0.00198481,0.00007770,-0.00022983,0.0000657
 2,0.00328251,-0.00026225,0.00035694,-0.00001137,-0.00001973,-0.0000171
 9,0.00000019,-0.00000115,0.00000288,0.00000374,-0.00000329,-0.00000078
 ,-0.00839778,-0.02280298,0.00460235,0.00001077,0.00000037,-0.00000003,
 -0.00000204,-0.00000467,0.00001111,0.00001150,0.00000848,-0.00000214,0
 .00000857,-0.00000335,0.00000146,0.00055000,0.00045281,-0.00003404,-0.
 00011952,-0.00000202,-0.00035599,0.00009282,0.00004979,0.00006270,0.00
 048256,0.00129188,-0.00050477,0.00000884,0.00000856,0.00000877,0.00002
 796,-0.00002580,0.00000774,0.00005045,-0.00003067,0.00000284,0.0001673
 9,0.00045429,-0.00012246,0.00015775,-0.00083702,0.00026229,0.08589237,
 0.00000507,-0.00000092,-0.00000331,0.00019036,-0.00007095,0.00044410,-
 0.08705340,-0.27437779,0.04280333,0.00000426,0.00000290,0.00001476,0.0
 0040431,0.00145327,0.00035535,-0.00062690,0.00036479,0.00039719,-0.000
 04384,0.00002705,0.00001437,-0.00848993,-0.02364435,0.00333076,-0.0002
 4591,-0.00004319,0.00029607,0.00518955,-0.00090817,-0.00279140,0.00000
 981,0.00024318,-0.00011861,-0.00173863,0.00284255,0.00005882,0.0000455
 2,-0.00003452,0.00003668,0.00000130,0.00000110,0.00000157,0.00000514,0
 .00000208,-0.00000096,-0.00126000,-0.00322673,-0.00004543,0.00000526,0
 .00000194,-0.00000610,-0.00000078,0.00000135,-0.00000553,-0.00001053,-
 0.00001084,-0.00000130,0.00000047,-0.00000276,-0.00000283,0.00008710,0
 .00034624,0.00031521,-0.00018470,0.00016049,0.00044204,-0.00014728,0.0
 0031742,-0.00012977,-0.00047636,-0.00127153,0.00071045,0.00000911,0.00
 001117,0.00000160,0.00005220,-0.00001086,0.00002285,-0.00001528,-0.000
 06354,-0.00005442,0.00000276,0.00007246,-0.00012591,0.00004168,-0.0001
 7172,-0.00009259,0.09423879,0.29743641,-0.00000076,0.00000178,-0.00000
 343,0.00000875,0.00011213,-0.00025541,0.01692312,0.04134863,-0.0558869
 2,-0.00001373,-0.00001172,0.00000639,0.00296875,-0.00238897,-0.0067694
 8,-0.00090633,0.00006976,0.00118712,-0.00002154,0.00000344,0.00000733,
 -0.00473175,-0.00664671,0.00101882,0.01135245,0.03108141,-0.00548765,0
 .00180609,-0.00120503,-0.00069116,0.00002114,-0.00001689,0.00004182,-0
 .00024162,0.00056049,0.00017816,-0.00000345,0.00001912,0.00007132,0.00
 000175,0.00000087,0.00000102,0.00000209,-0.00000204,-0.00000074,-0.005
 83426,-0.01869247,0.00324358,0.00000167,0.00000110,0.00000135,-0.00000
 162,0.00000033,0.00000120,-0.00000746,0.00000207,0.00000196,0.00000101
 ,-0.00000181,0.00000040,-0.00089379,-0.00020775,0.00150040,-0.00008783
 ,-0.00056498,0.00106108,0.00023147,0.00033159,0.00003394,-0.00004071,-
 0.00050428,0.00046087,0.00002092,0.00000211,0.00000538,0.00001242,-0.0
 0002433,0.00000034,0.00001538,0.00001288,0.00001180,0.00013563,0.00009
 768,0.00009348,0.00028163,0.00205541,-0.00037536,-0.02045255,-0.045657
 42,0.06040930,-0.00000191,-0.00004717,0.00009734,-0.00181438,-0.005635
 34,0.00111524,-0.00477625,0.00128362,0.02247297,0.00008652,-0.00004022
 ,-0.00012518,0.00067624,0.00020634,-0.00044694,0.00025570,-0.00220218,
 0.00130314,0.00045406,-0.00008348,-0.00035154,-0.04327618,0.00094251,0
 .03028056,-0.00202844,0.00384196,-0.00036245,-0.00086914,0.00147701,0.
 00707571,-0.00047137,0.00112411,0.00010069,-0.01585731,-0.00260283,-0.
 04330065,-0.00038009,0.00061514,-0.00158694,0.00000662,0.00000025,-0.0
 0001833,-0.00004698,0.00001803,0.00001097,0.00029884,-0.00022204,0.000
 51961,-0.00008673,-0.00001207,0.00006015,-0.00000144,0.00002535,0.0000
 6569,0.00005185,-0.00004664,0.00017205,-0.00005795,0.00004925,0.000041
 24,0.00005400,0.00003987,0.00026516,-0.00048908,-0.00008123,0.00110649
 ,-0.00015547,-0.00002529,0.00068094,0.00002185,-0.00030288,-0.00028292
 ,-0.00051432,-0.00032381,-0.00014409,0.00003728,-0.00000239,0.00003355
 ,-0.00017357,0.00001236,-0.00042074,-0.00008117,-0.00005736,-0.0000863
 9,-0.00003866,-0.00005649,0.00000386,0.00064257,0.00000084,-0.00054688
 ,0.06853494,0.00001775,0.00000007,-0.00000687,-0.00011017,-0.00161948,
 0.00103153,0.00550709,-0.00041442,-0.02545549,0.00003354,-0.00000562,-
 0.00002577,0.00136665,-0.00160754,-0.00030379,-0.00332361,-0.00634333,
 0.00519421,0.00006692,0.00001079,0.00009049,0.00207453,-0.05259929,-0.
 00674613,0.00342165,-0.00318223,0.00034242,-0.00317980,0.00380265,0.02
 938620,-0.00019355,0.00054606,-0.00007635,-0.00648358,0.00203630,-0.01
 277584,-0.00010524,0.00014344,-0.00045198,-0.00000663,-0.00000761,-0.0
 0001159,-0.00000885,0.00000748,0.00000418,-0.00063623,0.00114478,0.000
 44213,-0.00002038,-0.00000842,0.00001205,0.00000420,0.00000444,0.00001
 688,-0.00007585,0.00000629,-0.00007762,-0.00002306,0.00001276,-0.00000
 756,-0.00013013,-0.00005860,0.00005672,0.00065671,0.00025151,-0.001350
 01,-0.00028493,0.00124346,-0.00027834,0.00090987,0.00054919,-0.0007888
 4,-0.00014689,-0.00008149,-0.00004354,0.00000563,0.00000178,-0.0000022
 9,-0.00001873,-0.00010111,-0.00017000,-0.00017183,0.00020428,0.0000295
 3,-0.00024367,0.00028388,0.00001270,-0.00100621,0.00055346,0.00022359,
 0.00210478,0.05522652,0.00000659,-0.00000747,0.00004033,0.00037135,-0.
 00307899,0.00359745,0.00220177,-0.00009066,-0.00732355,-0.00001284,-0.
 00009684,-0.00004609,-0.00098010,0.00013296,0.00032578,0.00153793,0.00
 264581,-0.00032920,0.00025231,-0.00004626,-0.00008791,0.02337065,-0.00
 871361,-0.30937307,0.00115994,-0.00131157,0.00168937,0.00141573,-0.001
 49351,-0.01125095,-0.00039941,0.00068484,-0.00006532,-0.01094189,-0.00
 108230,-0.01315751,-0.00015583,0.00042330,-0.00067397,-0.00000698,-0.0
 0000476,-0.00002570,-0.00004122,0.00000983,0.00000965,0.00029585,-0.00
 001117,0.00076407,-0.00008216,0.00000450,0.00001721,-0.00000187,0.0000
 2491,-0.00004084,-0.00013518,0.00001015,-0.00010740,-0.00005338,0.0000
 4035,0.00000143,-0.00009141,-0.00000320,0.00011451,0.00011189,0.000199
 90,-0.00056152,0.00024921,0.00021651,0.00075505,-0.00021362,0.00016793
 ,0.00010405,-0.00025530,-0.00015742,-0.00008760,0.00002448,0.00000298,
 0.00002036,0.00013674,0.00003668,0.00012374,0.00013093,-0.00002163,0.0
 0000464,0.00001517,-0.00000107,-0.00007227,-0.00017704,-0.00020958,0.0
 0013309,-0.01773231,0.01172936,0.33550220\\0.00000264,0.00000131,0.000
 00054,-0.00045038,0.00104039,0.00040983,-0.00012246,-0.00046680,0.0009
 1497,0.00000676,0.00000884,0.00000231,0.00001264,-0.00000074,-0.000009
 26,-0.00000398,-0.00000631,0.00000168,-0.00000586,0.00000239,0.0000059
 6,-0.00003979,0.00119232,-0.00109638,0.00001362,-0.00000913,-0.0000071
 3,-0.00000991,-0.00001589,0.00000420,0.00000978,-0.00002523,0.00000698
 ,0.00061396,-0.00174170,-0.00022238,0.00000218,0.00001428,0.00000084,-
 0.00000367,0.00000256,-0.00000066,0.00000172,-0.00000418,0.00000522,0.
 00000311,-0.00000183,-0.00000775,-0.00000249,-0.00000080,-0.00000088,-
 0.00000095,-0.00000041,0.00001141,0.00000630,-0.00000075,0.00000370,-0
 .00000055,0.00000483,0.00000176,-0.00000039,0.00000181,-0.00000028,-0.
 00000451,-0.00000561,0.00000381,0.00000570,0.00000035,0.00000062,-0.00
 000464,0.00001313,-0.00000246,-0.00000530,-0.00000274,-0.00000871,-0.0
 0000590,0.00000146,0.00000848,-0.00001066,0.00000421,-0.00001290,-0.00
 000416,0.00000285,-0.00000382,0.00000140,0.00000050,-0.00000981,-0.000
 00529,-0.00000714,0.00000019,0.00000109,-0.00000196,-0.00000010\\\@


 YE HAVE SOWN MUCH, AND BRING IN LITTLE.
 YE EAT, BUT YE HAVE NOT ENOUGH.
 YE DRINK, BUT YE ARE NOT FILLED WITH DRINK.
 YE CLOTHE YOU, BUT THERE IS NONE WARM.
 AND HE THAT EARNETH WAGES EARNETH WAGES TO PUT
 IT INTO A BAG WITH HOLES.
                                     HAGGAI I,6
 Job cpu time:       0 days 15 hours  5 minutes 18.4 seconds.
 Elapsed time:       0 days  0 hours 56 minutes 36.2 seconds.
 File lengths (MBytes):  RWF=    689 Int=      0 D2E=      0 Chk=     33 Scr=      1
 Normal termination of Gaussian 16 at Mon Nov  5 05:22:28 2018.
