 Entering Gaussian System, Link 0=g16
 Initial command:
 /sw/Projects/G16/g16/l1.exe "/nvme/pbs/tmpdir/pbs.74289[18].flm1/Gau-4307.inp" -scrdir="/nvme/pbs/tmpdir/pbs.74289[18].flm1/"
 Entering Link 1 = /sw/Projects/G16/g16/l1.exe PID=      4308.
  
 Copyright (c) 1988-2017, Gaussian, Inc.  All Rights Reserved.
  
 This is part of the Gaussian(R) 16 program.  It is based on
 the Gaussian(R) 09 system (copyright 2009, Gaussian, Inc.),
 the Gaussian(R) 03 system (copyright 2003, Gaussian, Inc.),
 the Gaussian(R) 98 system (copyright 1998, Gaussian, Inc.),
 the Gaussian(R) 94 system (copyright 1995, Gaussian, Inc.),
 the Gaussian 92(TM) system (copyright 1992, Gaussian, Inc.),
 the Gaussian 90(TM) system (copyright 1990, Gaussian, Inc.),
 the Gaussian 88(TM) system (copyright 1988, Gaussian, Inc.),
 the Gaussian 86(TM) system (copyright 1986, Carnegie Mellon
 University), and the Gaussian 82(TM) system (copyright 1983,
 Carnegie Mellon University). Gaussian is a federally registered
 trademark of Gaussian, Inc.
  
 This software contains proprietary and confidential information,
 including trade secrets, belonging to Gaussian, Inc.
  
 This software is provided under written license and may be
 used, copied, transmitted, or stored only in accord with that
 written license.
  
 The following legend is applicable only to US Government
 contracts under FAR:
  
                    RESTRICTED RIGHTS LEGEND
  
 Use, reproduction and disclosure by the US Government is
 subject to restrictions as set forth in subparagraphs (a)
 and (c) of the Commercial Computer Software - Restricted
 Rights clause in FAR 52.227-19.
  
 Gaussian, Inc.
 340 Quinnipiac St., Bldg. 40, Wallingford CT 06492
  
  
 ---------------------------------------------------------------
 Warning -- This program may not be used in any manner that
 competes with the business of Gaussian, Inc. or will provide
 assistance to any competitor of Gaussian, Inc.  The licensee
 of this program is prohibited from giving any competitor of
 Gaussian, Inc. access to this program.  By using this program,
 the user acknowledges that Gaussian, Inc. is engaged in the
 business of creating and licensing software in the field of
 computational chemistry and represents and warrants to the
 licensee that it is not a competitor of Gaussian, Inc. and that
 it will not use this program in any manner prohibited above.
 ---------------------------------------------------------------
  

 Cite this work as:
 Gaussian 16, Revision B.01,
 M. J. Frisch, G. W. Trucks, H. B. Schlegel, G. E. Scuseria, 
 M. A. Robb, J. R. Cheeseman, G. Scalmani, V. Barone, 
 G. A. Petersson, H. Nakatsuji, X. Li, M. Caricato, A. V. Marenich, 
 J. Bloino, B. G. Janesko, R. Gomperts, B. Mennucci, H. P. Hratchian, 
 J. V. Ortiz, A. F. Izmaylov, J. L. Sonnenberg, D. Williams-Young, 
 F. Ding, F. Lipparini, F. Egidi, J. Goings, B. Peng, A. Petrone, 
 T. Henderson, D. Ranasinghe, V. G. Zakrzewski, J. Gao, N. Rega, 
 G. Zheng, W. Liang, M. Hada, M. Ehara, K. Toyota, R. Fukuda, 
 J. Hasegawa, M. Ishida, T. Nakajima, Y. Honda, O. Kitao, H. Nakai, 
 T. Vreven, K. Throssell, J. A. Montgomery, Jr., J. E. Peralta, 
 F. Ogliaro, M. J. Bearpark, J. J. Heyd, E. N. Brothers, K. N. Kudin, 
 V. N. Staroverov, T. A. Keith, R. Kobayashi, J. Normand, 
 K. Raghavachari, A. P. Rendell, J. C. Burant, S. S. Iyengar, 
 J. Tomasi, M. Cossi, J. M. Millam, M. Klene, C. Adamo, R. Cammi, 
 J. W. Ochterski, R. L. Martin, K. Morokuma, O. Farkas, 
 J. B. Foresman, and D. J. Fox, Gaussian, Inc., Wallingford CT, 2016.
 
 ******************************************
 Gaussian 16:  ES64L-G16RevB.01 20-Dec-2017
                10-Mar-2019 
 ******************************************
 %mem=20gb
 %nproc=12
 Will use up to   12 processors via shared memory.
 %chk=4c1_b1_4e_4c1_PHI.inp_extract_18.chk
 ----------------------------------------------------------------------
 #M062X/6-311++G(2d,2p) opt=ModRedundant freq=noraman SCRF=(SMD,solvent
 =water)
 ----------------------------------------------------------------------
 1/18=120,19=15,26=3,38=1/1,3;
 2/9=110,12=2,17=6,18=5,40=1/2;
 3/5=4,6=6,7=1212,11=2,25=1,30=1,70=32201,71=1,72=1,74=-55/1,2,3;
 4//1;
 5/5=2,38=5,53=1/2;
 6/7=2,8=2,9=2,10=2,28=1/1;
 7//1,2,3,16;
 1/18=20,19=15,26=3/3(2);
 2/9=110/2;
 99//99;
 2/9=110/2;
 3/5=4,6=6,7=1212,11=2,25=1,30=1,70=32205,71=1,72=1,74=-55/1,2,3;
 4/5=5,16=3,69=1/1;
 5/5=2,38=5,53=1/2;
 7//1,2,3,16;
 1/18=20,19=15,26=3/3(-5);
 2/9=110/2;
 6/7=2,8=2,9=2,10=2,19=2,28=1/1;
 99/9=1/99;
 --------------------------------
 4c1_b1_4e_4c1_PHI.inp_extract_18
 --------------------------------
 Symbolic Z-matrix:
 Charge =  0 Multiplicity = 1
 C                    -3.07033   1.27153  -0.65471 
 C                     2.21095  -1.15964  -0.6184 
 C                     3.06952   1.2658    0.63475 
 O                     3.45983  -0.56648  -0.8925 
 O                    -2.11907  -1.13294   0.53302 
 C                    -3.40701  -0.65679   0.89215 
 O                    -0.01169  -0.82103   0.01364 
 C                    -4.02035   0.14849  -0.24079 
 C                     1.66378   0.73121   0.92488 
 C                    -1.19606  -0.11508   0.25056 
 C                     3.99735   0.13956   0.2117 
 C                     1.17643  -0.10046  -0.25859 
 C                    -1.66929   0.71647  -0.93209 
 H                    -3.44311   1.78563  -1.53467 
 H                    -3.01421   2.0093    0.1432 
 H                     2.31115  -1.87014   0.19863 
 H                     1.91231  -1.69458  -1.50918 
 H                     3.02731   2.00767  -0.15874 
 H                     3.47472   1.75539   1.51507 
 H                    -3.32301  -0.05239   1.79208 
 H                    -3.99288  -1.53463   1.12497 
 H                    -4.20757  -0.51025  -1.08527 
 H                    -4.97774   0.54781   0.08148 
 H                     1.68365   0.09908   1.81001 
 H                     0.98782   1.55503   1.12582 
 H                    -1.08513   0.50682   1.13351 
 H                     4.95874   0.51747  -0.108 
 H                     4.15712  -0.55595   1.0325 
 H                     1.02838   0.53897  -1.12117 
 H                    -1.68164   0.08077  -1.8139 
 H                    -0.9784    1.53114  -1.1164 
 
 The following ModRedundant input section has been read:
 D      12       7      10       5 F                                           
 

 GradGradGradGradGradGradGradGradGradGradGradGradGradGradGradGradGradGrad
 Berny optimization.
 Initialization pass.
                           ----------------------------
                           !    Initial Parameters    !
                           ! (Angstroms and Degrees)  !
 --------------------------                            --------------------------
 ! Name  Definition              Value          Derivative Info.                !
 --------------------------------------------------------------------------------
 ! R1    R(1,8)                  1.5281         estimate D2E/DX2                !
 ! R2    R(1,13)                 1.5323         estimate D2E/DX2                !
 ! R3    R(1,14)                 1.0852         estimate D2E/DX2                !
 ! R4    R(1,15)                 1.0882         estimate D2E/DX2                !
 ! R5    R(2,4)                  1.4095         estimate D2E/DX2                !
 ! R6    R(2,12)                 1.5237         estimate D2E/DX2                !
 ! R7    R(2,16)                 1.0874         estimate D2E/DX2                !
 ! R8    R(2,17)                 1.0811         estimate D2E/DX2                !
 ! R9    R(3,9)                  1.5317         estimate D2E/DX2                !
 ! R10   R(3,11)                 1.5193         estimate D2E/DX2                !
 ! R11   R(3,18)                 1.0871         estimate D2E/DX2                !
 ! R12   R(3,19)                 1.0857         estimate D2E/DX2                !
 ! R13   R(4,11)                 1.4166         estimate D2E/DX2                !
 ! R14   R(5,6)                  1.4193         estimate D2E/DX2                !
 ! R15   R(5,10)                 1.4028         estimate D2E/DX2                !
 ! R16   R(6,8)                  1.5193         estimate D2E/DX2                !
 ! R17   R(6,20)                 1.0873         estimate D2E/DX2                !
 ! R18   R(6,21)                 1.0808         estimate D2E/DX2                !
 ! R19   R(7,10)                 1.399          estimate D2E/DX2                !
 ! R20   R(7,12)                 1.416          estimate D2E/DX2                !
 ! R21   R(8,22)                 1.0873         estimate D2E/DX2                !
 ! R22   R(8,23)                 1.0862         estimate D2E/DX2                !
 ! R23   R(9,12)                 1.5264         estimate D2E/DX2                !
 ! R24   R(9,24)                 1.0879         estimate D2E/DX2                !
 ! R25   R(9,25)                 1.0844         estimate D2E/DX2                !
 ! R26   R(10,13)                1.5212         estimate D2E/DX2                !
 ! R27   R(10,26)                1.0857         estimate D2E/DX2                !
 ! R28   R(11,27)                1.0813         estimate D2E/DX2                !
 ! R29   R(11,28)                1.0876         estimate D2E/DX2                !
 ! R30   R(12,29)                1.0839         estimate D2E/DX2                !
 ! R31   R(13,30)                1.0871         estimate D2E/DX2                !
 ! R32   R(13,31)                1.084          estimate D2E/DX2                !
 ! A1    A(8,1,13)             110.5643         estimate D2E/DX2                !
 ! A2    A(8,1,14)             110.7475         estimate D2E/DX2                !
 ! A3    A(8,1,15)             109.3727         estimate D2E/DX2                !
 ! A4    A(13,1,14)            109.8109         estimate D2E/DX2                !
 ! A5    A(13,1,15)            109.3404         estimate D2E/DX2                !
 ! A6    A(14,1,15)            106.925          estimate D2E/DX2                !
 ! A7    A(4,2,12)             110.7921         estimate D2E/DX2                !
 ! A8    A(4,2,16)             109.843          estimate D2E/DX2                !
 ! A9    A(4,2,17)             107.0228         estimate D2E/DX2                !
 ! A10   A(12,2,16)            109.8376         estimate D2E/DX2                !
 ! A11   A(12,2,17)            110.547          estimate D2E/DX2                !
 ! A12   A(16,2,17)            108.7375         estimate D2E/DX2                !
 ! A13   A(9,3,11)             110.7626         estimate D2E/DX2                !
 ! A14   A(9,3,18)             109.926          estimate D2E/DX2                !
 ! A15   A(9,3,19)             110.2621         estimate D2E/DX2                !
 ! A16   A(11,3,18)            109.0473         estimate D2E/DX2                !
 ! A17   A(11,3,19)            109.3978         estimate D2E/DX2                !
 ! A18   A(18,3,19)            107.3722         estimate D2E/DX2                !
 ! A19   A(2,4,11)             113.2274         estimate D2E/DX2                !
 ! A20   A(6,5,10)             113.8665         estimate D2E/DX2                !
 ! A21   A(5,6,8)              110.8219         estimate D2E/DX2                !
 ! A22   A(5,6,20)             109.0139         estimate D2E/DX2                !
 ! A23   A(5,6,21)             105.898          estimate D2E/DX2                !
 ! A24   A(8,6,20)             110.7171         estimate D2E/DX2                !
 ! A25   A(8,6,21)             111.8591         estimate D2E/DX2                !
 ! A26   A(20,6,21)            108.3658         estimate D2E/DX2                !
 ! A27   A(10,7,12)            119.0861         estimate D2E/DX2                !
 ! A28   A(1,8,6)              109.9102         estimate D2E/DX2                !
 ! A29   A(1,8,22)             109.9949         estimate D2E/DX2                !
 ! A30   A(1,8,23)             110.9862         estimate D2E/DX2                !
 ! A31   A(6,8,22)             109.1217         estimate D2E/DX2                !
 ! A32   A(6,8,23)             109.2341         estimate D2E/DX2                !
 ! A33   A(22,8,23)            107.5419         estimate D2E/DX2                !
 ! A34   A(3,9,12)             109.654          estimate D2E/DX2                !
 ! A35   A(3,9,24)             109.8869         estimate D2E/DX2                !
 ! A36   A(3,9,25)             110.0003         estimate D2E/DX2                !
 ! A37   A(12,9,24)            108.6681         estimate D2E/DX2                !
 ! A38   A(12,9,25)            111.0126         estimate D2E/DX2                !
 ! A39   A(24,9,25)            107.5813         estimate D2E/DX2                !
 ! A40   A(5,10,7)             103.0025         estimate D2E/DX2                !
 ! A41   A(5,10,13)            110.3952         estimate D2E/DX2                !
 ! A42   A(5,10,26)            108.6099         estimate D2E/DX2                !
 ! A43   A(7,10,13)            114.0504         estimate D2E/DX2                !
 ! A44   A(7,10,26)            109.894          estimate D2E/DX2                !
 ! A45   A(13,10,26)           110.5441         estimate D2E/DX2                !
 ! A46   A(3,11,4)             110.7802         estimate D2E/DX2                !
 ! A47   A(3,11,27)            111.4816         estimate D2E/DX2                !
 ! A48   A(3,11,28)            110.7072         estimate D2E/DX2                !
 ! A49   A(4,11,27)            106.3258         estimate D2E/DX2                !
 ! A50   A(4,11,28)            108.9822         estimate D2E/DX2                !
 ! A51   A(27,11,28)           108.4216         estimate D2E/DX2                !
 ! A52   A(2,12,7)             105.1507         estimate D2E/DX2                !
 ! A53   A(2,12,9)             110.1863         estimate D2E/DX2                !
 ! A54   A(2,12,29)            108.3556         estimate D2E/DX2                !
 ! A55   A(7,12,9)             113.3357         estimate D2E/DX2                !
 ! A56   A(7,12,29)            109.792          estimate D2E/DX2                !
 ! A57   A(9,12,29)            109.8286         estimate D2E/DX2                !
 ! A58   A(1,13,10)            109.9819         estimate D2E/DX2                !
 ! A59   A(1,13,30)            110.3814         estimate D2E/DX2                !
 ! A60   A(1,13,31)            109.9566         estimate D2E/DX2                !
 ! A61   A(10,13,30)           108.3298         estimate D2E/DX2                !
 ! A62   A(10,13,31)           110.1665         estimate D2E/DX2                !
 ! A63   A(30,13,31)           107.9865         estimate D2E/DX2                !
 ! D1    D(13,1,8,6)            51.6871         estimate D2E/DX2                !
 ! D2    D(13,1,8,22)          -68.481          estimate D2E/DX2                !
 ! D3    D(13,1,8,23)          172.6309         estimate D2E/DX2                !
 ! D4    D(14,1,8,6)           173.6387         estimate D2E/DX2                !
 ! D5    D(14,1,8,22)           53.4706         estimate D2E/DX2                !
 ! D6    D(14,1,8,23)          -65.4174         estimate D2E/DX2                !
 ! D7    D(15,1,8,6)           -68.768          estimate D2E/DX2                !
 ! D8    D(15,1,8,22)          171.0638         estimate D2E/DX2                !
 ! D9    D(15,1,8,23)           52.1758         estimate D2E/DX2                !
 ! D10   D(8,1,13,10)          -52.229          estimate D2E/DX2                !
 ! D11   D(8,1,13,30)           67.2478         estimate D2E/DX2                !
 ! D12   D(8,1,13,31)         -173.7157         estimate D2E/DX2                !
 ! D13   D(14,1,13,10)        -174.7296         estimate D2E/DX2                !
 ! D14   D(14,1,13,30)         -55.2528         estimate D2E/DX2                !
 ! D15   D(14,1,13,31)          63.7837         estimate D2E/DX2                !
 ! D16   D(15,1,13,10)          68.2455         estimate D2E/DX2                !
 ! D17   D(15,1,13,30)        -172.2778         estimate D2E/DX2                !
 ! D18   D(15,1,13,31)         -53.2412         estimate D2E/DX2                !
 ! D19   D(12,2,4,11)           61.2741         estimate D2E/DX2                !
 ! D20   D(16,2,4,11)          -60.2551         estimate D2E/DX2                !
 ! D21   D(17,2,4,11)         -178.1366         estimate D2E/DX2                !
 ! D22   D(4,2,12,7)          -178.9951         estimate D2E/DX2                !
 ! D23   D(4,2,12,9)           -56.5297         estimate D2E/DX2                !
 ! D24   D(4,2,12,29)           63.6535         estimate D2E/DX2                !
 ! D25   D(16,2,12,7)          -57.4627         estimate D2E/DX2                !
 ! D26   D(16,2,12,9)           65.0026         estimate D2E/DX2                !
 ! D27   D(16,2,12,29)        -174.8141         estimate D2E/DX2                !
 ! D28   D(17,2,12,7)           62.532          estimate D2E/DX2                !
 ! D29   D(17,2,12,9)         -175.0026         estimate D2E/DX2                !
 ! D30   D(17,2,12,29)         -54.8194         estimate D2E/DX2                !
 ! D31   D(11,3,9,12)          -51.8423         estimate D2E/DX2                !
 ! D32   D(11,3,9,24)           67.5399         estimate D2E/DX2                !
 ! D33   D(11,3,9,25)         -174.1988         estimate D2E/DX2                !
 ! D34   D(18,3,9,12)           68.7331         estimate D2E/DX2                !
 ! D35   D(18,3,9,24)         -171.8847         estimate D2E/DX2                !
 ! D36   D(18,3,9,25)          -53.6234         estimate D2E/DX2                !
 ! D37   D(19,3,9,12)         -173.0791         estimate D2E/DX2                !
 ! D38   D(19,3,9,24)          -53.6969         estimate D2E/DX2                !
 ! D39   D(19,3,9,25)           64.5644         estimate D2E/DX2                !
 ! D40   D(9,3,11,4)            55.0883         estimate D2E/DX2                !
 ! D41   D(9,3,11,27)          173.2809         estimate D2E/DX2                !
 ! D42   D(9,3,11,28)          -65.9344         estimate D2E/DX2                !
 ! D43   D(18,3,11,4)          -66.008          estimate D2E/DX2                !
 ! D44   D(18,3,11,27)          52.1846         estimate D2E/DX2                !
 ! D45   D(18,3,11,28)         172.9693         estimate D2E/DX2                !
 ! D46   D(19,3,11,4)          176.8339         estimate D2E/DX2                !
 ! D47   D(19,3,11,27)         -64.9735         estimate D2E/DX2                !
 ! D48   D(19,3,11,28)          55.8111         estimate D2E/DX2                !
 ! D49   D(2,4,11,3)           -60.4891         estimate D2E/DX2                !
 ! D50   D(2,4,11,27)          178.2264         estimate D2E/DX2                !
 ! D51   D(2,4,11,28)           61.5485         estimate D2E/DX2                !
 ! D52   D(10,5,6,8)            61.1116         estimate D2E/DX2                !
 ! D53   D(10,5,6,20)          -60.9862         estimate D2E/DX2                !
 ! D54   D(10,5,6,21)         -177.3883         estimate D2E/DX2                !
 ! D55   D(6,5,10,7)           176.4262         estimate D2E/DX2                !
 ! D56   D(6,5,10,13)          -61.4268         estimate D2E/DX2                !
 ! D57   D(6,5,10,26)           59.9223         estimate D2E/DX2                !
 ! D58   D(5,6,8,1)            -54.7512         estimate D2E/DX2                !
 ! D59   D(5,6,8,22)            65.9451         estimate D2E/DX2                !
 ! D60   D(5,6,8,23)          -176.7433         estimate D2E/DX2                !
 ! D61   D(20,6,8,1)            66.3461         estimate D2E/DX2                !
 ! D62   D(20,6,8,22)         -172.9576         estimate D2E/DX2                !
 ! D63   D(20,6,8,23)          -55.646          estimate D2E/DX2                !
 ! D64   D(21,6,8,1)          -172.6774         estimate D2E/DX2                !
 ! D65   D(21,6,8,22)          -51.9811         estimate D2E/DX2                !
 ! D66   D(21,6,8,23)           65.3305         estimate D2E/DX2                !
 ! D67   D(12,7,10,5)         -177.5456         Frozen                          !
 ! D68   D(12,7,10,13)          62.8032         estimate D2E/DX2                !
 ! D69   D(12,7,10,26)         -61.9594         estimate D2E/DX2                !
 ! D70   D(10,7,12,2)         -173.7589         estimate D2E/DX2                !
 ! D71   D(10,7,12,9)           65.8327         estimate D2E/DX2                !
 ! D72   D(10,7,12,29)         -57.3881         estimate D2E/DX2                !
 ! D73   D(3,9,12,2)            52.236          estimate D2E/DX2                !
 ! D74   D(3,9,12,7)           169.7445         estimate D2E/DX2                !
 ! D75   D(3,9,12,29)          -67.0548         estimate D2E/DX2                !
 ! D76   D(24,9,12,2)          -67.892          estimate D2E/DX2                !
 ! D77   D(24,9,12,7)           49.6166         estimate D2E/DX2                !
 ! D78   D(24,9,12,29)         172.8173         estimate D2E/DX2                !
 ! D79   D(25,9,12,2)          173.9878         estimate D2E/DX2                !
 ! D80   D(25,9,12,7)          -68.5036         estimate D2E/DX2                !
 ! D81   D(25,9,12,29)          54.6971         estimate D2E/DX2                !
 ! D82   D(5,10,13,1)           55.8638         estimate D2E/DX2                !
 ! D83   D(5,10,13,30)         -64.8563         estimate D2E/DX2                !
 ! D84   D(5,10,13,31)         177.2251         estimate D2E/DX2                !
 ! D85   D(7,10,13,1)          171.2547         estimate D2E/DX2                !
 ! D86   D(7,10,13,30)          50.5345         estimate D2E/DX2                !
 ! D87   D(7,10,13,31)         -67.3841         estimate D2E/DX2                !
 ! D88   D(26,10,13,1)         -64.33           estimate D2E/DX2                !
 ! D89   D(26,10,13,30)        174.9498         estimate D2E/DX2                !
 ! D90   D(26,10,13,31)         57.0312         estimate D2E/DX2                !
 --------------------------------------------------------------------------------
 Trust Radius=3.00D-01 FncErr=1.00D-07 GrdErr=1.00D-06 EigMax=2.50D+02 EigMin=1.00D-04
 Number of steps in this run=    186 maximum allowed number of steps=    186.
 GradGradGradGradGradGradGradGradGradGradGradGradGradGradGradGradGradGrad

                          Input orientation:                          
 ---------------------------------------------------------------------
 Center     Atomic      Atomic             Coordinates (Angstroms)
 Number     Number       Type             X           Y           Z
 ---------------------------------------------------------------------
      1          6           0       -3.070327    1.271533   -0.654711
      2          6           0        2.210946   -1.159640   -0.618396
      3          6           0        3.069524    1.265799    0.634751
      4          8           0        3.459827   -0.566479   -0.892495
      5          8           0       -2.119067   -1.132940    0.533016
      6          6           0       -3.407013   -0.656790    0.892147
      7          8           0       -0.011688   -0.821032    0.013642
      8          6           0       -4.020353    0.148488   -0.240792
      9          6           0        1.663780    0.731205    0.924880
     10          6           0       -1.196060   -0.115083    0.250562
     11          6           0        3.997354    0.139555    0.211700
     12          6           0        1.176428   -0.100463   -0.258594
     13          6           0       -1.669291    0.716474   -0.932087
     14          1           0       -3.443105    1.785627   -1.534670
     15          1           0       -3.014213    2.009300    0.143203
     16          1           0        2.311148   -1.870140    0.198627
     17          1           0        1.912305   -1.694581   -1.509179
     18          1           0        3.027313    2.007667   -0.158736
     19          1           0        3.474721    1.755389    1.515067
     20          1           0       -3.323008   -0.052386    1.792075
     21          1           0       -3.992875   -1.534630    1.124973
     22          1           0       -4.207573   -0.510251   -1.085272
     23          1           0       -4.977739    0.547813    0.081482
     24          1           0        1.683648    0.099080    1.810007
     25          1           0        0.987821    1.555034    1.125815
     26          1           0       -1.085131    0.506816    1.133507
     27          1           0        4.958737    0.517471   -0.107998
     28          1           0        4.157117   -0.555945    1.032502
     29          1           0        1.028377    0.538974   -1.121174
     30          1           0       -1.681639    0.080765   -1.813898
     31          1           0       -0.978404    1.531137   -1.116404
 ---------------------------------------------------------------------
                    Distance matrix (angstroms):
                    1          2          3          4          5
     1  C    0.000000
     2  C    5.814101   0.000000
     3  C    6.273796   2.861868   0.000000
     4  O    6.788059   1.409494   2.417035   0.000000
     5  O    2.845537   4.480566   5.717147   5.785933   0.000000
     6  C    2.494906   5.839183   6.760779   7.095533   1.419330
     7  O    3.765740   2.335429   3.772865   3.596846   2.192734
     8  C    1.528106   6.378313   7.230582   7.542479   2.419861
     9  C    5.019844   2.501277   1.531692   2.865767   4.235390
    10  C    2.501020   3.667953   4.499960   4.815353   1.402767
    11  C    7.210004   2.359708   1.519298   1.416568   6.255645
    12  C    4.480425   1.523660   2.499710   2.415142   3.543013
    13  C    1.532296   4.321394   5.021265   5.287285   2.401907
    14  H    1.085165   6.440687   6.884108   7.320878   3.813979
    15  H    1.088171   6.158287   6.148680   7.044182   3.290427
    16  H    6.289560   1.087372   3.255680   2.051717   4.503564
    17  H    5.861277   1.081130   3.833985   2.011899   4.553895
    18  H    6.161907   3.302965   1.087093   2.711402   6.068539
    19  H    6.912287   3.827034   1.085744   3.344794   6.371604
    20  H    2.793451   6.136858   6.628837   7.312869   2.049951
    21  H    3.448611   6.455025   7.613160   7.781405   2.005723
    22  H    2.157189   6.468158   7.685634   7.670029   2.714490
    23  H    2.168864   7.421753   8.098151   8.566376   3.346762
    24  H    5.481766   2.785599   2.159424   3.301711   4.196334
    25  H    4.440632   3.450762   2.158307   3.832128   4.150827
    26  H    2.779122   4.087831   4.252760   5.090510   2.029387
    27  H    8.082906   3.259381   2.163515   2.009257   7.295894
    28  H    7.643449   2.622498   2.158661   2.047422   6.322412
    29  H    4.189702   2.129917   2.788876   2.680722   3.929128
    30  H    2.165663   4.256765   5.474828   5.263324   2.678139
    31  H    2.157938   4.202410   4.418446   4.914064   3.334517
                    6          7          8          9         10
     6  C    0.000000
     7  O    3.510980   0.000000
     8  C    1.519279   4.132082   0.000000
     9  C    5.257427   2.459062   5.831614   0.000000
    10  C    2.365035   1.399011   2.878807   3.057710   0.000000
    11  C    7.478090   4.127272   8.030470   2.510825   5.199798
    12  C    4.758323   1.415963   5.202771   1.526366   2.426552
    13  C    2.869383   2.450709   2.515550   3.815482   1.521214
    14  H    3.443275   4.578926   2.165077   5.765541   3.442232
    15  H    2.797006   4.128283   2.149975   4.912043   2.798251
    16  H    5.886472   2.555467   6.660019   2.777323   3.922172
    17  H    5.927775   2.604577   6.340516   3.445409   3.905565
    18  H    7.043028   4.155331   7.289230   2.159352   4.744520
    19  H    7.318805   4.587730   7.863924   2.162587   5.187854
    20  H    1.087305   3.836467   2.158515   5.121923   2.627566
    21  H    1.080761   4.194536   2.167707   6.096867   3.256053
    22  H    2.138354   4.348522   1.087260   6.328879   3.318105
    23  H    2.139025   5.151699   1.086236   6.697367   3.843061
    24  H    5.227680   2.635849   6.061670   1.087854   3.281837
    25  H    4.925579   2.807425   5.378456   1.084431   2.885255
    26  H    2.608327   2.041950   3.260771   2.765933   1.085659
    27  H    8.506759   5.148933   8.987649   3.459662   6.197598
    28  H    7.566104   4.299684   8.305933   2.808036   5.427918
    29  H    5.015575   2.054059   5.139769   2.151052   2.693988
    30  H    3.292960   2.634744   2.819367   4.372163   2.129821
    31  H    3.836593   2.782848   3.454254   3.433346   2.150816
                   11         12         13         14         15
    11  C    0.000000
    12  C    2.869914   0.000000
    13  C    5.809643   3.036296   0.000000
    14  H    7.817915   5.150319   2.156991   0.000000
    15  H    7.256908   4.708929   2.153245   1.746206   0.000000
    16  H    2.623421   2.151371   4.879855   7.034229   6.588824
    17  H    3.266942   2.155618   4.355921   6.386933   6.381197
    18  H    2.137298   2.807126   4.931870   6.618822   6.049067
    19  H    2.140755   3.445607   5.790403   7.560299   6.637224
    20  H    7.491470   4.944945   3.278259   3.802624   2.657947
    21  H    8.214665   5.540107   3.833798   4.289528   3.805403
    22  H    8.332179   5.462489   2.823331   2.461184   3.046538
    23  H    8.985317   6.197555   3.464332   2.549359   2.448507
    24  H    2.812376   2.139205   4.375209   6.349402   5.338265
    25  H    3.449127   2.166294   3.463869   5.173438   4.145861
    26  H    5.178442   2.724221   2.156821   3.783460   2.638090
    27  H    1.081335   3.835412   6.682027   8.615948   8.115207
    28  H    1.087640   3.280076   6.278988   8.356836   7.668071
    29  H    3.278859   1.083902   2.710106   4.660394   4.483642
    30  H    6.029715   3.258890   1.087138   2.467242   3.053726
    31  H    5.334654   2.835711   1.083962   2.512859   2.441264
                   16         17         18         19         20
    16  H    0.000000
    17  H    1.762526   0.000000
    18  H    3.959544   4.095556   0.000000
    19  H    4.028818   4.846597   1.750838   0.000000
    20  H    6.130825   6.403404   6.955290   7.039453   0.000000
    21  H    6.380548   6.468036   7.967359   8.169540   1.758065
    22  H    6.781697   6.247819   7.716343   8.420958   3.044868
    23  H    7.680371   7.418304   8.140623   8.657799   2.454486
    24  H    2.620712   3.779749   3.053537   2.457294   5.008979
    25  H    3.787174   4.284608   2.452443   2.525140   4.648758
    26  H    4.249545   4.562298   4.564498   4.743076   2.398856
    27  H    3.578328   4.017117   2.440012   2.523705   8.516003
    28  H    2.414551   3.577124   3.044275   2.457804   7.535436
    29  H    3.031700   2.433237   2.660656   3.796581   5.269846
    30  H    4.878384   4.020092   5.350396   6.361951   3.964198
    31  H    4.911125   4.349221   4.146080   5.177379   4.057581
                   21         22         23         24         25
    21  H    0.000000
    22  H    2.445533   0.000000
    23  H    2.528913   1.753274   0.000000
    24  H    5.946528   6.592451   6.896611   0.000000
    25  H    5.861174   6.012190   6.139465   1.752740   0.000000
    26  H    3.552823   3.963212   4.032472   2.879243   2.322918
    27  H    9.266212   9.275371   9.938329   3.818377   4.285674
    28  H    8.209065   8.628736   9.250314   2.674251   3.809118
    29  H    5.878604   5.340162   6.125348   3.035574   2.466370
    30  H    4.072871   2.694539   3.830780   4.945521   4.235729
    31  H    4.848684   3.820441   4.289118   4.207278   2.982307
                   26         27         28         29         30
    26  H    0.000000
    27  H    6.170072   0.000000
    28  H    5.349844   1.759419   0.000000
    29  H    3.090556   4.058906   3.952997   0.000000
    30  H    3.037192   6.869891   6.526750   2.834433   0.000000
    31  H    2.474414   6.106885   5.945358   2.238656   1.756308
                   31
    31  H    0.000000
 Stoichiometry    C10H18O3
 Framework group  C1[X(C10H18O3)]
 Deg. of freedom    87
 Full point group                 C1      NOp   1
 Largest Abelian subgroup         C1      NOp   1
 Largest concise Abelian subgroup C1      NOp   1
                         Standard orientation:                         
 ---------------------------------------------------------------------
 Center     Atomic      Atomic             Coordinates (Angstroms)
 Number     Number       Type             X           Y           Z
 ---------------------------------------------------------------------
      1          6           0       -3.070327    1.271533   -0.654711
      2          6           0        2.210946   -1.159640   -0.618396
      3          6           0        3.069524    1.265799    0.634751
      4          8           0        3.459827   -0.566479   -0.892495
      5          8           0       -2.119067   -1.132940    0.533016
      6          6           0       -3.407013   -0.656790    0.892147
      7          8           0       -0.011688   -0.821032    0.013642
      8          6           0       -4.020353    0.148488   -0.240792
      9          6           0        1.663780    0.731205    0.924880
     10          6           0       -1.196060   -0.115083    0.250562
     11          6           0        3.997354    0.139555    0.211700
     12          6           0        1.176428   -0.100463   -0.258594
     13          6           0       -1.669291    0.716474   -0.932087
     14          1           0       -3.443105    1.785627   -1.534670
     15          1           0       -3.014213    2.009300    0.143203
     16          1           0        2.311148   -1.870140    0.198627
     17          1           0        1.912305   -1.694581   -1.509179
     18          1           0        3.027313    2.007667   -0.158736
     19          1           0        3.474721    1.755389    1.515067
     20          1           0       -3.323008   -0.052386    1.792075
     21          1           0       -3.992875   -1.534630    1.124973
     22          1           0       -4.207573   -0.510251   -1.085272
     23          1           0       -4.977739    0.547813    0.081482
     24          1           0        1.683648    0.099080    1.810007
     25          1           0        0.987821    1.555034    1.125815
     26          1           0       -1.085131    0.506816    1.133507
     27          1           0        4.958737    0.517471   -0.107998
     28          1           0        4.157117   -0.555945    1.032502
     29          1           0        1.028377    0.538974   -1.121174
     30          1           0       -1.681639    0.080765   -1.813898
     31          1           0       -0.978404    1.531137   -1.116404
 ---------------------------------------------------------------------
 Rotational constants (GHZ):           2.2009235           0.3515298           0.3399653
 Standard basis: 6-311++G(2d,2p) (5D, 7F)
 There are   557 symmetry adapted cartesian basis functions of A   symmetry.
 There are   531 symmetry adapted basis functions of A   symmetry.
   531 basis functions,   762 primitive gaussians,   557 cartesian basis functions
    51 alpha electrons       51 beta electrons
       nuclear repulsion energy       878.0091082831 Hartrees.
 NAtoms=   31 NActive=   31 NUniq=   31 SFac= 1.00D+00 NAtFMM=   60 NAOKFM=F Big=F
 Integral buffers will be    131072 words long.
 Raffenetti 2 integral format.
 Two-electron integral symmetry is turned on.
 ------------------------------------------------------------------------------
 Polarizable Continuum Model (PCM)
 =================================
 Model                : PCM.
 Atomic radii         : SMD-Coulomb.
 Polarization charges : Total charges.
 Charge compensation  : None.
 Solution method      : On-the-fly selection.
 Cavity type          : VdW (van der Waals Surface) (Alpha=1.000).
 Cavity algorithm     : GePol (No added spheres)
                        Default sphere list used, NSphG=   31.
                        Lebedev-Laikov grids with approx.  5.0 points / Ang**2.
                        Smoothing algorithm: York/Karplus (Gamma=1.0000).
                        Polarization charges: spherical gaussians, with
                                              point-specific exponents (IZeta= 3).
                        Self-potential: point-specific (ISelfS= 7).
                        Self-field    : sphere-specific E.n sum rule (ISelfD= 2).
 1st derivatives      : Analytical E(r).r(x)/FMM algorithm (CHGder, D1EAlg=3).
                        Cavity 1st derivative terms included.
 Solvent              : Water, Eps=  78.355300 Eps(inf)=   1.777849
 ------------------------------------------------------------------------------
 ------------------------------------------------------------------------------
 Atomic radii for non-electrostatic terms: SMD-CDS.
 ------------------------------------------------------------------------------
 Nuclear repulsion after PCM non-electrostatic terms =      878.0154097714 Hartrees.
 One-electron integrals computed using PRISM.
 NBasis=   531 RedAO= T EigKep=  6.21D-06  NBF=   531
 NBsUse=   531 1.00D-06 EigRej= -1.00D+00 NBFU=   531
 ExpMin= 3.60D-02 ExpMax= 8.59D+03 ExpMxC= 1.30D+03 IAcc=3 IRadAn=         5 AccDes= 0.00D+00
 Harris functional with IExCor= 1009 and IRadAn=       5 diagonalized for initial guess.
 HarFok:  IExCor= 1009 AccDes= 0.00D+00 IRadAn=         5 IDoV= 1 UseB2=F ITyADJ=14
 ICtDFT=  3500011 ScaDFX=  1.000000  1.000000  1.000000  1.000000
 FoFCou: FMM=F IPFlag=           0 FMFlag=      100000 FMFlg1=           0
         NFxFlg=           0 DoJE=T BraDBF=F KetDBF=T FulRan=T
         wScrn=  0.000000 ICntrl=       500 IOpCl=  0 I1Cent=   200000004 NGrid=           0
         NMat0=    1 NMatS0=      1 NMatT0=    0 NMatD0=    1 NMtDS0=    0 NMtDT0=    0
 Petite list used in FoFCou.
 Requested convergence on RMS density matrix=1.00D-08 within 128 cycles.
 Requested convergence on MAX density matrix=1.00D-06.
 Requested convergence on             energy=1.00D-06.
 No special actions if energy rises.
 Inv3:  Mode=1 IEnd=    12229083.
 Iteration    1 A*A^-1 deviation from unit magnitude is 4.00D-15 for   2014.
 Iteration    1 A*A^-1 deviation from orthogonality  is 2.39D-15 for   1581    931.
 Iteration    1 A^-1*A deviation from unit magnitude is 4.00D-15 for   2014.
 Iteration    1 A^-1*A deviation from orthogonality  is 1.24D-14 for   1906   1869.
 Error on total polarization charges =  0.06368
 SCF Done:  E(RM062X) =  -617.502351125     A.U. after   12 cycles
            NFock= 12  Conv=0.52D-08     -V/T= 2.0035
 SMD-CDS (non-electrostatic) energy       (kcal/mol) =       3.95
 (included in total energy above)

 **********************************************************************

            Population analysis using the SCF Density.

 **********************************************************************

 Orbital symmetries:
       Occupied  (A) (A) (A) (A) (A) (A) (A) (A) (A) (A) (A) (A)
                 (A) (A) (A) (A) (A) (A) (A) (A) (A) (A) (A) (A)
                 (A) (A) (A) (A) (A) (A) (A) (A) (A) (A) (A) (A)
                 (A) (A) (A) (A) (A) (A) (A) (A) (A) (A) (A) (A)
                 (A) (A) (A)
       Virtual   (A) (A) (A) (A) (A) (A) (A) (A) (A) (A) (A) (A)
                 (A) (A) (A) (A) (A) (A) (A) (A) (A) (A) (A) (A)
                 (A) (A) (A) (A) (A) (A) (A) (A) (A) (A) (A) (A)
                 (A) (A) (A) (A) (A) (A) (A) (A) (A) (A) (A) (A)
                 (A) (A) (A) (A) (A) (A) (A) (A) (A) (A) (A) (A)
                 (A) (A) (A) (A) (A) (A) (A) (A) (A) (A) (A) (A)
                 (A) (A) (A) (A) (A) (A) (A) (A) (A) (A) (A) (A)
                 (A) (A) (A) (A) (A) (A) (A) (A) (A) (A) (A) (A)
                 (A) (A) (A) (A) (A) (A) (A) (A) (A) (A) (A) (A)
                 (A) (A) (A) (A) (A) (A) (A) (A) (A) (A) (A) (A)
                 (A) (A) (A) (A) (A) (A) (A) (A) (A) (A) (A) (A)
                 (A) (A) (A) (A) (A) (A) (A) (A) (A) (A) (A) (A)
                 (A) (A) (A) (A) (A) (A) (A) (A) (A) (A) (A) (A)
                 (A) (A) (A) (A) (A) (A) (A) (A) (A) (A) (A) (A)
                 (A) (A) (A) (A) (A) (A) (A) (A) (A) (A) (A) (A)
                 (A) (A) (A) (A) (A) (A) (A) (A) (A) (A) (A) (A)
                 (A) (A) (A) (A) (A) (A) (A) (A) (A) (A) (A) (A)
                 (A) (A) (A) (A) (A) (A) (A) (A) (A) (A) (A) (A)
                 (A) (A) (A) (A) (A) (A) (A) (A) (A) (A) (A) (A)
                 (A) (A) (A) (A) (A) (A) (A) (A) (A) (A) (A) (A)
                 (A) (A) (A) (A) (A) (A) (A) (A) (A) (A) (A) (A)
                 (A) (A) (A) (A) (A) (A) (A) (A) (A) (A) (A) (A)
                 (A) (A) (A) (A) (A) (A) (A) (A) (A) (A) (A) (A)
                 (A) (A) (A) (A) (A) (A) (A) (A) (A) (A) (A) (A)
                 (A) (A) (A) (A) (A) (A) (A) (A) (A) (A) (A) (A)
                 (A) (A) (A) (A) (A) (A) (A) (A) (A) (A) (A) (A)
                 (A) (A) (A) (A) (A) (A) (A) (A) (A) (A) (A) (A)
                 (A) (A) (A) (A) (A) (A) (A) (A) (A) (A) (A) (A)
                 (A) (A) (A) (A) (A) (A) (A) (A) (A) (A) (A) (A)
                 (A) (A) (A) (A) (A) (A) (A) (A) (A) (A) (A) (A)
                 (A) (A) (A) (A) (A) (A) (A) (A) (A) (A) (A) (A)
                 (A) (A) (A) (A) (A) (A) (A) (A) (A) (A) (A) (A)
                 (A) (A) (A) (A) (A) (A) (A) (A) (A) (A) (A) (A)
                 (A) (A) (A) (A) (A) (A) (A) (A) (A) (A) (A) (A)
                 (A) (A) (A) (A) (A) (A) (A) (A) (A) (A) (A) (A)
                 (A) (A) (A) (A) (A) (A) (A) (A) (A) (A) (A) (A)
                 (A) (A) (A) (A) (A) (A) (A) (A) (A) (A) (A) (A)
                 (A) (A) (A) (A) (A) (A) (A) (A) (A) (A) (A) (A)
                 (A) (A) (A) (A) (A) (A) (A) (A) (A) (A) (A) (A)
                 (A) (A) (A) (A) (A) (A) (A) (A) (A) (A) (A) (A)
 The electronic state is 1-A.
 Alpha  occ. eigenvalues --  -19.63395 -19.63132 -19.62981 -10.63330 -10.58440
 Alpha  occ. eigenvalues --  -10.57448 -10.57431 -10.57213 -10.52492 -10.52472
 Alpha  occ. eigenvalues --  -10.52435 -10.52246 -10.52128  -1.20594  -1.16836
 Alpha  occ. eigenvalues --   -1.14175  -0.89978  -0.89655  -0.87320  -0.83917
 Alpha  occ. eigenvalues --   -0.74972  -0.73910  -0.72709  -0.69559  -0.65811
 Alpha  occ. eigenvalues --   -0.64533  -0.60174  -0.58222  -0.56922  -0.55728
 Alpha  occ. eigenvalues --   -0.54036  -0.52994  -0.51661  -0.50493  -0.50123
 Alpha  occ. eigenvalues --   -0.49035  -0.47031  -0.45774  -0.45322  -0.44987
 Alpha  occ. eigenvalues --   -0.43296  -0.40661  -0.40339  -0.39897  -0.39302
 Alpha  occ. eigenvalues --   -0.39079  -0.37362  -0.36862  -0.34826  -0.32562
 Alpha  occ. eigenvalues --   -0.31497
 Alpha virt. eigenvalues --    0.00507   0.01272   0.01412   0.01601   0.02611
 Alpha virt. eigenvalues --    0.02909   0.03051   0.04113   0.04251   0.04743
 Alpha virt. eigenvalues --    0.05030   0.05309   0.05855   0.06273   0.07207
 Alpha virt. eigenvalues --    0.07759   0.08158   0.08266   0.09248   0.09908
 Alpha virt. eigenvalues --    0.10114   0.11418   0.11761   0.11953   0.12172
 Alpha virt. eigenvalues --    0.12807   0.13073   0.13435   0.13590   0.13764
 Alpha virt. eigenvalues --    0.14147   0.14677   0.14744   0.15182   0.15489
 Alpha virt. eigenvalues --    0.15770   0.16094   0.16192   0.16551   0.16675
 Alpha virt. eigenvalues --    0.16883   0.17267   0.17556   0.18004   0.18355
 Alpha virt. eigenvalues --    0.18614   0.18878   0.18976   0.19396   0.19804
 Alpha virt. eigenvalues --    0.20364   0.20564   0.20833   0.21540   0.21629
 Alpha virt. eigenvalues --    0.22809   0.23317   0.24235   0.24806   0.25124
 Alpha virt. eigenvalues --    0.26007   0.26072   0.26455   0.27312   0.28031
 Alpha virt. eigenvalues --    0.28278   0.28601   0.29533   0.29739   0.29974
 Alpha virt. eigenvalues --    0.30632   0.31164   0.31405   0.31599   0.32325
 Alpha virt. eigenvalues --    0.32669   0.33113   0.33763   0.34339   0.34753
 Alpha virt. eigenvalues --    0.35208   0.35367   0.35957   0.36129   0.36571
 Alpha virt. eigenvalues --    0.37063   0.37272   0.37838   0.38050   0.38246
 Alpha virt. eigenvalues --    0.38676   0.38839   0.39607   0.39823   0.40792
 Alpha virt. eigenvalues --    0.41339   0.41813   0.43169   0.44117   0.45244
 Alpha virt. eigenvalues --    0.45912   0.49460   0.49800   0.50906   0.52153
 Alpha virt. eigenvalues --    0.52307   0.52511   0.54052   0.54384   0.55072
 Alpha virt. eigenvalues --    0.56631   0.57130   0.58389   0.58878   0.59408
 Alpha virt. eigenvalues --    0.60034   0.60997   0.61759   0.61958   0.62197
 Alpha virt. eigenvalues --    0.62894   0.63269   0.63886   0.64080   0.64510
 Alpha virt. eigenvalues --    0.64823   0.65400   0.65858   0.67171   0.67521
 Alpha virt. eigenvalues --    0.68093   0.68447   0.68713   0.69991   0.70508
 Alpha virt. eigenvalues --    0.71006   0.71327   0.72467   0.72933   0.73068
 Alpha virt. eigenvalues --    0.73676   0.73979   0.75116   0.75875   0.76188
 Alpha virt. eigenvalues --    0.76543   0.77168   0.77273   0.78070   0.79350
 Alpha virt. eigenvalues --    0.80962   0.82726   0.84140   0.85352   0.85902
 Alpha virt. eigenvalues --    0.87303   0.87808   0.88598   0.89921   0.90595
 Alpha virt. eigenvalues --    0.91699   0.92500   0.93144   0.95116   0.96398
 Alpha virt. eigenvalues --    0.97714   0.98712   0.99258   1.01455   1.02412
 Alpha virt. eigenvalues --    1.03212   1.04142   1.05517   1.06602   1.07383
 Alpha virt. eigenvalues --    1.08292   1.09501   1.09825   1.11729   1.12155
 Alpha virt. eigenvalues --    1.12657   1.12965   1.13723   1.16304   1.17336
 Alpha virt. eigenvalues --    1.17716   1.18222   1.18514   1.19669   1.20764
 Alpha virt. eigenvalues --    1.21391   1.21647   1.21890   1.23319   1.24056
 Alpha virt. eigenvalues --    1.24898   1.25272   1.26540   1.26664   1.27154
 Alpha virt. eigenvalues --    1.27933   1.28860   1.30249   1.30504   1.31315
 Alpha virt. eigenvalues --    1.32252   1.32802   1.33459   1.34314   1.34635
 Alpha virt. eigenvalues --    1.35326   1.35370   1.36202   1.36443   1.39195
 Alpha virt. eigenvalues --    1.39963   1.40376   1.40829   1.41038   1.41358
 Alpha virt. eigenvalues --    1.42209   1.43315   1.44124   1.44658   1.45456
 Alpha virt. eigenvalues --    1.46027   1.46908   1.47627   1.48232   1.49013
 Alpha virt. eigenvalues --    1.49238   1.50200   1.50352   1.51953   1.52277
 Alpha virt. eigenvalues --    1.53178   1.53743   1.54253   1.54726   1.56845
 Alpha virt. eigenvalues --    1.57021   1.57395   1.57966   1.58591   1.59860
 Alpha virt. eigenvalues --    1.60125   1.60589   1.61862   1.61898   1.62982
 Alpha virt. eigenvalues --    1.63675   1.64121   1.65791   1.66447   1.67921
 Alpha virt. eigenvalues --    1.68829   1.68952   1.69555   1.70185   1.71760
 Alpha virt. eigenvalues --    1.72356   1.74761   1.75297   1.76060   1.78739
 Alpha virt. eigenvalues --    1.79844   1.80206   1.81293   1.82644   1.83267
 Alpha virt. eigenvalues --    1.84479   1.86803   1.90077   1.95366   2.01176
 Alpha virt. eigenvalues --    2.06334   2.09803   2.13233   2.15436   2.22108
 Alpha virt. eigenvalues --    2.23176   2.27321   2.32409   2.34251   2.35471
 Alpha virt. eigenvalues --    2.39977   2.43826   2.44972   2.47930   2.50691
 Alpha virt. eigenvalues --    2.58489   2.76466   2.76726   2.79894   2.80958
 Alpha virt. eigenvalues --    2.86810   2.90326   2.90693   2.93030   2.95105
 Alpha virt. eigenvalues --    2.97246   2.98351   3.00152   3.03080   3.05186
 Alpha virt. eigenvalues --    3.07518   3.08498   3.08649   3.09323   3.10826
 Alpha virt. eigenvalues --    3.12263   3.14941   3.18395   3.19614   3.21611
 Alpha virt. eigenvalues --    3.24837   3.30783   3.32010   3.33968   3.35671
 Alpha virt. eigenvalues --    3.36412   3.37023   3.38967   3.40065   3.42347
 Alpha virt. eigenvalues --    3.42695   3.43371   3.44245   3.45267   3.46753
 Alpha virt. eigenvalues --    3.48061   3.49420   3.49846   3.50307   3.51270
 Alpha virt. eigenvalues --    3.54022   3.54922   3.55614   3.56059   3.56401
 Alpha virt. eigenvalues --    3.56759   3.57488   3.59379   3.59683   3.61577
 Alpha virt. eigenvalues --    3.61835   3.62169   3.62429   3.64195   3.65845
 Alpha virt. eigenvalues --    3.67151   3.68245   3.68480   3.69386   3.70280
 Alpha virt. eigenvalues --    3.71120   3.72688   3.73139   3.73533   3.74376
 Alpha virt. eigenvalues --    3.74492   3.75189   3.76446   3.77623   3.78421
 Alpha virt. eigenvalues --    3.79104   3.80742   3.81753   3.82829   3.84833
 Alpha virt. eigenvalues --    3.85410   3.87615   3.88904   3.89920   3.91737
 Alpha virt. eigenvalues --    3.92508   3.93615   3.95108   3.96001   3.97093
 Alpha virt. eigenvalues --    3.99311   4.00664   4.03513   4.04055   4.05035
 Alpha virt. eigenvalues --    4.05666   4.06253   4.06516   4.07204   4.07864
 Alpha virt. eigenvalues --    4.08272   4.08876   4.09637   4.10386   4.11888
 Alpha virt. eigenvalues --    4.12643   4.14125   4.14554   4.14918   4.16450
 Alpha virt. eigenvalues --    4.17040   4.17813   4.18494   4.20224   4.21182
 Alpha virt. eigenvalues --    4.22537   4.23870   4.24573   4.26014   4.27632
 Alpha virt. eigenvalues --    4.29270   4.30554   4.31463   4.32605   4.33772
 Alpha virt. eigenvalues --    4.35028   4.36617   4.37158   4.37915   4.42896
 Alpha virt. eigenvalues --    4.44043   4.45252   4.45965   4.50417   4.53978
 Alpha virt. eigenvalues --    4.60044   4.63175   4.76089   4.77908   4.83437
 Alpha virt. eigenvalues --    4.88594   4.92016   4.93344   4.99107   5.00368
 Alpha virt. eigenvalues --    5.06677   5.07466   5.08551   5.09304   5.12766
 Alpha virt. eigenvalues --    5.12834   5.14989   5.15889   5.30692   5.31715
 Alpha virt. eigenvalues --    5.35991   5.54700   5.58358   5.66160   5.86733
 Alpha virt. eigenvalues --    5.88937   6.00394   7.01479   7.05473   7.06664
 Alpha virt. eigenvalues --    7.08385   7.10054   7.11161   7.13049   7.15220
 Alpha virt. eigenvalues --    7.21398   7.36525   7.39627   7.47607   7.54956
 Alpha virt. eigenvalues --    7.56574   7.62451  23.94225  23.99613  24.05414
 Alpha virt. eigenvalues --   24.09103  24.11021  24.13041  24.15036  24.16342
 Alpha virt. eigenvalues --   24.17717  24.19234  50.17689  50.20928  50.22287
          Condensed to atoms (all electrons):
               1          2          3          4          5          6
     1  C    6.345677   0.026450   0.011729   0.000329  -0.027270  -0.213339
     2  C    0.026450   5.958762   0.191950   0.094359  -0.008240  -0.019692
     3  C    0.011729   0.191950   5.962254  -0.022825  -0.000353  -0.004103
     4  O    0.000329   0.094359  -0.022825   8.405113  -0.000020  -0.000091
     5  O   -0.027270  -0.008240  -0.000353  -0.000020   8.389750  -0.019032
     6  C   -0.213339  -0.019692  -0.004103  -0.000091  -0.019032   5.496798
     7  O    0.008078  -0.170596  -0.016299  -0.005972   0.081389  -0.012551
     8  C    0.026878   0.002351  -0.000380  -0.000022  -0.037787   0.073651
     9  C   -0.044032   0.037048  -0.441639  -0.025359   0.010985  -0.034254
    10  C    0.300342  -0.030159  -0.099396  -0.005324   0.223241  -0.175458
    11  C   -0.000682  -0.225170   0.029188   0.098809   0.000673   0.002450
    12  C   -0.066574  -0.250896   0.061842   0.061533  -0.040676   0.005164
    13  C   -0.672287  -0.102970  -0.019066   0.005154  -0.006255   0.193190
    14  H    0.390882  -0.000774  -0.000243  -0.000013  -0.000663   0.012225
    15  H    0.532212  -0.001609   0.000070   0.000024   0.001351  -0.011718
    16  H    0.002898   0.376386   0.014516  -0.035551   0.001780  -0.000023
    17  H   -0.002217   0.451862  -0.001688  -0.065816  -0.000350  -0.000082
    18  H    0.002366   0.012840   0.486651   0.003242  -0.000003  -0.000543
    19  H   -0.001080   0.004481   0.425885   0.007343   0.000030  -0.000518
    20  H    0.010587  -0.000741   0.001159   0.000017  -0.026599   0.494401
    21  H   -0.005984  -0.000169  -0.000245   0.000004  -0.077333   0.434428
    22  H    0.011639  -0.000292   0.000003   0.000003  -0.005354  -0.073818
    23  H   -0.062091   0.000362   0.000100  -0.000003   0.005336  -0.038889
    24  H   -0.000730  -0.018119  -0.069150   0.000860   0.001033  -0.001338
    25  H    0.008268   0.002277  -0.000667  -0.004223   0.001349  -0.001398
    26  H   -0.054434   0.013660  -0.014309  -0.000113  -0.058265   0.004459
    27  H   -0.000020   0.014885  -0.043210  -0.067840   0.000032   0.000052
    28  H    0.000438  -0.033873  -0.033274  -0.043163   0.000020   0.000077
    29  H   -0.051632  -0.068421  -0.002528  -0.022801  -0.001644   0.006341
    30  H    0.016480  -0.008348  -0.000832   0.000637  -0.006487   0.009378
    31  H   -0.019579   0.009049   0.003801   0.001645   0.005794  -0.000140
               7          8          9         10         11         12
     1  C    0.008078   0.026878  -0.044032   0.300342  -0.000682  -0.066574
     2  C   -0.170596   0.002351   0.037048  -0.030159  -0.225170  -0.250896
     3  C   -0.016299  -0.000380  -0.441639  -0.099396   0.029188   0.061842
     4  O   -0.005972  -0.000022  -0.025359  -0.005324   0.098809   0.061533
     5  O    0.081389  -0.037787   0.010985   0.223241   0.000673  -0.040676
     6  C   -0.012551   0.073651  -0.034254  -0.175458   0.002450   0.005164
     7  O    8.421236   0.001391  -0.111862   0.147176   0.008945   0.250203
     8  C    0.001391   5.533832   0.007132   0.148751  -0.001350  -0.011973
     9  C   -0.111862   0.007132   6.865062   0.059295  -0.080391  -0.949342
    10  C    0.147176   0.148751   0.059295   6.107671  -0.020937  -0.439517
    11  C    0.008945  -0.001350  -0.080391  -0.020937   5.472778   0.155837
    12  C    0.250203  -0.011973  -0.949342  -0.439517   0.155837   6.958622
    13  C   -0.153792  -0.128098   0.101571  -0.426144   0.001703   0.116996
    14  H   -0.002178  -0.017119   0.002552   0.003522  -0.000026  -0.002458
    15  H    0.000729  -0.070112   0.001342  -0.020856   0.000094  -0.001345
    16  H    0.008297  -0.000433  -0.032284  -0.002884   0.001462   0.000984
    17  H   -0.001143  -0.000204   0.039281  -0.005510  -0.000682  -0.071962
    18  H    0.000481   0.000310  -0.012290  -0.001090  -0.083593  -0.036722
    19  H   -0.000887   0.000110  -0.008074  -0.007113  -0.034217  -0.024803
    20  H    0.001924  -0.073264   0.000495  -0.041633  -0.000048  -0.001962
    21  H   -0.002312  -0.040763  -0.002039   0.014305   0.000130   0.002547
    22  H    0.001856   0.474807   0.001494  -0.004238  -0.000053  -0.002106
    23  H   -0.000088   0.454590  -0.000938   0.008883  -0.000011  -0.000044
    24  H    0.009772   0.001517   0.509895   0.000903  -0.004248  -0.051300
    25  H   -0.010733  -0.000026   0.422401   0.052508  -0.011764  -0.053798
    26  H   -0.036938   0.018093  -0.004322   0.413636   0.003593   0.008866
    27  H    0.000688  -0.000030   0.003801  -0.002554   0.433710   0.000811
    28  H   -0.000260  -0.000012  -0.027508   0.003316   0.458083   0.030832
    29  H   -0.022271   0.003315  -0.031312  -0.080356   0.020365   0.496838
    30  H    0.006509  -0.020721  -0.014587  -0.109710   0.000420   0.008712
    31  H    0.003240  -0.008943  -0.019683  -0.043788   0.003229   0.025889
              13         14         15         16         17         18
     1  C   -0.672287   0.390882   0.532212   0.002898  -0.002217   0.002366
     2  C   -0.102970  -0.000774  -0.001609   0.376386   0.451862   0.012840
     3  C   -0.019066  -0.000243   0.000070   0.014516  -0.001688   0.486651
     4  O    0.005154  -0.000013   0.000024  -0.035551  -0.065816   0.003242
     5  O   -0.006255  -0.000663   0.001351   0.001780  -0.000350  -0.000003
     6  C    0.193190   0.012225  -0.011718  -0.000023  -0.000082  -0.000543
     7  O   -0.153792  -0.002178   0.000729   0.008297  -0.001143   0.000481
     8  C   -0.128098  -0.017119  -0.070112  -0.000433  -0.000204   0.000310
     9  C    0.101571   0.002552   0.001342  -0.032284   0.039281  -0.012290
    10  C   -0.426144   0.003522  -0.020856  -0.002884  -0.005510  -0.001090
    11  C    0.001703  -0.000026   0.000094   0.001462  -0.000682  -0.083593
    12  C    0.116996  -0.002458  -0.001345   0.000984  -0.071962  -0.036722
    13  C    6.454719  -0.012030  -0.053167   0.003303   0.006264  -0.000218
    14  H   -0.012030   0.487512  -0.007207  -0.000028   0.000111  -0.000053
    15  H   -0.053167  -0.007207   0.455940   0.000055   0.000028   0.000036
    16  H    0.003303  -0.000028   0.000055   0.477601  -0.022850   0.003481
    17  H    0.006264   0.000111   0.000028  -0.022850   0.472972  -0.001886
    18  H   -0.000218  -0.000053   0.000036   0.003481  -0.001886   0.474198
    19  H    0.001768   0.000023  -0.000008  -0.002945   0.002092  -0.011387
    20  H    0.023290  -0.000518   0.000715   0.000082   0.000184  -0.000002
    21  H    0.010760   0.001189  -0.002856  -0.000060  -0.000041  -0.000030
    22  H   -0.026464  -0.004513   0.003426  -0.000031   0.000139   0.000009
    23  H    0.003105  -0.007625  -0.005624   0.000019  -0.000055   0.000011
    24  H   -0.009927  -0.000124   0.000281   0.002197  -0.003660   0.000486
    25  H   -0.011128  -0.000156  -0.000379  -0.002673   0.001206  -0.001965
    26  H   -0.029813  -0.001370  -0.008152  -0.000565  -0.001735   0.000444
    27  H   -0.000177  -0.000009   0.000021  -0.001374   0.001556  -0.005184
    28  H    0.001041   0.000010  -0.000029   0.009185  -0.002324   0.003703
    29  H    0.046505   0.001216  -0.000702  -0.005642  -0.007197  -0.008847
    30  H    0.478856  -0.005877   0.003293   0.000440  -0.001090   0.000282
    31  H    0.426318  -0.010528  -0.005987   0.000451   0.000406  -0.001228
              19         20         21         22         23         24
     1  C   -0.001080   0.010587  -0.005984   0.011639  -0.062091  -0.000730
     2  C    0.004481  -0.000741  -0.000169  -0.000292   0.000362  -0.018119
     3  C    0.425885   0.001159  -0.000245   0.000003   0.000100  -0.069150
     4  O    0.007343   0.000017   0.000004   0.000003  -0.000003   0.000860
     5  O    0.000030  -0.026599  -0.077333  -0.005354   0.005336   0.001033
     6  C   -0.000518   0.494401   0.434428  -0.073818  -0.038889  -0.001338
     7  O   -0.000887   0.001924  -0.002312   0.001856  -0.000088   0.009772
     8  C    0.000110  -0.073264  -0.040763   0.474807   0.454590   0.001517
     9  C   -0.008074   0.000495  -0.002039   0.001494  -0.000938   0.509895
    10  C   -0.007113  -0.041633   0.014305  -0.004238   0.008883   0.000903
    11  C   -0.034217  -0.000048   0.000130  -0.000053  -0.000011  -0.004248
    12  C   -0.024803  -0.001962   0.002547  -0.002106  -0.000044  -0.051300
    13  C    0.001768   0.023290   0.010760  -0.026464   0.003105  -0.009927
    14  H    0.000023  -0.000518   0.001189  -0.004513  -0.007625  -0.000124
    15  H   -0.000008   0.000715  -0.002856   0.003426  -0.005624   0.000281
    16  H   -0.002945   0.000082  -0.000060  -0.000031   0.000019   0.002197
    17  H    0.002092   0.000184  -0.000041   0.000139  -0.000055  -0.003660
    18  H   -0.011387  -0.000002  -0.000030   0.000009   0.000011   0.000486
    19  H    0.491380  -0.000018  -0.000008   0.000018  -0.000013  -0.004115
    20  H   -0.000018   0.469334  -0.001832   0.001971   0.001843  -0.000618
    21  H   -0.000008  -0.001832   0.462412  -0.001234  -0.011183  -0.000071
    22  H    0.000018   0.001971  -0.001234   0.466630  -0.008120   0.000066
    23  H   -0.000013   0.001843  -0.011183  -0.008120   0.474639  -0.000004
    24  H   -0.004115  -0.000618  -0.000071   0.000066  -0.000004   0.416353
    25  H   -0.010864   0.001304  -0.000135   0.000167  -0.000187  -0.008544
    26  H    0.000008  -0.009808   0.001408  -0.002534   0.002299   0.000128
    27  H   -0.008834   0.000003   0.000004   0.000000  -0.000001  -0.001091
    28  H    0.002063   0.000032  -0.000009  -0.000007   0.000004  -0.004725
    29  H   -0.000641  -0.000708   0.000591  -0.000674  -0.000118   0.004434
    30  H   -0.000167   0.000468  -0.000759   0.000002  -0.001553   0.000176
    31  H   -0.000405   0.000836   0.000824  -0.000680   0.001048  -0.002650
              25         26         27         28         29         30
     1  C    0.008268  -0.054434  -0.000020   0.000438  -0.051632   0.016480
     2  C    0.002277   0.013660   0.014885  -0.033873  -0.068421  -0.008348
     3  C   -0.000667  -0.014309  -0.043210  -0.033274  -0.002528  -0.000832
     4  O   -0.004223  -0.000113  -0.067840  -0.043163  -0.022801   0.000637
     5  O    0.001349  -0.058265   0.000032   0.000020  -0.001644  -0.006487
     6  C   -0.001398   0.004459   0.000052   0.000077   0.006341   0.009378
     7  O   -0.010733  -0.036938   0.000688  -0.000260  -0.022271   0.006509
     8  C   -0.000026   0.018093  -0.000030  -0.000012   0.003315  -0.020721
     9  C    0.422401  -0.004322   0.003801  -0.027508  -0.031312  -0.014587
    10  C    0.052508   0.413636  -0.002554   0.003316  -0.080356  -0.109710
    11  C   -0.011764   0.003593   0.433710   0.458083   0.020365   0.000420
    12  C   -0.053798   0.008866   0.000811   0.030832   0.496838   0.008712
    13  C   -0.011128  -0.029813  -0.000177   0.001041   0.046505   0.478856
    14  H   -0.000156  -0.001370  -0.000009   0.000010   0.001216  -0.005877
    15  H   -0.000379  -0.008152   0.000021  -0.000029  -0.000702   0.003293
    16  H   -0.002673  -0.000565  -0.001374   0.009185  -0.005642   0.000440
    17  H    0.001206  -0.001735   0.001556  -0.002324  -0.007197  -0.001090
    18  H   -0.001965   0.000444  -0.005184   0.003703  -0.008847   0.000282
    19  H   -0.010864   0.000008  -0.008834   0.002063  -0.000641  -0.000167
    20  H    0.001304  -0.009808   0.000003   0.000032  -0.000708   0.000468
    21  H   -0.000135   0.001408   0.000004  -0.000009   0.000591  -0.000759
    22  H    0.000167  -0.002534   0.000000  -0.000007  -0.000674   0.000002
    23  H   -0.000187   0.002299  -0.000001   0.000004  -0.000118  -0.001553
    24  H   -0.008544   0.000128  -0.001091  -0.004725   0.004434   0.000176
    25  H    0.475819  -0.017145   0.001406  -0.000860  -0.002327  -0.001664
    26  H   -0.017145   0.476682  -0.000378  -0.000222   0.006845  -0.004549
    27  H    0.001406  -0.000378   0.462469  -0.006662   0.001438   0.000091
    28  H   -0.000860  -0.000222  -0.006662   0.482898  -0.003240  -0.000005
    29  H   -0.002327   0.006845   0.001438  -0.003240   0.466073  -0.001117
    30  H   -0.001664  -0.004549   0.000091  -0.000005  -0.001117   0.430063
    31  H    0.001678   0.000723  -0.000180   0.000391  -0.016113  -0.011150
              31
     1  C   -0.019579
     2  C    0.009049
     3  C    0.003801
     4  O    0.001645
     5  O    0.005794
     6  C   -0.000140
     7  O    0.003240
     8  C   -0.008943
     9  C   -0.019683
    10  C   -0.043788
    11  C    0.003229
    12  C    0.025889
    13  C    0.426318
    14  H   -0.010528
    15  H   -0.005987
    16  H    0.000451
    17  H    0.000406
    18  H   -0.001228
    19  H   -0.000405
    20  H    0.000836
    21  H    0.000824
    22  H   -0.000680
    23  H    0.001048
    24  H   -0.002650
    25  H    0.001678
    26  H    0.000723
    27  H   -0.000180
    28  H    0.000391
    29  H   -0.016113
    30  H   -0.011150
    31  H    0.480845
 Mulliken charges:
               1
     1  C   -0.473301
     2  C   -0.256653
     3  C   -0.418940
     4  O   -0.379935
     5  O   -0.406431
     6  C   -0.125627
     7  O   -0.404032
     8  C   -0.335491
     9  C   -0.222438
    10  C    0.033120
    11  C   -0.228296
    12  C   -0.180198
    13  C   -0.223005
    14  H    0.174271
    15  H    0.190133
    16  H    0.204210
    17  H    0.214393
    18  H    0.176502
    19  H    0.180895
    20  H    0.149105
    21  H    0.218463
    22  H    0.167887
    23  H    0.184309
    24  H    0.232314
    25  H    0.172253
    26  H    0.293807
    27  H    0.216578
    28  H    0.164078
    29  H    0.274331
    30  H    0.232810
    31  H    0.174887
 Sum of Mulliken charges =  -0.00000
 Mulliken charges with hydrogens summed into heavy atoms:
               1
     1  C   -0.108897
     2  C    0.161950
     3  C   -0.061543
     4  O   -0.379935
     5  O   -0.406431
     6  C    0.241941
     7  O   -0.404032
     8  C    0.016706
     9  C    0.182129
    10  C    0.326927
    11  C    0.152360
    12  C    0.094133
    13  C    0.184692
 Electronic spatial extent (au):  <R**2>=           3393.2151
 Charge=              0.0000 electrons
 Dipole moment (field-independent basis, Debye):
    X=             -1.6064    Y=              4.7065    Z=              1.7144  Tot=              5.2603
 Quadrupole moment (field-independent basis, Debye-Ang):
   XX=            -71.8095   YY=            -82.9217   ZZ=            -79.6692
   XY=             -0.3726   XZ=              6.7067   YZ=              0.4793
 Traceless Quadrupole moment (field-independent basis, Debye-Ang):
   XX=              6.3240   YY=             -4.7883   ZZ=             -1.5357
   XY=             -0.3726   XZ=              6.7067   YZ=              0.4793
 Octapole moment (field-independent basis, Debye-Ang**2):
  XXX=            -42.1786  YYY=              0.4007  ZZZ=              1.7948  XYY=              7.3992
  XXY=             16.8672  XXZ=             36.3541  XZZ=             -8.3156  YZZ=             -0.3231
  YYZ=             -1.6216  XYZ=             -2.2033
 Hexadecapole moment (field-independent basis, Debye-Ang**3):
 XXXX=          -3484.3537 YYYY=           -485.4669 ZZZZ=           -349.5700 XXXY=             83.9877
 XXXZ=             66.8445 YYYX=             -4.3912 YYYZ=              1.7031 ZZZX=              2.4267
 ZZZY=              3.4076 XXYY=           -687.4280 XXZZ=           -682.1787 YYZZ=           -133.9159
 XXYZ=            -20.1064 YYXZ=             -1.4426 ZZXY=              2.7387
 N-N= 8.780154097714D+02 E-N=-3.197897256880D+03  KE= 6.153519147887D+02
 D1PCM: PCM CHGder 1st derivatives, ID1Alg=3 FixD1E=F DoIter=F DoCFld=F I1PDM=0.
 Calling FoFJK, ICntrl=      2127 FMM=F ISym2X=0 I1Cent= 0 IOpClX= 0 NMat=1 NMatS=1 NMatT=0.
 ***** Axes restored to original set *****
 -------------------------------------------------------------------
 Center     Atomic                   Forces (Hartrees/Bohr)
 Number     Number              X              Y              Z
 -------------------------------------------------------------------
      1        6           0.000868806   -0.003854816    0.000585383
      2        6          -0.002451452    0.004719702    0.002717752
      3        6          -0.000707824   -0.003016806    0.000773019
      4        8           0.005446513   -0.000571726   -0.010763288
      5        8           0.002139749   -0.013054995    0.000192938
      6        6          -0.000989646    0.005007679   -0.004771559
      7        8           0.001685960   -0.013302499   -0.001238447
      8        6           0.002525982    0.001501478    0.001691582
      9        6           0.002478812   -0.000655925   -0.003744802
     10        6          -0.002982096    0.009499000   -0.006709815
     11        6          -0.005553037    0.003880993    0.002858994
     12        6           0.001344210    0.001426742    0.005582007
     13        6          -0.001785254    0.000691176    0.003122999
     14        1          -0.000918339    0.001187106   -0.002268514
     15        1           0.000494269    0.001682922    0.002906640
     16        1          -0.000608910   -0.003146409    0.005397284
     17        1          -0.001987982   -0.002170731   -0.003994102
     18        1          -0.000251383    0.001683609   -0.002901602
     19        1           0.001041315    0.001266221    0.002412194
     20        1           0.000131924    0.003908592    0.004090892
     21        1          -0.002604767   -0.003679872    0.000831024
     22        1           0.000157850   -0.002293182   -0.002437044
     23        1          -0.002347338    0.001145374    0.000969135
     24        1           0.000202894   -0.003173545    0.002432702
     25        1          -0.002884331    0.002697692    0.000076365
     26        1           0.000415953    0.005969015    0.006598211
     27        1           0.003894977    0.001822082   -0.001402701
     28        1           0.000089605   -0.003140733    0.004796304
     29        1          -0.000039713    0.004299576   -0.005344000
     30        1           0.000018747   -0.003192531   -0.002339275
     31        1           0.003174506    0.002864810   -0.000120279
 -------------------------------------------------------------------
 Cartesian Forces:  Max     0.013302499 RMS     0.003755596

 GradGradGradGradGradGradGradGradGradGradGradGradGradGradGradGradGradGrad
 Berny optimization.
 FormGI is forming the generalized inverse of G from B-inverse, IUseBI=4.
 Internal  Forces:  Max     0.014936431 RMS     0.002283779
 Search for a local minimum.
 Step number   1 out of a maximum of  186
 All quantities printed in internal units (Hartrees-Bohrs-Radians)
 Mixed Optimization -- RFO/linear search
 Second derivative matrix not updated -- first step.
 ITU=  0
     Eigenvalues ---    0.00609   0.00627   0.00739   0.00746   0.01457
     Eigenvalues ---    0.01481   0.01487   0.02741   0.02755   0.03092
     Eigenvalues ---    0.03181   0.04179   0.04336   0.04760   0.04765
     Eigenvalues ---    0.04783   0.04957   0.05011   0.05125   0.05147
     Eigenvalues ---    0.05173   0.05586   0.05731   0.05845   0.06156
     Eigenvalues ---    0.06229   0.06401   0.06861   0.07667   0.07825
     Eigenvalues ---    0.07887   0.07919   0.07996   0.08039   0.08150
     Eigenvalues ---    0.08790   0.09351   0.09573   0.10862   0.11452
     Eigenvalues ---    0.11612   0.11698   0.11719   0.12320   0.12500
     Eigenvalues ---    0.14424   0.14545   0.16461   0.16518   0.17608
     Eigenvalues ---    0.19157   0.21336   0.21788   0.25000   0.28490
     Eigenvalues ---    0.28554   0.28601   0.28695   0.28958   0.29049
     Eigenvalues ---    0.30250   0.30347   0.35025   0.35062   0.35087
     Eigenvalues ---    0.35118   0.35126   0.35131   0.35145   0.35151
     Eigenvalues ---    0.35251   0.35309   0.35319   0.35377   0.35464
     Eigenvalues ---    0.35520   0.35527   0.35834   0.35858   0.35902
     Eigenvalues ---    0.41095   0.41459   0.42528   0.43074   0.43441
     Eigenvalues ---    0.457851000.000001000.000001000.000001000.00000
     Eigenvalues --- 1000.000001000.000001000.000001000.000001000.00000
     Eigenvalues --- 1000.000001000.000001000.000001000.000001000.00000
     Eigenvalues --- 1000.000001000.000001000.000001000.000001000.00000
     Eigenvalues --- 1000.000001000.000001000.000001000.000001000.00000
     Eigenvalues --- 1000.000001000.000001000.000001000.000001000.00000
     Eigenvalues --- 1000.000001000.000001000.000001000.000001000.00000
     Eigenvalues --- 1000.000001000.000001000.000001000.000001000.00000
     Eigenvalues --- 1000.000001000.000001000.000001000.000001000.00000
     Eigenvalues --- 1000.000001000.000001000.000001000.000001000.00000
     Eigenvalues --- 1000.000001000.000001000.000001000.000001000.00000
     Eigenvalues --- 1000.000001000.000001000.000001000.000001000.00000
     Eigenvalues --- 1000.000001000.000001000.000001000.000001000.00000
     Eigenvalues --- 1000.000001000.000001000.000001000.000001000.00000
     Eigenvalues --- 1000.000001000.000001000.000001000.000001000.00000
     Eigenvalues --- 1000.000001000.000001000.000001000.000001000.00000
     Eigenvalues --- 1000.000001000.000001000.000001000.000001000.00000
     Eigenvalues --- 1000.000001000.000001000.000001000.000001000.00000
     Eigenvalues --- 1000.000001000.000001000.000001000.000001000.00000
     Eigenvalues --- 1000.000001000.000001000.000001000.000001000.00000
 RFO step:  Lambda=-3.52037966D-03 EMin= 6.08573638D-03
 Linear search not attempted -- first point.
 Iteration  1 RMS(Cart)=  0.06981231 RMS(Int)=  0.00101020
 Iteration  2 RMS(Cart)=  0.00283373 RMS(Int)=  0.00002769
 Iteration  3 RMS(Cart)=  0.00000179 RMS(Int)=  0.00002767
 Iteration  4 RMS(Cart)=  0.00000000 RMS(Int)=  0.00002767
 Iteration  1 RMS(Cart)=  0.00000086 RMS(Int)=  0.00000019
 Variable       Old X    -DE/DX   Delta X   Delta X   Delta X     New X
                                 (Linear)    (Quad)   (Total)
    R1        2.88770  -0.00078   0.00000  -0.00334  -0.00338   2.88432
    R2        2.89562  -0.00104   0.00000  -0.00423  -0.00427   2.89135
    R3        2.05067   0.00272   0.00000   0.00761   0.00761   2.05827
    R4        2.05634   0.00330   0.00000   0.00933   0.00933   2.06567
    R5        2.66356   0.00603   0.00000   0.01416   0.01419   2.67775
    R6        2.87930  -0.00084   0.00000  -0.00271  -0.00270   2.87660
    R7        2.05483   0.00605   0.00000   0.01707   0.01707   2.07190
    R8        2.04304   0.00492   0.00000   0.01358   0.01358   2.05662
    R9        2.89448  -0.00095   0.00000  -0.00406  -0.00409   2.89039
   R10        2.87106  -0.00072   0.00000  -0.00234  -0.00234   2.86872
   R11        2.05431   0.00327   0.00000   0.00922   0.00922   2.06353
   R12        2.05176   0.00292   0.00000   0.00818   0.00818   2.05994
   R13        2.67693   0.00639   0.00000   0.01513   0.01516   2.69209
   R14        2.68215   0.00535   0.00000   0.01298   0.01302   2.69517
   R15        2.65085   0.00694   0.00000   0.01572   0.01576   2.66660
   R16        2.87102  -0.00045   0.00000  -0.00154  -0.00154   2.86948
   R17        2.05471   0.00557   0.00000   0.01569   0.01569   2.07040
   R18        2.04234   0.00458   0.00000   0.01263   0.01263   2.05497
   R19        2.64375   0.00557   0.00000   0.01208   0.01208   2.65582
   R20        2.67578   0.00322   0.00000   0.00741   0.00741   2.68319
   R21        2.05462   0.00325   0.00000   0.00917   0.00917   2.06380
   R22        2.05269   0.00278   0.00000   0.00780   0.00780   2.06049
   R23        2.88441  -0.00218   0.00000  -0.00777  -0.00780   2.87661
   R24        2.05575   0.00383   0.00000   0.01082   0.01082   2.06656
   R25        2.04928   0.00386   0.00000   0.01078   0.01078   2.06005
   R26        2.87468  -0.00196   0.00000  -0.00623  -0.00622   2.86846
   R27        2.05160   0.00883   0.00000   0.02475   0.02475   2.07634
   R28        2.04343   0.00451   0.00000   0.01247   0.01247   2.05590
   R29        2.05534   0.00564   0.00000   0.01593   0.01593   2.07127
   R30        2.04828   0.00679   0.00000   0.01894   0.01894   2.06722
   R31        2.05439   0.00376   0.00000   0.01060   0.01060   2.06499
   R32        2.04839   0.00420   0.00000   0.01171   0.01171   2.06010
    A1        1.92971   0.00183   0.00000  -0.00298  -0.00308   1.92664
    A2        1.93291  -0.00033   0.00000   0.00135   0.00139   1.93430
    A3        1.90891  -0.00085   0.00000  -0.00174  -0.00174   1.90718
    A4        1.91656  -0.00049   0.00000   0.00080   0.00084   1.91740
    A5        1.90835  -0.00077   0.00000  -0.00200  -0.00198   1.90637
    A6        1.86619   0.00054   0.00000   0.00475   0.00474   1.87094
    A7        1.93369   0.00088   0.00000   0.00400   0.00404   1.93773
    A8        1.91712   0.00110   0.00000   0.00749   0.00749   1.92462
    A9        1.86790  -0.00032   0.00000   0.00325   0.00324   1.87114
   A10        1.91703  -0.00192   0.00000  -0.01343  -0.01347   1.90356
   A11        1.92941  -0.00044   0.00000  -0.00475  -0.00477   1.92463
   A12        1.89783   0.00077   0.00000   0.00403   0.00396   1.90179
   A13        1.93317  -0.00040   0.00000  -0.00627  -0.00632   1.92685
   A14        1.91857   0.00062   0.00000   0.00170   0.00170   1.92027
   A15        1.92444  -0.00043   0.00000   0.00013   0.00014   1.92457
   A16        1.90323  -0.00032   0.00000  -0.00143  -0.00143   1.90180
   A17        1.90935   0.00039   0.00000   0.00144   0.00147   1.91082
   A18        1.87400   0.00016   0.00000   0.00476   0.00475   1.87875
   A19        1.97619  -0.00480   0.00000  -0.02580  -0.02573   1.95047
   A20        1.98735  -0.00538   0.00000  -0.03007  -0.02996   1.95738
   A21        1.93421   0.00110   0.00000   0.00557   0.00563   1.93984
   A22        1.90265   0.00079   0.00000   0.00446   0.00446   1.90711
   A23        1.84827  -0.00092   0.00000  -0.00172  -0.00174   1.84653
   A24        1.93238  -0.00137   0.00000  -0.00819  -0.00822   1.92416
   A25        1.95231  -0.00009   0.00000  -0.00225  -0.00226   1.95005
   A26        1.89134   0.00054   0.00000   0.00261   0.00259   1.89393
   A27        2.07844  -0.01494   0.00000  -0.05892  -0.05892   2.01953
   A28        1.91829  -0.00004   0.00000  -0.00285  -0.00293   1.91536
   A29        1.91977   0.00064   0.00000   0.00206   0.00208   1.92185
   A30        1.93708  -0.00065   0.00000  -0.00166  -0.00165   1.93543
   A31        1.90453  -0.00034   0.00000  -0.00157  -0.00154   1.90299
   A32        1.90649   0.00013   0.00000  -0.00079  -0.00077   1.90573
   A33        1.87696   0.00025   0.00000   0.00494   0.00493   1.88189
   A34        1.91382   0.00167   0.00000  -0.00290  -0.00297   1.91086
   A35        1.91789  -0.00025   0.00000   0.00276   0.00275   1.92064
   A36        1.91987  -0.00015   0.00000   0.00485   0.00485   1.92471
   A37        1.89662  -0.00117   0.00000  -0.00638  -0.00637   1.89024
   A38        1.93753  -0.00079   0.00000  -0.00512  -0.00508   1.93246
   A39        1.87765   0.00064   0.00000   0.00690   0.00685   1.88450
   A40        1.79773  -0.00092   0.00000  -0.00148  -0.00144   1.79630
   A41        1.92676   0.00219   0.00000   0.01407   0.01411   1.94087
   A42        1.89560   0.00036   0.00000   0.00360   0.00362   1.89922
   A43        1.99056  -0.00168   0.00000  -0.01045  -0.01050   1.98005
   A44        1.91801   0.00128   0.00000   0.00472   0.00464   1.92265
   A45        1.92936  -0.00109   0.00000  -0.00902  -0.00905   1.92031
   A46        1.93348   0.00139   0.00000   0.00718   0.00717   1.94065
   A47        1.94572  -0.00039   0.00000  -0.00349  -0.00349   1.94223
   A48        1.93221  -0.00124   0.00000  -0.00783  -0.00783   1.92437
   A49        1.85573  -0.00095   0.00000  -0.00272  -0.00270   1.85303
   A50        1.90210   0.00060   0.00000   0.00412   0.00415   1.90625
   A51        1.89231   0.00062   0.00000   0.00308   0.00305   1.89537
   A52        1.83523   0.00063   0.00000   0.00394   0.00395   1.83917
   A53        1.92311   0.00050   0.00000  -0.00012  -0.00017   1.92294
   A54        1.89116  -0.00019   0.00000   0.00225   0.00225   1.89341
   A55        1.97808  -0.00164   0.00000  -0.00923  -0.00921   1.96887
   A56        1.91623   0.00059   0.00000   0.00712   0.00708   1.92331
   A57        1.91687   0.00017   0.00000  -0.00318  -0.00316   1.91371
   A58        1.91955  -0.00074   0.00000  -0.00689  -0.00691   1.91263
   A59        1.92652   0.00114   0.00000   0.00596   0.00592   1.93244
   A60        1.91911   0.00003   0.00000   0.00530   0.00526   1.92437
   A61        1.89071  -0.00062   0.00000  -0.00645  -0.00644   1.88427
   A62        1.92277  -0.00000   0.00000  -0.00459  -0.00456   1.91821
   A63        1.88472   0.00020   0.00000   0.00674   0.00668   1.89140
    D1        0.90211  -0.00015   0.00000   0.01169   0.01168   0.91379
    D2       -1.19522  -0.00012   0.00000   0.01413   0.01413  -1.18109
    D3        3.01298  -0.00044   0.00000   0.00772   0.00772   3.02069
    D4        3.03057   0.00025   0.00000   0.01160   0.01159   3.04216
    D5        0.93324   0.00028   0.00000   0.01404   0.01404   0.94728
    D6       -1.14175  -0.00004   0.00000   0.00763   0.00762  -1.13413
    D7       -1.20023   0.00019   0.00000   0.01715   0.01716  -1.18307
[...]
 .01999618,-0.00290037,-0.00017624,-0.00006174,-0.00007400,-0.00000774,
 -0.00000047,-0.00000218,-0.00000243,-0.00000205,-0.00000579,0.00016968
 ,-0.00021017,0.00009374,0.00114712,-0.00111018,-0.00020055,-0.00020206
 ,-0.00040409,0.00024836,-0.00019561,0.00037218,0.00010065,-0.00000013,
 -0.00000364,-0.00000548,-0.00001107,0.00000075,-0.00000178,0.00000098,
 0.00000003,-0.00000108,0.00000016,0.00000262,-0.00000203,-0.01814415,0
 .01941835,0.00332763,-0.01790973,0.02148057,0.05239510,0.00053007,-0.0
 0082114,-0.00004833,-0.00001824,-0.00031264,-0.00009145,0.00004555,0.0
 0027626,0.00008897,-0.00027970,0.00000379,-0.00006093,-0.01460466,-0.0
 2396445,-0.01646085,0.00285324,-0.00311142,-0.00265188,-0.00872304,0.0
 2383599,0.03066141,-0.00033686,0.00033962,0.00023218,-0.00124108,-0.00
 167265,-0.00011018,-0.05477908,-0.01546000,-0.03408826,-0.00005666,0.0
 0001909,0.00008087,0.00374192,0.00230209,-0.00004449,0.00243602,-0.003
 13286,-0.00877652,0.00011715,-0.00003689,0.00003735,0.00001164,0.00011
 134,0.00000282,0.00000514,0.00002577,-0.00002569,0.00002287,-0.0001240
 4,-0.00004847,0.00004921,0.00001640,-0.00000840,-0.00000082,0.00000028
 ,0.00000347,0.00025282,0.00064143,0.00059846,-0.00001576,0.00008409,0.
 00018155,0.00001820,-0.00001319,0.00007091,-0.00007054,0.00010400,-0.0
 0007638,-0.00003385,-0.00008387,-0.00033772,-0.00242076,-0.00123615,-0
 .00009755,0.07259370,-0.00095125,0.00092316,0.00010322,-0.00011092,0.0
 0029027,-0.00008453,-0.00006746,0.00033922,0.00028506,0.00035832,-0.00
 001887,0.00002844,-0.02008546,-0.02472915,-0.01980318,0.00301750,-0.00
 053806,-0.00137173,0.01059194,-0.01227978,-0.01877474,-0.00038020,-0.0
 0001812,0.00036076,-0.00068906,-0.00056221,0.00012856,-0.01349802,-0.1
 0000531,-0.09228411,-0.00013958,-0.00007331,-0.00006125,-0.00207397,-0
 .00141679,0.00001592,0.00411410,0.01019740,0.01786814,-0.00014452,-0.0
 0010136,-0.00016040,-0.00012173,-0.00015211,-0.00026363,-0.00000040,-0
 .00002372,0.00001557,0.00000998,0.00004643,0.00001185,-0.00000150,-0.0
 0000543,-0.00000240,0.00008162,0.00002993,-0.00001276,-0.00026972,0.00
 065284,0.00060792,-0.00007403,0.00022327,0.00044783,0.00004126,-0.0000
 5087,-0.00008358,-0.00003434,0.00017880,-0.00012104,0.00016212,-0.0000
 8540,0.00000565,-0.00201849,-0.00055158,0.00017223,0.02079434,0.128886
 07,0.00058322,-0.00049280,0.00019703,0.00001688,0.00025274,0.00008168,
 -0.00012595,0.00072242,0.00025819,0.00028936,0.00000741,0.00000676,0.0
 0145992,0.00153848,0.00959394,-0.00056283,0.00147370,0.00148756,0.0088
 6919,-0.00761451,-0.00354416,0.00003619,-0.00010237,0.00001758,-0.0003
 1080,-0.00091233,0.00023918,-0.03319714,-0.09599060,-0.24067068,-0.000
 23053,-0.00022948,-0.00005424,-0.00141302,-0.00179649,0.00018825,-0.00
 451334,-0.01144374,-0.02166557,-0.00009804,0.00034802,0.00030242,-0.00
 040157,0.00027295,0.00050788,0.00000960,-0.00000266,0.00000648,-0.0000
 2250,0.00005344,0.00001651,-0.00001009,-0.00002097,0.00003954,0.000042
 58,0.00000296,-0.00002560,-0.00089492,-0.00007096,-0.00019774,-0.00018
 658,0.00016812,0.00024963,0.00007008,-0.00005047,-0.00014295,-0.000086
 22,-0.00010584,0.00004217,0.00010765,-0.00018851,-0.00016822,-0.000587
 26,0.00073004,0.00015611,0.03219681,0.11052942,0.25509896,0.00000654,-
 0.00000765,-0.00002124,0.00217436,0.00047432,-0.00229915,-0.01740695,-
 0.00737342,0.00634311,-0.01032542,-0.00799418,-0.00174060,-0.00014769,
 -0.00004646,0.00001131,0.00004455,-0.00003029,-0.00001532,-0.00049108,
 -0.00005294,0.00002110,-0.00000649,0.00001030,0.00000772,-0.00106291,0
 .00412857,0.00031278,0.00025094,-0.00003506,0.00006542,-0.26661889,-0.
 08679405,0.06379913,0.00078543,0.00020844,0.00040325,-0.00001739,0.000
 01907,0.00001543,-0.00001148,0.00000668,0.00000008,0.00000023,0.000001
 08,0.00000253,-0.00002959,-0.00005317,0.00017346,-0.00055840,-0.000239
 74,0.00014749,0.00091894,-0.00045611,-0.00058616,0.00036391,0.00016538
 ,0.00019309,-0.00000290,0.00000502,0.00000318,-0.00001183,0.00000104,0
 .00000331,-0.00000035,-0.00000141,-0.00000179,-0.00000602,0.00000013,-
 0.00000091,0.00009729,-0.00008539,0.00008774,-0.00119493,-0.00061201,0
 .00011957,-0.00003537,-0.00001109,-0.00005683,0.28878397,-0.00000234,0
 .00000631,0.00000150,0.00073230,-0.00074524,-0.00403900,0.02377900,0.0
 1098998,-0.00640099,-0.02243771,-0.01243600,0.00085814,0.00002949,0.00
 005892,0.00002654,-0.00002238,0.00000085,0.00000186,-0.00009650,0.0003
 7730,0.00019093,0.00000251,-0.00000332,-0.00000243,0.00281694,-0.00407
 901,-0.00048124,-0.00003719,-0.00008830,-0.00008784,-0.08400206,-0.084
 15813,0.02714669,-0.00016162,-0.00099343,-0.00053839,-0.00001250,0.000
 00457,0.00000905,0.00000184,-0.00000100,0.00000005,-0.00000080,0.00000
 003,-0.00000042,0.00022687,0.00013065,-0.00008366,-0.00126236,-0.00029
 162,-0.00005175,-0.00088730,0.00114256,0.00032888,-0.00113329,0.000688
 69,0.00008294,0.00000015,-0.00000200,-0.00000069,0.00000104,0.00000057
 ,-0.00000010,-0.00000017,0.00000022,0.00000064,0.00000151,0.00000029,-
 0.00000012,-0.00006419,0.00007795,-0.00012646,0.00152691,0.00052006,-0
 .00016128,-0.00000914,0.00002985,0.00007537,0.09738667,0.09425781,0.00
 000118,0.00000189,-0.00000839,-0.00037757,-0.00169384,-0.00411598,0.00
 395285,0.00365624,-0.00098039,-0.03198237,-0.01756287,0.00331355,-0.00
 003613,0.00002194,0.00002751,0.00000180,-0.00001164,-0.00000320,-0.000
 31504,0.00032797,0.00022582,-0.00000131,0.00000140,0.00000152,0.000640
 64,-0.00195485,0.00077558,0.00003282,-0.00006874,-0.00003194,0.0744566
 3,0.03350558,-0.07234620,0.00018017,-0.00077300,-0.00042634,-0.0000241
 7,0.00001071,0.00001249,-0.00000345,0.00000166,0.00000049,-0.00000057,
 0.00000033,0.00000047,-0.00011581,-0.00026063,0.00039689,-0.00120364,-
 0.00064088,0.00024939,-0.00040409,-0.00055476,0.00047593,-0.00017969,0
 .00012732,0.00013215,-0.00000105,0.00000016,0.00000065,-0.00000417,0.0
 0000111,0.00000105,0.00000004,-0.00000022,-0.00000011,-0.00000091,0.00
 000025,-0.00000051,-0.00035432,-0.00019247,0.00012267,0.00070249,0.000
 23213,0.00018040,-0.00003542,0.00002006,0.00002850,-0.06701705,-0.0223
 3857,0.07648601,0.00000162,0.00000049,-0.00000249,0.00112158,0.0019457
 1,-0.00252476,-0.00213108,0.01496466,-0.01670036,-0.00126838,0.0007838
 3,-0.01341748,-0.00001957,0.00000349,0.00001015,0.00000139,-0.00000435
 ,-0.00000225,-0.00016177,-0.00002539,0.00002961,-0.00000066,0.00000089
 ,0.00000127,0.00125381,-0.00002840,-0.00105820,0.00003127,-0.00003502,
 0.00000211,-0.05699096,0.01168569,-0.01336026,-0.00019566,-0.00000316,
 0.00013383,0.00000067,-0.00000388,0.00000202,-0.00000100,0.00000032,0.
 00000032,-0.00000020,0.,0.00000007,0.00024892,-0.00002267,0.00038166,0
 .00003440,-0.00002705,0.00009420,-0.00204806,0.00325178,0.00055112,0.0
 0069899,-0.00051819,0.00029193,-0.00000038,0.00000059,0.00000051,-0.00
 000176,0.00000039,0.00000053,-0.00000001,-0.00000005,-0.00000013,-0.00
 000045,0.00000041,-0.00000022,0.00003271,-0.00014387,0.00024324,0.0001
 7390,-0.00009338,0.00020979,-0.00000350,0.00000682,0.00000145,0.004565
 07,-0.01639158,0.02211733,0.05462227,-0.00000067,0.00000210,0.00000275
 ,0.00224772,0.00286570,-0.00267579,0.00215954,-0.01633937,0.02050533,-
 0.00664768,0.00968632,-0.02407873,0.00001743,0.00001257,-0.00000236,-0
 .00000769,0.00000242,0.00000263,0.00003772,0.00018438,0.00014565,0.000
 00093,-0.00000276,-0.00000139,-0.00113484,0.00094820,0.00006163,-0.000
 07171,-0.00000398,0.00001554,0.01245936,-0.14437887,0.12448519,-0.0002
 3447,-0.00039294,-0.00001455,0.00000725,-0.00000752,-0.00000545,0.0000
 0167,-0.00000085,-0.00000030,-0.00000009,-0.00000046,-0.00000005,0.000
 88933,-0.00005498,0.00090585,0.00017441,0.00006071,-0.00000802,0.00413
 389,-0.00284353,-0.00123549,-0.00046606,0.00068717,-0.00020465,0.00000
 074,-0.00000144,-0.00000106,0.00000133,0.00000059,-0.00000026,0.000000
 30,0.00000052,0.00000021,0.00000141,0.00000038,-0.00000011,0.00039835,
 0.00048935,-0.00024251,-0.00010909,0.00007312,-0.00034399,-0.00000031,
 0.00000100,0.00000839,0.00142964,-0.00556793,0.00810967,-0.01526716,0.
 15469173,0.00000283,-0.00000104,-0.00001508,0.00375686,0.00242225,0.00
 057595,0.00168005,-0.00286300,0.00607604,-0.01039344,0.00186330,-0.037
 95328,-0.00010142,-0.00000035,0.00002795,0.00001818,-0.00002299,-0.000
 01154,-0.00056572,0.00016920,0.00010210,-0.00000332,0.00000512,0.00000
 509,-0.00040837,-0.00040099,0.00034869,0.00015066,-0.00011630,-0.00003
 875,-0.01679918,0.12064092,-0.20032671,0.00012749,-0.00053241,0.000029
 64,-0.00002589,0.00001850,0.00001886,-0.00000689,0.00000418,0.00000033
 ,-0.00000083,0.00000119,0.00000190,-0.00083140,-0.00053389,0.00078016,
 -0.00005461,-0.00042395,0.00035246,0.00146538,-0.00109996,0.00084001,-
 0.00057268,0.00076534,0.00033132,-0.00000242,0.00000305,0.00000260,-0.
 00000890,0.00000105,0.00000283,-0.00000001,-0.00000065,-0.00000081,-0.
 00000369,0.00000014,-0.00000081,-0.00037249,0.00000779,-0.00016797,-0.
 00012095,-0.00001224,0.00004851,-0.00001142,0.00001472,0.00000734,0.00
 010902,0.00550969,-0.00453744,0.02294053,-0.12548126,0.23359311,0.0000
 1233,-0.00017207,0.00006631,-0.00367789,0.01391898,-0.02042081,0.00050
 721,0.00042509,-0.00016930,0.00187989,-0.00039766,0.00023477,-0.001045
 42,0.00022699,0.00001760,0.00013216,-0.00011929,-0.00018278,-0.0099001
 9,-0.02523770,0.02895219,-0.00010889,0.00006563,0.00003917,0.00089768,
 0.00400082,-0.00534625,0.00423083,-0.00259604,0.00074426,0.00003817,-0
 .00002990,0.00007718,-0.05423105,0.02222367,-0.03174904,-0.00095444,0.
 00069967,0.00012140,0.00000340,0.00000325,0.00000261,0.00003458,-0.000
 01424,-0.00001364,-0.00322743,0.00299934,0.00063919,0.00105379,-0.0008
 3248,0.00047038,-0.00001259,-0.00014134,-0.00006895,0.00007080,0.00004
 706,-0.00003079,-0.00001092,0.00001041,0.00001419,-0.00006671,0.000012
 47,0.00001218,0.00000467,0.00000070,-0.00000593,-0.00004044,0.00002130
 ,-0.00003357,0.00018109,-0.00108430,-0.00110774,0.00006064,-0.00046479
 ,0.00023533,-0.00032710,0.00035418,0.00008655,-0.00005508,0.00000760,-
 0.00003039,0.00003244,-0.00002027,0.00003472,0.06680738,0.00001777,0.0
 0032616,-0.00030314,0.00519556,-0.01450674,0.01996970,0.00082341,0.000
 87866,0.00029612,-0.00099531,0.00201114,-0.00090312,-0.00079307,0.0001
 0736,0.00024092,0.00017291,-0.00016598,-0.00012011,-0.01083050,-0.0141
 0047,0.01643731,0.00005010,0.00000338,0.00000481,-0.00263286,0.0101837
 4,-0.01846107,0.00288411,-0.00126632,-0.00110897,-0.00004383,-0.000222
 95,-0.00035700,0.01874581,-0.11634852,0.10822970,0.00001250,-0.0002973
 5,-0.00002359,-0.00009758,0.00004494,0.00002175,-0.00000105,0.00000033
 ,0.00000655,0.00284315,-0.00242170,-0.00031787,-0.00078782,0.00094632,
 -0.00001737,0.00006389,-0.00017586,0.00021062,0.00021742,-0.00009067,0
 .00012252,-0.00002323,0.00001852,0.00001144,-0.00007052,0.00001360,0.0
 0001544,-0.00000313,-0.00000217,-0.00000590,0.00000245,0.00002716,-0.0
 0001797,-0.00138640,-0.00182377,-0.00359230,0.00046387,0.00075720,0.00
 088387,-0.00028433,0.00023871,0.00013764,-0.00002544,0.00007198,0.0000
 3104,-0.00008304,-0.00011414,0.00007184,-0.01514667,0.13632604,-0.0000
 8213,-0.00063198,0.00017043,0.00136865,-0.00337812,0.00432762,0.000528
 67,0.00054534,0.00016831,-0.00126571,-0.00039899,0.00020748,0.00058635
 ,-0.00013475,-0.00005337,-0.00008633,0.00012750,0.00001802,0.00806466,
 0.00580394,-0.00092978,-0.00015001,0.00010609,0.00004379,-0.00458242,0
 .01228852,-0.02314164,-0.00179281,0.00159723,-0.00001264,0.00003493,-0
 .00019609,0.00004683,-0.02967194,0.10925856,-0.23193853,0.00025061,0.0
 0072853,0.00021127,0.00003569,-0.00000496,-0.00001783,0.00001588,0.000
 00688,0.00002072,0.00130571,-0.00079807,0.00083201,-0.00045243,0.00032
 226,0.00083402,-0.00038838,-0.00019939,0.00043566,-0.00010210,-0.00036
 068,0.00027187,0.00001688,-0.00001013,-0.00000356,0.00004337,-0.000015
 99,-0.00000443,-0.00000082,-0.00000307,-0.00000034,-0.00005016,-0.0000
 5731,0.00002231,-0.00141719,-0.00302398,-0.00305197,0.00052517,0.00025
 735,0.00122631,0.00009203,-0.00011614,-0.00002169,-0.00007164,0.000076
 27,0.00002135,0.00005397,0.00005315,-0.00008891,0.02758166,-0.12136355
 ,0.25059847,0.00143587,0.01589164,0.02589165,-0.00000835,-0.00001365,0
 .00004748,0.00001188,0.00001759,0.00000342,0.00000363,0.00000898,0.000
 00174,0.00078691,0.00022277,0.00151138,-0.00040373,0.00017095,0.000147
 76,0.00097667,-0.00076289,0.00011358,0.00178330,0.00035584,0.00001864,
 0.00004416,0.00006485,-0.00014011,-0.00341001,-0.00597698,-0.00995166,
 -0.00001105,-0.00001353,-0.00000598,0.00014397,-0.00022461,-0.00011742
 ,-0.04827622,-0.01184819,-0.01613763,0.00141150,-0.00060646,-0.0006415
 2,-0.00498259,0.00220323,0.00172274,0.00001638,-0.00000545,-0.00000411
 ,-0.00000326,0.00000729,0.00000421,-0.00000270,-0.00000799,0.00000766,
 -0.00000199,-0.00000248,0.00000002,-0.00008033,-0.00005910,-0.00007737
 ,0.00005902,-0.00006451,0.00004397,-0.00009280,-0.00027083,-0.00031829
 ,0.00008912,0.00006348,-0.00033546,-0.00008201,-0.00000092,0.00003602,
 0.00004238,0.00007271,0.00003412,0.00010676,0.00171785,-0.00150740,-0.
 00000383,0.00000404,0.00000347,0.00000047,-0.00000023,0.00000076,0.000
 06665,-0.00010994,0.00013413,0.05183930,-0.00042100,-0.00851656,-0.011
 50161,0.00000757,0.00002428,-0.00003936,-0.00001527,-0.00001612,-0.000
 03423,-0.00000940,-0.00001174,0.00000664,0.00073934,0.00170447,-0.0014
 2112,0.00015787,-0.00001183,0.00007453,-0.00171860,0.00130844,-0.00094
 362,-0.00072421,0.00050433,0.00064663,0.00003044,-0.00000168,0.0001191
 1,0.00234987,0.00938661,0.02025560,0.00000691,0.00000929,0.00000231,0.
 00006843,0.00015137,-0.00017845,-0.01231604,-0.12043461,-0.11748352,-0
 .00046932,0.00026896,0.00023373,0.00300200,-0.00003104,-0.00050110,-0.
 00000479,0.00000005,0.00000382,-0.00000683,0.00000044,-0.00000434,0.00
 000921,-0.00000062,-0.00000343,-0.00000258,-0.00000123,0.00000212,-0.0
 0002702,-0.00008138,-0.00007546,-0.00002870,0.00002989,-0.00005057,0.0
 0012412,0.00047141,0.00002240,0.00009458,0.00006335,0.00020668,0.00000
 570,0.00005652,-0.00000534,0.00000277,-0.00000712,0.00002586,0.0012003
 1,-0.00202226,0.00277199,0.00000227,-0.00000307,0.00000077,-0.00000005
 ,-0.00000051,0.00000051,0.00007920,-0.00005742,0.00007928,0.00866045,0
 .12814662,-0.00020292,-0.00288980,-0.00481972,0.00002379,-0.00005780,-
 0.00002760,-0.00000191,0.00005274,-0.00000115,-0.00005345,0.00000924,0
 .00000783,0.00055777,-0.00055529,0.00266543,-0.00010873,0.00011041,0.0
 0018337,0.00092302,-0.00026894,0.00290331,-0.00028931,0.00007071,0.000
 00755,0.00004119,-0.00003252,0.00006211,-0.00273992,-0.01475681,-0.026
 27873,-0.00000818,-0.00001846,0.00000878,-0.00012135,-0.00001845,0.000
 08896,-0.01567055,-0.11461288,-0.23581884,0.00027592,0.00009517,0.0006
 2320,0.00088493,-0.00037043,0.00072924,-0.00000607,0.00001395,-0.00000
 037,-0.00000837,0.00000602,0.00000245,-0.00000620,-0.00000303,0.000005
 56,-0.00000812,-0.00000604,-0.00000186,-0.00009917,-0.00009285,-0.0000
 2727,0.00002738,0.00001988,-0.00003430,0.00020997,0.00022938,-0.000169
 37,0.00009997,0.00009314,0.00012099,0.00002627,-0.00001984,-0.00000700
 ,0.00003489,0.00006302,0.00000299,-0.00123919,0.00358334,-0.00280683,-
 0.00000964,0.00000618,0.00000040,-0.00000033,0.00000140,-0.00000315,-0
 .00025290,0.00002108,-0.00023261,0.01793346,0.12682311,0.25810974,-0.0
 1986057,-0.02153286,0.00382702,-0.00004177,0.00015414,-0.00028082,0.00
 001056,0.00006407,0.00002179,0.00003217,-0.00001829,-0.00000532,0.0011
 6769,0.00302312,-0.00248457,-0.00056526,0.00049323,-0.00035253,0.00068
 123,-0.00157884,0.00079282,-0.00430811,0.00458478,0.00152886,-0.000254
 91,0.00017625,-0.00004728,0.00672723,0.00690228,0.00085106,-0.00001269
 ,-0.00000676,0.00002540,-0.00185976,0.00053412,0.00030969,-0.16811563,
 -0.13340732,0.02047326,0.00113922,-0.00016518,-0.00070642,0.00144660,-
 0.00002819,0.00004956,-0.00006390,0.00007145,0.00002723,0.00001778,-0.
 00001145,0.00000443,0.00001800,-0.00002559,0.00002065,0.00000940,0.000
 00002,0.00000065,0.00011357,-0.00002577,0.00006990,0.00016155,-0.00016
 159,0.00003923,0.00015034,0.00010765,-0.00017763,-0.00113318,-0.001442
 70,0.00069952,0.00005269,-0.00000431,0.00003849,0.00002237,-0.00006706
 ,-0.00005877,0.00016273,-0.00057830,0.00043553,-0.00000463,0.00000427,
 -0.00000224,0.00000393,-0.00000074,-0.00000286,-0.00235558,0.00182174,
 -0.00052427,-0.00145909,-0.00079723,-0.00021227,0.18811800,0.01081935,
 0.01207062,-0.00250043,0.00022690,0.00019965,-0.00039890,0.00003089,0.
 00007510,-0.00008030,-0.00005830,-0.00004666,0.00000209,-0.00054857,-0
 .00381476,0.00555777,0.00141250,-0.00058651,-0.00051719,0.00048412,0.0
 0072032,-0.00039457,0.00284408,-0.00078243,-0.00077346,0.00009781,0.00
 021643,0.00016011,-0.01528112,-0.01321732,-0.00197264,0.00000716,-0.00
 002330,0.00005448,0.00000396,-0.00051401,0.00065232,-0.13263832,-0.190
 24896,0.02501688,-0.00085482,0.00051323,0.00024830,-0.00074169,0.00065
 886,0.00018980,-0.00015316,0.00011847,0.00002730,-0.00001386,0.0000221
 9,0.00001902,0.00001390,-0.00001641,0.00002183,-0.00003420,-0.00001852
 ,-0.00000291,-0.00018956,0.00007401,0.00005119,-0.00023010,0.00008956,
 0.00000874,0.00004816,0.00006796,0.00004229,0.00067846,0.00050770,-0.0
 0027411,-0.00005921,0.00000588,-0.00006794,0.00006389,0.00010524,0.000
 03734,0.00050827,0.00059738,-0.00007137,-0.00002020,0.00001047,0.00000
 226,0.00000213,0.00000302,-0.00000973,0.00116039,-0.00036122,-0.000557
 71,-0.00949393,-0.01092888,0.00250438,0.14191507,0.20450292,0.00550591
 ,0.00481573,-0.00220645,-0.00008325,-0.00011467,0.00007844,-0.00000702
 ,-0.00000169,0.00002994,-0.00000427,0.00002985,-0.00000518,0.00034019,
 0.00600332,-0.00429287,-0.00141206,0.00020301,0.00063803,0.00016176,-0
 .00094285,0.00063790,0.00091202,-0.00100867,0.00068888,-0.00032640,0.0
 0003542,-0.00016744,0.01926584,0.01469052,-0.00069333,-0.00000443,0.00
 000478,-0.00000020,-0.00030544,0.00010345,0.00013287,0.01861348,0.0230
 4413,-0.05416871,-0.00027596,-0.00034415,0.00014432,-0.00024154,0.0004
 3396,0.00028829,0.00004668,-0.00001335,-0.00001142,0.00001221,-0.00001
 179,-0.00000064,-0.00000080,0.00000017,-0.00000531,0.00000525,0.000004
 78,-0.00000159,0.00009147,-0.00009924,-0.00009204,0.00015234,-0.000079
 05,-0.00003184,0.00020653,0.00033953,0.00002736,0.00021619,0.00022980,
 0.00020610,0.00003208,-0.00002172,0.00001081,-0.00017254,-0.00011065,-
 0.00020773,-0.00003369,-0.00105921,0.00077198,0.00000161,-0.00000182,-
 0.00000230,0.00000087,-0.00000141,-0.00000043,0.00008238,-0.00012040,0
 .00004079,-0.01841929,-0.01903294,0.00470690,-0.02436011,-0.02697485,0
 .05348491\\-0.00001515,0.00001436,-0.00000392,-0.00000497,-0.00002427,
 0.00000558,-0.00000217,-0.00001148,-0.00000543,-0.00003396,-0.00001732
 ,0.00000230,0.00019165,-0.00000269,0.00063223,-0.00003309,0.00001118,0
 .00002437,-0.00021659,0.00005614,-0.00084304,0.00000801,0.00000059,-0.
 00000104,-0.00001361,-0.00000820,0.00000966,-0.00012380,-0.00001175,-0
 .00045886,0.00002475,0.00001724,0.00003753,0.00020223,-0.00001307,0.00
 066942,0.00001153,-0.00001367,-0.00000242,0.00000271,-0.00000282,-0.00
 000420,0.00000113,0.00000049,-0.00000896,0.00000810,0.00000943,-0.0000
 0869,0.00000123,-0.00000429,0.00000345,0.00000198,0.00000020,-0.000003
 81,-0.00000679,0.00000297,-0.00000967,0.00000535,-0.00000372,-0.000009
 46,0.00000715,0.00000511,0.00000241,-0.00000179,-0.00000100,0.00000197
 ,0.00000433,0.00000135,-0.00000759,0.00000009,0.00000961,-0.00000461,-
 0.00000480,-0.00000096,-0.00000095,0.00000373,-0.00000118,-0.00001312,
 -0.00000392,-0.00000901,-0.00000147,-0.00000187,0.00000024,-0.00001335
 ,-0.00000260,-0.00001027,0.00001242,-0.00000143,0.00000405,0.00000615,
 -0.00000744,0.00000279,-0.00000688\\\@


 IN THE UNIVERSE THE DIFFICULT THINGS ARE DONE AS IF THEY WERE EASY.

                                                          -- LAO-TSU
 Job cpu time:       0 days 12 hours 26 minutes 19.1 seconds.
 Elapsed time:       0 days  1 hours  2 minutes 27.1 seconds.
 File lengths (MBytes):  RWF=    722 Int=      0 D2E=      0 Chk=     34 Scr=      1
 Normal termination of Gaussian 16 at Sun Mar 10 09:45:41 2019.
