 Entering Gaussian System, Link 0=g16
 Initial command:
 /sw/Projects/G16/g16/l1.exe "/nvme/pbs/tmpdir/pbs.74289[13].flm1/Gau-17328.inp" -scrdir="/nvme/pbs/tmpdir/pbs.74289[13].flm1/"
 Entering Link 1 = /sw/Projects/G16/g16/l1.exe PID=     17329.
  
 Copyright (c) 1988-2017, Gaussian, Inc.  All Rights Reserved.
  
 This is part of the Gaussian(R) 16 program.  It is based on
 the Gaussian(R) 09 system (copyright 2009, Gaussian, Inc.),
 the Gaussian(R) 03 system (copyright 2003, Gaussian, Inc.),
 the Gaussian(R) 98 system (copyright 1998, Gaussian, Inc.),
 the Gaussian(R) 94 system (copyright 1995, Gaussian, Inc.),
 the Gaussian 92(TM) system (copyright 1992, Gaussian, Inc.),
 the Gaussian 90(TM) system (copyright 1990, Gaussian, Inc.),
 the Gaussian 88(TM) system (copyright 1988, Gaussian, Inc.),
 the Gaussian 86(TM) system (copyright 1986, Carnegie Mellon
 University), and the Gaussian 82(TM) system (copyright 1983,
 Carnegie Mellon University). Gaussian is a federally registered
 trademark of Gaussian, Inc.
  
 This software contains proprietary and confidential information,
 including trade secrets, belonging to Gaussian, Inc.
  
 This software is provided under written license and may be
 used, copied, transmitted, or stored only in accord with that
 written license.
  
 The following legend is applicable only to US Government
 contracts under FAR:
  
                    RESTRICTED RIGHTS LEGEND
  
 Use, reproduction and disclosure by the US Government is
 subject to restrictions as set forth in subparagraphs (a)
 and (c) of the Commercial Computer Software - Restricted
 Rights clause in FAR 52.227-19.
  
 Gaussian, Inc.
 340 Quinnipiac St., Bldg. 40, Wallingford CT 06492
  
  
 ---------------------------------------------------------------
 Warning -- This program may not be used in any manner that
 competes with the business of Gaussian, Inc. or will provide
 assistance to any competitor of Gaussian, Inc.  The licensee
 of this program is prohibited from giving any competitor of
 Gaussian, Inc. access to this program.  By using this program,
 the user acknowledges that Gaussian, Inc. is engaged in the
 business of creating and licensing software in the field of
 computational chemistry and represents and warrants to the
 licensee that it is not a competitor of Gaussian, Inc. and that
 it will not use this program in any manner prohibited above.
 ---------------------------------------------------------------
  

 Cite this work as:
 Gaussian 16, Revision B.01,
 M. J. Frisch, G. W. Trucks, H. B. Schlegel, G. E. Scuseria, 
 M. A. Robb, J. R. Cheeseman, G. Scalmani, V. Barone, 
 G. A. Petersson, H. Nakatsuji, X. Li, M. Caricato, A. V. Marenich, 
 J. Bloino, B. G. Janesko, R. Gomperts, B. Mennucci, H. P. Hratchian, 
 J. V. Ortiz, A. F. Izmaylov, J. L. Sonnenberg, D. Williams-Young, 
 F. Ding, F. Lipparini, F. Egidi, J. Goings, B. Peng, A. Petrone, 
 T. Henderson, D. Ranasinghe, V. G. Zakrzewski, J. Gao, N. Rega, 
 G. Zheng, W. Liang, M. Hada, M. Ehara, K. Toyota, R. Fukuda, 
 J. Hasegawa, M. Ishida, T. Nakajima, Y. Honda, O. Kitao, H. Nakai, 
 T. Vreven, K. Throssell, J. A. Montgomery, Jr., J. E. Peralta, 
 F. Ogliaro, M. J. Bearpark, J. J. Heyd, E. N. Brothers, K. N. Kudin, 
 V. N. Staroverov, T. A. Keith, R. Kobayashi, J. Normand, 
 K. Raghavachari, A. P. Rendell, J. C. Burant, S. S. Iyengar, 
 J. Tomasi, M. Cossi, J. M. Millam, M. Klene, C. Adamo, R. Cammi, 
 J. W. Ochterski, R. L. Martin, K. Morokuma, O. Farkas, 
 J. B. Foresman, and D. J. Fox, Gaussian, Inc., Wallingford CT, 2016.
 
 ******************************************
 Gaussian 16:  ES64L-G16RevB.01 20-Dec-2017
                10-Mar-2019 
 ******************************************
 %mem=20gb
 %nproc=12
 Will use up to   12 processors via shared memory.
 %chk=4c1_b1_4e_4c1_PHI.inp_extract_13.chk
 ----------------------------------------------------------------------
 #M062X/6-311++G(2d,2p) opt=ModRedundant freq=noraman SCRF=(SMD,solvent
 =water)
 ----------------------------------------------------------------------
 1/18=120,19=15,26=3,38=1/1,3;
 2/9=110,12=2,17=6,18=5,40=1/2;
 3/5=4,6=6,7=1212,11=2,25=1,30=1,70=32201,71=1,72=1,74=-55/1,2,3;
 4//1;
 5/5=2,38=5,53=1/2;
 6/7=2,8=2,9=2,10=2,28=1/1;
 7//1,2,3,16;
 1/18=20,19=15,26=3/3(2);
 2/9=110/2;
 99//99;
 2/9=110/2;
 3/5=4,6=6,7=1212,11=2,25=1,30=1,70=32205,71=1,72=1,74=-55/1,2,3;
 4/5=5,16=3,69=1/1;
 5/5=2,38=5,53=1/2;
 7//1,2,3,16;
 1/18=20,19=15,26=3/3(-5);
 2/9=110/2;
 6/7=2,8=2,9=2,10=2,19=2,28=1/1;
 99/9=1/99;
 --------------------------------
 4c1_b1_4e_4c1_PHI.inp_extract_13
 --------------------------------
 Symbolic Z-matrix:
 Charge =  0 Multiplicity = 1
 C                    -3.06066   1.3933   -0.29108 
 C                     1.98564  -1.31308  -0.11649 
 C                     3.17468   1.29461  -0.07469 
 O                     3.14079  -0.99279  -0.85989 
 O                    -1.99683  -1.2089    0.1518 
 C                    -3.40599  -1.04735   0.12441 
 O                     0.00733  -0.49842   0.86327 
 C                    -3.80227   0.13551  -0.74434 
 C                     1.877     1.04637   0.69884 
 C                    -1.31115  -0.08774   0.66399 
 C                     3.94756  -0.00265  -0.24704 
 C                     1.09338  -0.08828   0.0491 
 C                    -1.55272   1.12542  -0.22093 
 H                    -3.25438   2.21702  -0.97036 
 H                    -3.42288   1.69668   0.68889 
 H                     2.27082  -1.69895   0.85948 
 H                     1.46617  -2.091    -0.65869 
 H                     2.95049   1.70782  -1.05501 
 H                     3.7949    2.01681   0.44773 
 H                    -3.76492  -0.91147   1.14205 
 H                    -3.80701  -1.97635  -0.25578 
 H                    -3.55634  -0.08453  -1.78035 
 H                    -4.87771   0.27697  -0.6866 
 H                     2.10932   0.76015   1.72234 
 H                     1.27679   1.94861   0.74097 
 H                    -1.70445   0.11198   1.6551 
 H                     4.80643   0.13001  -0.89053 
 H                     4.29328  -0.37369   0.71524 
 H                     0.74569   0.20869  -0.92994 
 H                    -1.17843   0.94071  -1.22125 
 H                    -1.03103   1.98476   0.18456 
 
 The following ModRedundant input section has been read:
 D      12       7      10       5 F                                           
 

 GradGradGradGradGradGradGradGradGradGradGradGradGradGradGradGradGradGrad
 Berny optimization.
 Initialization pass.
                           ----------------------------
                           !    Initial Parameters    !
                           ! (Angstroms and Degrees)  !
 --------------------------                            --------------------------
 ! Name  Definition              Value          Derivative Info.                !
 --------------------------------------------------------------------------------
 ! R1    R(1,8)                  1.5289         estimate D2E/DX2                !
 ! R2    R(1,13)                 1.5332         estimate D2E/DX2                !
 ! R3    R(1,14)                 1.0851         estimate D2E/DX2                !
 ! R4    R(1,15)                 1.0879         estimate D2E/DX2                !
 ! R5    R(2,4)                  1.4105         estimate D2E/DX2                !
 ! R6    R(2,12)                 1.5244         estimate D2E/DX2                !
 ! R7    R(2,16)                 1.0875         estimate D2E/DX2                !
 ! R8    R(2,17)                 1.0812         estimate D2E/DX2                !
 ! R9    R(3,9)                  1.531          estimate D2E/DX2                !
 ! R10   R(3,11)                 1.5199         estimate D2E/DX2                !
 ! R11   R(3,18)                 1.0872         estimate D2E/DX2                !
 ! R12   R(3,19)                 1.0859         estimate D2E/DX2                !
 ! R13   R(4,11)                 1.4166         estimate D2E/DX2                !
 ! R14   R(5,6)                  1.4187         estimate D2E/DX2                !
 ! R15   R(5,10)                 1.4105         estimate D2E/DX2                !
 ! R16   R(6,8)                  1.5202         estimate D2E/DX2                !
 ! R17   R(6,20)                 1.0876         estimate D2E/DX2                !
 ! R18   R(6,21)                 1.0809         estimate D2E/DX2                !
 ! R19   R(7,10)                 1.3953         estimate D2E/DX2                !
 ! R20   R(7,12)                 1.418          estimate D2E/DX2                !
 ! R21   R(8,22)                 1.0873         estimate D2E/DX2                !
 ! R22   R(8,23)                 1.0862         estimate D2E/DX2                !
 ! R23   R(9,12)                 1.5244         estimate D2E/DX2                !
 ! R24   R(9,24)                 1.0879         estimate D2E/DX2                !
 ! R25   R(9,25)                 1.0845         estimate D2E/DX2                !
 ! R26   R(10,13)                1.5209         estimate D2E/DX2                !
 ! R27   R(10,26)                1.0848         estimate D2E/DX2                !
 ! R28   R(11,27)                1.0814         estimate D2E/DX2                !
 ! R29   R(11,28)                1.0877         estimate D2E/DX2                !
 ! R30   R(12,29)                1.0806         estimate D2E/DX2                !
 ! R31   R(13,30)                1.0839         estimate D2E/DX2                !
 ! R32   R(13,31)                1.084          estimate D2E/DX2                !
 ! A1    A(8,1,13)             110.2986         estimate D2E/DX2                !
 ! A2    A(8,1,14)             110.6296         estimate D2E/DX2                !
 ! A3    A(8,1,15)             109.5704         estimate D2E/DX2                !
 ! A4    A(13,1,14)            109.6856         estimate D2E/DX2                !
 ! A5    A(13,1,15)            109.5714         estimate D2E/DX2                !
 ! A6    A(14,1,15)            107.0232         estimate D2E/DX2                !
 ! A7    A(4,2,12)             110.7421         estimate D2E/DX2                !
 ! A8    A(4,2,16)             109.8027         estimate D2E/DX2                !
 ! A9    A(4,2,17)             107.0101         estimate D2E/DX2                !
 ! A10   A(12,2,16)            109.9437         estimate D2E/DX2                !
 ! A11   A(12,2,17)            110.5704         estimate D2E/DX2                !
 ! A12   A(16,2,17)            108.7071         estimate D2E/DX2                !
 ! A13   A(9,3,11)             110.4827         estimate D2E/DX2                !
 ! A14   A(9,3,18)             110.0242         estimate D2E/DX2                !
 ! A15   A(9,3,19)             110.4194         estimate D2E/DX2                !
 ! A16   A(11,3,18)            109.0875         estimate D2E/DX2                !
 ! A17   A(11,3,19)            109.3764         estimate D2E/DX2                !
 ! A18   A(18,3,19)            107.3858         estimate D2E/DX2                !
 ! A19   A(2,4,11)             113.3963         estimate D2E/DX2                !
 ! A20   A(6,5,10)             113.5389         estimate D2E/DX2                !
 ! A21   A(5,6,8)              111.013          estimate D2E/DX2                !
 ! A22   A(5,6,20)             108.9037         estimate D2E/DX2                !
 ! A23   A(5,6,21)             106.1075         estimate D2E/DX2                !
 ! A24   A(8,6,20)             110.5776         estimate D2E/DX2                !
 ! A25   A(8,6,21)             111.7788         estimate D2E/DX2                !
 ! A26   A(20,6,21)            108.3021         estimate D2E/DX2                !
 ! A27   A(10,7,12)            123.823          estimate D2E/DX2                !
 ! A28   A(1,8,6)              110.1368         estimate D2E/DX2                !
 ! A29   A(1,8,22)             109.8318         estimate D2E/DX2                !
 ! A30   A(1,8,23)             110.9373         estimate D2E/DX2                !
 ! A31   A(6,8,22)             109.1536         estimate D2E/DX2                !
 ! A32   A(6,8,23)             109.2108         estimate D2E/DX2                !
 ! A33   A(22,8,23)            107.5139         estimate D2E/DX2                !
 ! A34   A(3,9,12)             109.9419         estimate D2E/DX2                !
 ! A35   A(3,9,24)             109.6945         estimate D2E/DX2                !
 ! A36   A(3,9,25)             110.723          estimate D2E/DX2                !
 ! A37   A(12,9,24)            108.3585         estimate D2E/DX2                !
 ! A38   A(12,9,25)            110.5673         estimate D2E/DX2                !
 ! A39   A(24,9,25)            107.49           estimate D2E/DX2                !
 ! A40   A(5,10,7)             106.0978         estimate D2E/DX2                !
 ! A41   A(5,10,13)            110.2147         estimate D2E/DX2                !
 ! A42   A(5,10,26)            107.5686         estimate D2E/DX2                !
 ! A43   A(7,10,13)            117.9026         estimate D2E/DX2                !
 ! A44   A(7,10,26)            105.4436         estimate D2E/DX2                !
 ! A45   A(13,10,26)           109.0949         estimate D2E/DX2                !
 ! A46   A(3,11,4)             110.8566         estimate D2E/DX2                !
 ! A47   A(3,11,27)            111.5098         estimate D2E/DX2                !
 ! A48   A(3,11,28)            110.6379         estimate D2E/DX2                !
 ! A49   A(4,11,27)            106.2979         estimate D2E/DX2                !
 ! A50   A(4,11,28)            108.9842         estimate D2E/DX2                !
 ! A51   A(27,11,28)           108.4124         estimate D2E/DX2                !
 ! A52   A(2,12,7)             106.158          estimate D2E/DX2                !
 ! A53   A(2,12,9)             110.0886         estimate D2E/DX2                !
 ! A54   A(2,12,29)            108.1039         estimate D2E/DX2                !
 ! A55   A(7,12,9)             111.3647         estimate D2E/DX2                !
 ! A56   A(7,12,29)            110.6887         estimate D2E/DX2                !
 ! A57   A(9,12,29)            110.3059         estimate D2E/DX2                !
 ! A58   A(1,13,10)            108.7962         estimate D2E/DX2                !
 ! A59   A(1,13,30)            109.0978         estimate D2E/DX2                !
 ! A60   A(1,13,31)            110.6067         estimate D2E/DX2                !
 ! A61   A(10,13,30)           110.2545         estimate D2E/DX2                !
 ! A62   A(10,13,31)           109.7707         estimate D2E/DX2                !
 ! A63   A(30,13,31)           108.3084         estimate D2E/DX2                !
 ! D1    D(13,1,8,6)            52.3466         estimate D2E/DX2                !
 ! D2    D(13,1,8,22)          -67.901          estimate D2E/DX2                !
 ! D3    D(13,1,8,23)          173.38           estimate D2E/DX2                !
 ! D4    D(14,1,8,6)           173.8817         estimate D2E/DX2                !
 ! D5    D(14,1,8,22)           53.6342         estimate D2E/DX2                !
 ! D6    D(14,1,8,23)          -65.0849         estimate D2E/DX2                !
 ! D7    D(15,1,8,6)           -68.3542         estimate D2E/DX2                !
 ! D8    D(15,1,8,22)          171.3982         estimate D2E/DX2                !
 ! D9    D(15,1,8,23)           52.6792         estimate D2E/DX2                !
 ! D10   D(8,1,13,10)          -54.2729         estimate D2E/DX2                !
 ! D11   D(8,1,13,30)           66.0477         estimate D2E/DX2                !
 ! D12   D(8,1,13,31)         -174.9176         estimate D2E/DX2                !
 ! D13   D(14,1,13,10)        -176.3666         estimate D2E/DX2                !
 ! D14   D(14,1,13,30)         -56.0461         estimate D2E/DX2                !
 ! D15   D(14,1,13,31)          62.9887         estimate D2E/DX2                !
 ! D16   D(15,1,13,10)          66.4274         estimate D2E/DX2                !
 ! D17   D(15,1,13,30)        -173.2521         estimate D2E/DX2                !
 ! D18   D(15,1,13,31)         -54.2173         estimate D2E/DX2                !
 ! D19   D(12,2,4,11)           61.0183         estimate D2E/DX2                !
 ! D20   D(16,2,4,11)          -60.5844         estimate D2E/DX2                !
 ! D21   D(17,2,4,11)         -178.4008         estimate D2E/DX2                !
 ! D22   D(4,2,12,7)          -176.9752         estimate D2E/DX2                !
 ! D23   D(4,2,12,9)           -56.3236         estimate D2E/DX2                !
 ! D24   D(4,2,12,29)           64.2285         estimate D2E/DX2                !
 ! D25   D(16,2,12,7)          -55.4554         estimate D2E/DX2                !
 ! D26   D(16,2,12,9)           65.1962         estimate D2E/DX2                !
 ! D27   D(16,2,12,29)        -174.2517         estimate D2E/DX2                !
 ! D28   D(17,2,12,7)           64.5845         estimate D2E/DX2                !
 ! D29   D(17,2,12,9)         -174.7639         estimate D2E/DX2                !
 ! D30   D(17,2,12,29)         -54.2118         estimate D2E/DX2                !
 ! D31   D(11,3,9,12)          -52.0458         estimate D2E/DX2                !
 ! D32   D(11,3,9,24)           67.015          estimate D2E/DX2                !
 ! D33   D(11,3,9,25)         -174.514          estimate D2E/DX2                !
 ! D34   D(18,3,9,12)           68.4634         estimate D2E/DX2                !
 ! D35   D(18,3,9,24)         -172.4757         estimate D2E/DX2                !
 ! D36   D(18,3,9,25)          -54.0048         estimate D2E/DX2                !
 ! D37   D(19,3,9,12)         -173.1752         estimate D2E/DX2                !
 ! D38   D(19,3,9,24)          -54.1144         estimate D2E/DX2                !
 ! D39   D(19,3,9,25)           64.3566         estimate D2E/DX2                !
 ! D40   D(9,3,11,4)            55.0048         estimate D2E/DX2                !
 ! D41   D(9,3,11,27)          173.2303         estimate D2E/DX2                !
 ! D42   D(9,3,11,28)          -66.0251         estimate D2E/DX2                !
 ! D43   D(18,3,11,4)          -66.0629         estimate D2E/DX2                !
 ! D44   D(18,3,11,27)          52.1627         estimate D2E/DX2                !
 ! D45   D(18,3,11,28)         172.9073         estimate D2E/DX2                !
 ! D46   D(19,3,11,4)          176.7517         estimate D2E/DX2                !
 ! D47   D(19,3,11,27)         -65.0227         estimate D2E/DX2                !
 ! D48   D(19,3,11,28)          55.7219         estimate D2E/DX2                !
 ! D49   D(2,4,11,3)           -60.3878         estimate D2E/DX2                !
 ! D50   D(2,4,11,27)          178.267          estimate D2E/DX2                !
 ! D51   D(2,4,11,28)           61.6136         estimate D2E/DX2                !
 ! D52   D(10,5,6,8)            60.0353         estimate D2E/DX2                !
 ! D53   D(10,5,6,20)          -61.9379         estimate D2E/DX2                !
 ! D54   D(10,5,6,21)         -178.3219         estimate D2E/DX2                !
 ! D55   D(6,5,10,7)           168.8389         estimate D2E/DX2                !
 ! D56   D(6,5,10,13)          -62.4565         estimate D2E/DX2                !
 ! D57   D(6,5,10,26)           56.3757         estimate D2E/DX2                !
 ! D58   D(5,6,8,1)            -53.826          estimate D2E/DX2                !
 ! D59   D(5,6,8,22)            66.8299         estimate D2E/DX2                !
 ! D60   D(5,6,8,23)          -175.8872         estimate D2E/DX2                !
 ! D61   D(20,6,8,1)            67.1662         estimate D2E/DX2                !
 ! D62   D(20,6,8,22)         -172.1779         estimate D2E/DX2                !
 ! D63   D(20,6,8,23)          -54.8949         estimate D2E/DX2                !
 ! D64   D(21,6,8,1)          -172.0892         estimate D2E/DX2                !
 ! D65   D(21,6,8,22)          -51.4333         estimate D2E/DX2                !
 ! D66   D(21,6,8,23)           65.8497         estimate D2E/DX2                !
 ! D67   D(12,7,10,5)          107.4543         Frozen                          !
 ! D68   D(12,7,10,13)         -16.5856         estimate D2E/DX2                !
 ! D69   D(12,7,10,26)        -138.613          estimate D2E/DX2                !
 ! D70   D(10,7,12,2)         -140.8952         estimate D2E/DX2                !
 ! D71   D(10,7,12,9)           99.2817         estimate D2E/DX2                !
 ! D72   D(10,7,12,29)         -23.815          estimate D2E/DX2                !
 ! D73   D(3,9,12,2)            52.4644         estimate D2E/DX2                !
 ! D74   D(3,9,12,7)           169.9318         estimate D2E/DX2                !
 ! D75   D(3,9,12,29)          -66.7529         estimate D2E/DX2                !
 ! D76   D(24,9,12,2)          -67.4119         estimate D2E/DX2                !
 ! D77   D(24,9,12,7)           50.0555         estimate D2E/DX2                !
 ! D78   D(24,9,12,29)         173.3709         estimate D2E/DX2                !
 ! D79   D(25,9,12,2)          175.0246         estimate D2E/DX2                !
 ! D80   D(25,9,12,7)          -67.508          estimate D2E/DX2                !
 ! D81   D(25,9,12,29)          55.8074         estimate D2E/DX2                !
 ! D82   D(5,10,13,1)           58.2702         estimate D2E/DX2                !
 ! D83   D(5,10,13,30)         -61.3328         estimate D2E/DX2                !
 ! D84   D(5,10,13,31)         179.4285         estimate D2E/DX2                !
 ! D85   D(7,10,13,1)         -179.7695         estimate D2E/DX2                !
 ! D86   D(7,10,13,30)          60.6275         estimate D2E/DX2                !
 ! D87   D(7,10,13,31)         -58.6112         estimate D2E/DX2                !
 ! D88   D(26,10,13,1)         -59.6253         estimate D2E/DX2                !
 ! D89   D(26,10,13,30)       -179.2283         estimate D2E/DX2                !
 ! D90   D(26,10,13,31)         61.533          estimate D2E/DX2                !
 --------------------------------------------------------------------------------
 Trust Radius=3.00D-01 FncErr=1.00D-07 GrdErr=1.00D-06 EigMax=2.50D+02 EigMin=1.00D-04
 Number of steps in this run=    186 maximum allowed number of steps=    186.
 GradGradGradGradGradGradGradGradGradGradGradGradGradGradGradGradGradGrad

                          Input orientation:                          
 ---------------------------------------------------------------------
 Center     Atomic      Atomic             Coordinates (Angstroms)
 Number     Number       Type             X           Y           Z
 ---------------------------------------------------------------------
      1          6           0       -3.060661    1.393296   -0.291076
      2          6           0        1.985637   -1.313077   -0.116486
      3          6           0        3.174678    1.294613   -0.074686
      4          8           0        3.140792   -0.992791   -0.859893
      5          8           0       -1.996829   -1.208895    0.151803
      6          6           0       -3.405985   -1.047348    0.124411
      7          8           0        0.007333   -0.498423    0.863271
      8          6           0       -3.802268    0.135507   -0.744342
      9          6           0        1.877004    1.046370    0.698839
     10          6           0       -1.311150   -0.087740    0.663988
     11          6           0        3.947562   -0.002652   -0.247035
     12          6           0        1.093381   -0.088280    0.049103
     13          6           0       -1.552715    1.125421   -0.220930
     14          1           0       -3.254377    2.217018   -0.970361
     15          1           0       -3.422880    1.696675    0.688887
     16          1           0        2.270821   -1.698954    0.859477
     17          1           0        1.466169   -2.091004   -0.658690
     18          1           0        2.950489    1.707822   -1.055010
     19          1           0        3.794901    2.016809    0.447732
     20          1           0       -3.764924   -0.911472    1.142047
     21          1           0       -3.807010   -1.976351   -0.255777
     22          1           0       -3.556344   -0.084527   -1.780346
     23          1           0       -4.877711    0.276967   -0.686599
     24          1           0        2.109321    0.760152    1.722339
     25          1           0        1.276786    1.948606    0.740965
     26          1           0       -1.704450    0.111979    1.655104
     27          1           0        4.806431    0.130014   -0.890528
     28          1           0        4.293276   -0.373688    0.715237
     29          1           0        0.745694    0.208694   -0.929941
     30          1           0       -1.178430    0.940712   -1.221253
     31          1           0       -1.031029    1.984762    0.184559
 ---------------------------------------------------------------------
                    Distance matrix (angstroms):
                    1          2          3          4          5
     1  C    0.000000
     2  C    5.728879   0.000000
     3  C    6.239873   2.866289   0.000000
     4  O    6.668957   1.410539   2.418660   0.000000
     5  O    2.845923   3.992852   5.750073   5.240742   0.000000
     6  C    2.499724   5.403539   6.987814   6.620583   1.418650
     7  O    3.784667   2.353141   3.758566   3.610022   2.242236
     8  C    1.528877   5.999370   7.104206   7.035090   2.422829
     9  C    5.047854   2.498709   1.530988   2.860941   4.515756
    10  C    2.483224   3.602693   4.751757   4.791776   1.410488
    11  C    7.146034   2.362923   1.519852   1.416633   6.078641
    12  C    4.423444   1.524358   2.501902   2.415845   3.288727
    13  C    1.533160   4.298502   4.732680   5.188844   2.405244
    14  H    1.085114   6.375611   6.556357   7.156344   3.818057
    15  H    1.087920   6.241738   6.653756   7.260423   3.280917
    16  H    6.269807   1.087536   3.263596   2.052255   4.353596
    17  H    5.724306   1.081204   3.836987   2.012689   3.664338
    18  H    6.067656   3.307204   1.087215   2.714332   5.868525
    19  H    6.923391   3.831438   1.085893   3.345958   6.636029
    20  H    2.803887   5.900351   7.382772   7.190500   2.048220
    21  H    3.451493   5.832160   7.712066   7.043032   2.007951
    22  H    2.155826   5.915346   7.079404   6.820836   2.725709
    23  H    2.168940   7.068155   8.139472   8.120265   3.348161
    24  H    5.584212   2.773960   2.156370   3.287045   4.817074
    25  H    4.492986   3.446196   2.166792   3.832634   4.586227
    26  H    2.696052   4.334289   5.310055   5.569748   2.022401
    27  H    7.990392   3.261676   2.164372   2.008976   7.011667
    28  H    7.629894   2.626673   2.158348   2.047570   6.370279
    29  H    4.037297   2.124842   2.794753   2.680479   3.271263
    30  H    2.147756   4.038737   4.515464   4.746019   2.678781
    31  H    2.166903   4.479581   4.269834   5.230754   3.336658
                    6          7          8          9         10
     6  C    0.000000
     7  O    3.535247   0.000000
     8  C    1.520170   4.183222   0.000000
     9  C    5.711707   2.430863   5.930141   0.000000
    10  C    2.366500   1.395268   2.870349   3.384043   0.000000
    11  C    7.436667   4.123587   7.766999   2.506459   5.337720
    12  C    4.601063   1.417952   4.964576   1.524353   2.481905
    13  C    2.876594   2.499222   2.512843   3.551788   1.520919
    14  H    3.446389   4.623265   2.164245   5.521568   3.429160
    15  H    2.801532   4.076178   2.152981   5.339641   2.764807
    16  H    5.761166   2.562161   6.543691   2.778075   3.932524
    17  H    5.043843   2.642136   5.720237   3.443078   3.670973
    18  H    7.027571   4.148432   6.940347   2.160064   4.933616
    19  H    7.832391   4.565604   7.916901   2.164055   5.526993
    20  H    1.087604   3.805029   2.157782   5.988400   2.632125
    21  H    1.080930   4.240961   2.167640   6.508160   3.262229
    22  H    2.139563   4.456435   1.087289   6.078368   3.318987
    23  H    2.139515   5.183337   1.086243   6.938126   3.831117
    24  H    6.019886   2.596221   6.435960   1.087862   3.679490
    25  H    5.593230   2.759424   5.593769   1.084466   3.293940
    26  H    2.565596   1.982370   3.187277   3.822871   1.084843
    27  H    8.358233   5.148018   8.609942   3.456492   6.315753
    28  H    7.751227   4.290312   8.241813   2.802714   5.611950
    29  H    4.463826   2.064171   4.552336   2.152786   2.618986
    30  H    3.274934   2.796852   2.785736   3.610207   2.151618
    31  H    3.851977   2.775798   3.458665   3.098664   2.145597
                   11         12         13         14         15
    11  C    0.000000
    12  C    2.870780   0.000000
    13  C    5.614827   2.923664   0.000000
    14  H    7.570869   5.025605   2.156127   0.000000
    15  H    7.621488   4.898163   2.156760   1.747070   0.000000
    16  H    2.629310   2.153449   4.874813   7.015052   6.631563
    17  H    3.269248   2.156582   4.432909   6.398418   6.329714
    18  H    2.138387   2.809608   4.616679   6.226300   6.607657
    19  H    2.141081   3.447973   5.462479   7.193288   7.228901
    20  H    7.889103   5.047306   3.301592   3.809249   2.669228
    21  H    8.001809   5.260380   3.834586   4.289566   3.811964
    22  H    7.659396   4.996683   2.812522   2.458530   3.047557
    23  H    8.840636   6.027321   3.462993   2.545492   2.454397
    24  H    2.799899   2.133469   4.161757   6.175949   5.705291
    25  H    3.452042   2.158985   3.099831   4.850992   4.706702
    26  H    5.964605   3.232213   2.137660   3.704933   2.529395
    27  H    1.081360   3.836313   6.471316   8.326979   8.524702
    28  H    1.087728   3.280933   6.107319   8.155983   7.989128
    29  H    3.280699   1.080559   2.574057   4.476111   4.712929
    30  H    5.302342   2.798884   1.083906   2.449788   3.042642
    31  H    5.377960   2.971358   1.083995   2.516160   2.461360
                   16         17         18         19         20
    16  H    0.000000
    17  H    1.762384   0.000000
    18  H    3.966526   4.097726   0.000000
    19  H    4.037233   4.849875   1.751210   0.000000
    20  H    6.093455   5.656703   7.535551   8.136821   0.000000
    21  H    6.185529   5.289792   7.737939   8.615643   1.757740
    22  H    6.597794   5.523559   6.788041   7.963714   3.044294
    23  H    7.576023   6.771475   7.966416   8.917845   2.448393
    24  H    2.611095   3.769885   3.052754   2.458656   6.134967
    25  H    3.782439   4.279410   2.466736   2.536048   5.810314
    26  H    4.440189   4.501067   5.617819   5.943819   2.357166
    27  H    3.582870   4.017962   2.441527   2.524704   8.870410
    28  H    2.422284   3.581813   3.044591   2.456504   8.087395
    29  H    3.027730   2.425133   2.669110   3.803278   5.088574
    30  H    4.816078   4.062226   4.202864   5.355139   3.963045
    31  H    4.992744   4.853755   4.179200   4.833207   4.096234
                   21         22         23         24         25
    21  H    0.000000
    22  H    2.442569   0.000000
    23  H    2.531689   1.752989   0.000000
    24  H    6.812075   6.714316   7.406421   0.000000
    25  H    6.499520   5.818057   6.535300   1.751751   0.000000
    26  H    3.526095   3.907741   3.947199   3.869044   3.618925
    27  H    8.889941   8.412717   9.687404   3.807696   4.292719
    28  H    8.314207   8.241849   9.300296   2.658854   3.806957
    29  H    5.094706   4.395077   5.629082   3.032849   2.470077
    30  H    4.043616   2.649184   3.796194   4.416632   3.300642
    31  H    4.856993   3.810515   4.297958   3.704893   2.374217
                   26         27         28         29         30
    26  H    0.000000
    27  H    6.990861   0.000000
    28  H    6.090315   1.759410   0.000000
    29  H    3.563007   4.061690   3.953621   0.000000
    30  H    3.039231   6.048568   5.951236   2.079174   0.000000
    31  H    2.474533   6.218669   5.847404   2.748322   1.757292
                   31
    31  H    0.000000
 Stoichiometry    C10H18O3
 Framework group  C1[X(C10H18O3)]
 Deg. of freedom    87
 Full point group                 C1      NOp   1
 Largest Abelian subgroup         C1      NOp   1
 Largest concise Abelian subgroup C1      NOp   1
                         Standard orientation:                         
 ---------------------------------------------------------------------
 Center     Atomic      Atomic             Coordinates (Angstroms)
 Number     Number       Type             X           Y           Z
 ---------------------------------------------------------------------
      1          6           0       -3.060661    1.393296   -0.291076
      2          6           0        1.985637   -1.313077   -0.116486
      3          6           0        3.174678    1.294613   -0.074686
      4          8           0        3.140792   -0.992791   -0.859893
      5          8           0       -1.996829   -1.208895    0.151803
      6          6           0       -3.405985   -1.047348    0.124411
      7          8           0        0.007333   -0.498423    0.863271
      8          6           0       -3.802268    0.135507   -0.744342
      9          6           0        1.877004    1.046370    0.698839
     10          6           0       -1.311150   -0.087740    0.663988
     11          6           0        3.947562   -0.002652   -0.247035
     12          6           0        1.093381   -0.088280    0.049103
     13          6           0       -1.552715    1.125421   -0.220930
     14          1           0       -3.254377    2.217018   -0.970361
     15          1           0       -3.422880    1.696675    0.688887
     16          1           0        2.270821   -1.698954    0.859477
     17          1           0        1.466169   -2.091004   -0.658690
     18          1           0        2.950489    1.707822   -1.055010
     19          1           0        3.794901    2.016809    0.447732
     20          1           0       -3.764924   -0.911472    1.142047
     21          1           0       -3.807010   -1.976351   -0.255777
     22          1           0       -3.556344   -0.084527   -1.780346
     23          1           0       -4.877711    0.276967   -0.686599
     24          1           0        2.109321    0.760152    1.722339
     25          1           0        1.276786    1.948606    0.740965
     26          1           0       -1.704450    0.111979    1.655104
     27          1           0        4.806431    0.130014   -0.890528
     28          1           0        4.293276   -0.373688    0.715237
     29          1           0        0.745694    0.208694   -0.929941
     30          1           0       -1.178430    0.940712   -1.221253
     31          1           0       -1.031029    1.984762    0.184559
 ---------------------------------------------------------------------
 Rotational constants (GHZ):           2.0290412           0.3758972           0.3446772
 Standard basis: 6-311++G(2d,2p) (5D, 7F)
 There are   557 symmetry adapted cartesian basis functions of A   symmetry.
 There are   531 symmetry adapted basis functions of A   symmetry.
   531 basis functions,   762 primitive gaussians,   557 cartesian basis functions
    51 alpha electrons       51 beta electrons
       nuclear repulsion energy       880.6378264730 Hartrees.
 NAtoms=   31 NActive=   31 NUniq=   31 SFac= 1.00D+00 NAtFMM=   60 NAOKFM=F Big=F
 Integral buffers will be    131072 words long.
 Raffenetti 2 integral format.
 Two-electron integral symmetry is turned on.
 ------------------------------------------------------------------------------
 Polarizable Continuum Model (PCM)
 =================================
 Model                : PCM.
 Atomic radii         : SMD-Coulomb.
 Polarization charges : Total charges.
 Charge compensation  : None.
 Solution method      : On-the-fly selection.
 Cavity type          : VdW (van der Waals Surface) (Alpha=1.000).
 Cavity algorithm     : GePol (No added spheres)
                        Default sphere list used, NSphG=   31.
                        Lebedev-Laikov grids with approx.  5.0 points / Ang**2.
                        Smoothing algorithm: York/Karplus (Gamma=1.0000).
                        Polarization charges: spherical gaussians, with
                                              point-specific exponents (IZeta= 3).
                        Self-potential: point-specific (ISelfS= 7).
                        Self-field    : sphere-specific E.n sum rule (ISelfD= 2).
 1st derivatives      : Analytical E(r).r(x)/FMM algorithm (CHGder, D1EAlg=3).
                        Cavity 1st derivative terms included.
 Solvent              : Water, Eps=  78.355300 Eps(inf)=   1.777849
 ------------------------------------------------------------------------------
 ------------------------------------------------------------------------------
 Atomic radii for non-electrostatic terms: SMD-CDS.
 ------------------------------------------------------------------------------
 Nuclear repulsion after PCM non-electrostatic terms =      880.6442180169 Hartrees.
 One-electron integrals computed using PRISM.
 NBasis=   531 RedAO= T EigKep=  5.23D-06  NBF=   531
 NBsUse=   531 1.00D-06 EigRej= -1.00D+00 NBFU=   531
 ExpMin= 3.60D-02 ExpMax= 8.59D+03 ExpMxC= 1.30D+03 IAcc=3 IRadAn=         5 AccDes= 0.00D+00
 Harris functional with IExCor= 1009 and IRadAn=       5 diagonalized for initial guess.
 HarFok:  IExCor= 1009 AccDes= 0.00D+00 IRadAn=         5 IDoV= 1 UseB2=F ITyADJ=14
 ICtDFT=  3500011 ScaDFX=  1.000000  1.000000  1.000000  1.000000
 FoFCou: FMM=F IPFlag=           0 FMFlag=      100000 FMFlg1=           0
         NFxFlg=           0 DoJE=T BraDBF=F KetDBF=T FulRan=T
         wScrn=  0.000000 ICntrl=       500 IOpCl=  0 I1Cent=   200000004 NGrid=           0
         NMat0=    1 NMatS0=      1 NMatT0=    0 NMatD0=    1 NMtDS0=    0 NMtDT0=    0
 Petite list used in FoFCou.
 Requested convergence on RMS density matrix=1.00D-08 within 128 cycles.
 Requested convergence on MAX density matrix=1.00D-06.
 Requested convergence on             energy=1.00D-06.
 No special actions if energy rises.
 Inv3:  Mode=1 IEnd=    12156507.
 Iteration    1 A*A^-1 deviation from unit magnitude is 7.99D-15 for    154.
 Iteration    1 A*A^-1 deviation from orthogonality  is 5.76D-15 for   1586    567.
 Iteration    1 A^-1*A deviation from unit magnitude is 7.77D-15 for    356.
 Iteration    1 A^-1*A deviation from orthogonality  is 1.03D-13 for   1550   1537.
 Error on total polarization charges =  0.06316
 SCF Done:  E(RM062X) =  -617.498742111     A.U. after   12 cycles
            NFock= 12  Conv=0.68D-08     -V/T= 2.0035
 SMD-CDS (non-electrostatic) energy       (kcal/mol) =       4.01
 (included in total energy above)

 **********************************************************************

            Population analysis using the SCF Density.

 **********************************************************************

 Orbital symmetries:
       Occupied  (A) (A) (A) (A) (A) (A) (A) (A) (A) (A) (A) (A)
                 (A) (A) (A) (A) (A) (A) (A) (A) (A) (A) (A) (A)
                 (A) (A) (A) (A) (A) (A) (A) (A) (A) (A) (A) (A)
                 (A) (A) (A) (A) (A) (A) (A) (A) (A) (A) (A) (A)
                 (A) (A) (A)
       Virtual   (A) (A) (A) (A) (A) (A) (A) (A) (A) (A) (A) (A)
                 (A) (A) (A) (A) (A) (A) (A) (A) (A) (A) (A) (A)
                 (A) (A) (A) (A) (A) (A) (A) (A) (A) (A) (A) (A)
                 (A) (A) (A) (A) (A) (A) (A) (A) (A) (A) (A) (A)
                 (A) (A) (A) (A) (A) (A) (A) (A) (A) (A) (A) (A)
                 (A) (A) (A) (A) (A) (A) (A) (A) (A) (A) (A) (A)
                 (A) (A) (A) (A) (A) (A) (A) (A) (A) (A) (A) (A)
                 (A) (A) (A) (A) (A) (A) (A) (A) (A) (A) (A) (A)
                 (A) (A) (A) (A) (A) (A) (A) (A) (A) (A) (A) (A)
                 (A) (A) (A) (A) (A) (A) (A) (A) (A) (A) (A) (A)
                 (A) (A) (A) (A) (A) (A) (A) (A) (A) (A) (A) (A)
                 (A) (A) (A) (A) (A) (A) (A) (A) (A) (A) (A) (A)
                 (A) (A) (A) (A) (A) (A) (A) (A) (A) (A) (A) (A)
                 (A) (A) (A) (A) (A) (A) (A) (A) (A) (A) (A) (A)
                 (A) (A) (A) (A) (A) (A) (A) (A) (A) (A) (A) (A)
                 (A) (A) (A) (A) (A) (A) (A) (A) (A) (A) (A) (A)
                 (A) (A) (A) (A) (A) (A) (A) (A) (A) (A) (A) (A)
                 (A) (A) (A) (A) (A) (A) (A) (A) (A) (A) (A) (A)
                 (A) (A) (A) (A) (A) (A) (A) (A) (A) (A) (A) (A)
                 (A) (A) (A) (A) (A) (A) (A) (A) (A) (A) (A) (A)
                 (A) (A) (A) (A) (A) (A) (A) (A) (A) (A) (A) (A)
                 (A) (A) (A) (A) (A) (A) (A) (A) (A) (A) (A) (A)
                 (A) (A) (A) (A) (A) (A) (A) (A) (A) (A) (A) (A)
                 (A) (A) (A) (A) (A) (A) (A) (A) (A) (A) (A) (A)
                 (A) (A) (A) (A) (A) (A) (A) (A) (A) (A) (A) (A)
                 (A) (A) (A) (A) (A) (A) (A) (A) (A) (A) (A) (A)
                 (A) (A) (A) (A) (A) (A) (A) (A) (A) (A) (A) (A)
                 (A) (A) (A) (A) (A) (A) (A) (A) (A) (A) (A) (A)
                 (A) (A) (A) (A) (A) (A) (A) (A) (A) (A) (A) (A)
                 (A) (A) (A) (A) (A) (A) (A) (A) (A) (A) (A) (A)
                 (A) (A) (A) (A) (A) (A) (A) (A) (A) (A) (A) (A)
                 (A) (A) (A) (A) (A) (A) (A) (A) (A) (A) (A) (A)
                 (A) (A) (A) (A) (A) (A) (A) (A) (A) (A) (A) (A)
                 (A) (A) (A) (A) (A) (A) (A) (A) (A) (A) (A) (A)
                 (A) (A) (A) (A) (A) (A) (A) (A) (A) (A) (A) (A)
                 (A) (A) (A) (A) (A) (A) (A) (A) (A) (A) (A) (A)
                 (A) (A) (A) (A) (A) (A) (A) (A) (A) (A) (A) (A)
                 (A) (A) (A) (A) (A) (A) (A) (A) (A) (A) (A) (A)
                 (A) (A) (A) (A) (A) (A) (A) (A) (A) (A) (A) (A)
                 (A) (A) (A) (A) (A) (A) (A) (A) (A) (A) (A) (A)
 The electronic state is 1-A.
 Alpha  occ. eigenvalues --  -19.63319 -19.62906 -19.62733 -10.63399 -10.58311
 Alpha  occ. eigenvalues --  -10.57306 -10.57282 -10.57194 -10.52544 -10.52484
 Alpha  occ. eigenvalues --  -10.52379 -10.52280 -10.52130  -1.20118  -1.16718
 Alpha  occ. eigenvalues --   -1.13923  -0.90108  -0.89712  -0.87134  -0.84005
 Alpha  occ. eigenvalues --   -0.74966  -0.73930  -0.72771  -0.69409  -0.66230
 Alpha  occ. eigenvalues --   -0.64058  -0.60274  -0.57743  -0.56852  -0.55754
 Alpha  occ. eigenvalues --   -0.53736  -0.53126  -0.51948  -0.50574  -0.50043
 Alpha  occ. eigenvalues --   -0.49207  -0.46834  -0.45495  -0.45320  -0.44108
 Alpha  occ. eigenvalues --   -0.43081  -0.41427  -0.40224  -0.39483  -0.39133
 Alpha  occ. eigenvalues --   -0.38297  -0.37632  -0.37087  -0.34881  -0.32421
 Alpha  occ. eigenvalues --   -0.31592
 Alpha virt. eigenvalues --    0.00465   0.01287   0.01332   0.01611   0.02604
 Alpha virt. eigenvalues --    0.02902   0.03039   0.04063   0.04233   0.04778
 Alpha virt. eigenvalues --    0.04996   0.05142   0.06028   0.06141   0.07409
 Alpha virt. eigenvalues --    0.07697   0.08220   0.08411   0.08706   0.10379
 Alpha virt. eigenvalues --    0.10589   0.11061   0.11266   0.11991   0.12241
 Alpha virt. eigenvalues --    0.12737   0.13150   0.13429   0.13639   0.13937
 Alpha virt. eigenvalues --    0.14236   0.14801   0.14912   0.15112   0.15462
 Alpha virt. eigenvalues --    0.15591   0.15767   0.16075   0.16216   0.16603
 Alpha virt. eigenvalues --    0.16799   0.17521   0.17580   0.18122   0.18356
 Alpha virt. eigenvalues --    0.18548   0.18773   0.19097   0.19370   0.19872
 Alpha virt. eigenvalues --    0.20444   0.21043   0.21404   0.22137   0.22203
 Alpha virt. eigenvalues --    0.22740   0.23218   0.23377   0.24409   0.24580
 Alpha virt. eigenvalues --    0.25722   0.26261   0.26394   0.26897   0.27779
 Alpha virt. eigenvalues --    0.28131   0.28303   0.29017   0.29131   0.29780
 Alpha virt. eigenvalues --    0.30409   0.30700   0.31464   0.31871   0.32383
 Alpha virt. eigenvalues --    0.32667   0.33416   0.33553   0.34181   0.34654
 Alpha virt. eigenvalues --    0.34984   0.35410   0.35757   0.35839   0.36362
 Alpha virt. eigenvalues --    0.36804   0.36970   0.37076   0.38442   0.39052
 Alpha virt. eigenvalues --    0.39185   0.39606   0.40042   0.40306   0.40597
 Alpha virt. eigenvalues --    0.42492   0.42768   0.43254   0.44381   0.45152
 Alpha virt. eigenvalues --    0.45965   0.48452   0.49993   0.50581   0.51649
 Alpha virt. eigenvalues --    0.52219   0.53098   0.53839   0.54816   0.55790
 Alpha virt. eigenvalues --    0.56993   0.57410   0.58242   0.59246   0.59931
 Alpha virt. eigenvalues --    0.60291   0.60781   0.60845   0.61939   0.62232
 Alpha virt. eigenvalues --    0.62417   0.63364   0.63781   0.64263   0.64500
 Alpha virt. eigenvalues --    0.64989   0.65888   0.66249   0.66582   0.68386
 Alpha virt. eigenvalues --    0.68587   0.69017   0.69411   0.70255   0.70902
 Alpha virt. eigenvalues --    0.71248   0.72044   0.72518   0.73063   0.73929
 Alpha virt. eigenvalues --    0.74416   0.74895   0.75051   0.76412   0.76477
 Alpha virt. eigenvalues --    0.76709   0.77237   0.78286   0.78865   0.79453
 Alpha virt. eigenvalues --    0.81117   0.81969   0.83848   0.84904   0.86020
 Alpha virt. eigenvalues --    0.86911   0.88005   0.89435   0.89762   0.90535
 Alpha virt. eigenvalues --    0.90955   0.91847   0.93132   0.93942   0.95894
 Alpha virt. eigenvalues --    0.96475   0.96732   1.00074   1.00566   1.02174
 Alpha virt. eigenvalues --    1.03711   1.04642   1.05570   1.06782   1.07512
 Alpha virt. eigenvalues --    1.07709   1.09093   1.10128   1.11141   1.12553
 Alpha virt. eigenvalues --    1.13192   1.13625   1.14285   1.15362   1.17232
 Alpha virt. eigenvalues --    1.17612   1.18294   1.18816   1.19425   1.19485
 Alpha virt. eigenvalues --    1.21096   1.22275   1.22817   1.23257   1.24216
 Alpha virt. eigenvalues --    1.25232   1.25705   1.26875   1.27064   1.27908
 Alpha virt. eigenvalues --    1.29293   1.29560   1.30383   1.30645   1.31564
 Alpha virt. eigenvalues --    1.32196   1.32767   1.33447   1.33682   1.34511
 Alpha virt. eigenvalues --    1.35230   1.35501   1.37356   1.38185   1.38329
 Alpha virt. eigenvalues --    1.38894   1.39650   1.40250   1.40608   1.42285
 Alpha virt. eigenvalues --    1.42655   1.43401   1.44100   1.44404   1.45939
 Alpha virt. eigenvalues --    1.46230   1.46483   1.47429   1.48280   1.48478
 Alpha virt. eigenvalues --    1.49669   1.49969   1.49991   1.51200   1.52241
 Alpha virt. eigenvalues --    1.52972   1.53469   1.54387   1.55653   1.56333
 Alpha virt. eigenvalues --    1.57451   1.57808   1.58217   1.58718   1.59327
 Alpha virt. eigenvalues --    1.59798   1.61012   1.62082   1.62577   1.63298
 Alpha virt. eigenvalues --    1.63670   1.64294   1.66092   1.66598   1.67848
 Alpha virt. eigenvalues --    1.68572   1.69388   1.69965   1.71161   1.72387
 Alpha virt. eigenvalues --    1.73925   1.75347   1.76616   1.77024   1.78437
 Alpha virt. eigenvalues --    1.79347   1.79985   1.81504   1.82052   1.83114
 Alpha virt. eigenvalues --    1.86251   1.88370   1.91131   1.93484   1.96175
 Alpha virt. eigenvalues --    1.99619   2.09528   2.11431   2.14751   2.19583
 Alpha virt. eigenvalues --    2.24443   2.26683   2.29680   2.36029   2.38669
 Alpha virt. eigenvalues --    2.40799   2.43473   2.48370   2.51128   2.52784
 Alpha virt. eigenvalues --    2.53892   2.76162   2.76785   2.78679   2.82111
 Alpha virt. eigenvalues --    2.86370   2.89073   2.92195   2.93830   2.94756
 Alpha virt. eigenvalues --    2.97268   2.98763   3.00427   3.02622   3.05858
 Alpha virt. eigenvalues --    3.07939   3.08481   3.09180   3.10425   3.12247
 Alpha virt. eigenvalues --    3.13346   3.14890   3.18219   3.19802   3.21269
 Alpha virt. eigenvalues --    3.25507   3.31519   3.32029   3.33102   3.34875
 Alpha virt. eigenvalues --    3.36506   3.37195   3.38577   3.40535   3.41961
 Alpha virt. eigenvalues --    3.43531   3.43955   3.44506   3.46056   3.46641
 Alpha virt. eigenvalues --    3.47913   3.48736   3.49914   3.51644   3.52112
 Alpha virt. eigenvalues --    3.52802   3.53665   3.55244   3.56144   3.56613
 Alpha virt. eigenvalues --    3.57592   3.57875   3.58873   3.59743   3.60803
 Alpha virt. eigenvalues --    3.61619   3.62149   3.63185   3.64289   3.65189
 Alpha virt. eigenvalues --    3.66340   3.68115   3.69319   3.70040   3.70903
 Alpha virt. eigenvalues --    3.71274   3.71501   3.72469   3.73753   3.75172
 Alpha virt. eigenvalues --    3.75825   3.76326   3.77239   3.78295   3.78912
 Alpha virt. eigenvalues --    3.79290   3.80508   3.82783   3.83553   3.85378
 Alpha virt. eigenvalues --    3.86554   3.87481   3.88918   3.90911   3.91915
 Alpha virt. eigenvalues --    3.92638   3.94486   3.95707   3.97093   3.98619
 Alpha virt. eigenvalues --    3.99467   4.02820   4.03095   4.04659   4.04985
 Alpha virt. eigenvalues --    4.05675   4.06636   4.06689   4.07896   4.08299
 Alpha virt. eigenvalues --    4.08607   4.09090   4.10156   4.11034   4.12081
 Alpha virt. eigenvalues --    4.12431   4.13473   4.14918   4.15864   4.16692
 Alpha virt. eigenvalues --    4.17542   4.18643   4.19298   4.20362   4.21702
 Alpha virt. eigenvalues --    4.22180   4.23929   4.25117   4.26444   4.27121
 Alpha virt. eigenvalues --    4.28685   4.31155   4.31355   4.31618   4.32964
 Alpha virt. eigenvalues --    4.33139   4.34622   4.37393   4.38619   4.40861
 Alpha virt. eigenvalues --    4.43247   4.45505   4.47789   4.49687   4.57246
 Alpha virt. eigenvalues --    4.60231   4.62283   4.76788   4.77809   4.83509
 Alpha virt. eigenvalues --    4.88557   4.92100   4.94074   4.99797   5.01396
 Alpha virt. eigenvalues --    5.07048   5.07587   5.08121   5.09339   5.12374
 Alpha virt. eigenvalues --    5.13089   5.14581   5.15462   5.30520   5.32647
 Alpha virt. eigenvalues --    5.37364   5.54149   5.58911   5.63353   5.87139
 Alpha virt. eigenvalues --    5.88587   6.01132   6.99892   7.05534   7.06398
 Alpha virt. eigenvalues --    7.08584   7.09852   7.12757   7.14697   7.15663
 Alpha virt. eigenvalues --    7.26580   7.35815   7.43609   7.45867   7.51754
 Alpha virt. eigenvalues --    7.54511   7.59310  23.95601  23.98430  24.05857
 Alpha virt. eigenvalues --   24.08927  24.12058  24.13534  24.14831  24.15070
 Alpha virt. eigenvalues --   24.16492  24.19938  50.17571  50.20641  50.21025
          Condensed to atoms (all electrons):
               1          2          3          4          5          6
     1  C    6.680934  -0.061827   0.019871  -0.000342  -0.038372  -0.175556
     2  C   -0.061827   6.218240   0.078543   0.113710  -0.003953  -0.005441
     3  C    0.019871   0.078543   5.657966  -0.008133  -0.001554  -0.008020
     4  O   -0.000342   0.113710  -0.008133   8.381181  -0.000021  -0.000242
     5  O   -0.038372  -0.003953  -0.001554  -0.000021   8.373888   0.026274
     6  C   -0.175556  -0.005441  -0.008020  -0.000242   0.026274   5.501087
     7  O    0.065524  -0.233789  -0.008396   0.001696  -0.003804   0.019278
     8  C    0.062767  -0.005625   0.006073   0.000331  -0.034820   0.036243
     9  C   -0.079268   0.053337  -0.005544  -0.025660   0.009615   0.017272
    10  C    0.173919  -0.064104  -0.086816  -0.001048   0.344675  -0.200771
    11  C    0.006907  -0.248022   0.077894   0.082996  -0.000187  -0.001756
    12  C   -0.051380  -0.285047  -0.126710   0.054115  -0.022721  -0.015190
    13  C   -0.892652  -0.027989   0.051232   0.006546  -0.087611   0.190420
    14  H    0.409035  -0.000448  -0.000868   0.000027  -0.000718   0.012716
    15  H    0.503018  -0.000134   0.000386  -0.000014   0.002369  -0.015288
    16  H    0.000807   0.354359   0.013017  -0.039665   0.000664  -0.000298
    17  H   -0.002206   0.441525  -0.001335  -0.068402  -0.001592  -0.000350
    18  H   -0.000820   0.015812   0.510142   0.001242   0.000146   0.000431
    19  H   -0.000755  -0.001844   0.413835   0.008062   0.000005   0.000027
    20  H    0.004214  -0.001686  -0.000063  -0.000008  -0.040744   0.484340
    21  H   -0.004131   0.001458  -0.000309   0.000006  -0.065573   0.438374
    22  H    0.002980  -0.000256   0.000312   0.000004  -0.006749  -0.081321
    23  H   -0.039200  -0.000512  -0.000036  -0.000004   0.007099  -0.036902
    24  H    0.002651   0.003279  -0.084716   0.001257  -0.000383   0.001375
    25  H   -0.017644   0.003645   0.026458  -0.004763   0.001831   0.001493
    26  H   -0.025207   0.014453  -0.002681   0.000045  -0.047888   0.012674
    27  H    0.000566   0.017857  -0.049793  -0.068035   0.000009  -0.000134
    28  H   -0.000654  -0.035903  -0.030533  -0.044421   0.000010   0.000157
    29  H    0.011639  -0.049411  -0.042175  -0.026832   0.003436  -0.008985
    30  H   -0.051284   0.030355   0.003780   0.001285  -0.010770   0.023300
    31  H    0.040936  -0.013100  -0.014039  -0.000117   0.002650  -0.004241
               7          8          9         10         11         12
     1  C    0.065524   0.062767  -0.079268   0.173919   0.006907  -0.051380
     2  C   -0.233789  -0.005625   0.053337  -0.064104  -0.248022  -0.285047
     3  C   -0.008396   0.006073  -0.005544  -0.086816   0.077894  -0.126710
     4  O    0.001696   0.000331  -0.025660  -0.001048   0.082996   0.054115
     5  O   -0.003804  -0.034820   0.009615   0.344675  -0.000187  -0.022721
     6  C    0.019278   0.036243   0.017272  -0.200771  -0.001756  -0.015190
     7  O    8.426517  -0.007432  -0.150341   0.131495   0.015851   0.256934
     8  C   -0.007432   5.547404  -0.006533   0.004173   0.000826   0.025123
     9  C   -0.150341  -0.006533   6.795882  -0.076830  -0.216280  -1.189655
    10  C    0.131495   0.004173  -0.076830   6.043346   0.010358  -0.078008
    11  C    0.015851   0.000826  -0.216280   0.010358   5.477493   0.263296
    12  C    0.256934   0.025123  -1.189655  -0.078008   0.263296   7.056948
    13  C   -0.041595  -0.055123   0.210801  -0.497744  -0.004344  -0.103532
    14  H   -0.001692  -0.010262   0.002611  -0.000993  -0.000139  -0.003859
    15  H    0.001563  -0.062290   0.003172  -0.021866   0.000034  -0.002303
    16  H    0.007677   0.000508   0.005211   0.013414  -0.009403  -0.013715
    17  H    0.005669   0.000426   0.037204  -0.007699   0.007664  -0.069415
    18  H    0.000615  -0.000058  -0.001299  -0.002613  -0.094960  -0.056142
    19  H   -0.002081   0.000012  -0.010402  -0.004299  -0.030595  -0.011204
    20  H    0.003869  -0.065830   0.000400  -0.025597   0.000077  -0.004889
    21  H   -0.003286  -0.039118   0.001211   0.006821  -0.000140  -0.000429
    22  H    0.001803   0.479173  -0.000335   0.006742   0.000070  -0.001829
    23  H    0.000502   0.453651  -0.001180  -0.004853   0.000038   0.001962
    24  H    0.000784  -0.001295   0.513134  -0.004008  -0.008872  -0.058828
    25  H   -0.008548   0.003075   0.465719   0.006392  -0.029014  -0.105674
    26  H   -0.084309  -0.009086  -0.001189   0.468780  -0.002127  -0.001583
    27  H    0.000958   0.000065   0.005221  -0.001047   0.439085  -0.001800
    28  H   -0.000130   0.000008  -0.000781   0.002647   0.446058   0.016061
    29  H   -0.007673  -0.008320  -0.068752  -0.011969   0.033896   0.497210
    30  H   -0.006653  -0.017593   0.015991  -0.081602  -0.005730  -0.034874
    31  H    0.000114  -0.016211  -0.030778  -0.013887   0.006626   0.043519
              13         14         15         16         17         18
     1  C   -0.892652   0.409035   0.503018   0.000807  -0.002206  -0.000820
     2  C   -0.027989  -0.000448  -0.000134   0.354359   0.441525   0.015812
     3  C    0.051232  -0.000868   0.000386   0.013017  -0.001335   0.510142
     4  O    0.006546   0.000027  -0.000014  -0.039665  -0.068402   0.001242
     5  O   -0.087611  -0.000718   0.002369   0.000664  -0.001592   0.000146
     6  C    0.190420   0.012716  -0.015288  -0.000298  -0.000350   0.000431
     7  O   -0.041595  -0.001692   0.001563   0.007677   0.005669   0.000615
     8  C   -0.055123  -0.010262  -0.062290   0.000508   0.000426  -0.000058
     9  C    0.210801   0.002611   0.003172   0.005211   0.037204  -0.001299
    10  C   -0.497744  -0.000993  -0.021866   0.013414  -0.007699  -0.002613
    11  C   -0.004344  -0.000139   0.000034  -0.009403   0.007664  -0.094960
    12  C   -0.103532  -0.003859  -0.002303  -0.013715  -0.069415  -0.056142
    13  C    6.636837  -0.031111  -0.033874   0.005858  -0.003472   0.004780
    14  H   -0.031111   0.490904  -0.009084   0.000011  -0.000052   0.000043
    15  H   -0.033874  -0.009084   0.455811  -0.000067   0.000084  -0.000040
    16  H    0.005858   0.000011  -0.000067   0.478558  -0.016386   0.003104
    17  H   -0.003472  -0.000052   0.000084  -0.016386   0.473243  -0.001879
    18  H    0.004780   0.000043  -0.000040   0.003104  -0.001879   0.468477
    19  H    0.001165   0.000006   0.000016  -0.001916   0.002309  -0.008818
    20  H    0.009227  -0.000559   0.000683   0.000061  -0.000043  -0.000007
    21  H    0.012516   0.000825  -0.002186  -0.000026  -0.000097   0.000030
    22  H   -0.023989  -0.005062   0.004260  -0.000033  -0.000040  -0.000026
    23  H   -0.007361  -0.005864  -0.006395  -0.000038   0.000068  -0.000013
    24  H   -0.002340   0.000090  -0.000005  -0.000256  -0.002573   0.001406
    25  H    0.023516   0.000300   0.000566  -0.002269  -0.000232   0.002434
    26  H   -0.028658   0.001947  -0.009887  -0.000354  -0.000315   0.000285
    27  H    0.000412   0.000002   0.000001  -0.002526   0.002105  -0.004705
    28  H   -0.000276  -0.000002  -0.000002   0.009756  -0.002632   0.003222
    29  H   -0.017937   0.001792   0.001217  -0.013195   0.001050  -0.014556
    30  H    0.501329  -0.006450   0.001136   0.001699  -0.002096   0.002081
    31  H    0.380303  -0.013978  -0.006607  -0.001038   0.000218  -0.001180
              19         20         21         22         23         24
     1  C   -0.000755   0.004214  -0.004131   0.002980  -0.039200   0.002651
     2  C   -0.001844  -0.001686   0.001458  -0.000256  -0.000512   0.003279
     3  C    0.413835  -0.000063  -0.000309   0.000312  -0.000036  -0.084716
     4  O    0.008062  -0.000008   0.000006   0.000004  -0.000004   0.001257
     5  O    0.000005  -0.040744  -0.065573  -0.006749   0.007099  -0.000383
     6  C    0.000027   0.484340   0.438374  -0.081321  -0.036902   0.001375
     7  O   -0.002081   0.003869  -0.003286   0.001803   0.000502   0.000784
     8  C    0.000012  -0.065830  -0.039118   0.479173   0.453651  -0.001295
     9  C   -0.010402   0.000400   0.001211  -0.000335  -0.001180   0.513134
    10  C   -0.004299  -0.025597   0.006821   0.006742  -0.004853  -0.004008
    11  C   -0.030595   0.000077  -0.000140   0.000070   0.000038  -0.008872
    12  C   -0.011204  -0.004889  -0.000429  -0.001829   0.001962  -0.058828
    13  C    0.001165   0.009227   0.012516  -0.023989  -0.007361  -0.002340
    14  H    0.000006  -0.000559   0.000825  -0.005062  -0.005864   0.000090
    15  H    0.000016   0.000683  -0.002186   0.004260  -0.006395  -0.000005
    16  H   -0.001916   0.000061  -0.000026  -0.000033  -0.000038  -0.000256
    17  H    0.002309  -0.000043  -0.000097  -0.000040   0.000068  -0.002573
    18  H   -0.008818  -0.000007   0.000030  -0.000026  -0.000013   0.001406
    19  H    0.488114   0.000004  -0.000005   0.000006  -0.000002  -0.004273
    20  H    0.000004   0.474878  -0.004192   0.002389   0.003901   0.000216
    21  H   -0.000005  -0.004192   0.469923  -0.002123  -0.012219  -0.000061
    22  H    0.000006   0.002389  -0.002123   0.469448  -0.008307   0.000075
    23  H   -0.000002   0.003901  -0.012219  -0.008307   0.476641   0.000041
    24  H   -0.004273   0.000216  -0.000061   0.000075   0.000041   0.432976
    25  H   -0.011153  -0.000394   0.000304  -0.000261  -0.000381  -0.007219
    26  H    0.000140  -0.003147  -0.000734  -0.000401  -0.002039   0.001335
    27  H   -0.009773   0.000009  -0.000015   0.000014   0.000002  -0.001070
    28  H    0.003592  -0.000022   0.000024  -0.000020  -0.000002  -0.005427
    29  H   -0.001072   0.001220  -0.001421   0.002565   0.000285   0.005095
    30  H   -0.000018  -0.001955   0.000591  -0.003359  -0.004574  -0.000262
    31  H   -0.000204   0.001164   0.000436  -0.000606   0.003978   0.002516
              25         26         27         28         29         30
     1  C   -0.017644  -0.025207   0.000566  -0.000654   0.011639  -0.051284
     2  C    0.003645   0.014453   0.017857  -0.035903  -0.049411   0.030355
     3  C    0.026458  -0.002681  -0.049793  -0.030533  -0.042175   0.003780
     4  O   -0.004763   0.000045  -0.068035  -0.044421  -0.026832   0.001285
     5  O    0.001831  -0.047888   0.000009   0.000010   0.003436  -0.010770
     6  C    0.001493   0.012674  -0.000134   0.000157  -0.008985   0.023300
     7  O   -0.008548  -0.084309   0.000958  -0.000130  -0.007673  -0.006653
     8  C    0.003075  -0.009086   0.000065   0.000008  -0.008320  -0.017593
     9  C    0.465719  -0.001189   0.005221  -0.000781  -0.068752   0.015991
    10  C    0.006392   0.468780  -0.001047   0.002647  -0.011969  -0.081602
    11  C   -0.029014  -0.002127   0.439085   0.446058   0.033896  -0.005730
    12  C   -0.105674  -0.001583  -0.001800   0.016061   0.497210  -0.034874
    13  C    0.023516  -0.028658   0.000412  -0.000276  -0.017937   0.501329
    14  H    0.000300   0.001947   0.000002  -0.000002   0.001792  -0.006450
    15  H    0.000566  -0.009887   0.000001  -0.000002   0.001217   0.001136
    16  H   -0.002269  -0.000354  -0.002526   0.009756  -0.013195   0.001699
    17  H   -0.000232  -0.000315   0.002105  -0.002632   0.001050  -0.002096
    18  H    0.002434   0.000285  -0.004705   0.003222  -0.014556   0.002081
    19  H   -0.011153   0.000140  -0.009773   0.003592  -0.001072  -0.000018
    20  H   -0.000394  -0.003147   0.000009  -0.000022   0.001220  -0.001955
    21  H    0.000304  -0.000734  -0.000015   0.000024  -0.001421   0.000591
    22  H   -0.000261  -0.000401   0.000014  -0.000020   0.002565  -0.003359
    23  H   -0.000381  -0.002039   0.000002  -0.000002   0.000285  -0.004574
    24  H   -0.007219   0.001335  -0.001070  -0.005427   0.005095  -0.000262
    25  H    0.477846   0.000443   0.000838   0.001886  -0.005110   0.006380
    26  H    0.000443   0.460329  -0.000085  -0.000015  -0.003569  -0.002268
    27  H    0.000838  -0.000085   0.461266  -0.007398   0.002893  -0.000631
    28  H    0.001886  -0.000015  -0.007398   0.488513  -0.005337   0.000590
    29  H   -0.005110  -0.003569   0.002893  -0.005337   0.475966  -0.020555
    30  H    0.006380  -0.002268  -0.000631   0.000590  -0.020555   0.467718
    31  H   -0.017063  -0.002449   0.000119  -0.000324   0.007065  -0.033304
              31
     1  C    0.040936
     2  C   -0.013100
     3  C   -0.014039
     4  O   -0.000117
     5  O    0.002650
     6  C   -0.004241
     7  O    0.000114
     8  C   -0.016211
     9  C   -0.030778
    10  C   -0.013887
    11  C    0.006626
    12  C    0.043519
    13  C    0.380303
    14  H   -0.013978
    15  H   -0.006607
    16  H   -0.001038
    17  H    0.000218
    18  H   -0.001180
    19  H   -0.000204
    20  H    0.001164
    21  H    0.000436
    22  H   -0.000606
    23  H    0.003978
    24  H    0.002516
    25  H   -0.017063
    26  H   -0.002449
    27  H    0.000119
    28  H   -0.000324
    29  H    0.007065
    30  H   -0.033304
    31  H    0.513763
 Mulliken charges:
               1
     1  C   -0.544468
     2  C   -0.307481
     3  C   -0.387788
     4  O   -0.364797
     5  O   -0.405212
     6  C   -0.210965
     7  O   -0.381121
     8  C   -0.280262
     9  C   -0.271952
    10  C   -0.027005
    11  C   -0.217598
    12  C    0.023618
    13  C   -0.175334
    14  H    0.170834
    15  H    0.195724
    16  H    0.206481
    17  H    0.209252
    18  H    0.172868
    19  H    0.181120
    20  H    0.162485
    21  H    0.203546
    22  H    0.164873
    23  H    0.181712
    24  H    0.215361
    25  H    0.186600
    26  H    0.267559
    27  H    0.215590
    28  H    0.161357
    29  H    0.261543
    30  H    0.227741
    31  H    0.165717
 Sum of Mulliken charges =  -0.00000
 Mulliken charges with hydrogens summed into heavy atoms:
               1
     1  C   -0.177910
     2  C    0.108252
     3  C   -0.033800
     4  O   -0.364797
     5  O   -0.405212
     6  C    0.155066
     7  O   -0.381121
     8  C    0.066323
     9  C    0.130010
    10  C    0.240555
    11  C    0.159349
    12  C    0.285161
    13  C    0.218125
 Electronic spatial extent (au):  <R**2>=           3305.6257
 Charge=             -0.0000 electrons
 Dipole moment (field-independent basis, Debye):
    X=             -1.8346    Y=              4.5441    Z=              0.5421  Tot=              4.9303
 Quadrupole moment (field-independent basis, Debye-Ang):
   XX=            -67.1325   YY=            -82.2443   ZZ=            -82.0297
   XY=              3.3920   XZ=              4.7618   YZ=             -0.7234
 Traceless Quadrupole moment (field-independent basis, Debye-Ang):
   XX=             10.0030   YY=             -5.1088   ZZ=             -4.8942
   XY=              3.3920   XZ=              4.7618   YZ=             -0.7234
 Octapole moment (field-independent basis, Debye-Ang**2):
  XXX=            -24.3583  YYY=             -0.3584  ZZZ=              1.8085  XYY=             -1.5587
  XXY=             17.2675  XXZ=             18.6771  XZZ=             -7.1802  YZZ=              2.1132
  YYZ=              0.0458  XYZ=             -7.6182
 Hexadecapole moment (field-independent basis, Debye-Ang**3):
 XXXX=          -3245.1921 YYYY=           -601.5521 ZZZZ=           -272.6121 XXXY=            103.7093
 XXXZ=             33.6682 YYYX=              5.4225 YYYZ=              4.4557 ZZZX=             -2.7158
 ZZZY=             -3.0789 XXYY=           -695.1305 XXZZ=           -638.6219 YYZZ=           -148.0700
 XXYZ=            -25.1668 YYXZ=             12.9072 ZZXY=              6.6999
 N-N= 8.806442180169D+02 E-N=-3.203271407537D+03  KE= 6.153552138674D+02
 D1PCM: PCM CHGder 1st derivatives, ID1Alg=3 FixD1E=F DoIter=F DoCFld=F I1PDM=0.
 Calling FoFJK, ICntrl=      2127 FMM=F ISym2X=0 I1Cent= 0 IOpClX= 0 NMat=1 NMatS=1 NMatT=0.
 ***** Axes restored to original set *****
 -------------------------------------------------------------------
 Center     Atomic                   Forces (Hartrees/Bohr)
 Number     Number              X              Y              Z
 -------------------------------------------------------------------
      1        6           0.001382602   -0.003692335   -0.000962188
      2        6          -0.001384687    0.005627457    0.001018207
      3        6          -0.000456201   -0.002419772    0.001913440
      4        8           0.002831446   -0.004958763   -0.010727414
      5        8           0.004832945   -0.011226162   -0.006572608
      6        6          -0.000879859    0.006297905   -0.002651349
      7        8           0.003880369   -0.004468946    0.009592662
      8        6           0.001440199    0.000803406    0.002987673
      9        6           0.001882072   -0.002140912   -0.003883780
     10        6          -0.001716468    0.008613882   -0.005308144
     11        6          -0.004666863    0.005130022    0.002376460
     12        6           0.001515895    0.000565953    0.001079981
     13        6          -0.002096337   -0.001393494    0.002915513
     14        1          -0.000435861    0.001990527   -0.001815573
     15        1          -0.000718104    0.000186524    0.003358791
     16        1           0.000648750   -0.000946404    0.006153279
     17        1          -0.003073876   -0.003181003   -0.002361210
     18        1          -0.000913641    0.000543918   -0.003164929
     19        1           0.001596350    0.001887401    0.001496078
     20        1          -0.002112407    0.001686789    0.005044701
     21        1          -0.001859580   -0.003803647   -0.001742070
     22        1           0.001441026   -0.000897838   -0.002894436
     23        1          -0.002724916    0.000449803    0.000330414
     24        1           0.000812220   -0.002129849    0.003176778
     25        1          -0.002756987    0.002723744   -0.000310335
     26        1          -0.003782131    0.002128350    0.006799678
     27        1           0.003439471    0.000787353   -0.002798636
     28        1           0.001222099   -0.001191052    0.005481683
     29        1          -0.001503907    0.002146859   -0.006455524
     30        1           0.001681107   -0.001981972   -0.003898448
     31        1           0.002475275    0.002862259    0.001821308
 -------------------------------------------------------------------
 Cartesian Forces:  Max     0.011226162 RMS     0.003593313

 GradGradGradGradGradGradGradGradGradGradGradGradGradGradGradGradGradGrad
 Berny optimization.
 FormGI is forming the generalized inverse of G from B-inverse, IUseBI=4.
 Internal  Forces:  Max     0.015721146 RMS     0.002351200
 Search for a local minimum.
 Step number   1 out of a maximum of  186
 All quantities printed in internal units (Hartrees-Bohrs-Radians)
 Mixed Optimization -- RFO/linear search
 Second derivative matrix not updated -- first step.
 ITU=  0
     Eigenvalues ---    0.00613   0.00640   0.00737   0.00745   0.01448
     Eigenvalues ---    0.01454   0.01471   0.02690   0.02781   0.03100
     Eigenvalues ---    0.03162   0.04228   0.04366   0.04412   0.04763
     Eigenvalues ---    0.04790   0.04984   0.05001   0.05153   0.05155
     Eigenvalues ---    0.05182   0.05585   0.05747   0.05932   0.06155
     Eigenvalues ---    0.06222   0.06397   0.06805   0.07542   0.07687
     Eigenvalues ---    0.07876   0.07941   0.07948   0.07996   0.08136
     Eigenvalues ---    0.08675   0.09336   0.09613   0.10864   0.11482
     Eigenvalues ---    0.11610   0.11703   0.11718   0.12347   0.12493
     Eigenvalues ---    0.14490   0.14530   0.16522   0.16663   0.17554
     Eigenvalues ---    0.19525   0.21603   0.21761   0.25000   0.28445
     Eigenvalues ---    0.28569   0.28581   0.28699   0.28882   0.29206
     Eigenvalues ---    0.30193   0.30313   0.35054   0.35061   0.35076
     Eigenvalues ---    0.35091   0.35099   0.35128   0.35136   0.35250
     Eigenvalues ---    0.35292   0.35383   0.35416   0.35460   0.35516
     Eigenvalues ---    0.35526   0.35831   0.35849   0.35882   0.35927
     Eigenvalues ---    0.41214   0.41447   0.42295   0.42384   0.42770
     Eigenvalues ---    0.464141000.000001000.000001000.000001000.00000
     Eigenvalues --- 1000.000001000.000001000.000001000.000001000.00000
     Eigenvalues --- 1000.000001000.000001000.000001000.000001000.00000
     Eigenvalues --- 1000.000001000.000001000.000001000.000001000.00000
     Eigenvalues --- 1000.000001000.000001000.000001000.000001000.00000
     Eigenvalues --- 1000.000001000.000001000.000001000.000001000.00000
     Eigenvalues --- 1000.000001000.000001000.000001000.000001000.00000
     Eigenvalues --- 1000.000001000.000001000.000001000.000001000.00000
     Eigenvalues --- 1000.000001000.000001000.000001000.000001000.00000
     Eigenvalues --- 1000.000001000.000001000.000001000.000001000.00000
     Eigenvalues --- 1000.000001000.000001000.000001000.000001000.00000
     Eigenvalues --- 1000.000001000.000001000.000001000.000001000.00000
     Eigenvalues --- 1000.000001000.000001000.000001000.000001000.00000
     Eigenvalues --- 1000.000001000.000001000.000001000.000001000.00000
     Eigenvalues --- 1000.000001000.000001000.000001000.000001000.00000
     Eigenvalues --- 1000.000001000.000001000.000001000.000001000.00000
     Eigenvalues --- 1000.000001000.000001000.000001000.000001000.00000
     Eigenvalues --- 1000.000001000.000001000.000001000.000001000.00000
     Eigenvalues --- 1000.000001000.000001000.000001000.000001000.00000
     Eigenvalues --- 1000.000001000.000001000.000001000.000001000.00000
 RFO step:  Lambda=-3.65139717D-03 EMin= 6.12802574D-03
 Linear search not attempted -- first point.
 Iteration  1 RMS(Cart)=  0.07303089 RMS(Int)=  0.00103883
 Iteration  2 RMS(Cart)=  0.00268838 RMS(Int)=  0.00002583
 Iteration  3 RMS(Cart)=  0.00000124 RMS(Int)=  0.00002582
 Iteration  4 RMS(Cart)=  0.00000000 RMS(Int)=  0.00002582
 Iteration  1 RMS(Cart)=  0.00000288 RMS(Int)=  0.00000064
 Iteration  2 RMS(Cart)=  0.00000156 RMS(Int)=  0.00000072
 Iteration  3 RMS(Cart)=  0.00000085 RMS(Int)=  0.00000081
 Variable       Old X    -DE/DX   Delta X   Delta X   Delta X     New X
                                 (Linear)    (Quad)   (Total)
    R1        2.88916  -0.00099   0.00000  -0.00379  -0.00382   2.88534
    R2        2.89725  -0.00092   0.00000  -0.00402  -0.00405   2.89320
    R3        2.05057   0.00273   0.00000   0.00763   0.00763   2.05820
    R4        2.05587   0.00331   0.00000   0.00935   0.00935   2.06522
    R5        2.66553   0.00616   0.00000   0.01447   0.01450   2.68003
    R6        2.88062  -0.00066   0.00000  -0.00198  -0.00197   2.87865
    R7        2.05515   0.00603   0.00000   0.01701   0.01701   2.07215
    R8        2.04318   0.00495   0.00000   0.01366   0.01366   2.05684
    R9        2.89315  -0.00090   0.00000  -0.00386  -0.00389   2.88926
   R10        2.87210  -0.00074   0.00000  -0.00255  -0.00256   2.86954
   R11        2.05454   0.00325   0.00000   0.00915   0.00915   2.06369
   R12        2.05204   0.00289   0.00000   0.00810   0.00810   2.06014
   R13        2.67705   0.00628   0.00000   0.01488   0.01491   2.69196
   R14        2.68086   0.00562   0.00000   0.01369   0.01372   2.69458
   R15        2.66544   0.00821   0.00000   0.01887   0.01890   2.68434
   R16        2.87271  -0.00059   0.00000  -0.00171  -0.00171   2.87099
   R17        2.05527   0.00563   0.00000   0.01587   0.01587   2.07115
   R18        2.04266   0.00457   0.00000   0.01261   0.01261   2.05528
   R19        2.63667   0.00387   0.00000   0.00827   0.00827   2.64495
   R20        2.67954   0.00410   0.00000   0.00949   0.00949   2.68904
   R21        2.05468   0.00327   0.00000   0.00921   0.00921   2.06389
   R22        2.05270   0.00277   0.00000   0.00779   0.00779   2.06049
   R23        2.88061  -0.00209   0.00000  -0.00742  -0.00745   2.87316
   R24        2.05576   0.00372   0.00000   0.01051   0.01051   2.06627
   R25        2.04934   0.00378   0.00000   0.01055   0.01055   2.05990
   R26        2.87412  -0.00214   0.00000  -0.00710  -0.00710   2.86702
   R27        2.05006   0.00798   0.00000   0.02229   0.02229   2.07234
   R28        2.04347   0.00449   0.00000   0.01241   0.01241   2.05588
   R29        2.05551   0.00565   0.00000   0.01593   0.01593   2.07144
   R30        2.04196   0.00692   0.00000   0.01907   0.01907   2.06103
   R31        2.04829   0.00452   0.00000   0.01259   0.01259   2.06087
   R32        2.04845   0.00414   0.00000   0.01154   0.01154   2.05999
    A1        1.92507   0.00193   0.00000  -0.00254  -0.00261   1.92247
    A2        1.93085  -0.00057   0.00000   0.00088   0.00090   1.93176
    A3        1.91237  -0.00065   0.00000  -0.00130  -0.00130   1.91106
    A4        1.91438  -0.00039   0.00000   0.00106   0.00109   1.91547
    A5        1.91238  -0.00099   0.00000  -0.00320  -0.00319   1.90919
    A6        1.86791   0.00059   0.00000   0.00527   0.00526   1.87317
    A7        1.93281   0.00109   0.00000   0.00567   0.00571   1.93853
    A8        1.91642   0.00107   0.00000   0.00733   0.00734   1.92376
    A9        1.86768  -0.00033   0.00000   0.00369   0.00369   1.87136
   A10        1.91888  -0.00201   0.00000  -0.01414  -0.01418   1.90470
   A11        1.92982  -0.00058   0.00000  -0.00583  -0.00587   1.92395
   A12        1.89730   0.00082   0.00000   0.00389   0.00380   1.90110
   A13        1.92829  -0.00044   0.00000  -0.00626  -0.00631   1.92198
   A14        1.92028   0.00066   0.00000   0.00203   0.00204   1.92232
   A15        1.92718  -0.00045   0.00000  -0.00033  -0.00033   1.92685
   A16        1.90394  -0.00028   0.00000  -0.00142  -0.00142   1.90252
   A17        1.90898   0.00038   0.00000   0.00139   0.00142   1.91040
   A18        1.87424   0.00016   0.00000   0.00489   0.00488   1.87912
   A19        1.97914  -0.00483   0.00000  -0.02602  -0.02595   1.95319
   A20        1.98163  -0.00511   0.00000  -0.02876  -0.02866   1.95297
   A21        1.93754   0.00064   0.00000   0.00459   0.00459   1.94213
   A22        1.90073   0.00080   0.00000   0.00394   0.00396   1.90469
   A23        1.85192  -0.00058   0.00000  -0.00038  -0.00038   1.85154
   A24        1.92994  -0.00101   0.00000  -0.00809  -0.00810   1.92185
   A25        1.95091  -0.00030   0.00000  -0.00233  -0.00234   1.94857
   A26        1.89023   0.00051   0.00000   0.00276   0.00274   1.89297
   A27        2.16112  -0.01572   0.00000  -0.06198  -0.06198   2.09914
   A28        1.92225   0.00022   0.00000  -0.00321  -0.00329   1.91896
   A29        1.91693   0.00047   0.00000   0.00161   0.00163   1.91856
   A30        1.93622  -0.00065   0.00000  -0.00143  -0.00142   1.93480
   A31        1.90509  -0.00049   0.00000  -0.00165  -0.00164   1.90345
   A32        1.90609   0.00016   0.00000   0.00000   0.00003   1.90612
   A33        1.87647   0.00029   0.00000   0.00485   0.00484   1.88131
   A34        1.91885   0.00189   0.00000  -0.00202  -0.00209   1.91675
   A35        1.91453  -0.00041   0.00000   0.00217   0.00217   1.91670
   A36        1.93248  -0.00013   0.00000   0.00466   0.00466   1.93715
   A37        1.89121  -0.00115   0.00000  -0.00617  -0.00617   1.88504
   A38        1.92976  -0.00097   0.00000  -0.00597  -0.00593   1.92384
   A39        1.87605   0.00070   0.00000   0.00735   0.00730   1.88335
   A40        1.85176   0.00076   0.00000   0.00123   0.00118   1.85294
   A41        1.92361   0.00112   0.00000   0.00698   0.00692   1.93053
   A42        1.87743   0.00084   0.00000   0.00467   0.00464   1.88207
   A43        2.05779  -0.00441   0.00000  -0.02505  -0.02506   2.03273
   A44        1.84034   0.00240   0.00000   0.01446   0.01444   1.85477
   A45        1.90407  -0.00027   0.00000   0.00011   0.00012   1.90419
   A46        1.93481   0.00139   0.00000   0.00685   0.00684   1.94165
   A47        1.94621  -0.00040   0.00000  -0.00370  -0.00370   1.94251
   A48        1.93099  -0.00128   0.00000  -0.00787  -0.00788   1.92312
   A49        1.85525  -0.00094   0.00000  -0.00270  -0.00269   1.85256
   A50        1.90213   0.00063   0.00000   0.00463   0.00466   1.90679
   A51        1.89215   0.00063   0.00000   0.00316   0.00314   1.89529
   A52        1.85281   0.00051   0.00000   0.00371   0.00372   1.85653
   A53        1.92141   0.00023   0.00000  -0.00070  -0.00075   1.92066
   A54        1.88677  -0.00012   0.00000   0.00127   0.00127   1.88804
   A55        1.94368  -0.00102   0.00000  -0.00410  -0.00408   1.93960
   A56        1.93188   0.00032   0.00000   0.00433   0.00431   1.93619
   A57        1.92520   0.00012   0.00000  -0.00407  -0.00406   1.92114
   A58        1.89885  -0.00052   0.00000  -0.00532  -0.00537   1.89348
   A59        1.90412   0.00107   0.00000   0.00512   0.00510   1.90921
   A60        1.93045   0.00001   0.00000   0.00627   0.00626   1.93671
   A61        1.92430  -0.00060   0.00000  -0.00799  -0.00797   1.91633
   A62        1.91586  -0.00009   0.00000  -0.00284  -0.00280   1.91306
   A63        1.89034   0.00015   0.00000   0.00479   0.00473   1.89507
    D1        0.91362  -0.00037   0.00000   0.00897   0.00895   0.92257
    D2       -1.18510  -0.00020   0.00000   0.01203   0.01202  -1.17308
    D3        3.02605  -0.00045   0.00000   0.00589   0.00587   3.03192
    D4        3.03481   0.00006   0.00000   0.00919   0.00918   3.04399
    D5        0.93609   0.00023   0.00000   0.01225   0.01225   0.94834
[...]
 0.01298308,-0.00188067,-0.00027084,-0.00003335,-0.00005414,-0.00000300
 ,-0.00000022,0.00000059,0.00001798,-0.00000468,-0.00000419,0.00026844,
 -0.00030156,0.00012988,0.00047873,-0.00068930,0.00011612,-0.00078638,-
 0.00032925,0.00062342,-0.00070033,0.00033801,0.00047299,0.00000032,0.0
 0000123,-0.00000163,-0.00000257,0.00000154,-0.00000302,-0.00000114,-0.
 00000019,-0.00000080,0.00000497,0.00000669,0.00000260,-0.01724484,0.02
 400312,0.00193602,-0.00423748,0.00720994,0.04928046,0.00057810,0.00014
 484,-0.00099109,-0.00042358,-0.00164387,0.00090928,0.00002386,-0.00014
 877,-0.00024690,-0.00144365,0.00047555,0.00036376,0.00205487,-0.010643
 84,-0.01770933,0.00334298,-0.00185151,-0.00236465,-0.03753015,0.006503
 96,0.02712783,-0.00022515,0.00022116,0.00013007,-0.00000590,0.00005684
 ,0.00025749,-0.07737038,0.01309968,0.08268329,0.00025882,0.00020478,0.
 00019844,0.00067249,0.00716252,-0.00091129,0.00290887,0.00107291,-0.00
 172294,0.00007532,-0.00011438,-0.00011716,0.00031183,0.00013181,-0.000
 08368,-0.00004974,0.00006396,-0.00009245,0.00003522,0.00001198,0.00004
 420,-0.00000668,-0.00000223,0.00002489,-0.00011418,-0.00004751,0.00005
 275,0.00040356,0.00021341,0.00072006,0.00015334,-0.00000184,0.00002165
 ,-0.00007519,-0.00003759,0.00013608,-0.00001158,0.00009051,-0.00001146
 ,-0.00002619,-0.00002640,-0.00007805,0.00004753,-0.00011630,-0.0000828
 8,0.10620314,-0.00132745,0.00084334,0.00008426,0.00011438,0.00032884,-
 0.00028125,-0.00001304,0.00004929,0.00005877,0.00027611,-0.00011559,-0
 .00005794,-0.00354500,-0.01882386,-0.03798474,0.00441381,-0.00020734,-
 0.00077259,0.01121687,0.00307477,-0.00830629,-0.00046525,-0.00010803,0
 .00017669,0.00005796,-0.00001875,-0.00009843,0.01245379,-0.05619268,-0
 .02269544,-0.00005531,-0.00004614,-0.00003354,-0.00019644,-0.00133529,
 0.00040363,-0.00813048,0.00371677,0.02666680,-0.00003833,-0.00004139,-
 0.00025451,0.00023182,-0.00010808,-0.00040267,-0.00000697,0.00000938,0
 .00002216,-0.00000275,-0.00000700,-0.00000869,0.00000067,0.00000314,-0
 .00000257,0.00002164,0.00000313,-0.00001054,-0.00039906,0.00042958,0.0
 0098531,-0.00024560,0.00002400,0.00038584,0.00003570,-0.00002761,-0.00
 003411,-0.00001882,0.00026222,-0.00005983,-0.00001315,0.00000719,0.000
 00542,0.00000702,0.00004115,0.00003133,-0.01556588,0.07140700,0.000742
 95,-0.00079010,0.00037805,-0.00006339,-0.00005427,0.00015582,0.0000350
 4,0.00004166,0.00000769,-0.00009936,0.00005825,0.00001240,-0.00351737,
 -0.01570090,-0.01566281,0.00202388,-0.00006172,0.00073396,-0.00120932,
 0.00097767,0.00945326,-0.00035582,-0.00003350,0.00005465,0.00008631,-0
 .00005409,-0.00016615,0.08675611,-0.02801311,-0.26140797,-0.00001033,0
 .00000094,-0.00000453,-0.00146756,0.00016797,0.00145134,0.00781883,-0.
 00037909,-0.01807222,-0.00009451,0.00011534,0.00033757,-0.00060371,0.0
 0007946,0.00029565,0.00001683,-0.00001810,-0.00001277,-0.00000393,-0.0
 0001594,0.00000648,0.00000243,0.00000054,-0.00000124,0.00001359,0.0000
 0376,-0.00000547,-0.00099483,0.00030961,0.00006719,-0.00042670,0.00005
 320,0.00035334,0.00015056,0.00000505,-0.00009148,-0.00008726,0.0000050
 2,-0.00007967,0.00000066,-0.00002584,-0.00001206,-0.00002800,-0.000041
 24,-0.00001982,-0.08810951,0.04001297,0.28277984,0.00001372,-0.0000062
 6,-0.00001310,0.00092247,-0.00143940,-0.00371443,-0.01244357,-0.001324
 47,0.01070178,-0.02012320,-0.01004652,0.00939124,-0.00010103,-0.000040
 20,-0.00002807,0.00003131,-0.00001252,-0.00001016,-0.00055523,0.000084
 25,0.00017700,-0.00001337,0.00000757,0.00000704,-0.00042562,0.00330887
 ,-0.00042099,0.00029290,0.00000513,0.00011961,-0.21580588,-0.02584075,
 0.12516148,0.00083441,-0.00011179,-0.00000500,-0.00005973,0.00002947,-
 0.00000003,-0.00001118,0.00000558,-0.00000285,-0.00000545,0.00000148,0
 .00000190,0.00001197,-0.00003359,0.00031357,-0.00085776,-0.00021165,0.
 00058050,0.00056823,-0.00075551,-0.00037778,0.00032307,0.00023677,0.00
 005325,-0.00000362,0.00000166,0.00000216,-0.00000939,-0.00000158,-0.00
 000115,0.00000074,-0.00000074,-0.00000201,-0.00000567,-0.00000197,-0.0
 0000366,0.00004342,-0.00009669,0.00014563,-0.00081976,-0.00031125,0.00
 055656,-0.00006392,0.00001035,-0.00000105,0.23866022,0.00000007,0.0000
 3054,0.00000998,-0.00111102,-0.00272549,-0.00395035,0.02318377,0.00575
 977,-0.01767046,-0.02867570,-0.01049454,0.01533505,0.00003483,0.000008
 01,0.00000393,0.00000036,0.00000089,0.00000440,-0.00006225,0.00050674,
 0.00003342,0.00001206,-0.00000702,-0.00000208,0.00257152,-0.00530960,0
 .00068041,-0.00007067,0.00003180,0.00008023,-0.02126559,-0.05225771,0.
 01827014,-0.00041724,-0.00128264,-0.00011821,0.00001007,-0.00005720,-0
 .00002077,-0.00000056,-0.00000108,-0.00000005,0.00000137,-0.00000033,-
 0.00000137,0.00017589,0.00001745,-0.00002423,-0.00143597,-0.00020813,0
 .00055339,-0.00087378,0.00123065,0.00046384,-0.00108915,0.00084335,0.0
 0018421,0.00000046,-0.00000011,-0.00000071,0.00000165,0.00000067,-0.00
 000046,-0.00000001,0.00000007,0.00000073,0.00000303,0.00000381,0.00000
 178,-0.00023503,0.00000923,-0.00002806,0.00175815,0.00037418,-0.000831
 75,-0.00002452,0.00000634,-0.00000286,0.03500439,0.06360428,0.00000087
 ,0.00001016,0.00000101,-0.00164329,-0.00168206,-0.00068299,-0.00013883
 ,0.00123917,-0.00078074,-0.01682447,-0.00530183,0.01091543,0.00000597,
 -0.00000181,-0.00000165,0.00000095,-0.00000079,0.00000110,-0.00006974,
 0.00021106,0.00006226,0.00000303,-0.00000209,-0.00000113,0.00007840,-0
 .00110737,0.00115336,-0.00002138,0.00002203,0.00004608,0.13498839,0.02
 471867,-0.15477736,-0.00009345,-0.00047471,-0.00012848,-0.00000995,-0.
 00001583,-0.00001015,-0.00000112,-0.00000030,-0.00000011,0.00000062,-0
 .00000046,-0.00000043,-0.00009457,-0.00012774,0.00042599,-0.00042953,-
 0.00024680,0.00043991,-0.00017342,-0.00054187,0.00076240,0.00013858,-0
 .00016488,0.00005470,0.00000035,0.00000017,-0.00000014,0.00000037,0.00
 000017,0.,0.,0.00000009,0.00000029,0.00000097,0.00000106,0.00000028,-0
 .00026815,-0.00010245,0.00029198,0.00045730,0.00018895,0.00001532,-0.0
 0001574,0.00000411,-0.00000410,-0.13770241,-0.01968612,0.15718712,0.00
 000408,0.00000471,-0.00000184,0.00162822,0.00150098,-0.00360772,-0.004
 76890,0.00787358,-0.01607089,-0.01161010,-0.00585008,-0.02194665,-0.00
 003506,-0.00001287,-0.00000847,0.00001052,-0.00000544,-0.00000413,-0.0
 0033608,0.00005650,0.00012444,-0.00000142,0.00000113,0.00000144,0.0006
 9642,-0.00051356,-0.00116684,0.00009439,-0.00000839,0.00006609,-0.0747
 3250,0.02497545,-0.05894003,-0.00009461,-0.00011100,0.00021406,-0.0000
 0629,-0.00000596,-0.00000376,-0.00000316,0.00000108,-0.00000062,-0.000
 00172,0.00000046,0.00000052,0.00014575,0.00003021,0.00056551,0.0000649
 7,-0.00008444,0.00022069,-0.00101729,0.00295876,0.00010092,0.00057969,
 -0.00018708,0.00028888,-0.00000167,0.00000067,0.00000081,-0.00000333,-
 0.00000056,-0.00000030,0.00000059,-0.00000010,0.00000002,-0.00000129,0
 .00000035,-0.00000091,-0.00009879,-0.00006447,0.00025579,0.00017489,-0
 .00003354,0.00017133,-0.00003032,0.00000504,-0.00000037,0.00965511,-0.
 00752409,0.02182098,0.07963787,-0.00000128,0.00000180,-0.00000207,0.00
 254518,0.00187641,-0.00366582,0.00899807,-0.01001223,0.02668109,-0.018
 26461,-0.00025970,-0.03047774,0.00000851,-0.00000301,-0.00000106,0.000
 00300,-0.00000052,0.00000237,-0.00009558,0.00022237,0.00006602,0.00000
 052,0.00000038,-0.00000040,-0.00121558,0.00101243,0.00047684,0.0000006
 9,0.00002801,0.00005415,0.02539766,-0.07659592,0.07874962,-0.00018230,
 -0.00048651,0.00020179,-0.00000486,-0.00000028,0.00000432,-0.00000136,
 0.00000078,-0.00000061,0.00000072,-0.00000035,-0.00000031,0.00079394,0
 .00001081,0.00087166,0.00014370,-0.00006257,0.00007549,0.00403316,-0.0
 0423961,-0.00089476,-0.00069810,0.00099472,-0.00024262,0.00000014,0.00
 000029,-0.00000044,-0.00000002,0.00000008,-0.00000008,0.00000018,-0.00
 000029,-0.00000003,-0.00000003,-0.00000010,-0.00000007,0.00017879,0.00
 031154,-0.00055525,-0.00024767,-0.00002132,-0.00029150,-0.00001803,0.0
 0000384,-0.00000212,0.00159544,-0.00022554,0.00303428,-0.02295248,0.08
 751672,0.00000740,0.00000466,-0.00000401,0.00282749,0.00101134,0.00100
 096,0.00202827,-0.00003859,0.00234309,-0.01308304,-0.00809757,-0.01754
 193,-0.00006595,-0.00002152,-0.00001328,0.00002065,-0.00000878,-0.0000
 0740,-0.00049038,0.00007977,0.00007566,-0.00000512,0.00000244,0.000002
 66,-0.00006001,-0.00048496,0.00084518,0.00017365,-0.00001357,0.0000838
 3,-0.06310068,0.07567572,-0.25030196,0.00026308,-0.00037651,0.00004066
 ,-0.00003918,0.00000027,-0.00000870,-0.00000642,0.00000291,-0.00000172
 ,-0.00000416,0.00000061,0.00000152,-0.00107100,-0.00023787,0.00071194,
 -0.00005530,-0.00025853,0.00043293,0.00069050,-0.00051307,0.00111979,-
 0.00039816,0.00072997,0.00022058,-0.00000274,0.00000102,0.00000187,-0.
 00000650,-0.00000061,-0.00000117,0.00000067,-0.00000032,-0.00000025,-0
 .00000284,-0.00000011,-0.00000159,-0.00048988,-0.00011120,0.00006286,-
 0.00007785,0.00004232,0.00015117,-0.00004518,0.00000731,0.00000283,-0.
 00491072,0.00665310,-0.01498666,0.07788409,-0.07412369,0.27591128,0.00
 005722,-0.00017753,0.00011722,-0.00748605,0.00599785,-0.01879765,0.000
 66364,0.00044116,-0.00051705,0.00150674,-0.00059048,0.00000503,0.00009
 558,-0.00011372,-0.00026643,-0.00001776,-0.00001176,-0.00004802,0.0012
 4542,-0.01141458,0.03408765,-0.00002037,-0.00001421,0.00002427,-0.0041
 1050,0.00375714,-0.01363497,0.00315667,-0.00057712,0.00107437,0.000018
 56,-0.00008851,0.00004193,-0.08474097,0.02292941,-0.09069213,-0.002860
 01,0.00119511,-0.00047415,0.00002601,-0.00000445,0.00000702,-0.0000038
 9,-0.00001613,0.00006086,-0.00211723,0.00295762,0.00062478,0.00097667,
 -0.00053685,0.00061806,-0.00012170,-0.00014886,0.00020062,0.00005388,-
 0.00005571,0.00007442,0.00001694,0.00000446,0.00000358,-0.00001027,0.0
 0000120,0.00000281,0.00000363,-0.00000009,0.00000051,0.00000459,0.0000
 0516,-0.00000449,-0.00103983,-0.00252693,-0.00113673,0.00053579,-0.000
 15638,0.00062615,-0.00024615,0.00028786,-0.00026506,-0.00006486,0.0000
 3544,-0.00001130,0.00004283,-0.00001004,0.00001259,0.09886761,0.000117
 18,0.00007626,-0.00019505,0.01191509,-0.00942682,0.02517625,0.00105831
 ,0.00094838,-0.00023810,-0.00189186,0.00174903,-0.00091413,-0.00010384
 ,-0.00016000,-0.00008122,0.00010455,-0.00001427,-0.00006180,-0.0011975
 9,-0.00343944,0.01213847,-0.00003253,0.00002739,0.00002180,-0.01047565
 ,0.00581503,-0.02495264,0.00182820,0.00028001,-0.00013543,-0.00008131,
 -0.00030566,-0.00014596,0.01879445,-0.06304219,0.05368531,0.00140066,-
 0.00024383,-0.00027715,-0.00007492,0.00002425,-0.00000710,0.00001003,-
 0.00000650,-0.00000195,0.00333360,-0.00327737,-0.00011903,-0.00085260,
 0.00130227,0.00008769,0.00003575,-0.00008271,0.00043626,0.00021626,-0.
 00015789,0.00020231,0.00000345,0.00000225,0.00000456,-0.00002413,-0.00
 000376,-0.00000584,0.00000058,-0.00000191,-0.00000864,-0.00001708,-0.0
 0000748,-0.00001355,-0.00305015,-0.00352828,-0.00245356,0.00096271,0.0
 0114021,0.00061359,-0.00013652,-0.00001027,0.00003210,-0.00003033,0.00
 009637,0.00000978,-0.00005869,-0.00006908,0.00007643,-0.02377810,0.072
 74889,-0.00001743,-0.00007750,0.00073462,0.00094944,-0.00079365,0.0032
 9347,0.00000897,0.00009421,0.00015514,-0.00112342,-0.00057180,0.001026
 02,0.00099915,0.00004497,0.00014110,-0.00009393,0.00015470,-0.00004400
 ,0.00624036,0.00824651,-0.02196831,0.00000372,0.00005710,0.00001438,-0
 .00644829,0.00233509,-0.01207002,-0.00393350,0.00165711,-0.00046198,0.
 00003858,-0.00003642,0.00009995,-0.08322911,0.05329488,-0.26556436,-0.
 00118440,0.00005596,-0.00080146,0.00004529,0.00000217,-0.00001624,-0.0
 0028175,0.00004778,0.00002920,0.00131189,-0.00069027,0.00058346,-0.000
 17730,0.00039682,0.00063220,-0.00028547,0.00006155,0.00038364,-0.00008
 321,-0.00017309,0.00030831,0.00003364,-0.00000095,0.00000572,0.0000579
 5,-0.00001630,0.00001243,0.00001001,-0.00001248,-0.00000180,-0.0000205
 1,-0.00005152,-0.00000596,-0.00108899,-0.00176474,-0.00014246,0.000466
 08,0.00027725,0.00057106,0.00035471,-0.00024815,0.00012131,-0.00001718
 ,0.00004088,0.00000871,0.00003403,0.00004230,-0.00014818,0.08856393,-0
 .06290792,0.29188296,-0.01368175,0.00616722,0.03035803,0.00004365,0.00
 005923,-0.00019378,0.00000792,-0.00000731,0.00002836,0.00005711,-0.000
 03393,-0.00001185,0.00006762,-0.00026822,0.00086184,-0.00038811,0.0000
 5510,-0.00005413,0.00027275,-0.00051874,0.00077690,0.00173441,0.000326
 93,0.00082022,0.00012939,-0.00012383,0.00019793,0.00078679,-0.00199673
 ,-0.00565340,0.00000580,0.00001204,-0.00000555,-0.00145174,0.00083679,
 0.00001700,-0.07389440,0.01326936,0.08195142,0.00160992,-0.00014776,-0
 .00037953,-0.00598209,0.00103180,-0.00036495,-0.00002705,0.00003972,0.
 00000088,0.00001081,-0.00000675,-0.00000082,0.00000286,0.00000048,0.00
 000449,0.00001200,0.00000296,-0.00000571,-0.00001993,0.00000509,-0.000
 06179,0.00003628,-0.00008088,0.00004430,0.00001831,-0.00030066,-0.0004
 3197,0.00020169,0.00020721,-0.00029965,0.00004978,0.00001131,-0.000005
 67,0.00005948,-0.00008500,0.00005653,0.00051397,0.00113041,-0.00035117
 ,0.00000565,-0.00000626,-0.00000148,0.00000258,-0.00000025,-0.00000014
 ,-0.00467506,0.00212409,-0.00132178,0.08905472,0.00369446,-0.00242720,
 -0.00774990,-0.00005757,0.00009011,0.00001520,-0.00001056,0.00001853,0
 .00002535,0.00004100,-0.00003219,0.00000094,0.00093988,0.00275551,-0.0
 0103758,0.00013047,-0.00001870,0.00004284,-0.00018703,0.00096002,-0.00
 177718,-0.00083688,0.00016863,0.00050445,-0.00003345,-0.00001909,-0.00
 013062,-0.01162403,0.00432096,0.02811344,-0.00002053,-0.00000383,-0.00
 000798,0.00090752,-0.00013056,-0.00055106,0.01330292,-0.05788340,-0.04
 462951,-0.00038095,0.00012216,-0.00019058,0.00195174,0.00064394,0.0004
 3582,-0.00000160,-0.00002638,0.00002088,-0.00000314,-0.00000925,-0.000
 00610,-0.00000398,0.00000153,0.00000615,0.00001566,0.00000129,-0.00000
 156,0.00004390,-0.00001933,-0.00007600,-0.00001493,0.00002347,-0.00004
 114,-0.00007419,0.00030218,0.00018000,-0.00000893,-0.00003296,0.000147
 85,-0.00003967,0.00000543,0.00000779,0.00004508,0.00001332,0.00003668,
 0.00066381,-0.00406552,0.00294835,0.00000303,0.00000005,0.00000294,0.0
 0000166,-0.00000129,0.00000287,0.00262727,-0.00033305,0.00057514,-0.02
 034889,0.05879142,-0.00062558,0.00000865,0.00244432,-0.00010651,-0.000
 02232,0.00066612,-0.00004007,-0.00000792,0.00001434,0.00004242,0.00005
 746,-0.00002492,-0.00031426,-0.00076973,0.00262821,-0.00027573,0.00000
 109,0.00019158,-0.00029701,0.00007640,0.00080951,-0.00012949,0.0003371
 8,0.00045418,-0.00014348,-0.00023508,0.00009903,0.00716841,-0.00459553
 ,-0.02099121,-0.00005902,-0.00001832,-0.00003374,0.00092149,-0.0003201
 7,-0.00115647,0.08206330,-0.04192638,-0.27767332,0.00040757,-0.0001592
 1,0.00052560,-0.00086680,-0.00000704,0.00105665,0.00018605,-0.00019281
 ,-0.00001339,-0.00000527,-0.00002241,-0.00001692,-0.00000861,-0.000004
 30,-0.00000484,0.00001835,0.00001089,-0.00000391,-0.00007758,-0.000115
 42,-0.00018687,0.00003485,0.00000787,-0.00000349,0.00018278,0.00037209
 ,-0.00004806,0.00006682,0.00008848,0.00017231,0.00004424,0.00011222,0.
 00008667,-0.00004427,0.00008221,-0.00003879,-0.00052890,0.00349685,-0.
 00102629,0.00001136,0.00000161,0.00000157,0.00000190,-0.00000244,0.000
 01076,-0.00001806,-0.00008570,0.00134821,-0.09102667,0.04512678,0.3003
 7081,-0.01624493,-0.02553481,-0.01228821,-0.00014499,-0.00000393,0.000
 10253,-0.00000401,0.00001022,-0.00000486,0.00006572,0.00001010,-0.0000
 2937,0.00165938,0.00218525,-0.00073266,-0.00026276,0.00063977,-0.00036
 582,0.00063961,-0.00054430,0.00014284,-0.00592857,0.00342196,0.0006378
 7,-0.00146111,0.00005125,-0.00042793,0.00050678,0.00403143,0.00282549,
 -0.00003645,0.00002446,-0.00000707,0.00017448,-0.00017611,0.00001504,-
 0.11127189,-0.10549009,-0.05254076,0.00158960,0.00022369,-0.00010515,0
 .00146107,-0.00010445,0.00048069,0.00004047,-0.00003344,0.00000063,0.0
 0001803,-0.00003038,-0.00000930,0.00001245,-0.00000607,0.00000456,0.00
 001918,0.00001279,-0.00000877,0.00007222,-0.00002915,0.00011951,0.0001
 5279,-0.00013875,0.00005669,0.00012699,0.00004361,-0.00014109,-0.00100
 988,-0.00172703,-0.00050109,-0.00003532,0.00001449,-0.00003040,-0.0023
 2267,0.00026763,-0.00078009,0.00003887,-0.00023992,0.00004208,0.000006
 05,-0.00000120,0.00000208,0.00000462,-0.00000751,0.00000684,0.00024286
 ,-0.00009962,0.00018851,0.00543663,0.00927792,0.00341780,0.12645479,0.
 00441592,0.00823868,0.00399028,0.00006585,0.00004278,-0.00004751,-0.00
 003904,0.00024232,-0.00012622,0.00001471,0.00000035,0.00000378,-0.0021
 1870,-0.00762199,0.00358858,0.00208253,-0.00021335,0.00001943,0.000280
 98,0.00168063,-0.00023912,0.00215198,0.00048538,0.00005851,0.00004966,
 -0.00047334,-0.00011105,-0.01359714,-0.01738059,-0.01435248,-0.0000874
 8,-0.00008333,0.00007772,0.00042228,-0.00078828,-0.00013565,-0.1045292
 0,-0.21093720,-0.08075193,-0.00074034,0.00049581,0.00003900,-0.0005545
 2,0.00028836,-0.00002699,-0.00001921,0.00001843,0.00001407,-0.00001425
 ,0.00002810,0.00000619,0.00000377,-0.00000910,0.00002937,-0.00002030,-
 0.00001094,0.00000030,-0.00024343,0.00005005,0.00002241,-0.00028669,0.
 00006563,-0.00006419,-0.00001545,-0.00005671,-0.00001203,0.00046869,0.
 00041556,0.00005952,-0.00014437,0.00014264,-0.00004980,-0.00036055,0.0
 0070187,0.00005108,0.00026149,0.00089756,0.00038097,-0.00002878,0.0000
 4520,0.00001447,0.00000219,-0.00000185,-0.00000384,-0.00001823,-0.0000
 9984,-0.00003963,-0.00135456,-0.00321581,-0.00129498,0.11395219,0.2270
 5298,0.00063487,-0.00015917,-0.00118179,-0.00000257,-0.00001621,-0.000
 03202,-0.00004913,0.00011853,-0.00006791,-0.00000361,0.00002385,0.0000
 0107,0.00058728,0.00585244,-0.00063974,-0.00103701,0.00002814,-0.00014
 427,0.00035544,-0.00123191,0.00034823,-0.00062692,0.00025419,0.0009938
 1,-0.00047972,-0.00021897,0.00007515,0.01066466,0.01234228,0.00845739,
 -0.00004050,-0.00003876,0.00003450,-0.00006833,-0.00002971,0.00027500,
 -0.05377349,-0.08333259,-0.09315844,0.00001317,-0.00015907,-0.00014326
 ,-0.00018265,0.00039528,0.00046212,-0.00001164,0.00001557,0.00000028,-
 0.00000059,0.00000701,0.00000330,0.00000921,-0.00000819,0.00000103,-0.
 00001246,-0.00000433,0.00000136,0.00008767,-0.00004597,-0.00002580,0.0
 0014325,-0.00007905,0.00001158,0.00015842,0.00037395,0.00020621,-0.000
 15492,-0.00036382,0.00022524,-0.00001124,0.00004066,-0.00002560,-0.000
 97624,0.00027890,-0.00002173,0.00008671,-0.00109020,0.00035518,-0.0000
 1248,0.00002037,0.00000644,0.00000103,0.00000108,-0.00000270,-0.000279
 77,0.00012022,-0.00012714,-0.01494785,-0.02199427,-0.00965765,0.059929
 41,0.08889974,0.09377015\\0.00000043,0.00000261,-0.00000330,-0.0000001
 1,-0.00000099,0.00000245,0.00000597,-0.00000356,0.00000507,-0.00000499
 ,-0.00000651,0.00000020,-0.00051699,-0.00061614,0.00189585,-0.00001240
 ,0.00000598,-0.00000029,-0.00072516,-0.00287712,-0.00166255,0.00000006
 ,0.00000118,0.00000209,-0.00000383,-0.00000403,0.00000181,0.00087238,0
 .00171188,-0.00166659,0.00000308,0.00000238,0.00000562,0.00037985,0.00
 178075,0.00143106,-0.00000030,0.00000390,0.00000056,0.00000233,0.00000
 255,-0.00000272,0.00000123,0.00000216,-0.00000203,-0.00000306,-0.00000
 193,0.00000130,-0.00000212,-0.00000143,-0.00000017,0.00000201,-0.00000
 270,0.00000070,-0.00000052,-0.00000124,0.00000200,-0.00000006,0.000002
 05,-0.00000345,0.00000046,0.00000239,-0.00000335,0.00000129,0.00000249
 ,-0.00000320,0.00000042,0.00000518,-0.00000461,-0.00000031,-0.00000201
 ,0.00000148,0.00000066,-0.00000085,0.00000029,-0.00000143,0.00000025,-
 0.00000166,0.00000019,-0.00000370,0.00000263,-0.00000172,-0.00000397,0
 .00000170,-0.00000005,-0.00000103,0.00000105,0.00000159,-0.00000062,-0
 .00000047,0.00000106,0.00000206,-0.00000145\\\@


 REFRAIN FROM ILLUSIONS, INSIST ON WORK AND NOT WORDS,
 PATIENTLY SEEK DIVINE AND SCIENTIFIC TRUTH.
 LAST WORDS OF MARIA MENDELEEVA TO HER SON DMITRI, C. 1850
 Job cpu time:       0 days 12 hours 15 minutes 22.9 seconds.
 Elapsed time:       0 days  1 hours  1 minutes 32.7 seconds.
 File lengths (MBytes):  RWF=    721 Int=      0 D2E=      0 Chk=     34 Scr=      1
 Normal termination of Gaussian 16 at Sun Mar 10 09:18:02 2019.
