 Entering Gaussian System, Link 0=g16
 Initial command:
 /sw/Projects/G16/g16/l1.exe "/nvme/pbs/tmpdir/pbs.74289[6].flm1/Gau-3732.inp" -scrdir="/nvme/pbs/tmpdir/pbs.74289[6].flm1/"
 Entering Link 1 = /sw/Projects/G16/g16/l1.exe PID=      3733.
  
 Copyright (c) 1988-2017, Gaussian, Inc.  All Rights Reserved.
  
 This is part of the Gaussian(R) 16 program.  It is based on
 the Gaussian(R) 09 system (copyright 2009, Gaussian, Inc.),
 the Gaussian(R) 03 system (copyright 2003, Gaussian, Inc.),
 the Gaussian(R) 98 system (copyright 1998, Gaussian, Inc.),
 the Gaussian(R) 94 system (copyright 1995, Gaussian, Inc.),
 the Gaussian 92(TM) system (copyright 1992, Gaussian, Inc.),
 the Gaussian 90(TM) system (copyright 1990, Gaussian, Inc.),
 the Gaussian 88(TM) system (copyright 1988, Gaussian, Inc.),
 the Gaussian 86(TM) system (copyright 1986, Carnegie Mellon
 University), and the Gaussian 82(TM) system (copyright 1983,
 Carnegie Mellon University). Gaussian is a federally registered
 trademark of Gaussian, Inc.
  
 This software contains proprietary and confidential information,
 including trade secrets, belonging to Gaussian, Inc.
  
 This software is provided under written license and may be
 used, copied, transmitted, or stored only in accord with that
 written license.
  
 The following legend is applicable only to US Government
 contracts under FAR:
  
                    RESTRICTED RIGHTS LEGEND
  
 Use, reproduction and disclosure by the US Government is
 subject to restrictions as set forth in subparagraphs (a)
 and (c) of the Commercial Computer Software - Restricted
 Rights clause in FAR 52.227-19.
  
 Gaussian, Inc.
 340 Quinnipiac St., Bldg. 40, Wallingford CT 06492
  
  
 ---------------------------------------------------------------
 Warning -- This program may not be used in any manner that
 competes with the business of Gaussian, Inc. or will provide
 assistance to any competitor of Gaussian, Inc.  The licensee
 of this program is prohibited from giving any competitor of
 Gaussian, Inc. access to this program.  By using this program,
 the user acknowledges that Gaussian, Inc. is engaged in the
 business of creating and licensing software in the field of
 computational chemistry and represents and warrants to the
 licensee that it is not a competitor of Gaussian, Inc. and that
 it will not use this program in any manner prohibited above.
 ---------------------------------------------------------------
  

 Cite this work as:
 Gaussian 16, Revision B.01,
 M. J. Frisch, G. W. Trucks, H. B. Schlegel, G. E. Scuseria, 
 M. A. Robb, J. R. Cheeseman, G. Scalmani, V. Barone, 
 G. A. Petersson, H. Nakatsuji, X. Li, M. Caricato, A. V. Marenich, 
 J. Bloino, B. G. Janesko, R. Gomperts, B. Mennucci, H. P. Hratchian, 
 J. V. Ortiz, A. F. Izmaylov, J. L. Sonnenberg, D. Williams-Young, 
 F. Ding, F. Lipparini, F. Egidi, J. Goings, B. Peng, A. Petrone, 
 T. Henderson, D. Ranasinghe, V. G. Zakrzewski, J. Gao, N. Rega, 
 G. Zheng, W. Liang, M. Hada, M. Ehara, K. Toyota, R. Fukuda, 
 J. Hasegawa, M. Ishida, T. Nakajima, Y. Honda, O. Kitao, H. Nakai, 
 T. Vreven, K. Throssell, J. A. Montgomery, Jr., J. E. Peralta, 
 F. Ogliaro, M. J. Bearpark, J. J. Heyd, E. N. Brothers, K. N. Kudin, 
 V. N. Staroverov, T. A. Keith, R. Kobayashi, J. Normand, 
 K. Raghavachari, A. P. Rendell, J. C. Burant, S. S. Iyengar, 
 J. Tomasi, M. Cossi, J. M. Millam, M. Klene, C. Adamo, R. Cammi, 
 J. W. Ochterski, R. L. Martin, K. Morokuma, O. Farkas, 
 J. B. Foresman, and D. J. Fox, Gaussian, Inc., Wallingford CT, 2016.
 
 ******************************************
 Gaussian 16:  ES64L-G16RevB.01 20-Dec-2017
                10-Mar-2019 
 ******************************************
 %mem=20gb
 %nproc=12
 Will use up to   12 processors via shared memory.
 %chk=4c1_b1_4e_4c1_PHI.inp_extract_6.chk
 ----------------------------------------------------------------------
 #M062X/6-311++G(2d,2p) opt=ModRedundant freq=noraman SCRF=(SMD,solvent
 =water)
 ----------------------------------------------------------------------
 1/18=120,19=15,26=3,38=1/1,3;
 2/9=110,12=2,17=6,18=5,40=1/2;
 3/5=4,6=6,7=1212,11=2,25=1,30=1,70=32201,71=1,72=1,74=-55/1,2,3;
 4//1;
 5/5=2,38=5,53=1/2;
 6/7=2,8=2,9=2,10=2,28=1/1;
 7//1,2,3,16;
 1/18=20,19=15,26=3/3(2);
 2/9=110/2;
 99//99;
 2/9=110/2;
 3/5=4,6=6,7=1212,11=2,25=1,30=1,70=32205,71=1,72=1,74=-55/1,2,3;
 4/5=5,16=3,69=1/1;
 5/5=2,38=5,53=1/2;
 7//1,2,3,16;
 1/18=20,19=15,26=3/3(-5);
 2/9=110/2;
 6/7=2,8=2,9=2,10=2,19=2,28=1/1;
 99/9=1/99;
 -------------------------------
 4c1_b1_4e_4c1_PHI.inp_extract_6
 -------------------------------
 Symbolic Z-matrix:
 Charge =  0 Multiplicity = 1
 C                    -3.55651  -0.36489   0.81397 
 C                     2.31588  -1.2101   -0.4144 
 C                     2.70367   1.47707   0.50147 
 O                     3.48034  -0.46939  -0.70595 
 O                    -1.38519   0.43531  -0.8627 
 C                    -2.70878   0.79539  -1.23196 
 O                     0.02546  -1.13566   0.05741 
 C                    -3.60105   0.92389  -0.00812 
 C                     1.3795    0.76571   0.79408 
 C                    -1.31224  -0.79535  -0.20093 
 C                     3.8199    0.46505   0.30299 
 C                     1.11073  -0.28767  -0.27575 
 C                    -2.10434  -0.75928   1.09448 
 H                    -4.098    -0.24405   1.74668 
 H                    -4.04889  -1.16298   0.26188 
 H                     2.46007  -1.77562   0.5033 
 H                     2.17103  -1.90443  -1.2305 
 H                     2.6099    2.08333  -0.39617 
 H                     2.96383   2.14436   1.31776 
 H                    -3.09966   0.04592  -1.91568 
 H                    -2.62204   1.73127  -1.76535 
 H                    -3.25854   1.7609    0.59538 
 H                    -4.61467   1.14592  -0.32944 
 H                     1.43625   0.2692    1.76043 
 H                     0.5654    1.4799    0.84134 
 H                    -1.70958  -1.56137  -0.86097 
 H                     4.73486   0.94213  -0.0206 
 H                     4.02062  -0.07068   1.22817 
 H                     0.93264   0.18717  -1.23019 
 H                    -1.63854  -0.03777   1.76034 
 H                    -2.05017  -1.73425   1.56857 
 
 The following ModRedundant input section has been read:
 D      12       7      10       5 F                                           
 

 GradGradGradGradGradGradGradGradGradGradGradGradGradGradGradGradGradGrad
 Berny optimization.
 Initialization pass.
                           ----------------------------
                           !    Initial Parameters    !
                           ! (Angstroms and Degrees)  !
 --------------------------                            --------------------------
 ! Name  Definition              Value          Derivative Info.                !
 --------------------------------------------------------------------------------
 ! R1    R(1,8)                  1.5293         estimate D2E/DX2                !
 ! R2    R(1,13)                 1.5307         estimate D2E/DX2                !
 ! R3    R(1,14)                 1.0852         estimate D2E/DX2                !
 ! R4    R(1,15)                 1.0882         estimate D2E/DX2                !
 ! R5    R(2,4)                  1.4105         estimate D2E/DX2                !
 ! R6    R(2,12)                 1.524          estimate D2E/DX2                !
 ! R7    R(2,16)                 1.0876         estimate D2E/DX2                !
 ! R8    R(2,17)                 1.0812         estimate D2E/DX2                !
 ! R9    R(3,9)                  1.5314         estimate D2E/DX2                !
 ! R10   R(3,11)                 1.5197         estimate D2E/DX2                !
 ! R11   R(3,18)                 1.0872         estimate D2E/DX2                !
 ! R12   R(3,19)                 1.0859         estimate D2E/DX2                !
 ! R13   R(4,11)                 1.4165         estimate D2E/DX2                !
 ! R14   R(5,6)                  1.4205         estimate D2E/DX2                !
 ! R15   R(5,10)                 1.3992         estimate D2E/DX2                !
 ! R16   R(6,8)                  1.52           estimate D2E/DX2                !
 ! R17   R(6,20)                 1.0872         estimate D2E/DX2                !
 ! R18   R(6,21)                 1.0807         estimate D2E/DX2                !
 ! R19   R(7,10)                 1.4043         estimate D2E/DX2                !
 ! R20   R(7,12)                 1.417          estimate D2E/DX2                !
 ! R21   R(8,22)                 1.0873         estimate D2E/DX2                !
 ! R22   R(8,23)                 1.0863         estimate D2E/DX2                !
 ! R23   R(9,12)                 1.5252         estimate D2E/DX2                !
 ! R24   R(9,24)                 1.0879         estimate D2E/DX2                !
 ! R25   R(9,25)                 1.084          estimate D2E/DX2                !
 ! R26   R(10,13)                1.5188         estimate D2E/DX2                !
 ! R27   R(10,26)                1.0864         estimate D2E/DX2                !
 ! R28   R(11,27)                1.0814         estimate D2E/DX2                !
 ! R29   R(11,28)                1.0878         estimate D2E/DX2                !
 ! R30   R(12,29)                1.0808         estimate D2E/DX2                !
 ! R31   R(13,30)                1.0867         estimate D2E/DX2                !
 ! R32   R(13,31)                1.0855         estimate D2E/DX2                !
 ! A1    A(8,1,13)             110.0759         estimate D2E/DX2                !
 ! A2    A(8,1,14)             110.7099         estimate D2E/DX2                !
 ! A3    A(8,1,15)             109.3996         estimate D2E/DX2                !
 ! A4    A(13,1,14)            110.1543         estimate D2E/DX2                !
 ! A5    A(13,1,15)            109.4674         estimate D2E/DX2                !
 ! A6    A(14,1,15)            106.9735         estimate D2E/DX2                !
 ! A7    A(4,2,12)             110.7192         estimate D2E/DX2                !
 ! A8    A(4,2,16)             109.7558         estimate D2E/DX2                !
 ! A9    A(4,2,17)             106.9658         estimate D2E/DX2                !
 ! A10   A(12,2,16)            110.0486         estimate D2E/DX2                !
 ! A11   A(12,2,17)            110.5745         estimate D2E/DX2                !
 ! A12   A(16,2,17)            108.7076         estimate D2E/DX2                !
 ! A13   A(9,3,11)             110.5322         estimate D2E/DX2                !
 ! A14   A(9,3,18)             110.0112         estimate D2E/DX2                !
 ! A15   A(9,3,19)             110.4242         estimate D2E/DX2                !
 ! A16   A(11,3,18)            109.0773         estimate D2E/DX2                !
 ! A17   A(11,3,19)            109.354          estimate D2E/DX2                !
 ! A18   A(18,3,19)            107.3749         estimate D2E/DX2                !
 ! A19   A(2,4,11)             113.3969         estimate D2E/DX2                !
 ! A20   A(6,5,10)             113.233          estimate D2E/DX2                !
 ! A21   A(5,6,8)              111.0443         estimate D2E/DX2                !
 ! A22   A(5,6,20)             108.8885         estimate D2E/DX2                !
 ! A23   A(5,6,21)             105.8447         estimate D2E/DX2                !
 ! A24   A(8,6,20)             110.7066         estimate D2E/DX2                !
 ! A25   A(8,6,21)             111.796          estimate D2E/DX2                !
 ! A26   A(20,6,21)            108.3879         estimate D2E/DX2                !
 ! A27   A(10,7,12)            122.7726         estimate D2E/DX2                !
 ! A28   A(1,8,6)              110.1502         estimate D2E/DX2                !
 ! A29   A(1,8,22)             109.9506         estimate D2E/DX2                !
 ! A30   A(1,8,23)             111.004          estimate D2E/DX2                !
 ! A31   A(6,8,22)             109.0914         estimate D2E/DX2                !
 ! A32   A(6,8,23)             109.0791         estimate D2E/DX2                !
 ! A33   A(22,8,23)            107.5047         estimate D2E/DX2                !
 ! A34   A(3,9,12)             109.826          estimate D2E/DX2                !
 ! A35   A(3,9,24)             109.6709         estimate D2E/DX2                !
 ! A36   A(3,9,25)             110.59           estimate D2E/DX2                !
 ! A37   A(12,9,24)            108.4835         estimate D2E/DX2                !
 ! A38   A(12,9,25)            110.6872         estimate D2E/DX2                !
 ! A39   A(24,9,25)            107.5258         estimate D2E/DX2                !
 ! A40   A(5,10,7)             110.476          estimate D2E/DX2                !
 ! A41   A(5,10,13)            110.8127         estimate D2E/DX2                !
 ! A42   A(5,10,26)            108.2846         estimate D2E/DX2                !
 ! A43   A(7,10,13)            110.2218         estimate D2E/DX2                !
 ! A44   A(7,10,26)            106.8154         estimate D2E/DX2                !
 ! A45   A(13,10,26)           110.1315         estimate D2E/DX2                !
 ! A46   A(3,11,4)             110.8704         estimate D2E/DX2                !
 ! A47   A(3,11,27)            111.5145         estimate D2E/DX2                !
 ! A48   A(3,11,28)            110.6354         estimate D2E/DX2                !
 ! A49   A(4,11,27)            106.303          estimate D2E/DX2                !
 ! A50   A(4,11,28)            108.9744         estimate D2E/DX2                !
 ! A51   A(27,11,28)           108.4005         estimate D2E/DX2                !
 ! A52   A(2,12,7)             105.3566         estimate D2E/DX2                !
 ! A53   A(2,12,9)             110.0292         estimate D2E/DX2                !
 ! A54   A(2,12,29)            108.4138         estimate D2E/DX2                !
 ! A55   A(7,12,9)             112.5415         estimate D2E/DX2                !
 ! A56   A(7,12,29)            110.1413         estimate D2E/DX2                !
 ! A57   A(9,12,29)            110.1832         estimate D2E/DX2                !
 ! A58   A(1,13,10)            110.1568         estimate D2E/DX2                !
 ! A59   A(1,13,30)            110.3568         estimate D2E/DX2                !
 ! A60   A(1,13,31)            111.0267         estimate D2E/DX2                !
 ! A61   A(10,13,30)           108.351          estimate D2E/DX2                !
 ! A62   A(10,13,31)           108.9749         estimate D2E/DX2                !
 ! A63   A(30,13,31)           107.8992         estimate D2E/DX2                !
 ! D1    D(13,1,8,6)            51.4603         estimate D2E/DX2                !
 ! D2    D(13,1,8,22)          -68.7942         estimate D2E/DX2                !
 ! D3    D(13,1,8,23)          172.381          estimate D2E/DX2                !
 ! D4    D(14,1,8,6)           173.4897         estimate D2E/DX2                !
 ! D5    D(14,1,8,22)           53.2352         estimate D2E/DX2                !
 ! D6    D(14,1,8,23)          -65.5896         estimate D2E/DX2                !
 ! D7    D(15,1,8,6)           -68.8637         estimate D2E/DX2                !
 ! D8    D(15,1,8,22)          170.8818         estimate D2E/DX2                !
 ! D9    D(15,1,8,23)           52.0571         estimate D2E/DX2                !
 ! D10   D(8,1,13,10)          -52.1043         estimate D2E/DX2                !
 ! D11   D(8,1,13,30)           67.4941         estimate D2E/DX2                !
 ! D12   D(8,1,13,31)         -172.9133         estimate D2E/DX2                !
 ! D13   D(14,1,13,10)        -174.4624         estimate D2E/DX2                !
 ! D14   D(14,1,13,30)         -54.8641         estimate D2E/DX2                !
 ! D15   D(14,1,13,31)          64.7285         estimate D2E/DX2                !
 ! D16   D(15,1,13,10)          68.1787         estimate D2E/DX2                !
 ! D17   D(15,1,13,30)        -172.2229         estimate D2E/DX2                !
 ! D18   D(15,1,13,31)         -52.6303         estimate D2E/DX2                !
 ! D19   D(12,2,4,11)           61.0871         estimate D2E/DX2                !
 ! D20   D(16,2,4,11)          -60.6009         estimate D2E/DX2                !
 ! D21   D(17,2,4,11)         -178.3677         estimate D2E/DX2                !
 ! D22   D(4,2,12,7)          -178.104          estimate D2E/DX2                !
 ! D23   D(4,2,12,9)           -56.5532         estimate D2E/DX2                !
 ! D24   D(4,2,12,29)           64.0053         estimate D2E/DX2                !
 ! D25   D(16,2,12,7)          -56.5883         estimate D2E/DX2                !
 ! D26   D(16,2,12,9)           64.9625         estimate D2E/DX2                !
 ! D27   D(16,2,12,29)        -174.479          estimate D2E/DX2                !
 ! D28   D(17,2,12,7)           63.5225         estimate D2E/DX2                !
 ! D29   D(17,2,12,9)         -174.9267         estimate D2E/DX2                !
 ! D30   D(17,2,12,29)         -54.3682         estimate D2E/DX2                !
 ! D31   D(11,3,9,12)          -52.1101         estimate D2E/DX2                !
 ! D32   D(11,3,9,24)           67.0188         estimate D2E/DX2                !
 ! D33   D(11,3,9,25)         -174.5622         estimate D2E/DX2                !
 ! D34   D(18,3,9,12)           68.4099         estimate D2E/DX2                !
 ! D35   D(18,3,9,24)         -172.4612         estimate D2E/DX2                !
 ! D36   D(18,3,9,25)          -54.0421         estimate D2E/DX2                !
 ! D37   D(19,3,9,12)         -173.2473         estimate D2E/DX2                !
 ! D38   D(19,3,9,24)          -54.1184         estimate D2E/DX2                !
 ! D39   D(19,3,9,25)           64.3007         estimate D2E/DX2                !
 ! D40   D(9,3,11,4)            54.9454         estimate D2E/DX2                !
 ! D41   D(9,3,11,27)          173.1893         estimate D2E/DX2                !
 ! D42   D(9,3,11,28)          -66.0797         estimate D2E/DX2                !
 ! D43   D(18,3,11,4)          -66.1308         estimate D2E/DX2                !
 ! D44   D(18,3,11,27)          52.1131         estimate D2E/DX2                !
 ! D45   D(18,3,11,28)         172.8442         estimate D2E/DX2                !
 ! D46   D(19,3,11,4)          176.7155         estimate D2E/DX2                !
 ! D47   D(19,3,11,27)         -65.0405         estimate D2E/DX2                !
 ! D48   D(19,3,11,28)          55.6905         estimate D2E/DX2                !
 ! D49   D(2,4,11,3)           -60.2813         estimate D2E/DX2                !
 ! D50   D(2,4,11,27)          178.3567         estimate D2E/DX2                !
 ! D51   D(2,4,11,28)           61.7194         estimate D2E/DX2                !
 ! D52   D(10,5,6,8)            60.8686         estimate D2E/DX2                !
 ! D53   D(10,5,6,20)          -61.2758         estimate D2E/DX2                !
 ! D54   D(10,5,6,21)         -177.6147         estimate D2E/DX2                !
 ! D55   D(6,5,10,7)           176.0854         estimate D2E/DX2                !
 ! D56   D(6,5,10,13)          -61.4578         estimate D2E/DX2                !
 ! D57   D(6,5,10,26)           59.4314         estimate D2E/DX2                !
 ! D58   D(5,6,8,1)            -54.8698         estimate D2E/DX2                !
 ! D59   D(5,6,8,22)            65.9016         estimate D2E/DX2                !
 ! D60   D(5,6,8,23)          -176.9367         estimate D2E/DX2                !
 ! D61   D(20,6,8,1)            66.2114         estimate D2E/DX2                !
 ! D62   D(20,6,8,22)         -173.0173         estimate D2E/DX2                !
 ! D63   D(20,6,8,23)          -55.8556         estimate D2E/DX2                !
 ! D64   D(21,6,8,1)          -172.8342         estimate D2E/DX2                !
 ! D65   D(21,6,8,22)          -52.0629         estimate D2E/DX2                !
 ! D66   D(21,6,8,23)           65.0988         estimate D2E/DX2                !
 ! D67   D(12,7,10,5)            2.4544         Frozen                          !
 ! D68   D(12,7,10,13)        -120.3477         estimate D2E/DX2                !
 ! D69   D(12,7,10,26)         120.0161         estimate D2E/DX2                !
 ! D70   D(10,7,12,2)         -155.8596         estimate D2E/DX2                !
 ! D71   D(10,7,12,9)           84.2364         estimate D2E/DX2                !
 ! D72   D(10,7,12,29)         -39.1393         estimate D2E/DX2                !
 ! D73   D(3,9,12,2)            52.6524         estimate D2E/DX2                !
 ! D74   D(3,9,12,7)           169.8139         estimate D2E/DX2                !
 ! D75   D(3,9,12,29)          -66.8338         estimate D2E/DX2                !
 ! D76   D(24,9,12,2)          -67.2026         estimate D2E/DX2                !
 ! D77   D(24,9,12,7)           49.9589         estimate D2E/DX2                !
 ! D78   D(24,9,12,29)         173.3112         estimate D2E/DX2                !
 ! D79   D(25,9,12,2)          175.0468         estimate D2E/DX2                !
 ! D80   D(25,9,12,7)          -67.7917         estimate D2E/DX2                !
 ! D81   D(25,9,12,29)          55.5606         estimate D2E/DX2                !
 ! D82   D(5,10,13,1)           56.4324         estimate D2E/DX2                !
 ! D83   D(5,10,13,30)         -64.3764         estimate D2E/DX2                !
 ! D84   D(5,10,13,31)         178.464          estimate D2E/DX2                !
 ! D85   D(7,10,13,1)          179.037          estimate D2E/DX2                !
 ! D86   D(7,10,13,30)          58.2282         estimate D2E/DX2                !
 ! D87   D(7,10,13,31)         -58.9314         estimate D2E/DX2                !
 ! D88   D(26,10,13,1)         -63.3573         estimate D2E/DX2                !
 ! D89   D(26,10,13,30)        175.8338         estimate D2E/DX2                !
 ! D90   D(26,10,13,31)         58.6743         estimate D2E/DX2                !
 --------------------------------------------------------------------------------
 Trust Radius=3.00D-01 FncErr=1.00D-07 GrdErr=1.00D-06 EigMax=2.50D+02 EigMin=1.00D-04
 Number of steps in this run=    186 maximum allowed number of steps=    186.
 GradGradGradGradGradGradGradGradGradGradGradGradGradGradGradGradGradGrad

                          Input orientation:                          
 ---------------------------------------------------------------------
 Center     Atomic      Atomic             Coordinates (Angstroms)
 Number     Number       Type             X           Y           Z
 ---------------------------------------------------------------------
      1          6           0       -3.556514   -0.364888    0.813968
      2          6           0        2.315877   -1.210103   -0.414403
      3          6           0        2.703671    1.477072    0.501469
      4          8           0        3.480342   -0.469391   -0.705945
      5          8           0       -1.385185    0.435306   -0.862700
      6          6           0       -2.708781    0.795393   -1.231959
      7          8           0        0.025458   -1.135661    0.057405
      8          6           0       -3.601045    0.923890   -0.008122
      9          6           0        1.379497    0.765710    0.794075
     10          6           0       -1.312239   -0.795351   -0.200925
     11          6           0        3.819901    0.465053    0.302993
     12          6           0        1.110732   -0.287667   -0.275746
     13          6           0       -2.104337   -0.759277    1.094478
     14          1           0       -4.098002   -0.244047    1.746675
     15          1           0       -4.048895   -1.162976    0.261882
     16          1           0        2.460072   -1.775622    0.503295
     17          1           0        2.171033   -1.904428   -1.230496
     18          1           0        2.609904    2.083327   -0.396174
     19          1           0        2.963829    2.144361    1.317755
     20          1           0       -3.099657    0.045924   -1.915680
     21          1           0       -2.622040    1.731272   -1.765353
     22          1           0       -3.258540    1.760904    0.595379
     23          1           0       -4.614665    1.145923   -0.329437
     24          1           0        1.436250    0.269199    1.760428
     25          1           0        0.565400    1.479901    0.841339
     26          1           0       -1.709583   -1.561369   -0.860966
     27          1           0        4.734856    0.942133   -0.020595
     28          1           0        4.020615   -0.070678    1.228170
     29          1           0        0.932642    0.187169   -1.230193
     30          1           0       -1.638542   -0.037768    1.760343
     31          1           0       -2.050169   -1.734248    1.568568
 ---------------------------------------------------------------------
                    Distance matrix (angstroms):
                    1          2          3          4          5
     1  C    0.000000
     2  C    6.058734   0.000000
     3  C    6.533023   2.865330   0.000000
     4  O    7.199889   1.410542   2.418633   0.000000
     5  O    2.857656   4.075071   4.434521   4.951404   0.000000
     6  C    2.500144   5.471526   5.723993   6.338897   1.420536
     7  O    3.741257   2.339693   3.767810   3.600395   2.303138
     8  C    1.529302   6.303091   6.349420   7.250809   2.424676
     9  C    5.063877   2.498212   1.531369   2.861658   3.239990
    10  C    2.500415   3.657980   4.667419   4.830127   1.399208
    11  C    7.440524   2.362815   1.519719   1.416489   5.334102
    12  C    4.793394   1.523971   2.501164   2.415191   2.663983
    13  C    1.530701   4.692362   5.335715   5.874878   2.403072
    14  H    1.085244   6.836766   7.125696   7.968527   3.824884
    15  H    1.088201   6.400774   7.254268   7.622805   3.303716
    16  H    6.187568   1.087554   3.261803   2.051695   4.641136
    17  H    6.273341   1.081238   3.836398   2.012157   4.272741
    18  H    6.744102   3.306579   1.087244   2.714772   4.346764
    19  H    7.004642   3.830488   1.085946   3.345721   5.156469
    20  H    2.797939   5.758424   6.447434   6.710097   2.049341
    21  H    3.452539   5.904217   5.793643   6.573000   2.006021
    22  H    2.157675   6.396926   5.969702   7.216661   2.718945
    23  H    2.170163   7.320553   7.372795   8.263180   3.349461
    24  H    5.121088   2.773440   2.156453   3.287373   3.856020
    25  H    4.515991   3.446328   2.165115   3.832847   2.792796
    26  H    2.765524   4.065358   5.528577   5.305824   2.022856
    27  H    8.435142   3.261696   2.164353   2.008957   6.198461
    28  H    7.594143   2.627255   2.158232   2.047356   5.818112
    29  H    4.963455   2.128667   2.792677   2.682663   2.359861
    30  H    2.163620   4.662759   4.768052   5.698408   2.677376
    31  H    2.171093   4.823822   5.835261   6.112268   3.325693
                    6          7          8          9         10
     6  C    0.000000
     7  O    3.587129   0.000000
     8  C    1.520008   4.171039   0.000000
     9  C    4.562862   2.447716   5.047211   0.000000
    10  C    2.354533   1.404272   2.869076   3.266861   0.000000
    11  C    6.714826   4.125578   7.441624   2.507415   5.308617
    12  C    4.083631   1.417005   4.872406   1.525239   2.476718
    13  C    2.862632   2.398585   2.507770   3.814830   1.518812
    14  H    3.447119   4.544396   2.165723   5.650668   3.443480
    15  H    2.804046   4.079572   2.151391   5.785369   2.799754
    16  H    6.028123   2.556504   6.654777   2.776790   3.960705
    17  H    5.576883   2.617859   6.542971   3.443117   3.797796
    18  H    5.535858   4.152948   6.330147   2.160257   4.869098
    19  H    6.363903   4.580508   6.807721   2.164492   5.406760
    20  H    1.087181   3.880148   2.158933   5.284287   2.615911
    21  H    1.080695   4.307087   2.167528   4.847193   3.247589
    22  H    2.138600   4.411819   1.087251   4.747766   3.310080
    23  H    2.137712   5.185172   1.086263   6.110386   3.832894
    24  H    5.139313   2.619972   5.378729   1.087926   3.540390
    25  H    3.935400   2.783389   4.288356   1.084000   3.128676
    26  H    2.586573   2.008731   3.237512   4.206765   1.086425
    27  H    7.542988   5.147984   8.335930   3.457347   6.294341
    28  H    7.217138   4.297227   7.785068   2.804191   5.568375
    29  H    3.691870   2.056884   4.752950   2.152220   2.657862
    30  H    3.285337   2.621882   2.811347   3.269222   2.127670
    31  H    3.830901   2.636313   3.457870   4.314190   2.134754
                   11         12         13         14         15
    11  C    0.000000
    12  C    2.870736   0.000000
    13  C    6.100986   3.526556   0.000000
    14  H    8.079618   5.587754   2.159982   0.000000
    15  H    8.035553   5.260890   2.153484   1.746841   0.000000
    16  H    2.628665   2.154445   4.713415   6.848361   6.542191
    17  H    3.268760   2.156317   4.999566   7.135910   6.439289
    18  H    2.138162   2.807781   5.703202   7.416500   7.437145
    19  H    2.140719   3.447894   5.845278   7.467123   7.825065
    20  H    7.278630   4.530788   3.271095   3.807049   2.665383
    21  H    6.883311   4.497625   3.827464   4.291234   3.810809
    22  H    7.202017   4.903676   2.816487   2.459676   3.047122
    23  H    8.485603   5.902392   3.458188   2.551313   2.449647
    24  H    2.800762   2.135899   3.746600   5.558017   5.863751
    25  H    3.451305   2.160917   3.493636   5.053607   5.349045
    26  H    6.003031   3.149441   2.150103   3.773549   2.625240
    27  H    1.081414   3.835594   7.135317   9.085684   9.036900
    28  H    1.087771   3.282722   6.164988   8.137005   8.200233
    29  H    3.280875   1.080812   3.939936   5.861320   5.372606
    30  H    5.671975   3.430250   1.086700   2.468133   3.053077
    31  H    6.395024   3.935148   1.085479   2.538905   2.455338
                   16         17         18         19         20
    16  H    0.000000
    17  H    1.762432   0.000000
    18  H    3.965221   4.097669   0.000000
    19  H    4.035267   4.849206   1.751154   0.000000
    20  H    6.330881   5.661583   6.249720   7.185012   0.000000
    21  H    6.578216   6.039697   5.419579   6.393601   1.758156
    22  H    6.724434   6.800643   5.960350   6.275886   3.044966
    23  H    7.699401   7.494147   7.285436   7.819443   2.453857
    24  H    2.609576   3.769640   3.052778   2.458798   5.842780
    25  H    3.781863   4.280682   2.464865   2.533958   4.805215
    26  H    4.392395   3.913237   5.670786   6.349806   2.372366
    27  H    3.582638   4.017457   2.441066   2.524494   8.110125
    28  H    2.422307   3.581708   3.044394   2.455854   7.784322
    29  H    3.031596   2.430718   2.665373   3.801100   4.092588
    30  H    4.625899   5.190607   5.215257   5.112670   3.956641
    31  H    4.634522   5.067767   6.336432   6.344028   4.050978
                   21         22         23         24         25
    21  H    0.000000
    22  H    2.445213   0.000000
    23  H    2.524885   1.752872   0.000000
    24  H    5.571221   5.061974   6.461405   0.000000
    25  H    4.125264   3.842132   5.321215   1.751829   0.000000
    26  H    3.534399   3.944326   4.006427   4.485415   4.162056
    27  H    7.602029   8.058796   9.356840   3.808633   4.291444
    28  H    7.505536   7.532676   8.858573   2.660405   3.806894
    29  H    3.912341   4.834807   5.701157   3.033836   2.469265
    30  H    4.065379   2.686402   3.824345   3.090077   2.829355
    31  H    4.842716   3.824048   4.298191   4.025634   4.207234
                   26         27         28         29         30
    26  H    0.000000
    27  H    6.964520   0.000000
    28  H    6.278680   1.759358   0.000000
    29  H    3.189838   4.060779   3.955453   0.000000
    30  H    3.032766   6.689705   5.684219   3.950302   0.000000
    31  H    2.459374   7.464919   6.303789   4.519078   1.756206
                   31
    31  H    0.000000
 Stoichiometry    C10H18O3
 Framework group  C1[X(C10H18O3)]
 Deg. of freedom    87
 Full point group                 C1      NOp   1
 Largest Abelian subgroup         C1      NOp   1
 Largest concise Abelian subgroup C1      NOp   1
                         Standard orientation:                         
 ---------------------------------------------------------------------
 Center     Atomic      Atomic             Coordinates (Angstroms)
 Number     Number       Type             X           Y           Z
 ---------------------------------------------------------------------
      1          6           0       -3.556514   -0.364888    0.813968
      2          6           0        2.315877   -1.210103   -0.414403
      3          6           0        2.703671    1.477072    0.501469
      4          8           0        3.480342   -0.469391   -0.705945
      5          8           0       -1.385185    0.435306   -0.862700
      6          6           0       -2.708781    0.795393   -1.231959
      7          8           0        0.025458   -1.135661    0.057405
      8          6           0       -3.601045    0.923890   -0.008122
      9          6           0        1.379497    0.765710    0.794075
     10          6           0       -1.312239   -0.795351   -0.200925
     11          6           0        3.819901    0.465053    0.302993
     12          6           0        1.110732   -0.287667   -0.275746
     13          6           0       -2.104337   -0.759277    1.094478
     14          1           0       -4.098002   -0.244047    1.746675
     15          1           0       -4.048895   -1.162976    0.261882
     16          1           0        2.460072   -1.775622    0.503295
     17          1           0        2.171033   -1.904428   -1.230496
     18          1           0        2.609904    2.083327   -0.396174
     19          1           0        2.963829    2.144361    1.317755
     20          1           0       -3.099657    0.045924   -1.915680
     21          1           0       -2.622040    1.731272   -1.765353
     22          1           0       -3.258540    1.760904    0.595379
     23          1           0       -4.614665    1.145923   -0.329437
     24          1           0        1.436250    0.269199    1.760428
     25          1           0        0.565400    1.479901    0.841339
     26          1           0       -1.709583   -1.561369   -0.860966
     27          1           0        4.734856    0.942133   -0.020595
     28          1           0        4.020615   -0.070678    1.228170
     29          1           0        0.932642    0.187169   -1.230193
     30          1           0       -1.638542   -0.037768    1.760343
     31          1           0       -2.050169   -1.734248    1.568568
 ---------------------------------------------------------------------
 Rotational constants (GHZ):           2.0075283           0.3822456           0.3693974
 Standard basis: 6-311++G(2d,2p) (5D, 7F)
 There are   557 symmetry adapted cartesian basis functions of A   symmetry.
 There are   531 symmetry adapted basis functions of A   symmetry.
   531 basis functions,   762 primitive gaussians,   557 cartesian basis functions
    51 alpha electrons       51 beta electrons
       nuclear repulsion energy       886.9146225148 Hartrees.
 NAtoms=   31 NActive=   31 NUniq=   31 SFac= 1.00D+00 NAtFMM=   60 NAOKFM=F Big=F
 Integral buffers will be    131072 words long.
 Raffenetti 2 integral format.
 Two-electron integral symmetry is turned on.
 ------------------------------------------------------------------------------
 Polarizable Continuum Model (PCM)
 =================================
 Model                : PCM.
 Atomic radii         : SMD-Coulomb.
 Polarization charges : Total charges.
 Charge compensation  : None.
 Solution method      : On-the-fly selection.
 Cavity type          : VdW (van der Waals Surface) (Alpha=1.000).
 Cavity algorithm     : GePol (No added spheres)
                        Default sphere list used, NSphG=   31.
                        Lebedev-Laikov grids with approx.  5.0 points / Ang**2.
                        Smoothing algorithm: York/Karplus (Gamma=1.0000).
                        Polarization charges: spherical gaussians, with
                                              point-specific exponents (IZeta= 3).
                        Self-potential: point-specific (ISelfS= 7).
                        Self-field    : sphere-specific E.n sum rule (ISelfD= 2).
 1st derivatives      : Analytical E(r).r(x)/FMM algorithm (CHGder, D1EAlg=3).
                        Cavity 1st derivative terms included.
 Solvent              : Water, Eps=  78.355300 Eps(inf)=   1.777849
 ------------------------------------------------------------------------------
 ------------------------------------------------------------------------------
 Atomic radii for non-electrostatic terms: SMD-CDS.
 ------------------------------------------------------------------------------
 Nuclear repulsion after PCM non-electrostatic terms =      886.9210806673 Hartrees.
 One-electron integrals computed using PRISM.
 NBasis=   531 RedAO= T EigKep=  5.28D-06  NBF=   531
 NBsUse=   531 1.00D-06 EigRej= -1.00D+00 NBFU=   531
 ExpMin= 3.60D-02 ExpMax= 8.59D+03 ExpMxC= 1.30D+03 IAcc=3 IRadAn=         5 AccDes= 0.00D+00
 Harris functional with IExCor= 1009 and IRadAn=       5 diagonalized for initial guess.
 HarFok:  IExCor= 1009 AccDes= 0.00D+00 IRadAn=         5 IDoV= 1 UseB2=F ITyADJ=14
 ICtDFT=  3500011 ScaDFX=  1.000000  1.000000  1.000000  1.000000
 FoFCou: FMM=F IPFlag=           0 FMFlag=      100000 FMFlg1=           0
         NFxFlg=           0 DoJE=T BraDBF=F KetDBF=T FulRan=T
         wScrn=  0.000000 ICntrl=       500 IOpCl=  0 I1Cent=   200000004 NGrid=           0
         NMat0=    1 NMatS0=      1 NMatT0=    0 NMatD0=    1 NMtDS0=    0 NMtDT0=    0
 Petite list used in FoFCou.
 Requested convergence on RMS density matrix=1.00D-08 within 128 cycles.
 Requested convergence on MAX density matrix=1.00D-06.
 Requested convergence on             energy=1.00D-06.
 No special actions if energy rises.
 Inv3:  Mode=1 IEnd=    12399267.
 Iteration    1 A*A^-1 deviation from unit magnitude is 7.55D-15 for    548.
 Iteration    1 A*A^-1 deviation from orthogonality  is 3.80D-15 for   2021    578.
 Iteration    1 A^-1*A deviation from unit magnitude is 7.11D-15 for    548.
 Iteration    1 A^-1*A deviation from orthogonality  is 3.12D-15 for   1645    556.
 Error on total polarization charges =  0.06220
 SCF Done:  E(RM062X) =  -617.497011557     A.U. after   12 cycles
            NFock= 12  Conv=0.53D-08     -V/T= 2.0035
 SMD-CDS (non-electrostatic) energy       (kcal/mol) =       4.05
 (included in total energy above)

 **********************************************************************

            Population analysis using the SCF Density.

 **********************************************************************

 Orbital symmetries:
       Occupied  (A) (A) (A) (A) (A) (A) (A) (A) (A) (A) (A) (A)
                 (A) (A) (A) (A) (A) (A) (A) (A) (A) (A) (A) (A)
                 (A) (A) (A) (A) (A) (A) (A) (A) (A) (A) (A) (A)
                 (A) (A) (A) (A) (A) (A) (A) (A) (A) (A) (A) (A)
                 (A) (A) (A)
       Virtual   (A) (A) (A) (A) (A) (A) (A) (A) (A) (A) (A) (A)
                 (A) (A) (A) (A) (A) (A) (A) (A) (A) (A) (A) (A)
                 (A) (A) (A) (A) (A) (A) (A) (A) (A) (A) (A) (A)
                 (A) (A) (A) (A) (A) (A) (A) (A) (A) (A) (A) (A)
                 (A) (A) (A) (A) (A) (A) (A) (A) (A) (A) (A) (A)
                 (A) (A) (A) (A) (A) (A) (A) (A) (A) (A) (A) (A)
                 (A) (A) (A) (A) (A) (A) (A) (A) (A) (A) (A) (A)
                 (A) (A) (A) (A) (A) (A) (A) (A) (A) (A) (A) (A)
                 (A) (A) (A) (A) (A) (A) (A) (A) (A) (A) (A) (A)
                 (A) (A) (A) (A) (A) (A) (A) (A) (A) (A) (A) (A)
                 (A) (A) (A) (A) (A) (A) (A) (A) (A) (A) (A) (A)
                 (A) (A) (A) (A) (A) (A) (A) (A) (A) (A) (A) (A)
                 (A) (A) (A) (A) (A) (A) (A) (A) (A) (A) (A) (A)
                 (A) (A) (A) (A) (A) (A) (A) (A) (A) (A) (A) (A)
                 (A) (A) (A) (A) (A) (A) (A) (A) (A) (A) (A) (A)
                 (A) (A) (A) (A) (A) (A) (A) (A) (A) (A) (A) (A)
                 (A) (A) (A) (A) (A) (A) (A) (A) (A) (A) (A) (A)
                 (A) (A) (A) (A) (A) (A) (A) (A) (A) (A) (A) (A)
                 (A) (A) (A) (A) (A) (A) (A) (A) (A) (A) (A) (A)
                 (A) (A) (A) (A) (A) (A) (A) (A) (A) (A) (A) (A)
                 (A) (A) (A) (A) (A) (A) (A) (A) (A) (A) (A) (A)
                 (A) (A) (A) (A) (A) (A) (A) (A) (A) (A) (A) (A)
                 (A) (A) (A) (A) (A) (A) (A) (A) (A) (A) (A) (A)
                 (A) (A) (A) (A) (A) (A) (A) (A) (A) (A) (A) (A)
                 (A) (A) (A) (A) (A) (A) (A) (A) (A) (A) (A) (A)
                 (A) (A) (A) (A) (A) (A) (A) (A) (A) (A) (A) (A)
                 (A) (A) (A) (A) (A) (A) (A) (A) (A) (A) (A) (A)
                 (A) (A) (A) (A) (A) (A) (A) (A) (A) (A) (A) (A)
                 (A) (A) (A) (A) (A) (A) (A) (A) (A) (A) (A) (A)
                 (A) (A) (A) (A) (A) (A) (A) (A) (A) (A) (A) (A)
                 (A) (A) (A) (A) (A) (A) (A) (A) (A) (A) (A) (A)
                 (A) (A) (A) (A) (A) (A) (A) (A) (A) (A) (A) (A)
                 (A) (A) (A) (A) (A) (A) (A) (A) (A) (A) (A) (A)
                 (A) (A) (A) (A) (A) (A) (A) (A) (A) (A) (A) (A)
                 (A) (A) (A) (A) (A) (A) (A) (A) (A) (A) (A) (A)
                 (A) (A) (A) (A) (A) (A) (A) (A) (A) (A) (A) (A)
                 (A) (A) (A) (A) (A) (A) (A) (A) (A) (A) (A) (A)
                 (A) (A) (A) (A) (A) (A) (A) (A) (A) (A) (A) (A)
                 (A) (A) (A) (A) (A) (A) (A) (A) (A) (A) (A) (A)
                 (A) (A) (A) (A) (A) (A) (A) (A) (A) (A) (A) (A)
 The electronic state is 1-A.
 Alpha  occ. eigenvalues --  -19.63203 -19.62877 -19.62856 -10.63309 -10.58172
 Alpha  occ. eigenvalues --  -10.57533 -10.57281 -10.57158 -10.52406 -10.52320
 Alpha  occ. eigenvalues --  -10.52170 -10.52147 -10.52074  -1.20272  -1.16699
 Alpha  occ. eigenvalues --   -1.13870  -0.90418  -0.89296  -0.87175  -0.83816
 Alpha  occ. eigenvalues --   -0.74971  -0.73594  -0.72796  -0.69356  -0.65230
 Alpha  occ. eigenvalues --   -0.64993  -0.60209  -0.58216  -0.56805  -0.55070
 Alpha  occ. eigenvalues --   -0.54374  -0.52485  -0.51936  -0.50699  -0.50336
 Alpha  occ. eigenvalues --   -0.48006  -0.46339  -0.45758  -0.45539  -0.44731
 Alpha  occ. eigenvalues --   -0.42798  -0.40856  -0.40367  -0.39774  -0.39155
 Alpha  occ. eigenvalues --   -0.38971  -0.37306  -0.36821  -0.35311  -0.32512
 Alpha  occ. eigenvalues --   -0.30507
 Alpha virt. eigenvalues --    0.00443   0.01292   0.01371   0.01416   0.02642
 Alpha virt. eigenvalues --    0.02944   0.03040   0.03863   0.04073   0.04848
 Alpha virt. eigenvalues --    0.05047   0.05241   0.05933   0.06048   0.07236
 Alpha virt. eigenvalues --    0.07724   0.08077   0.08494   0.08641   0.09979
 Alpha virt. eigenvalues --    0.10332   0.10975   0.11590   0.11889   0.12594
 Alpha virt. eigenvalues --    0.12930   0.13150   0.13625   0.13779   0.13853
 Alpha virt. eigenvalues --    0.14064   0.14530   0.14933   0.15032   0.15388
 Alpha virt. eigenvalues --    0.15732   0.15971   0.16355   0.16597   0.16911
 Alpha virt. eigenvalues --    0.17161   0.17274   0.17639   0.17771   0.18033
 Alpha virt. eigenvalues --    0.18457   0.19007   0.19089   0.19158   0.19684
 Alpha virt. eigenvalues --    0.19798   0.20244   0.20370   0.20904   0.21716
 Alpha virt. eigenvalues --    0.22272   0.22667   0.23398   0.23950   0.25168
 Alpha virt. eigenvalues --    0.25519   0.25915   0.26373   0.26949   0.27904
 Alpha virt. eigenvalues --    0.28557   0.28699   0.29229   0.29397   0.29694
 Alpha virt. eigenvalues --    0.30422   0.30821   0.31642   0.32125   0.32393
 Alpha virt. eigenvalues --    0.33006   0.33330   0.34081   0.34294   0.34812
 Alpha virt. eigenvalues --    0.35107   0.35487   0.36155   0.36604   0.37160
 Alpha virt. eigenvalues --    0.37258   0.37535   0.37902   0.38106   0.38225
 Alpha virt. eigenvalues --    0.38619   0.39593   0.39786   0.40016   0.40689
 Alpha virt. eigenvalues --    0.40831   0.42282   0.43115   0.44792   0.45300
 Alpha virt. eigenvalues --    0.47179   0.48084   0.49820   0.50156   0.51068
 Alpha virt. eigenvalues --    0.52951   0.54519   0.55132   0.55248   0.56100
 Alpha virt. eigenvalues --    0.56474   0.57891   0.58029   0.58590   0.59237
 Alpha virt. eigenvalues --    0.59857   0.60467   0.60800   0.61917   0.62380
 Alpha virt. eigenvalues --    0.62896   0.63398   0.63622   0.63822   0.64651
 Alpha virt. eigenvalues --    0.65173   0.66440   0.66525   0.66914   0.67397
 Alpha virt. eigenvalues --    0.68015   0.69447   0.69997   0.70307   0.70911
 Alpha virt. eigenvalues --    0.71110   0.71664   0.72288   0.72893   0.73237
 Alpha virt. eigenvalues --    0.74055   0.74935   0.75404   0.75921   0.76777
 Alpha virt. eigenvalues --    0.77142   0.77793   0.78500   0.79354   0.79760
 Alpha virt. eigenvalues --    0.81869   0.83287   0.84188   0.84767   0.86028
 Alpha virt. eigenvalues --    0.86202   0.87414   0.88867   0.89814   0.90295
 Alpha virt. eigenvalues --    0.90554   0.92299   0.93391   0.94784   0.96619
 Alpha virt. eigenvalues --    0.97393   0.98109   0.98823   1.00547   1.01861
 Alpha virt. eigenvalues --    1.03622   1.03726   1.06720   1.07101   1.07976
 Alpha virt. eigenvalues --    1.08599   1.09801   1.10750   1.10948   1.12175
 Alpha virt. eigenvalues --    1.12909   1.13660   1.14149   1.15606   1.16118
 Alpha virt. eigenvalues --    1.17780   1.18015   1.19349   1.20302   1.20549
 Alpha virt. eigenvalues --    1.21025   1.22438   1.23076   1.23989   1.24573
 Alpha virt. eigenvalues --    1.25221   1.26551   1.27144   1.27855   1.28140
 Alpha virt. eigenvalues --    1.28642   1.29868   1.30358   1.30553   1.31670
 Alpha virt. eigenvalues --    1.32010   1.32456   1.32815   1.33920   1.34492
 Alpha virt. eigenvalues --    1.34644   1.36138   1.36430   1.37587   1.38210
 Alpha virt. eigenvalues --    1.39259   1.40030   1.40415   1.41443   1.42049
 Alpha virt. eigenvalues --    1.43010   1.43685   1.43930   1.44515   1.45442
 Alpha virt. eigenvalues --    1.46079   1.46841   1.47590   1.48342   1.48638
 Alpha virt. eigenvalues --    1.50341   1.50802   1.51146   1.52104   1.52558
 Alpha virt. eigenvalues --    1.53058   1.53683   1.53970   1.55446   1.56310
 Alpha virt. eigenvalues --    1.56752   1.57371   1.58151   1.58779   1.59854
 Alpha virt. eigenvalues --    1.60731   1.61372   1.62010   1.62302   1.63603
 Alpha virt. eigenvalues --    1.64287   1.64853   1.65578   1.66723   1.67563
 Alpha virt. eigenvalues --    1.69100   1.69703   1.70463   1.71155   1.72807
 Alpha virt. eigenvalues --    1.74188   1.74466   1.76494   1.77988   1.78728
 Alpha virt. eigenvalues --    1.80020   1.81373   1.81756   1.82069   1.84028
 Alpha virt. eigenvalues --    1.85536   1.86966   1.90384   1.93566   1.96954
 Alpha virt. eigenvalues --    2.00457   2.07324   2.13402   2.14797   2.22405
 Alpha virt. eigenvalues --    2.23159   2.25345   2.27630   2.33137   2.38940
 Alpha virt. eigenvalues --    2.41502   2.43025   2.47399   2.50404   2.52399
 Alpha virt. eigenvalues --    2.55658   2.76647   2.77011   2.79909   2.80396
 Alpha virt. eigenvalues --    2.87873   2.90018   2.92537   2.93475   2.94709
 Alpha virt. eigenvalues --    2.97459   2.97641   3.02671   3.02879   3.04374
 Alpha virt. eigenvalues --    3.08264   3.08817   3.09987   3.10507   3.10687
 Alpha virt. eigenvalues --    3.13452   3.15374   3.17729   3.19264   3.22551
 Alpha virt. eigenvalues --    3.23462   3.29909   3.32160   3.33496   3.35504
 Alpha virt. eigenvalues --    3.35865   3.37291   3.39022   3.40550   3.42537
 Alpha virt. eigenvalues --    3.42897   3.43918   3.44748   3.46104   3.46829
 Alpha virt. eigenvalues --    3.48499   3.48914   3.50213   3.51016   3.51954
 Alpha virt. eigenvalues --    3.54367   3.54742   3.54821   3.55797   3.56354
 Alpha virt. eigenvalues --    3.57071   3.58017   3.58548   3.59762   3.60337
 Alpha virt. eigenvalues --    3.61077   3.61298   3.63584   3.64696   3.65754
 Alpha virt. eigenvalues --    3.66709   3.67141   3.67595   3.68948   3.69558
 Alpha virt. eigenvalues --    3.70285   3.72840   3.72945   3.74351   3.74552
 Alpha virt. eigenvalues --    3.75548   3.76822   3.77328   3.77681   3.77981
 Alpha virt. eigenvalues --    3.79289   3.79646   3.82315   3.82616   3.85099
 Alpha virt. eigenvalues --    3.85906   3.87783   3.89357   3.90465   3.91499
 Alpha virt. eigenvalues --    3.92235   3.94229   3.95224   3.96126   3.98007
 Alpha virt. eigenvalues --    3.99386   4.02780   4.03784   4.03891   4.05262
 Alpha virt. eigenvalues --    4.06115   4.06800   4.06964   4.07534   4.08788
 Alpha virt. eigenvalues --    4.09736   4.10010   4.10280   4.11391   4.12597
 Alpha virt. eigenvalues --    4.13254   4.13776   4.15138   4.15816   4.16069
 Alpha virt. eigenvalues --    4.16497   4.19407   4.19984   4.21100   4.21413
 Alpha virt. eigenvalues --    4.22524   4.22924   4.23981   4.25450   4.27726
 Alpha virt. eigenvalues --    4.28081   4.28465   4.30346   4.32361   4.33049
 Alpha virt. eigenvalues --    4.34371   4.35760   4.37936   4.38729   4.39151
 Alpha virt. eigenvalues --    4.40534   4.44604   4.46507   4.47705   4.50520
 Alpha virt. eigenvalues --    4.58759   4.61244   4.76722   4.77775   4.84010
 Alpha virt. eigenvalues --    4.88617   4.92202   4.93361   4.99520   5.00831
 Alpha virt. eigenvalues --    5.07137   5.07401   5.08456   5.09193   5.12381
 Alpha virt. eigenvalues --    5.12854   5.14464   5.15840   5.30146   5.33551
 Alpha virt. eigenvalues --    5.40368   5.56766   5.58441   5.65116   5.85823
 Alpha virt. eigenvalues --    5.90570   6.04425   6.98781   7.05604   7.06656
 Alpha virt. eigenvalues --    7.08645   7.10334   7.12892   7.13252   7.15891
 Alpha virt. eigenvalues --    7.26749   7.34861   7.36673   7.49885   7.54750
 Alpha virt. eigenvalues --    7.56232   7.59421  23.95461  23.99221  24.05628
 Alpha virt. eigenvalues --   24.09440  24.11802  24.12397  24.15110  24.15290
 Alpha virt. eigenvalues --   24.17769  24.19028  50.17087  50.20085  50.23032
          Condensed to atoms (all electrons):
               1          2          3          4          5          6
     1  C    5.779369   0.016457   0.011741  -0.000139  -0.022753  -0.026549
     2  C    0.016457   6.330814   0.182784   0.099982   0.017891   0.000787
     3  C    0.011741   0.182784   5.835184  -0.037484  -0.016232  -0.001840
     4  O   -0.000139   0.099982  -0.037484   8.422231   0.000614   0.000236
     5  O   -0.022753   0.017891  -0.016232   0.000614   8.367497   0.022057
     6  C   -0.026549   0.000787  -0.001840   0.000236   0.022057   5.398280
     7  O    0.033659  -0.249669   0.002157  -0.000103  -0.010462   0.001967
     8  C   -0.050997  -0.004663  -0.001060   0.000132  -0.051926   0.080054
     9  C    0.009900  -0.326161  -0.150313   0.000431  -0.047238  -0.023094
    10  C    0.220673  -0.115097  -0.026316  -0.002503   0.181218  -0.199701
    11  C   -0.003176  -0.174709   0.040371   0.099938   0.000597   0.001803
    12  C   -0.102570  -0.205882  -0.131626   0.011978   0.070949   0.032739
    13  C   -0.253873  -0.012559  -0.026920   0.001351   0.019390   0.121255
    14  H    0.406129  -0.000301  -0.000720  -0.000004  -0.000591   0.008130
    15  H    0.525089  -0.000215   0.000712   0.000001   0.000532  -0.018045
    16  H   -0.001552   0.379923  -0.012177  -0.032225   0.000464   0.000327
    17  H    0.001311   0.465810   0.008374  -0.069977  -0.000313  -0.000914
    18  H   -0.000001   0.011228   0.479110   0.001035  -0.000137   0.000538
    19  H   -0.000636  -0.000643   0.423481   0.007759   0.000186  -0.000364
    20  H   -0.021720  -0.001649  -0.000002  -0.000038  -0.037146   0.479594
    21  H    0.011030  -0.000562  -0.001024   0.000019  -0.072963   0.451342
    22  H   -0.037408  -0.000169   0.001068  -0.000005  -0.005909  -0.072723
    23  H   -0.042769   0.000303   0.000023  -0.000005   0.006812  -0.032473
    24  H   -0.004381  -0.043431  -0.073587  -0.000141   0.001558   0.000453
    25  H    0.009524   0.002266   0.019787  -0.002176  -0.002846   0.002486
    26  H    0.004890  -0.005371  -0.002548   0.000492  -0.046556  -0.005437
    27  H   -0.000074   0.022764  -0.037533  -0.069601  -0.000128   0.000034
    28  H    0.000383  -0.041432  -0.054411  -0.042857   0.000153  -0.000085
    29  H   -0.007701  -0.060015  -0.013912  -0.008788  -0.013673  -0.007508
    30  H   -0.010831   0.007697  -0.002041   0.000239  -0.007177   0.003169
    31  H   -0.023779  -0.001272  -0.000671   0.000003   0.005051   0.001292
               7          8          9         10         11         12
     1  C    0.033659  -0.050997   0.009900   0.220673  -0.003176  -0.102570
     2  C   -0.249669  -0.004663  -0.326161  -0.115097  -0.174709  -0.205882
     3  C    0.002157  -0.001060  -0.150313  -0.026316   0.040371  -0.131626
     4  O   -0.000103   0.000132   0.000431  -0.002503   0.099938   0.011978
     5  O   -0.010462  -0.051926  -0.047238   0.181218   0.000597   0.070949
     6  C    0.001967   0.080054  -0.023094  -0.199701   0.001803   0.032739
     7  O    8.502776   0.013028  -0.081715   0.143085   0.005863   0.281158
     8  C    0.013028   5.543216   0.028835  -0.014340   0.000084   0.002263
     9  C   -0.081715   0.028835   6.620301   0.100839  -0.128240  -0.830867
    10  C    0.143085  -0.014340   0.100839   6.848545  -0.008175  -0.596943
    11  C    0.005863   0.000084  -0.128240  -0.008175   5.446629   0.163581
    12  C    0.281158   0.002263  -0.830867  -0.596943   0.163581   7.099238
    13  C   -0.195446  -0.019787   0.054247  -0.759511   0.001942   0.158303
    14  H   -0.003075  -0.020787   0.001613   0.007129  -0.000022  -0.003149
    15  H    0.001286  -0.055854   0.000556  -0.017917   0.000086  -0.003279
    16  H    0.006211   0.000305   0.015146  -0.003960  -0.000111  -0.033123
    17  H    0.003184   0.000050   0.012521  -0.003449   0.003094  -0.068755
    18  H    0.001591   0.000974   0.002634  -0.007102  -0.080283  -0.044665
    19  H   -0.002234   0.000360  -0.028737  -0.005021  -0.030854  -0.001197
    20  H    0.003721  -0.041375   0.002959  -0.028457  -0.000094  -0.002752
    21  H   -0.002077  -0.048829   0.001805   0.008111   0.000191  -0.002440
    22  H    0.001388   0.492799  -0.001811   0.004958   0.000282   0.001868
    23  H    0.001028   0.449465   0.000041  -0.006580  -0.000029   0.000518
    24  H    0.006310  -0.001805   0.507334   0.001037  -0.000561  -0.024219
    25  H   -0.004401  -0.000586   0.428159   0.020846  -0.013576  -0.053206
    26  H   -0.076789  -0.008831   0.000051   0.511268  -0.000855  -0.012853
    27  H    0.000526  -0.000060  -0.001308  -0.000403   0.430726  -0.000604
    28  H    0.000427   0.000128   0.018954   0.002490   0.458190   0.008266
    29  H   -0.025399  -0.006437  -0.032776   0.020319   0.014784   0.458709
    30  H   -0.000876  -0.017689   0.015942  -0.022093   0.000535  -0.023033
    31  H   -0.003164   0.007360   0.006632  -0.057991  -0.000057  -0.006154
              13         14         15         16         17         18
     1  C   -0.253873   0.406129   0.525089  -0.001552   0.001311  -0.000001
     2  C   -0.012559  -0.000301  -0.000215   0.379923   0.465810   0.011228
     3  C   -0.026920  -0.000720   0.000712  -0.012177   0.008374   0.479110
     4  O    0.001351  -0.000004   0.000001  -0.032225  -0.069977   0.001035
     5  O    0.019390  -0.000591   0.000532   0.000464  -0.000313  -0.000137
     6  C    0.121255   0.008130  -0.018045   0.000327  -0.000914   0.000538
     7  O   -0.195446  -0.003075   0.001286   0.006211   0.003184   0.001591
     8  C   -0.019787  -0.020787  -0.055854   0.000305   0.000050   0.000974
     9  C    0.054247   0.001613   0.000556   0.015146   0.012521   0.002634
    10  C   -0.759511   0.007129  -0.017917  -0.003960  -0.003449  -0.007102
    11  C    0.001942  -0.000022   0.000086  -0.000111   0.003094  -0.080283
    12  C    0.158303  -0.003149  -0.003279  -0.033123  -0.068755  -0.044665
    13  C    6.257055  -0.031740  -0.049086   0.006211  -0.002206   0.001984
    14  H   -0.031740   0.484857  -0.002572   0.000042  -0.000057   0.000024
    15  H   -0.049086  -0.002572   0.446551   0.000011   0.000147  -0.000015
    16  H    0.006211   0.000042   0.000011   0.483346  -0.019770   0.002617
    17  H   -0.002206  -0.000057   0.000147  -0.019770   0.470572  -0.001579
    18  H    0.001984   0.000024  -0.000015   0.002617  -0.001579   0.470535
    19  H    0.002659   0.000003  -0.000000  -0.002178   0.001948  -0.008386
    20  H    0.017072  -0.000907   0.001508  -0.000133   0.000437  -0.000025
    21  H    0.005354   0.000368  -0.002080   0.000113  -0.000259  -0.000034
    22  H   -0.006120  -0.004536   0.003692  -0.000088   0.000151  -0.000232
    23  H    0.004975  -0.007233  -0.005751  -0.000006  -0.000035   0.000042
    24  H    0.009785   0.000440  -0.000150  -0.001226  -0.002635  -0.000383
    25  H   -0.030909  -0.000279   0.000106  -0.000014  -0.000148   0.001132
    26  H   -0.096199  -0.000302  -0.008116   0.000272  -0.002126  -0.000088
    27  H   -0.000459  -0.000006   0.000006  -0.003049   0.002250  -0.004729
    28  H   -0.000154   0.000002   0.000003   0.010495  -0.002425   0.003093
    29  H   -0.005492  -0.000170  -0.000195   0.001160  -0.008780  -0.007405
    30  H    0.435549  -0.004888   0.002337   0.001096  -0.000586   0.000300
    31  H    0.455908  -0.009041  -0.006635  -0.000409   0.000148   0.000010
              19         20         21         22         23         24
     1  C   -0.000636  -0.021720   0.011030  -0.037408  -0.042769  -0.004381
     2  C   -0.000643  -0.001649  -0.000562  -0.000169   0.000303  -0.043431
     3  C    0.423481  -0.000002  -0.001024   0.001068   0.000023  -0.073587
     4  O    0.007759  -0.000038   0.000019  -0.000005  -0.000005  -0.000141
     5  O    0.000186  -0.037146  -0.072963  -0.005909   0.006812   0.001558
     6  C   -0.000364   0.479594   0.451342  -0.072723  -0.032473   0.000453
     7  O   -0.002234   0.003721  -0.002077   0.001388   0.001028   0.006310
     8  C    0.000360  -0.041375  -0.048829   0.492799   0.449465  -0.001805
     9  C   -0.028737   0.002959   0.001805  -0.001811   0.000041   0.507334
    10  C   -0.005021  -0.028457   0.008111   0.004958  -0.006580   0.001037
    11  C   -0.030854  -0.000094   0.000191   0.000282  -0.000029  -0.000561
    12  C   -0.001197  -0.002752  -0.002440   0.001868   0.000518  -0.024219
    13  C    0.002659   0.017072   0.005354  -0.006120   0.004975   0.009785
    14  H    0.000003  -0.000907   0.000368  -0.004536  -0.007233   0.000440
    15  H   -0.000000   0.001508  -0.002080   0.003692  -0.005751  -0.000150
    16  H   -0.002178  -0.000133   0.000113  -0.000088  -0.000006  -0.001226
    17  H    0.001948   0.000437  -0.000259   0.000151  -0.000035  -0.002635
    18  H   -0.008386  -0.000025  -0.000034  -0.000232   0.000042  -0.000383
    19  H    0.489435   0.000040   0.000036   0.000031  -0.000011  -0.004290
    20  H    0.000040   0.471354  -0.010491   0.002993   0.000873   0.000235
    21  H    0.000036  -0.010491   0.474489  -0.002302  -0.010486  -0.000024
    22  H    0.000031   0.002993  -0.002302   0.473596  -0.010785   0.000121
    23  H   -0.000011   0.000873  -0.010486  -0.010785   0.469641  -0.000054
    24  H   -0.004290   0.000235  -0.000024   0.000121  -0.000054   0.435824
    25  H   -0.012541  -0.000632  -0.001106  -0.004321   0.000611  -0.020260
    26  H   -0.000310  -0.006563   0.001006   0.000223  -0.001445  -0.000665
    27  H   -0.009715  -0.000015   0.000012  -0.000001   0.000000  -0.000472
    28  H    0.004173   0.000001  -0.000017  -0.000008   0.000001  -0.007951
    29  H   -0.001467  -0.000385   0.000864   0.000275  -0.000234   0.006942
    30  H    0.000149  -0.000357  -0.000073   0.001852  -0.003784  -0.005193
    31  H    0.000054   0.000451   0.000906  -0.001872   0.001968   0.001117
              25         26         27         28         29         30
     1  C    0.009524   0.004890  -0.000074   0.000383  -0.007701  -0.010831
     2  C    0.002266  -0.005371   0.022764  -0.041432  -0.060015   0.007697
     3  C    0.019787  -0.002548  -0.037533  -0.054411  -0.013912  -0.002041
     4  O   -0.002176   0.000492  -0.069601  -0.042857  -0.008788   0.000239
     5  O   -0.002846  -0.046556  -0.000128   0.000153  -0.013673  -0.007177
     6  C    0.002486  -0.005437   0.000034  -0.000085  -0.007508   0.003169
     7  O   -0.004401  -0.076789   0.000526   0.000427  -0.025399  -0.000876
     8  C   -0.000586  -0.008831  -0.000060   0.000128  -0.006437  -0.017689
     9  C    0.428159   0.000051  -0.001308   0.018954  -0.032776   0.015942
    10  C    0.020846   0.511268  -0.000403   0.002490   0.020319  -0.022093
    11  C   -0.013576  -0.000855   0.430726   0.458190   0.014784   0.000535
    12  C   -0.053206  -0.012853  -0.000604   0.008266   0.458709  -0.023033
    13  C   -0.030909  -0.096199  -0.000459  -0.000154  -0.005492   0.435549
    14  H   -0.000279  -0.000302  -0.000006   0.000002  -0.000170  -0.004888
    15  H    0.000106  -0.008116   0.000006   0.000003  -0.000195   0.002337
    16  H   -0.000014   0.000272  -0.003049   0.010495   0.001160   0.001096
    17  H   -0.000148  -0.002126   0.002250  -0.002425  -0.008780  -0.000586
    18  H    0.001132  -0.000088  -0.004729   0.003093  -0.007405   0.000300
    19  H   -0.012541  -0.000310  -0.009715   0.004173  -0.001467   0.000149
    20  H   -0.000632  -0.006563  -0.000015   0.000001  -0.000385  -0.000357
    21  H   -0.001106   0.001006   0.000012  -0.000017   0.000864  -0.000073
    22  H   -0.004321   0.000223  -0.000001  -0.000008   0.000275   0.001852
    23  H    0.000611  -0.001445   0.000000   0.000001  -0.000234  -0.003784
    24  H   -0.020260  -0.000665  -0.000472  -0.007951   0.006942  -0.005193
    25  H    0.490890   0.001907   0.001139   0.001087  -0.005490  -0.001089
    26  H    0.001907   0.490298  -0.000103   0.000291   0.006025   0.000378
    27  H    0.001139  -0.000103   0.464875  -0.009189  -0.000032  -0.000163
    28  H    0.001087   0.000291  -0.009189   0.489258  -0.001344   0.000613
    29  H   -0.005490   0.006025  -0.000032  -0.001344   0.429795  -0.001765
    30  H   -0.001089   0.000378  -0.000163   0.000613  -0.001765   0.479811
    31  H   -0.000162  -0.000739   0.000016  -0.000198  -0.000066  -0.021188
              31
     1  C   -0.023779
     2  C   -0.001272
     3  C   -0.000671
     4  O    0.000003
     5  O    0.005051
     6  C    0.001292
     7  O   -0.003164
     8  C    0.007360
     9  C    0.006632
    10  C   -0.057991
    11  C   -0.000057
    12  C   -0.006154
    13  C    0.455908
    14  H   -0.009041
    15  H   -0.006635
    16  H   -0.000409
    17  H    0.000148
    18  H    0.000010
    19  H    0.000054
    20  H    0.000451
    21  H    0.000906
    22  H   -0.001872
    23  H    0.001968
    24  H    0.001117
    25  H   -0.000162
    26  H   -0.000739
    27  H    0.000016
    28  H   -0.000198
    29  H   -0.000066
    30  H   -0.021188
    31  H    0.468744
 Mulliken charges:
               1
     1  C   -0.419245
     2  C   -0.294905
     3  C   -0.414372
     4  O   -0.380394
     5  O   -0.358920
     6  C   -0.217810
     7  O   -0.353955
     8  C   -0.274025
     9  C   -0.176640
    10  C   -0.194956
    11  C   -0.227954
    12  C   -0.142253
    13  C   -0.062577
    14  H    0.181642
    15  H    0.187289
    16  H    0.202282
    17  H    0.214018
    18  H    0.178219
    19  H    0.178270
    20  H    0.171505
    21  H    0.199124
    22  H    0.162993
    23  H    0.185378
    24  H    0.220270
    25  H    0.173801
    26  H    0.258795
    27  H    0.215295
    28  H    0.162063
    29  H    0.270163
    30  H    0.173160
    31  H    0.183739
 Sum of Mulliken charges =  -0.00000
 Mulliken charges with hydrogens summed into heavy atoms:
               1
     1  C   -0.050313
     2  C    0.121394
     3  C   -0.057884
     4  O   -0.380394
     5  O   -0.358920
     6  C    0.152819
     7  O   -0.353955
     8  C    0.074346
     9  C    0.217432
    10  C    0.063839
    11  C    0.149403
    12  C    0.127910
    13  C    0.294322
 Electronic spatial extent (au):  <R**2>=           3189.0674
 Charge=              0.0000 electrons
 Dipole moment (field-independent basis, Debye):
    X=             -3.4965    Y=              1.5078    Z=              1.4813  Tot=              4.0857
 Quadrupole moment (field-independent basis, Debye-Ang):
   XX=            -73.0346   YY=            -79.1286   ZZ=            -79.5607
   XY=              4.0917   XZ=              8.1172   YZ=              0.6036
 Traceless Quadrupole moment (field-independent basis, Debye-Ang):
   XX=              4.2067   YY=             -1.8873   ZZ=             -2.3194
   XY=              4.0917   XZ=              8.1172   YZ=              0.6036
 Octapole moment (field-independent basis, Debye-Ang**2):
  XXX=            -46.9735  YYY=              0.5810  ZZZ=             -3.5554  XYY=              1.4175
  XXY=             19.5450  XXZ=             18.7163  XZZ=             -6.7611  YZZ=             -0.1513
  YYZ=             -4.3869  XYZ=              0.7269
 Hexadecapole moment (field-independent basis, Debye-Ang**3):
 XXXX=          -3305.8658 YYYY=           -508.1883 ZZZZ=           -384.5036 XXXY=             61.1654
 XXXZ=            118.4433 YYYX=             -7.5069 YYYZ=              0.1887 ZZZX=             10.2169
 ZZZY=              0.4909 XXYY=           -621.1145 XXZZ=           -621.5117 YYZZ=           -139.8077
 XXYZ=            -15.0172 YYXZ=              5.2318 ZZXY=             -3.6217
 N-N= 8.869210806673D+02 E-N=-3.216049241177D+03  KE= 6.153605748207D+02
 D1PCM: PCM CHGder 1st derivatives, ID1Alg=3 FixD1E=F DoIter=F DoCFld=F I1PDM=0.
 Calling FoFJK, ICntrl=      2127 FMM=F ISym2X=0 I1Cent= 0 IOpClX= 0 NMat=1 NMatS=1 NMatT=0.
 ***** Axes restored to original set *****
 -------------------------------------------------------------------
 Center     Atomic                   Forces (Hartrees/Bohr)
 Number     Number              X              Y              Z
 -------------------------------------------------------------------
      1        6           0.003172598    0.002105590   -0.001597289
      2        6          -0.003175070    0.004643749    0.001654983
      3        6          -0.000215302   -0.002799253    0.001215225
      4        8           0.006381275   -0.001263018   -0.010182214
      5        8           0.010324688    0.008830737   -0.002796915
      6        6          -0.003447088   -0.001181879    0.005776644
      7        8           0.004773789   -0.009337572    0.005247633
      8        6           0.000838967   -0.003195661   -0.000983769
      9        6           0.003292568   -0.000533785   -0.003379114
     10        6          -0.005719626    0.002081636    0.005759602
     11        6          -0.006302233    0.003242704    0.001964026
     12        6           0.000516485    0.001712371    0.004197025
     13        6          -0.003045042   -0.000411279   -0.002518470
     14        1          -0.001195348    0.000346197    0.002345992
     15        1          -0.000923689   -0.002336798   -0.002245248
     16        1          -0.000559144   -0.002405076    0.005759886
     17        1          -0.001351489   -0.002939902   -0.003676722
     18        1          -0.000279028    0.001166221   -0.003104178
     19        1           0.000638087    0.001725907    0.002238235
     20        1          -0.002664875   -0.004198218   -0.002810170
     21        1           0.000189116    0.004120281   -0.002156520
     22        1           0.001836972    0.002279633    0.001750359
     23        1          -0.002578896    0.000399089   -0.000911000
     24        1           0.000515565   -0.002796103    0.002873506
     25        1          -0.003606093    0.002125758   -0.000524555
     26        1          -0.004222827   -0.005211856   -0.004369497
     27        1           0.003656511    0.002203363   -0.001447386
     28        1           0.000204905   -0.002351150    0.005219400
     29        1          -0.000076863    0.003520923   -0.005827221
     30        1           0.002603409    0.003416636    0.001468214
     31        1           0.000417680   -0.002959244    0.001059538
 -------------------------------------------------------------------
 Cartesian Forces:  Max     0.010324688 RMS     0.003564721

 GradGradGradGradGradGradGradGradGradGradGradGradGradGradGradGradGradGrad
 Berny optimization.
 FormGI is forming the generalized inverse of G from B-inverse, IUseBI=4.
 Internal  Forces:  Max     0.013709411 RMS     0.002229138
 Search for a local minimum.
 Step number   1 out of a maximum of  186
 All quantities printed in internal units (Hartrees-Bohrs-Radians)
 Mixed Optimization -- RFO/linear search
 Second derivative matrix not updated -- first step.
 ITU=  0
     Eigenvalues ---    0.00615   0.00635   0.00738   0.00752   0.01449
     Eigenvalues ---    0.01467   0.01496   0.02709   0.02769   0.03139
     Eigenvalues ---    0.03165   0.04175   0.04357   0.04642   0.04773
     Eigenvalues ---    0.04776   0.04986   0.05007   0.05145   0.05158
     Eigenvalues ---    0.05176   0.05683   0.05740   0.06151   0.06177
     Eigenvalues ---    0.06275   0.06393   0.06841   0.07608   0.07855
     Eigenvalues ---    0.07919   0.07944   0.07952   0.08004   0.08145
     Eigenvalues ---    0.08674   0.09094   0.09335   0.10863   0.11468
     Eigenvalues ---    0.11615   0.11705   0.11730   0.12326   0.12491
     Eigenvalues ---    0.14424   0.14520   0.16482   0.16501   0.17575
     Eigenvalues ---    0.19284   0.21553   0.21776   0.25000   0.28543
     Eigenvalues ---    0.28568   0.28685   0.28737   0.28919   0.29132
     Eigenvalues ---    0.30215   0.30423   0.35021   0.35053   0.35071
     Eigenvalues ---    0.35097   0.35132   0.35133   0.35140   0.35197
     Eigenvalues ---    0.35229   0.35248   0.35285   0.35340   0.35368
     Eigenvalues ---    0.35515   0.35824   0.35845   0.35896   0.35910
     Eigenvalues ---    0.40938   0.41469   0.42382   0.42915   0.43992
     Eigenvalues ---    0.449201000.000001000.000001000.000001000.00000
     Eigenvalues --- 1000.000001000.000001000.000001000.000001000.00000
     Eigenvalues --- 1000.000001000.000001000.000001000.000001000.00000
     Eigenvalues --- 1000.000001000.000001000.000001000.000001000.00000
     Eigenvalues --- 1000.000001000.000001000.000001000.000001000.00000
     Eigenvalues --- 1000.000001000.000001000.000001000.000001000.00000
     Eigenvalues --- 1000.000001000.000001000.000001000.000001000.00000
     Eigenvalues --- 1000.000001000.000001000.000001000.000001000.00000
     Eigenvalues --- 1000.000001000.000001000.000001000.000001000.00000
     Eigenvalues --- 1000.000001000.000001000.000001000.000001000.00000
     Eigenvalues --- 1000.000001000.000001000.000001000.000001000.00000
     Eigenvalues --- 1000.000001000.000001000.000001000.000001000.00000
     Eigenvalues --- 1000.000001000.000001000.000001000.000001000.00000
     Eigenvalues --- 1000.000001000.000001000.000001000.000001000.00000
     Eigenvalues --- 1000.000001000.000001000.000001000.000001000.00000
     Eigenvalues --- 1000.000001000.000001000.000001000.000001000.00000
     Eigenvalues --- 1000.000001000.000001000.000001000.000001000.00000
     Eigenvalues --- 1000.000001000.000001000.000001000.000001000.00000
     Eigenvalues --- 1000.000001000.000001000.000001000.000001000.00000
     Eigenvalues --- 1000.000001000.000001000.000001000.000001000.00000
 RFO step:  Lambda=-3.40726582D-03 EMin= 6.14764508D-03
 Linear search not attempted -- first point.
 Iteration  1 RMS(Cart)=  0.06733543 RMS(Int)=  0.00087669
 Iteration  2 RMS(Cart)=  0.00239852 RMS(Int)=  0.00002830
 Iteration  3 RMS(Cart)=  0.00000130 RMS(Int)=  0.00002829
 Iteration  4 RMS(Cart)=  0.00000000 RMS(Int)=  0.00002829
 Iteration  1 RMS(Cart)=  0.00002861 RMS(Int)=  0.00000663
 Iteration  2 RMS(Cart)=  0.00001524 RMS(Int)=  0.00000741
 Iteration  3 RMS(Cart)=  0.00000811 RMS(Int)=  0.00000835
 Iteration  4 RMS(Cart)=  0.00000432 RMS(Int)=  0.00000895
 Iteration  5 RMS(Cart)=  0.00000230 RMS(Int)=  0.00000929
 Iteration  6 RMS(Cart)=  0.00000123 RMS(Int)=  0.00000948
 Iteration  7 RMS(Cart)=  0.00000065 RMS(Int)=  0.00000959
 Variable       Old X    -DE/DX   Delta X   Delta X   Delta X     New X
                                 (Linear)    (Quad)   (Total)
    R1        2.88996  -0.00072   0.00000  -0.00385  -0.00388   2.88608
    R2        2.89261  -0.00116   0.00000  -0.00428  -0.00431   2.88829
    R3        2.05081   0.00265   0.00000   0.00742   0.00742   2.05824
    R4        2.05640   0.00327   0.00000   0.00925   0.00925   2.06565
    R5        2.66554   0.00608   0.00000   0.01439   0.01442   2.67996
    R6        2.87989  -0.00074   0.00000  -0.00227  -0.00226   2.87763
    R7        2.05518   0.00604   0.00000   0.01704   0.01704   2.07222
    R8        2.04324   0.00484   0.00000   0.01338   0.01338   2.05663
    R9        2.89387  -0.00089   0.00000  -0.00397  -0.00400   2.88987
   R10        2.87185  -0.00068   0.00000  -0.00231  -0.00232   2.86953
   R11        2.05459   0.00324   0.00000   0.00913   0.00913   2.06372
   R12        2.05214   0.00290   0.00000   0.00813   0.00813   2.06027
   R13        2.67678   0.00647   0.00000   0.01522   0.01525   2.69203
   R14        2.68442   0.00533   0.00000   0.01277   0.01280   2.69722
   R15        2.64412   0.00765   0.00000   0.01753   0.01757   2.66169
   R16        2.87240  -0.00078   0.00000  -0.00286  -0.00287   2.86953
   R17        2.05447   0.00562   0.00000   0.01584   0.01584   2.07032
   R18        2.04222   0.00465   0.00000   0.01282   0.01282   2.05504
   R19        2.65369   0.00560   0.00000   0.01238   0.01238   2.66607
   R20        2.67775   0.00358   0.00000   0.00828   0.00828   2.68604
   R21        2.05461   0.00330   0.00000   0.00931   0.00931   2.06392
   R22        2.05274   0.00276   0.00000   0.00775   0.00775   2.06049
   R23        2.88228  -0.00203   0.00000  -0.00711  -0.00714   2.87515
   R24        2.05588   0.00385   0.00000   0.01089   0.01089   2.06677
   R25        2.04846   0.00409   0.00000   0.01140   0.01140   2.05986
   R26        2.87014  -0.00116   0.00000  -0.00336  -0.00334   2.86680
   R27        2.05305   0.00787   0.00000   0.02214   0.02214   2.07518
   R28        2.04358   0.00450   0.00000   0.01244   0.01244   2.05602
   R29        2.05559   0.00563   0.00000   0.01591   0.01591   2.07150
   R30        2.04244   0.00671   0.00000   0.01850   0.01850   2.06094
   R31        2.05356   0.00428   0.00000   0.01206   0.01206   2.06562
   R32        2.05126   0.00314   0.00000   0.00880   0.00880   2.06006
    A1        1.92119   0.00166   0.00000  -0.00275  -0.00283   1.91836
    A2        1.93225  -0.00049   0.00000   0.00057   0.00059   1.93284
    A3        1.90938  -0.00056   0.00000  -0.00079  -0.00077   1.90861
    A4        1.92256  -0.00042   0.00000  -0.00008  -0.00004   1.92251
    A5        1.91057  -0.00076   0.00000  -0.00162  -0.00162   1.90895
    A6        1.86704   0.00052   0.00000   0.00484   0.00483   1.87187
    A7        1.93242   0.00098   0.00000   0.00481   0.00486   1.93727
    A8        1.91560   0.00103   0.00000   0.00712   0.00713   1.92273
    A9        1.86691  -0.00027   0.00000   0.00367   0.00367   1.87057
   A10        1.92071  -0.00198   0.00000  -0.01408  -0.01412   1.90659
   A11        1.92989  -0.00048   0.00000  -0.00491  -0.00495   1.92494
   A12        1.89731   0.00080   0.00000   0.00403   0.00395   1.90126
   A13        1.92915  -0.00047   0.00000  -0.00698  -0.00703   1.92213
   A14        1.92006   0.00065   0.00000   0.00187   0.00187   1.92193
   A15        1.92727  -0.00042   0.00000   0.00015   0.00015   1.92742
   A16        1.90376  -0.00031   0.00000  -0.00132  -0.00132   1.90243
   A17        1.90859   0.00043   0.00000   0.00168   0.00170   1.91029
   A18        1.87405   0.00015   0.00000   0.00494   0.00493   1.87897
   A19        1.97915  -0.00484   0.00000  -0.02556  -0.02550   1.95365
   A20        1.97629  -0.00502   0.00000  -0.02550  -0.02542   1.95087
   A21        1.93809   0.00102   0.00000   0.00395   0.00394   1.94203
   A22        1.90046   0.00068   0.00000   0.00365   0.00367   1.90413
   A23        1.84734  -0.00075   0.00000  -0.00025  -0.00024   1.84710
   A24        1.93219  -0.00128   0.00000  -0.00760  -0.00760   1.92460
   A25        1.95121  -0.00017   0.00000  -0.00232  -0.00233   1.94888
   A26        1.89173   0.00055   0.00000   0.00309   0.00307   1.89479
   A27        2.14279  -0.01371   0.00000  -0.05410  -0.05410   2.08869
   A28        1.92248   0.00027   0.00000  -0.00396  -0.00402   1.91846
   A29        1.91900   0.00048   0.00000   0.00149   0.00150   1.92050
   A30        1.93739  -0.00065   0.00000  -0.00041  -0.00040   1.93699
   A31        1.90400  -0.00051   0.00000  -0.00229  -0.00229   1.90171
   A32        1.90379   0.00008   0.00000   0.00008   0.00011   1.90390
   A33        1.87631   0.00031   0.00000   0.00526   0.00525   1.88156
   A34        1.91682   0.00179   0.00000  -0.00196  -0.00203   1.91479
   A35        1.91412  -0.00027   0.00000   0.00277   0.00277   1.91689
   A36        1.93016  -0.00003   0.00000   0.00628   0.00627   1.93643
   A37        1.89339  -0.00121   0.00000  -0.00690  -0.00690   1.88649
   A38        1.93186  -0.00100   0.00000  -0.00707  -0.00702   1.92484
   A39        1.87668   0.00066   0.00000   0.00687   0.00681   1.88349
   A40        1.92817  -0.00240   0.00000  -0.01873  -0.01876   1.90941
   A41        1.93405   0.00140   0.00000   0.00244   0.00230   1.93635
   A42        1.88992   0.00055   0.00000   0.00679   0.00687   1.89679
   A43        1.92373  -0.00033   0.00000  -0.00646  -0.00656   1.91717
   A44        1.86428   0.00155   0.00000   0.01721   0.01728   1.88156
   A45        1.92216  -0.00077   0.00000  -0.00054  -0.00056   1.92159
   A46        1.93505   0.00143   0.00000   0.00716   0.00715   1.94220
   A47        1.94629  -0.00041   0.00000  -0.00369  -0.00370   1.94260
   A48        1.93095  -0.00125   0.00000  -0.00779  -0.00779   1.92316
   A49        1.85534  -0.00096   0.00000  -0.00274  -0.00273   1.85261
   A50        1.90196   0.00060   0.00000   0.00438   0.00441   1.90637
   A51        1.89195   0.00063   0.00000   0.00304   0.00302   1.89496
   A52        1.83882   0.00077   0.00000   0.00499   0.00498   1.84380
   A53        1.92037   0.00040   0.00000  -0.00051  -0.00056   1.91981
   A54        1.89218  -0.00018   0.00000   0.00191   0.00190   1.89408
   A55        1.96422  -0.00173   0.00000  -0.01023  -0.01021   1.95401
   A56        1.92233   0.00070   0.00000   0.00917   0.00912   1.93145
   A57        1.92306   0.00011   0.00000  -0.00452  -0.00449   1.91857
   A58        1.92260  -0.00053   0.00000  -0.00543  -0.00548   1.91712
   A59        1.92609   0.00094   0.00000   0.00532   0.00527   1.93136
   A60        1.93778   0.00001   0.00000   0.00420   0.00419   1.94198
   A61        1.89108  -0.00071   0.00000  -0.00940  -0.00937   1.88171
   A62        1.90197   0.00005   0.00000  -0.00144  -0.00142   1.90055
   A63        1.88320   0.00023   0.00000   0.00658   0.00653   1.88973
    D1        0.89815  -0.00020   0.00000   0.01039   0.01035   0.90850
    D2       -1.20069  -0.00006   0.00000   0.01479   0.01478  -1.18591
[...]
 00837,0.00000198,-0.00000007,0.00020395,-0.00019397,0.00013080,0.00114
 418,-0.00090345,-0.00002281,-0.00022842,-0.00044027,0.00028583,-0.0003
 0942,0.00029499,0.00008957,-0.00001169,0.00001280,-0.00000775,-0.00000
 650,0.00000510,-0.00000706,-0.00000590,-0.00000744,-0.00000865,-0.0000
 0047,-0.00000020,-0.00000308,-0.02201811,0.01737846,0.00122999,-0.0028
 8463,0.00332561,0.04948729,0.00141209,0.00013493,-0.00002898,0.0002756
 6,-0.00081634,0.00003107,0.00010714,-0.00034393,-0.00044921,-0.0006743
 6,0.00004892,0.00011095,0.00297703,-0.00368929,-0.00020280,0.00132513,
 0.00193116,0.00033091,-0.03708936,-0.01540872,-0.02085546,-0.00008919,
 -0.00017609,0.00019219,-0.00136727,-0.00075956,0.00062741,-0.07981469,
 -0.05752336,-0.05304441,0.00014612,0.00003468,0.00015116,0.00181972,0.
 00289975,-0.00565592,0.00715240,0.00942109,0.01128509,0.00015887,-0.00
 013913,-0.00007791,0.00000818,-0.00024893,-0.00002358,-0.00002116,0.00
 000884,-0.00002691,-0.00004981,0.00006579,0.00003833,-0.00003251,-0.00
 002730,0.00002829,-0.00019208,-0.00012683,0.00002439,0.00055424,-0.000
 37238,0.00013553,0.00022924,0.00010219,0.00022514,-0.00006761,-0.00005
 266,-0.00012414,0.00003367,0.00001515,-0.00005068,0.00002221,0.0000547
 0,0.00003284,0.00000659,-0.00001149,-0.00003733,0.10410683,0.00002503,
 -0.00012767,0.00018658,-0.00001440,0.00010113,-0.00003522,-0.00004615,
 0.00016190,0.00011991,0.00003062,-0.00003193,-0.00002330,-0.00928150,-
 0.04500155,-0.00728417,-0.00515011,0.00092100,-0.00188080,0.00774009,0
 .01012938,0.00422851,0.00055950,-0.00007716,0.00038751,0.00044932,0.00
 030259,-0.00015700,-0.05962843,-0.15327328,-0.10501426,-0.00003415,-0.
 00000519,-0.00000456,0.00015666,0.00002397,0.00199918,-0.00190708,0.00
 261991,-0.00142376,0.00005191,-0.00001049,0.00000705,0.00016931,-0.000
 13002,-0.00001214,-0.00001026,0.00000832,0.00000034,0.00000630,-0.0000
 1988,-0.00000228,0.00000428,0.00000446,-0.00000677,0.00005427,0.000029
 96,-0.00000957,0.00097445,0.00049177,0.00053820,0.00036435,0.00021567,
 0.00040224,-0.00009970,-0.00001175,-0.00004530,0.00017503,-0.00000136,
 -0.00017221,-0.00001143,-0.00000080,-0.00007024,-0.00006176,0.00008973
 ,0.00001166,0.06534721,0.18221616,-0.00109959,0.00013314,0.00024550,0.
 00011487,-0.00021679,0.00001082,0.00002967,-0.00008613,-0.00014710,-0.
 00019864,-0.00000883,0.00001049,0.00415446,0.01911462,0.01169695,0.002
 86400,0.00086290,0.00162081,-0.00976319,0.00100369,0.00438458,-0.00025
 874,0.00000315,-0.00010489,-0.00039736,-0.00019524,0.00011660,-0.05549
 523,-0.10839581,-0.16144807,0.00004110,-0.00000265,0.00004214,0.001423
 34,0.00069898,-0.00174502,-0.00963155,-0.02117609,-0.01958828,0.000350
 18,0.00030518,0.00020079,0.00058792,0.00016306,0.00045036,-0.00000083,
 0.00000776,-0.00001437,-0.00000413,0.00000266,0.00000986,-0.00001050,-
 0.00001055,0.00001033,-0.00005938,-0.00003783,0.00001105,0.00036457,-0
 .00089588,-0.00027433,0.00019817,-0.00002639,0.00007441,-0.00008338,-0
 .00002365,-0.00010134,-0.00005842,-0.00013133,0.00014467,0.00000943,0.
 00001417,-0.00000838,0.00001607,-0.00000221,-0.00000913,0.06439039,0.1
 0885185,0.16784671,0.00000128,-0.00000620,0.00001906,0.00205447,0.0007
 4480,-0.00161961,-0.01940190,-0.01075843,0.00779623,-0.00529994,-0.006
 71699,-0.00141712,-0.00018704,0.00003586,-0.00010456,0.00006148,-0.000
 03749,0.00001209,-0.00044042,-0.00025853,-0.00002805,-0.00001042,-0.00
 000066,-0.00000482,-0.00213749,0.00454206,-0.00012184,0.00027379,-0.00
 002818,0.00009624,-0.24416602,-0.10228251,0.06577070,0.00073988,0.0005
 0453,0.00042099,-0.00005015,0.00002115,-0.00000933,-0.00001085,0.00000
 242,0.00000087,-0.00000463,-0.00000059,-0.00000262,-0.00006067,-0.0000
 5723,0.00017504,-0.00032514,-0.00021274,0.00015306,0.00111805,-0.00047
 054,-0.00055179,0.00052258,0.00015682,0.00017418,-0.00001813,-0.000000
 52,-0.00000650,-0.00000716,0.00000686,-0.00000411,0.00000202,0.0000007
 8,0.00000105,-0.00000557,0.00000248,0.00000289,0.00015528,-0.00005483,
 0.00010722,-0.00126356,-0.00089933,0.00021951,-0.00004605,0.00000070,-
 0.00001634,0.26284131,-0.00000324,0.00000385,0.00001424,0.00131986,-0.
 00114143,-0.00459211,0.02009969,0.01236013,-0.00629034,-0.02490752,-0.
 01880208,0.00212364,0.00005907,0.00002730,0.00005670,-0.00001092,0.000
 02029,0.00000593,-0.00029890,0.00039170,0.00010873,0.00000058,-0.00000
 239,-0.00000086,0.00314889,-0.00337194,0.00006252,-0.00001836,-0.00006
 816,0.00006842,-0.09811468,-0.10164574,0.03556769,0.00014818,-0.001046
 26,-0.00036408,-0.00002761,0.00000162,-0.00003060,-0.00000446,0.000001
 58,-0.00000079,0.00000206,-0.00000026,0.00000132,0.00017989,0.00009915
 ,-0.00000714,-0.00137990,-0.00059308,0.00001533,-0.00092060,0.00087062
 ,0.00017050,-0.00121683,0.00058240,0.00003611,0.00000793,0.00000050,0.
 00000287,-0.00000104,0.00000013,-0.00000016,-0.00000133,0.00000093,-0.
 00000028,0.00000045,0.00000050,-0.00000051,-0.00010861,0.00001503,-0.0
 0011378,0.00131439,0.00068964,-0.00019114,0.00000171,0.00000011,-0.000
 00033,0.11317725,0.11707613,-0.00000269,-0.00000206,0.00001672,-0.0000
 1372,-0.00199788,-0.00338527,0.00061698,0.00233188,-0.00035821,-0.0270
 1056,-0.01967071,0.00445170,-0.00000265,0.00004179,0.00000769,0.000006
 17,0.00000568,0.00000587,-0.00036183,0.00024327,0.00011282,-0.00000238
 ,-0.00000167,-0.00000162,0.00048583,-0.00127606,0.00092764,0.00003797,
 -0.00005461,0.00008463,0.07490756,0.04315159,-0.07711749,0.00031606,-0
 .00064890,-0.00027114,-0.00004504,0.00000939,-0.00002052,-0.00000650,0
 .00000199,-0.00000068,0.,-0.00000025,-0.00000037,-0.00012118,-0.000248
 46,0.00041555,-0.00096962,-0.00070828,0.00028590,-0.00019996,-0.000670
 96,0.00048477,-0.00005801,0.00005543,0.00011660,0.00000136,-0.00000002
 ,0.00000061,-0.00000266,0.00000141,-0.00000111,0.00000007,0.00000096,-
 0.00000003,-0.00000070,0.00000094,0.00000062,-0.00031180,-0.00025868,0
 .00017423,0.00043903,0.00025781,0.00019891,-0.00001179,0.00000077,-0.0
 0000350,-0.07037724,-0.03189779,0.07962385,-0.00000175,0.00000044,0.00
 000546,0.00057823,0.00129487,-0.00216940,-0.00426708,0.01438727,-0.021
 34025,0.00044703,-0.00156928,-0.00871430,0.00000297,0.00001205,0.00000
 262,0.00000606,0.00000062,0.00000330,-0.00015718,-0.00008689,0.0000153
 8,0.00000004,-0.00000048,-0.00000082,0.00144024,0.00001930,-0.00110547
 ,0.00003556,-0.00002119,0.00002397,-0.05991288,0.01604520,-0.02731607,
 -0.00016668,0.00006228,0.00010554,-0.00001254,0.00000161,-0.00000753,-
 0.00000211,0.00000050,0.00000018,0.00000035,-0.00000016,-0.00000022,0.
 00016175,0.00012949,0.00024224,0.00001080,-0.00000867,0.00007456,-0.00
 312909,0.00327722,0.00022291,0.00088195,-0.00049749,0.00038871,-0.0000
 0023,-0.00000030,-0.00000053,-0.00000086,-0.00000011,0.00000035,0.0000
 0026,0.00000045,-0.00000051,-0.00000062,0.00000012,0.00000023,-0.00003
 810,-0.00020942,0.00032050,0.00018353,-0.00005015,0.00026557,-0.000008
 13,0.00000053,-0.00000293,0.00570070,-0.01244094,0.02271466,0.05821430
 ,-0.00000034,0.00000096,0.00000435,0.00244897,0.00334503,-0.00314285,0
 .00351001,-0.01182731,0.02010909,-0.00807875,0.00535801,-0.03094296,0.
 00001211,-0.00000448,0.00000152,-0.00000500,0.00000184,-0.00000292,-0.
 00010951,0.00017614,0.00009645,0.00000004,-0.00000064,0.00000012,-0.00
 116097,0.00069170,-0.00012242,-0.00003093,-0.00000433,0.00004190,0.016
 26358,-0.11332895,0.11175752,-0.00018615,-0.00045520,0.00004548,-0.000
 00990,0.00000205,-0.00000759,-0.00000130,0.00000060,-0.00000085,-0.000
 00002,0.00000006,0.00000018,0.00087003,0.00011219,0.00115531,0.0001545
 1,0.00003129,0.00004519,0.00426595,-0.00200661,-0.00068162,-0.00053405
 ,0.00063161,-0.00019981,0.00000112,0.00000026,0.00000037,-0.00000027,0
 .00000048,-0.00000004,-0.00000035,-0.00000012,0.00000051,0.00000047,0.
 00000017,-0.00000049,0.00029038,0.00049970,-0.00030257,-0.00008166,0.0
 0001119,-0.00032718,0.00000815,-0.00000386,0.00000150,0.00266601,-0.00
 555513,0.01132119,-0.02029038,0.12243312,-0.00000160,-0.00000029,0.000
 02331,0.00308316,0.00262161,0.00061871,0.00136189,-0.00004325,0.003375
 43,-0.00834412,-0.00468035,-0.03514555,-0.00008139,0.00003935,-0.00003
 006,0.00003189,-0.00000853,0.00001045,-0.00062026,-0.00001581,-0.00001
 290,-0.00000632,-0.00000280,-0.00000372,-0.00007284,-0.00055042,0.0003
 8041,0.00016554,-0.00008822,0.00009763,-0.03029685,0.10770760,-0.22799
 289,0.00027871,-0.00046292,0.00008166,-0.00004963,0.00001608,-0.000025
 42,-0.00001071,0.00000281,0.00000017,-0.00000099,-0.00000082,-0.000001
 10,-0.00086657,-0.00055204,0.00068682,-0.00004109,-0.00038610,0.000378
 63,0.00099215,-0.00042634,0.00108717,-0.00060182,0.00064800,0.00030245
 ,-0.00000595,-0.00000035,-0.00000191,-0.00000511,0.00000393,-0.0000023
 1,0.00000059,0.00000137,0.00000093,-0.00000310,0.00000202,0.00000161,-
 0.00041217,-0.00015244,-0.00012861,-0.00009766,-0.00002408,0.00010958,
 -0.00003539,0.00000230,-0.00001026,-0.00061052,0.00518970,-0.00575974,
 0.03621352,-0.10891370,0.26205277,0.00000433,0.00000060,0.00016810,-0.
 00580156,0.01238266,-0.02418352,0.00033401,0.00029533,-0.00025087,0.00
 222025,-0.00026618,0.00044486,-0.00486982,0.00129469,-0.00015125,0.000
 02956,-0.00019085,0.00009209,-0.00559153,-0.02103071,0.02814416,-0.000
 06044,0.00001340,-0.00002108,0.00106117,0.00200901,-0.00220764,0.00332
 340,-0.00048780,0.00133022,-0.00000388,0.00000957,0.00004900,-0.056158
 78,0.02114948,-0.04556358,-0.00062373,0.00032565,-0.00016911,-0.000083
 23,0.00002174,-0.00000684,-0.00000870,-0.00000684,-0.00001221,-0.00389
 777,0.00269779,0.00022345,0.00128607,-0.00077136,0.00053090,0.00000775
 ,-0.00011142,-0.00008559,0.00005149,0.00008130,-0.00005400,-0.00000938
 ,0.00002399,0.00002205,0.00000188,0.00003517,-0.00001809,0.00000826,0.
 00000668,-0.00000306,-0.00001253,0.00003961,-0.00000188,0.00046149,-0.
 00064874,-0.00039126,0.00009552,-0.00049902,0.00012499,0.00000022,-0.0
 0010469,-0.00009000,-0.00003024,-0.00001224,-0.00002863,0.00003492,-0.
 00000280,0.00003719,0.06813964,-0.00001681,-0.00000306,0.00018821,0.00
 579458,-0.01022534,0.01862125,0.00088031,0.00122608,0.00021109,-0.0012
 0850,0.00167906,-0.00108071,0.00175791,0.00088419,-0.00072746,0.000242
 15,0.00021621,-0.00018349,-0.00754989,-0.01514845,0.02049875,0.0000543
 5,-0.00004767,0.00000290,-0.00393380,0.00935754,-0.02245721,0.00353408
 ,-0.00113070,0.00075331,0.00003791,-0.00027228,-0.00026312,0.01608502,
 -0.09068257,0.09175036,-0.00046720,0.00019725,-0.00022396,-0.00008192,
 0.00002286,-0.00000166,-0.00001292,-0.00000235,-0.00000845,0.00275068,
 -0.00160489,0.00012197,-0.00081963,0.00081723,0.00005285,0.00004377,-0
 .00016040,0.00028992,0.00021403,-0.00008410,0.00015616,0.00000185,-0.0
 0002487,-0.00000376,-0.00008885,0.00000377,-0.00001272,-0.00000115,0.0
 0000723,0.00000213,0.00000175,0.00001356,-0.00002273,-0.00097385,-0.00
 288104,-0.00387104,0.00040058,0.00087219,0.00091037,-0.00025172,-0.000
 13041,-0.00007245,-0.00006352,0.00007444,0.00001206,-0.00005763,-0.000
 11148,0.00007556,-0.01629194,0.10708019,0.00004650,0.00002786,-0.00013
 455,0.00070331,-0.00148140,0.00257163,0.00033552,0.00053625,0.00010994
 ,-0.00098480,-0.00073853,0.00036230,-0.00310523,-0.00005726,0.00075073
 ,0.00018421,-0.00058924,0.00061918,0.00758068,0.00724454,-0.00358794,-
 0.00024093,0.00007956,-0.00009830,-0.00505073,0.00812524,-0.02142373,-
 0.00207174,0.00237234,-0.00068361,0.00003390,-0.00016834,0.00005416,-0
 .04016600,0.09298442,-0.26435956,0.00024208,-0.00028485,0.00008516,0.0
 0004660,-0.00002401,0.00001038,0.00000489,-0.00000363,0.00000456,0.001
 12896,-0.00032552,0.00097671,-0.00040799,0.00025994,0.00081568,-0.0003
 7685,-0.00018440,0.00041210,-0.00006607,-0.00031857,0.00028706,-0.0001
 1295,0.00000022,-0.00003452,0.00006538,0.00004005,-0.00002102,0.000006
 58,0.00000068,0.00000222,-0.00005752,0.00000675,0.00007736,-0.00070151
 ,-0.00305927,-0.00229415,0.00036770,0.00032275,0.00107239,0.00040378,-
 0.00017233,-0.00009027,-0.00006701,0.00005861,0.00001034,0.00005781,0.
 00006340,-0.00009489,0.04221130,-0.10466849,0.28456375,-0.01571351,-0.
 02077832,-0.01937110,0.00000669,0.00002856,-0.00000996,-0.00006863,-0.
 00000388,0.00006485,0.00003485,0.00000730,0.00000325,0.00047548,0.0001
 6722,-0.00194285,-0.00038246,0.00018606,-0.00000930,0.00262351,-0.0000
 6434,-0.00056999,0.00147348,-0.00108073,0.00051503,-0.00019122,-0.0001
 0973,0.00003445,0.00498277,0.01286083,0.01250149,-0.00001300,-0.000012
 59,-0.00000250,0.00001329,-0.00023224,-0.00009216,-0.09777689,-0.07722
 587,-0.07226173,0.00141804,-0.00022279,0.00059015,-0.00545534,0.002431
 07,-0.00133532,0.00000172,0.00000245,-0.00000488,0.00000504,0.00000119
 ,0.00000148,-0.00000797,-0.00000469,0.00000219,0.00000862,0.00000283,-
 0.00000371,-0.00003181,0.00000079,0.00001308,0.00008200,-0.00001387,-0
 .00008449,0.00027038,0.00056168,0.00001171,0.00006941,0.00014608,0.000
 37819,0.00001078,-0.00003149,-0.00004179,0.00001659,0.00000496,-0.0000
 5123,-0.00122208,-0.00021248,0.00302934,-0.00000332,0.00000512,0.00000
 042,-0.00000102,0.00000056,-0.00000007,0.00003013,0.00002186,-0.000008
 94,0.10939663,0.00401618,0.00598447,0.00656735,-0.00000183,0.00002836,
 0.00000131,-0.00004121,0.00005057,0.00005060,0.00002686,0.00000832,0.0
 0000940,0.00012247,0.00185540,0.00048674,0.00025367,0.00002064,0.00015
 993,0.00065602,0.00035145,0.00038111,0.00005658,0.00096294,0.00018978,
 -0.00017050,-0.00015032,0.00001302,-0.00135701,-0.00327742,-0.00044847
 ,-0.00002033,-0.00003213,-0.00000980,0.00003959,-0.00014840,-0.0000727
 9,-0.07635824,-0.16146167,-0.10435881,-0.00068614,0.00035493,-0.000104
 00,0.00195506,0.00043433,0.00068281,0.00000360,-0.00000292,-0.00000004
 ,0.00000081,0.00000414,0.00000277,-0.00000945,-0.00000672,0.00000788,0
 .00000396,0.00000071,-0.00000402,-0.00001778,-0.00018885,-0.00005524,-
 0.00003215,0.00000023,-0.00000535,0.00005879,0.00012508,-0.00030696,-0
 .00004260,0.00016595,-0.00009722,0.00008274,-0.00004615,-0.00001459,-0
 .00005765,-0.00004354,0.00000192,0.00034049,0.00104203,-0.00038583,-0.
 00000922,0.00000841,0.00000065,0.00000191,0.00000046,0.00000111,0.0000
 0962,0.00001244,-0.00000184,0.08286622,0.17087037,-0.00132287,-0.00180
 162,-0.00230862,0.00000274,0.00005083,0.00001696,-0.00002025,0.0000885
 7,0.00004269,0.00003996,0.00000298,-0.00000435,-0.00045991,0.00012751,
 0.00340038,0.00011175,0.00003802,0.00010143,-0.00106894,0.00196092,0.0
 0304831,-0.00002354,-0.00025958,-0.00016093,0.00003974,-0.00012324,-0.
 00000407,-0.01372153,-0.02242276,-0.02350783,-0.00002187,-0.00004169,-
 0.00000837,0.00012859,-0.00017600,-0.00002087,-0.07012459,-0.10188338,
 -0.14388419,-0.00011774,0.00040702,0.00045686,-0.00043380,0.00003562,0
 .00079826,0.00000051,-0.00000021,0.00000207,-0.00000178,-0.00000161,-0
 .00000010,-0.00000719,-0.00000445,0.00000592,0.00000602,-0.00000048,-0
 .00000335,0.00002988,-0.00008921,0.00003807,-0.00000548,0.00001929,-0.
 00002228,-0.00010155,0.00012579,-0.00017219,0.00001472,0.00009818,0.00
 004101,0.00002898,-0.00002953,-0.00003557,-0.00011146,0.00001180,-0.00
 003086,0.00314833,0.00033851,-0.00440698,-0.00000977,0.00000808,0.0000
 0083,-0.00000010,0.00000188,0.00000111,-0.00002185,0.00000355,-0.00003
 822,0.07736740,0.11497556,0.15754832,-0.00004080,0.02960824,-0.0145110
 2,0.00001173,0.00003601,-0.00000556,-0.00001582,0.00001039,-0.00000147
 ,0.00002712,0.00000125,0.00000113,-0.00094093,-0.00199516,0.00595946,-
 0.00135213,0.00035829,0.00010506,0.00072934,-0.00009054,-0.00017422,-0
 .00671827,0.00047950,-0.00061308,0.00002651,-0.00003670,0.00003460,-0.
 00075862,-0.01529451,0.00350563,-0.00000352,-0.00001062,0.00000132,0.0
 0023732,-0.00011994,-0.00018492,-0.04590954,0.00794318,-0.00329244,0.0
 0140328,-0.00052630,0.00066771,0.00149696,-0.00072883,0.00012700,-0.00
 000487,0.00000212,-0.00000231,-0.00000181,0.00000439,-0.00000064,-0.00
 000023,0.00000002,-0.00000079,0.00000017,-0.00000086,-0.00000150,0.000
 17397,-0.00011373,-0.00003007,0.00028494,-0.00006705,-0.00006135,0.000
 08128,0.00004180,0.00014869,-0.00006086,0.00166655,-0.00121236,0.00000
 177,0.00001184,-0.00001354,-0.00004615,0.00002507,0.00000633,0.0003389
 5,0.00045256,-0.00040329,-0.00000214,0.00000210,0.00000087,-0.00000043
 ,0.00000052,-0.00000047,0.00006150,-0.00000149,-0.00000094,-0.00005217
 ,-0.01169045,0.00665559,0.05103344,-0.00036983,-0.00635716,0.00228779,
 -0.00000010,-0.00004509,0.00000386,-0.00000903,0.00002413,-0.00000218,
 -0.00003108,0.00000320,-0.00000181,0.00072403,0.00136353,0.00059641,-0
 .00025462,-0.00000806,-0.00040774,-0.00029720,0.00075781,-0.00025460,0
 .00232099,0.00125473,-0.00000645,0.00000420,-0.00004283,0.00003038,0.0
 0064403,-0.00068421,-0.00172585,-0.00000171,-0.00000857,0.00001038,-0.
 00010475,0.00010830,-0.00014020,0.00707691,-0.27118028,0.10231387,0.00
 001962,0.00008291,-0.00027213,0.00019265,0.00068429,0.00000799,-0.0000
 0546,0.00000389,-0.00000458,0.00000012,0.00000144,0.00000276,-0.000001
 22,-0.00000015,0.00000086,-0.00000169,-0.00000278,-0.00000047,0.000040
 12,0.00000791,0.00006121,-0.00003623,-0.00005125,0.00006347,-0.0000115
 0,0.00025519,-0.00017473,-0.00015211,-0.00048016,0.00056733,-0.0000006
 3,-0.00001361,-0.00000573,-0.00003237,0.00001501,-0.00000501,-0.000467
 04,0.00046725,0.00050533,-0.00000423,0.00000201,-0.00000046,-0.0000007
 3,0.00000126,-0.00000299,0.00002828,0.00004537,-0.00004492,0.00069822,
 -0.01692312,0.00853964,-0.00996763,0.29071903,-0.00084979,0.00309066,-
 0.00267015,0.00001081,-0.00000104,0.00003046,-0.00000811,-0.00000318,0
 .00000765,-0.00000336,-0.00000009,-0.00001100,0.00331437,0.00307837,-0
 .00751269,0.00161683,-0.00076546,0.00085857,-0.00129544,-0.00083927,0.
 00061240,-0.00083851,-0.00029658,0.00103058,0.00001512,0.00002337,0.00
 003302,-0.00321247,0.02691402,-0.00878500,-0.00000228,0.00000706,0.000
 00111,-0.00001630,0.00003729,0.00036519,-0.00245118,0.09875519,-0.0952
 0121,-0.00027714,-0.00029866,0.00024321,0.00021690,0.00010698,0.000148
 58,0.00000811,-0.00000409,0.00000170,-0.00000148,-0.00000236,-0.000001
 95,0.00000005,0.00000152,-0.00000087,0.00000438,0.00000373,-0.00000001
 ,-0.00019368,-0.00001583,-0.00007938,-0.00019849,0.00007030,-0.0000328
 1,0.00008465,0.00032686,-0.00008488,0.00010765,0.00024660,0.00015678,0
 .00001636,0.00000118,-0.00000825,0.00002592,-0.00001284,-0.00000027,-0
 .00053130,-0.00076069,0.00107582,0.00000209,-0.00000047,0.00000043,0.0
 0000062,-0.00000097,0.00000048,-0.00011784,-0.00005317,0.00007510,0.00
 127697,-0.01766700,0.00910655,0.00329657,-0.11194142,0.10064086\\0.000
 00164,0.00000960,-0.00001817,-0.00003821,0.00002451,0.00000251,-0.0000
 3944,0.00003878,-0.00000584,0.00005578,0.00008561,0.00002168,-0.000074
 11,0.00036376,0.00072781,0.00014502,-0.00001870,0.00005763,-0.00007790
 ,0.00073633,0.00151326,-0.00003404,0.00001433,0.00000895,0.00005487,0.
 00003088,0.00001344,0.00001339,-0.00070919,-0.00140944,-0.00001920,-0.
 00008013,-0.00007200,0.00002072,-0.00045691,-0.00081572,0.00003790,0.0
 0000247,-0.00000095,0.00000271,-0.00000489,-0.00001245,-0.00000088,-0.
 00000447,-0.00000071,-0.00000413,-0.00001123,0.00000240,0.00001279,0.0
 0001802,0.00001512,0.00000396,-0.00000485,0.00001297,0.00001724,-0.000
 01608,0.00000105,-0.00002955,0.00000357,-0.00000810,-0.00003159,0.0000
 0143,0.00000538,-0.00000267,-0.00000793,-0.00000702,0.00000782,-0.0000
 0103,-0.00001662,-0.00000748,0.00000004,-0.00000217,-0.00001686,-0.000
 02584,-0.00000863,-0.00001609,-0.00000650,-0.00000638,-0.00000526,-0.0
 0000759,0.00000592,0.00000185,0.00001828,0.00002405,-0.00000183,0.0000
 1153,-0.00000123,0.00000173,-0.00000581,-0.00000438,0.00002180,0.00000
 199,-0.00002232\\\@


 AS FAR AS THE LAWS OF MATHEMATICS REFER TO REALITY,
 THEY ARE NOT CERTAIN; AND AS FAR AS THEY ARE CERTAIN,
 THEY DO NOT REFER TO REALITY.

                                         -- ALBERT EINSTEIN
 Job cpu time:       0 days 11 hours 30 minutes 13.0 seconds.
 Elapsed time:       0 days  0 hours 57 minutes 32.6 seconds.
 File lengths (MBytes):  RWF=    723 Int=      0 D2E=      0 Chk=     34 Scr=      1
 Normal termination of Gaussian 16 at Sun Mar 10 07:58:15 2019.
