 Entering Gaussian System, Link 0=g16
 Initial command:
 /sw/Projects/G16/g16/l1.exe "/nvme/pbs/tmpdir/pbs.74289[9].flm1/Gau-7314.inp" -scrdir="/nvme/pbs/tmpdir/pbs.74289[9].flm1/"
 Entering Link 1 = /sw/Projects/G16/g16/l1.exe PID=      7315.
  
 Copyright (c) 1988-2017, Gaussian, Inc.  All Rights Reserved.
  
 This is part of the Gaussian(R) 16 program.  It is based on
 the Gaussian(R) 09 system (copyright 2009, Gaussian, Inc.),
 the Gaussian(R) 03 system (copyright 2003, Gaussian, Inc.),
 the Gaussian(R) 98 system (copyright 1998, Gaussian, Inc.),
 the Gaussian(R) 94 system (copyright 1995, Gaussian, Inc.),
 the Gaussian 92(TM) system (copyright 1992, Gaussian, Inc.),
 the Gaussian 90(TM) system (copyright 1990, Gaussian, Inc.),
 the Gaussian 88(TM) system (copyright 1988, Gaussian, Inc.),
 the Gaussian 86(TM) system (copyright 1986, Carnegie Mellon
 University), and the Gaussian 82(TM) system (copyright 1983,
 Carnegie Mellon University). Gaussian is a federally registered
 trademark of Gaussian, Inc.
  
 This software contains proprietary and confidential information,
 including trade secrets, belonging to Gaussian, Inc.
  
 This software is provided under written license and may be
 used, copied, transmitted, or stored only in accord with that
 written license.
  
 The following legend is applicable only to US Government
 contracts under FAR:
  
                    RESTRICTED RIGHTS LEGEND
  
 Use, reproduction and disclosure by the US Government is
 subject to restrictions as set forth in subparagraphs (a)
 and (c) of the Commercial Computer Software - Restricted
 Rights clause in FAR 52.227-19.
  
 Gaussian, Inc.
 340 Quinnipiac St., Bldg. 40, Wallingford CT 06492
  
  
 ---------------------------------------------------------------
 Warning -- This program may not be used in any manner that
 competes with the business of Gaussian, Inc. or will provide
 assistance to any competitor of Gaussian, Inc.  The licensee
 of this program is prohibited from giving any competitor of
 Gaussian, Inc. access to this program.  By using this program,
 the user acknowledges that Gaussian, Inc. is engaged in the
 business of creating and licensing software in the field of
 computational chemistry and represents and warrants to the
 licensee that it is not a competitor of Gaussian, Inc. and that
 it will not use this program in any manner prohibited above.
 ---------------------------------------------------------------
  

 Cite this work as:
 Gaussian 16, Revision B.01,
 M. J. Frisch, G. W. Trucks, H. B. Schlegel, G. E. Scuseria, 
 M. A. Robb, J. R. Cheeseman, G. Scalmani, V. Barone, 
 G. A. Petersson, H. Nakatsuji, X. Li, M. Caricato, A. V. Marenich, 
 J. Bloino, B. G. Janesko, R. Gomperts, B. Mennucci, H. P. Hratchian, 
 J. V. Ortiz, A. F. Izmaylov, J. L. Sonnenberg, D. Williams-Young, 
 F. Ding, F. Lipparini, F. Egidi, J. Goings, B. Peng, A. Petrone, 
 T. Henderson, D. Ranasinghe, V. G. Zakrzewski, J. Gao, N. Rega, 
 G. Zheng, W. Liang, M. Hada, M. Ehara, K. Toyota, R. Fukuda, 
 J. Hasegawa, M. Ishida, T. Nakajima, Y. Honda, O. Kitao, H. Nakai, 
 T. Vreven, K. Throssell, J. A. Montgomery, Jr., J. E. Peralta, 
 F. Ogliaro, M. J. Bearpark, J. J. Heyd, E. N. Brothers, K. N. Kudin, 
 V. N. Staroverov, T. A. Keith, R. Kobayashi, J. Normand, 
 K. Raghavachari, A. P. Rendell, J. C. Burant, S. S. Iyengar, 
 J. Tomasi, M. Cossi, J. M. Millam, M. Klene, C. Adamo, R. Cammi, 
 J. W. Ochterski, R. L. Martin, K. Morokuma, O. Farkas, 
 J. B. Foresman, and D. J. Fox, Gaussian, Inc., Wallingford CT, 2016.
 
 ******************************************
 Gaussian 16:  ES64L-G16RevB.01 20-Dec-2017
                10-Mar-2019 
 ******************************************
 %mem=20gb
 %nproc=12
 Will use up to   12 processors via shared memory.
 %chk=4c1_b1_4e_4c1_PHI.inp_extract_9.chk
 ----------------------------------------------------------------------
 #M062X/6-311++G(2d,2p) opt=ModRedundant freq=noraman SCRF=(SMD,solvent
 =water)
 ----------------------------------------------------------------------
 1/18=120,19=15,26=3,38=1/1,3;
 2/9=110,12=2,17=6,18=5,40=1/2;
 3/5=4,6=6,7=1212,11=2,25=1,30=1,70=32201,71=1,72=1,74=-55/1,2,3;
 4//1;
 5/5=2,38=5,53=1/2;
 6/7=2,8=2,9=2,10=2,28=1/1;
 7//1,2,3,16;
 1/18=20,19=15,26=3/3(2);
 2/9=110/2;
 99//99;
 2/9=110/2;
 3/5=4,6=6,7=1212,11=2,25=1,30=1,70=32205,71=1,72=1,74=-55/1,2,3;
 4/5=5,16=3,69=1/1;
 5/5=2,38=5,53=1/2;
 7//1,2,3,16;
 1/18=20,19=15,26=3/3(-5);
 2/9=110/2;
 6/7=2,8=2,9=2,10=2,19=2,28=1/1;
 99/9=1/99;
 -------------------------------
 4c1_b1_4e_4c1_PHI.inp_extract_9
 -------------------------------
 Symbolic Z-matrix:
 Charge =  0 Multiplicity = 1
 C                    -3.37249   1.0493   -0.29613 
 C                     1.77694  -1.14049   0.48718 
 C                     3.15258   1.06012  -0.73354 
 O                     2.84318  -1.31836  -0.42047 
 O                    -1.48501  -1.05012   0.13684 
 C                    -2.83747  -1.38548  -0.136 
 O                     0.01397   0.32445   1.16809 
 C                    -3.50796  -0.31231  -0.9777 
 C                     1.95456   1.33296   0.17913 
 C                    -1.33373   0.15153   0.84666 
 C                     3.796    -0.27137  -0.3816 
 C                     1.00919   0.13859   0.17261 
 C                    -1.90678   1.31827   0.05581 
 H                    -3.754     1.83909  -0.93524 
 H                    -3.9709    1.05904   0.6128 
 H                     2.16273  -1.09457   1.50326 
 H                     1.14065  -2.00878   0.39774 
 H                     2.83109   1.03584  -1.77182 
 H                     3.88953   1.85223  -0.64013 
 H                    -3.36438  -1.51859   0.80586 
 H                    -2.80981  -2.33716  -0.64755 
 H                    -3.04014  -0.28467  -1.95883 
 H                    -4.55252  -0.57387  -1.12076 
 H                     2.2991    1.49775   1.19768 
 H                     1.42424   2.22659  -0.13461 
 H                    -1.84017   0.06354   1.80105 
 H                     4.56888  -0.537    -1.08979 
 H                     4.23863  -0.23244   0.61125 
 H                     0.55134   0.04361  -0.80244 
 H                    -1.32633   1.45328  -0.85238 
 H                    -1.81015   2.22156   0.64982 
 
 The following ModRedundant input section has been read:
 D      12       7      10       5 F                                           
 

 GradGradGradGradGradGradGradGradGradGradGradGradGradGradGradGradGradGrad
 Berny optimization.
 Initialization pass.
                           ----------------------------
                           !    Initial Parameters    !
                           ! (Angstroms and Degrees)  !
 --------------------------                            --------------------------
 ! Name  Definition              Value          Derivative Info.                !
 --------------------------------------------------------------------------------
 ! R1    R(1,8)                  1.5287         estimate D2E/DX2                !
 ! R2    R(1,13)                 1.5312         estimate D2E/DX2                !
 ! R3    R(1,14)                 1.0853         estimate D2E/DX2                !
 ! R4    R(1,15)                 1.0883         estimate D2E/DX2                !
 ! R5    R(2,4)                  1.4115         estimate D2E/DX2                !
 ! R6    R(2,12)                 1.5246         estimate D2E/DX2                !
 ! R7    R(2,16)                 1.0878         estimate D2E/DX2                !
 ! R8    R(2,17)                 1.0802         estimate D2E/DX2                !
 ! R9    R(3,9)                  1.5306         estimate D2E/DX2                !
 ! R10   R(3,11)                 1.5201         estimate D2E/DX2                !
 ! R11   R(3,18)                 1.0872         estimate D2E/DX2                !
 ! R12   R(3,19)                 1.0859         estimate D2E/DX2                !
 ! R13   R(4,11)                 1.4162         estimate D2E/DX2                !
 ! R14   R(5,6)                  1.4199         estimate D2E/DX2                !
 ! R15   R(5,10)                 1.4038         estimate D2E/DX2                !
 ! R16   R(6,8)                  1.5198         estimate D2E/DX2                !
 ! R17   R(6,20)                 1.0874         estimate D2E/DX2                !
 ! R18   R(6,21)                 1.0808         estimate D2E/DX2                !
 ! R19   R(7,10)                 1.3963         estimate D2E/DX2                !
 ! R20   R(7,12)                 1.4199         estimate D2E/DX2                !
 ! R21   R(8,22)                 1.0873         estimate D2E/DX2                !
 ! R22   R(8,23)                 1.0863         estimate D2E/DX2                !
 ! R23   R(9,12)                 1.5232         estimate D2E/DX2                !
 ! R24   R(9,24)                 1.0878         estimate D2E/DX2                !
 ! R25   R(9,25)                 1.0855         estimate D2E/DX2                !
 ! R26   R(10,13)                1.5216         estimate D2E/DX2                !
 ! R27   R(10,26)                1.084          estimate D2E/DX2                !
 ! R28   R(11,27)                1.0814         estimate D2E/DX2                !
 ! R29   R(11,28)                1.0877         estimate D2E/DX2                !
 ! R30   R(12,29)                1.0814         estimate D2E/DX2                !
 ! R31   R(13,30)                1.0863         estimate D2E/DX2                !
 ! R32   R(13,31)                1.0854         estimate D2E/DX2                !
 ! A1    A(8,1,13)             110.1064         estimate D2E/DX2                !
 ! A2    A(8,1,14)             110.7623         estimate D2E/DX2                !
 ! A3    A(8,1,15)             109.3672         estimate D2E/DX2                !
 ! A4    A(13,1,14)            110.1223         estimate D2E/DX2                !
 ! A5    A(13,1,15)            109.4401         estimate D2E/DX2                !
 ! A6    A(14,1,15)            106.9804         estimate D2E/DX2                !
 ! A7    A(4,2,12)             110.6979         estimate D2E/DX2                !
 ! A8    A(4,2,16)             109.7588         estimate D2E/DX2                !
 ! A9    A(4,2,17)             106.8838         estimate D2E/DX2                !
 ! A10   A(12,2,16)            109.6268         estimate D2E/DX2                !
 ! A11   A(12,2,17)            111.1409         estimate D2E/DX2                !
 ! A12   A(16,2,17)            108.6734         estimate D2E/DX2                !
 ! A13   A(9,3,11)             110.4501         estimate D2E/DX2                !
 ! A14   A(9,3,18)             109.9987         estimate D2E/DX2                !
 ! A15   A(9,3,19)             110.4788         estimate D2E/DX2                !
 ! A16   A(11,3,18)            109.0695         estimate D2E/DX2                !
 ! A17   A(11,3,19)            109.3748         estimate D2E/DX2                !
 ! A18   A(18,3,19)            107.4047         estimate D2E/DX2                !
 ! A19   A(2,4,11)             113.4168         estimate D2E/DX2                !
 ! A20   A(6,5,10)             113.7023         estimate D2E/DX2                !
 ! A21   A(5,6,8)              111.0919         estimate D2E/DX2                !
 ! A22   A(5,6,20)             108.9062         estimate D2E/DX2                !
 ! A23   A(5,6,21)             105.9349         estimate D2E/DX2                !
 ! A24   A(8,6,20)             110.6318         estimate D2E/DX2                !
 ! A25   A(8,6,21)             111.7737         estimate D2E/DX2                !
 ! A26   A(20,6,21)            108.3351         estimate D2E/DX2                !
 ! A27   A(10,7,12)            119.9301         estimate D2E/DX2                !
 ! A28   A(1,8,6)              110.0563         estimate D2E/DX2                !
 ! A29   A(1,8,22)             109.9712         estimate D2E/DX2                !
 ! A30   A(1,8,23)             111.002          estimate D2E/DX2                !
 ! A31   A(6,8,22)             109.1405         estimate D2E/DX2                !
 ! A32   A(6,8,23)             109.0957         estimate D2E/DX2                !
 ! A33   A(22,8,23)            107.5183         estimate D2E/DX2                !
 ! A34   A(3,9,12)             110.0875         estimate D2E/DX2                !
 ! A35   A(3,9,24)             109.72           estimate D2E/DX2                !
 ! A36   A(3,9,25)             110.9046         estimate D2E/DX2                !
 ! A37   A(12,9,24)            108.6246         estimate D2E/DX2                !
 ! A38   A(12,9,25)            109.9416         estimate D2E/DX2                !
 ! A39   A(24,9,25)            107.4975         estimate D2E/DX2                !
 ! A40   A(5,10,7)             109.0523         estimate D2E/DX2                !
 ! A41   A(5,10,13)            110.67           estimate D2E/DX2                !
 ! A42   A(5,10,26)            108.9869         estimate D2E/DX2                !
 ! A43   A(7,10,13)            112.8433         estimate D2E/DX2                !
 ! A44   A(7,10,26)            104.9701         estimate D2E/DX2                !
 ! A45   A(13,10,26)           110.1147         estimate D2E/DX2                !
 ! A46   A(3,11,4)             110.881          estimate D2E/DX2                !
 ! A47   A(3,11,27)            111.4721         estimate D2E/DX2                !
 ! A48   A(3,11,28)            110.6232         estimate D2E/DX2                !
 ! A49   A(4,11,27)            106.3367         estimate D2E/DX2                !
 ! A50   A(4,11,28)            108.9835         estimate D2E/DX2                !
 ! A51   A(27,11,28)           108.4042         estimate D2E/DX2                !
 ! A52   A(2,12,7)             108.5498         estimate D2E/DX2                !
 ! A53   A(2,12,9)             110.1455         estimate D2E/DX2                !
 ! A54   A(2,12,29)            108.9997         estimate D2E/DX2                !
 ! A55   A(7,12,9)             109.231          estimate D2E/DX2                !
 ! A56   A(7,12,29)            110.2979         estimate D2E/DX2                !
 ! A57   A(9,12,29)            109.6032         estimate D2E/DX2                !
 ! A58   A(1,13,10)            110.1994         estimate D2E/DX2                !
 ! A59   A(1,13,30)            109.9487         estimate D2E/DX2                !
 ! A60   A(1,13,31)            110.9282         estimate D2E/DX2                !
 ! A61   A(10,13,30)           109.1846         estimate D2E/DX2                !
 ! A62   A(10,13,31)           108.6731         estimate D2E/DX2                !
 ! A63   A(30,13,31)           107.8509         estimate D2E/DX2                !
 ! D1    D(13,1,8,6)            51.9686         estimate D2E/DX2                !
 ! D2    D(13,1,8,22)          -68.3003         estimate D2E/DX2                !
 ! D3    D(13,1,8,23)          172.8462         estimate D2E/DX2                !
 ! D4    D(14,1,8,6)           174.0132         estimate D2E/DX2                !
 ! D5    D(14,1,8,22)           53.7443         estimate D2E/DX2                !
 ! D6    D(14,1,8,23)          -65.1091         estimate D2E/DX2                !
 ! D7    D(15,1,8,6)           -68.3203         estimate D2E/DX2                !
 ! D8    D(15,1,8,22)          171.4108         estimate D2E/DX2                !
 ! D9    D(15,1,8,23)           52.5574         estimate D2E/DX2                !
 ! D10   D(8,1,13,10)          -52.4927         estimate D2E/DX2                !
 ! D11   D(8,1,13,30)           67.9074         estimate D2E/DX2                !
 ! D12   D(8,1,13,31)         -172.887          estimate D2E/DX2                !
 ! D13   D(14,1,13,10)        -174.9157         estimate D2E/DX2                !
 ! D14   D(14,1,13,30)         -54.5155         estimate D2E/DX2                !
 ! D15   D(14,1,13,31)          64.69           estimate D2E/DX2                !
 ! D16   D(15,1,13,10)          67.7521         estimate D2E/DX2                !
 ! D17   D(15,1,13,30)        -171.8477         estimate D2E/DX2                !
 ! D18   D(15,1,13,31)         -52.6421         estimate D2E/DX2                !
 ! D19   D(12,2,4,11)           60.9947         estimate D2E/DX2                !
 ! D20   D(16,2,4,11)          -60.1533         estimate D2E/DX2                !
 ! D21   D(17,2,4,11)         -177.8345         estimate D2E/DX2                !
 ! D22   D(4,2,12,7)          -175.7156         estimate D2E/DX2                !
 ! D23   D(4,2,12,9)           -56.1665         estimate D2E/DX2                !
 ! D24   D(4,2,12,29)           64.1165         estimate D2E/DX2                !
 ! D25   D(16,2,12,7)          -54.4896         estimate D2E/DX2                !
 ! D26   D(16,2,12,9)           65.0595         estimate D2E/DX2                !
 ! D27   D(16,2,12,29)        -174.6575         estimate D2E/DX2                !
 ! D28   D(17,2,12,7)           65.6659         estimate D2E/DX2                !
 ! D29   D(17,2,12,9)         -174.7851         estimate D2E/DX2                !
 ! D30   D(17,2,12,29)         -54.502          estimate D2E/DX2                !
 ! D31   D(11,3,9,12)          -51.8891         estimate D2E/DX2                !
 ! D32   D(11,3,9,24)           67.6042         estimate D2E/DX2                !
 ! D33   D(11,3,9,25)         -173.7881         estimate D2E/DX2                !
 ! D34   D(18,3,9,12)           68.5604         estimate D2E/DX2                !
 ! D35   D(18,3,9,24)         -171.9464         estimate D2E/DX2                !
 ! D36   D(18,3,9,25)          -53.3387         estimate D2E/DX2                !
 ! D37   D(19,3,9,12)         -173.0342         estimate D2E/DX2                !
 ! D38   D(19,3,9,24)          -53.541          estimate D2E/DX2                !
 ! D39   D(19,3,9,25)           65.0667         estimate D2E/DX2                !
 ! D40   D(9,3,11,4)            54.9304         estimate D2E/DX2                !
 ! D41   D(9,3,11,27)          173.1961         estimate D2E/DX2                !
 ! D42   D(9,3,11,28)          -66.1051         estimate D2E/DX2                !
 ! D43   D(18,3,11,4)          -66.0737         estimate D2E/DX2                !
 ! D44   D(18,3,11,27)          52.192          estimate D2E/DX2                !
 ! D45   D(18,3,11,28)         172.8908         estimate D2E/DX2                !
 ! D46   D(19,3,11,4)          176.7294         estimate D2E/DX2                !
 ! D47   D(19,3,11,27)         -65.0049         estimate D2E/DX2                !
 ! D48   D(19,3,11,28)          55.6939         estimate D2E/DX2                !
 ! D49   D(2,4,11,3)           -60.446          estimate D2E/DX2                !
 ! D50   D(2,4,11,27)          178.2164         estimate D2E/DX2                !
 ! D51   D(2,4,11,28)           61.5524         estimate D2E/DX2                !
 ! D52   D(10,5,6,8)            60.4344         estimate D2E/DX2                !
 ! D53   D(10,5,6,20)          -61.6591         estimate D2E/DX2                !
 ! D54   D(10,5,6,21)         -177.9923         estimate D2E/DX2                !
 ! D55   D(6,5,10,7)           174.6122         estimate D2E/DX2                !
 ! D56   D(6,5,10,13)          -60.6894         estimate D2E/DX2                !
 ! D57   D(6,5,10,26)           60.5434         estimate D2E/DX2                !
 ! D58   D(5,6,8,1)            -54.9059         estimate D2E/DX2                !
 ! D59   D(5,6,8,22)            65.8635         estimate D2E/DX2                !
 ! D60   D(5,6,8,23)          -176.9213         estimate D2E/DX2                !
 ! D61   D(20,6,8,1)            66.179          estimate D2E/DX2                !
 ! D62   D(20,6,8,22)         -173.0515         estimate D2E/DX2                !
 ! D63   D(20,6,8,23)          -55.8363         estimate D2E/DX2                !
 ! D64   D(21,6,8,1)          -173.0006         estimate D2E/DX2                !
 ! D65   D(21,6,8,22)          -52.2312         estimate D2E/DX2                !
 ! D66   D(21,6,8,23)           64.984          estimate D2E/DX2                !
 ! D67   D(12,7,10,5)           47.4545         Frozen                          !
 ! D68   D(12,7,10,13)         -75.9606         estimate D2E/DX2                !
 ! D69   D(12,7,10,26)         164.1111         estimate D2E/DX2                !
 ! D70   D(10,7,12,2)         -109.2536         estimate D2E/DX2                !
 ! D71   D(10,7,12,9)          130.6268         estimate D2E/DX2                !
 ! D72   D(10,7,12,29)          10.1038         estimate D2E/DX2                !
 ! D73   D(3,9,12,2)            52.3187         estimate D2E/DX2                !
 ! D74   D(3,9,12,7)           171.453          estimate D2E/DX2                !
 ! D75   D(3,9,12,29)          -67.5998         estimate D2E/DX2                !
 ! D76   D(24,9,12,2)          -67.8389         estimate D2E/DX2                !
 ! D77   D(24,9,12,7)           51.2954         estimate D2E/DX2                !
 ! D78   D(24,9,12,29)         172.2426         estimate D2E/DX2                !
 ! D79   D(25,9,12,2)          174.7875         estimate D2E/DX2                !
 ! D80   D(25,9,12,7)          -66.0782         estimate D2E/DX2                !
 ! D81   D(25,9,12,29)          54.869          estimate D2E/DX2                !
 ! D82   D(5,10,13,1)           55.953          estimate D2E/DX2                !
 ! D83   D(5,10,13,30)         -64.9058         estimate D2E/DX2                !
 ! D84   D(5,10,13,31)         177.695          estimate D2E/DX2                !
 ! D85   D(7,10,13,1)          178.4671         estimate D2E/DX2                !
 ! D86   D(7,10,13,30)          57.6083         estimate D2E/DX2                !
 ! D87   D(7,10,13,31)         -59.791          estimate D2E/DX2                !
 ! D88   D(26,10,13,1)         -64.6105         estimate D2E/DX2                !
 ! D89   D(26,10,13,30)        174.5307         estimate D2E/DX2                !
 ! D90   D(26,10,13,31)         57.1314         estimate D2E/DX2                !
 --------------------------------------------------------------------------------
 Trust Radius=3.00D-01 FncErr=1.00D-07 GrdErr=1.00D-06 EigMax=2.50D+02 EigMin=1.00D-04
 Number of steps in this run=    186 maximum allowed number of steps=    186.
 GradGradGradGradGradGradGradGradGradGradGradGradGradGradGradGradGradGrad

                          Input orientation:                          
 ---------------------------------------------------------------------
 Center     Atomic      Atomic             Coordinates (Angstroms)
 Number     Number       Type             X           Y           Z
 ---------------------------------------------------------------------
      1          6           0       -3.372492    1.049305   -0.296127
      2          6           0        1.776943   -1.140488    0.487178
      3          6           0        3.152577    1.060120   -0.733542
      4          8           0        2.843175   -1.318363   -0.420473
      5          8           0       -1.485006   -1.050116    0.136837
      6          6           0       -2.837468   -1.385483   -0.136004
      7          8           0        0.013973    0.324452    1.168088
      8          6           0       -3.507956   -0.312310   -0.977699
      9          6           0        1.954561    1.332958    0.179132
     10          6           0       -1.333732    0.151525    0.846656
     11          6           0        3.796004   -0.271366   -0.381598
     12          6           0        1.009193    0.138594    0.172609
     13          6           0       -1.906784    1.318270    0.055808
     14          1           0       -3.753995    1.839093   -0.935238
     15          1           0       -3.970904    1.059043    0.612803
     16          1           0        2.162728   -1.094570    1.503261
     17          1           0        1.140647   -2.008777    0.397741
     18          1           0        2.831093    1.035839   -1.771820
     19          1           0        3.889534    1.852231   -0.640126
     20          1           0       -3.364378   -1.518585    0.805860
     21          1           0       -2.809806   -2.337163   -0.647550
     22          1           0       -3.040144   -0.284668   -1.958831
     23          1           0       -4.552520   -0.573870   -1.120761
     24          1           0        2.299103    1.497747    1.197676
     25          1           0        1.424242    2.226586   -0.134606
     26          1           0       -1.840171    0.063535    1.801047
     27          1           0        4.568879   -0.536995   -1.089791
     28          1           0        4.238630   -0.232437    0.611251
     29          1           0        0.551340    0.043614   -0.802440
     30          1           0       -1.326333    1.453281   -0.852376
     31          1           0       -1.810148    2.221559    0.649815
 ---------------------------------------------------------------------
                    Distance matrix (angstroms):
                    1          2          3          4          5
     1  C    0.000000
     2  C    5.650260   0.000000
     3  C    6.539723   2.867961   0.000000
     4  O    6.652506   1.411496   2.418868   0.000000
     5  O    2.856156   3.281953   5.168929   4.372151   0.000000
     6  C    2.498016   4.662742   6.497589   5.688157   1.419883
     7  O    3.759984   2.391182   3.742758   3.636860   2.280319
     8  C    1.528688   5.546341   6.804842   6.454418   2.424639
     9  C    5.355728   2.498875   1.530574   2.859836   4.184669
    10  C    2.503698   3.387451   4.842472   4.605729   1.403805
    11  C    7.289637   2.363631   1.520105   1.416191   5.363235
    12  C    4.499808   1.524613   2.502881   2.416187   2.763212
    13  C    1.531176   4.449878   5.127070   5.453511   2.407014
    14  H    1.085252   6.441463   6.953288   7.331928   3.826903
    15  H    1.088276   6.155604   7.249595   7.290500   3.294660
    16  H    6.202633   1.087825   3.259720   2.052765   3.895517
    17  H    5.495611   1.080184   3.840025   2.011156   2.807340
    18  H    6.376701   3.309185   1.087181   2.714508   5.159737
    19  H    7.314373   3.832783   1.085943   3.346010   6.157351
    20  H    2.794369   5.165046   7.175666   6.330695   2.049169
    21  H    3.450837   4.874208   6.862867   5.748540   2.006701
    22  H    2.157435   5.469892   6.454423   6.168348   2.719594
    23  H    2.169605   6.555046   7.885961   7.465988   3.349329
    24  H    5.882137   2.781680   2.156279   3.293159   4.683638
    25  H    4.941734   3.442122   2.169449   3.829067   4.390237
    26  H    2.778109   4.032299   5.687254   5.364562   2.033705
    27  H    8.137053   3.262812   2.164163   2.009123   6.198180
    28  H    7.771446   2.626757   2.158398   2.047189   5.801179
    29  H    4.082184   2.137128   2.793647   2.693211   2.495033
    30  H    2.158559   4.260559   4.497703   5.025271   2.696427
    31  H    2.170231   4.919048   5.281217   5.943903   3.327570
                    6          7          8          9         10
     6  C    0.000000
     7  O    3.571449   0.000000
     8  C    1.519771   4.172991   0.000000
     9  C    5.518403   2.400208   5.821019   0.000000
    10  C    2.364157   1.396256   2.875876   3.557280   0.000000
    11  C    6.730864   4.130410   7.328359   2.505830   5.291657
    12  C    4.149079   1.419854   4.683071   1.523243   2.437992
    13  C    2.865876   2.431902   2.508123   3.863342   1.521553
    14  H    3.446257   4.573369   2.165842   5.838288   3.446840
    15  H    2.796622   4.089891   2.150494   5.947624   2.798741
    16  H    5.270084   2.596750   6.238890   2.773003   3.769498
    17  H    4.061869   2.703107   5.136083   3.446366   3.315265
    18  H    6.377404   4.133436   6.529294   2.159352   4.998419
    19  H    7.482612   4.541335   7.715054   2.164474   5.690820
    20  H    1.087409   3.865391   2.157961   6.067553   2.629535
    21  H    1.080805   4.284211   2.167127   6.070616   3.256534
    22  H    2.139058   4.413194   1.087305   5.668746   3.312531
    23  H    2.137724   5.186393   1.086275   6.904188   3.841552
    24  H    6.039543   2.568913   6.459915   1.087794   3.890118
    25  H    5.586521   2.702588   5.611005   1.085468   3.588199
    26  H    2.616567   1.976503   3.262544   4.317642   1.084013
    27  H    7.515558   5.156285   8.080737   3.455655   6.250176
    28  H    7.208264   4.297432   7.908270   2.802527   5.590533
    29  H    3.737710   2.061702   4.078637   2.143577   2.506922
    30  H    3.294738   2.674500   2.809359   3.441330   2.140405
    31  H    3.831925   2.682357   3.457144   3.896689   2.133251
                   11         12         13         14         15
    11  C    0.000000
    12  C    2.870806   0.000000
    13  C    5.936334   3.147729   0.000000
    14  H    7.858946   5.177546   2.160004   0.000000
    15  H    7.942524   5.083538   2.153609   1.746986   0.000000
    16  H    2.626395   2.149877   4.947509   7.039905   6.561433
    17  H    3.267551   2.163138   4.524709   6.367139   5.965377
    18  H    2.138353   2.811614   5.086007   6.686439   7.207921
    19  H    2.141319   3.448689   5.862315   7.649235   7.999091
    20  H    7.364556   4.719679   3.276416   3.802266   2.655054
    21  H    6.926397   4.624585   3.830451   4.291313   3.804057
    22  H    7.015751   4.595576   2.812950   2.463267   3.047158
    23  H    8.386640   5.754395   3.458963   2.548421   2.451515
    24  H    2.804386   2.135867   4.361830   6.426962   6.312490
    25  H    3.453408   2.150897   3.457894   5.254075   5.570402
    26  H    6.053310   3.282730   2.150501   3.781876   2.634954
    27  H    1.081403   3.836853   6.832907   8.656784   8.852912
    28  H    1.087742   3.280142   6.362336   8.400293   8.310498
    29  H    3.286969   1.081375   2.898916   4.666614   4.846101
    30  H    5.425346   2.869439   1.086255   2.459524   3.048923
    31  H    6.221529   3.537676   1.085410   2.537167   2.453911
                   16         17         18         19         20
    16  H    0.000000
    17  H    1.761419   0.000000
    18  H    3.963775   4.102961   0.000000
    19  H    4.032320   4.851900   1.751435   0.000000
    20  H    5.587044   4.549956   7.180068   8.128500   0.000000
    21  H    5.558428   4.099579   6.667898   7.901407   1.757845
    22  H    6.301738   5.099509   6.020809   7.370601   3.044864
    23  H    7.228497   6.064401   7.585037   8.796889   2.452761
    24  H    2.613826   3.778575   3.051930   2.456145   6.428592
    25  H    3.775983   4.278098   2.465274   2.544279   6.151558
    26  H    4.177689   3.892174   5.960827   6.479836   2.411785
    27  H    3.581113   4.016425   2.441080   2.524304   8.215448
    28  H    2.418331   3.577495   3.044456   2.456350   7.713480
    29  H    3.034517   2.449495   2.668610   3.800129   4.512199
    30  H    4.920784   4.431098   4.278297   5.235406   3.966782
    31  H    5.244886   5.163959   5.367622   5.855487   4.053228
                   21         22         23         24         25
    21  H    0.000000
    22  H    2.446477   0.000000
    23  H    2.523922   1.753077   0.000000
    24  H    6.649236   6.453534   7.524060   0.000000
    25  H    6.246445   5.437365   6.673585   1.752588   0.000000
    26  H    3.563590   3.962053   4.037336   4.422059   4.368287
    27  H    7.607968   7.662645   9.121526   3.811111   4.294007
    28  H    7.462902   7.719365   8.966647   2.664432   3.811020
    29  H    4.121819   3.787317   5.150922   3.028142   2.444039
    30  H    4.075550   2.679899   3.819641   4.165150   2.945990
    31  H    4.844008   3.820877   4.297670   4.208325   3.328156
                   26         27         28         29         30
    26  H    0.000000
    27  H    7.056451   0.000000
    28  H    6.201212   1.759365   0.000000
    29  H    3.535232   4.069434   3.958640   0.000000
    30  H    3.039091   6.226643   5.996054   2.348470   0.000000
    31  H    2.446079   7.164345   6.527733   3.525495   1.755251
                   31
    31  H    0.000000
 Stoichiometry    C10H18O3
 Framework group  C1[X(C10H18O3)]
 Deg. of freedom    87
 Full point group                 C1      NOp   1
 Largest Abelian subgroup         C1      NOp   1
 Largest concise Abelian subgroup C1      NOp   1
                         Standard orientation:                         
 ---------------------------------------------------------------------
 Center     Atomic      Atomic             Coordinates (Angstroms)
 Number     Number       Type             X           Y           Z
 ---------------------------------------------------------------------
      1          6           0       -3.372492    1.049305   -0.296127
      2          6           0        1.776943   -1.140488    0.487178
      3          6           0        3.152577    1.060120   -0.733542
      4          8           0        2.843175   -1.318363   -0.420473
      5          8           0       -1.485006   -1.050116    0.136837
      6          6           0       -2.837468   -1.385483   -0.136004
      7          8           0        0.013973    0.324452    1.168088
      8          6           0       -3.507956   -0.312310   -0.977699
      9          6           0        1.954561    1.332958    0.179132
     10          6           0       -1.333732    0.151525    0.846656
     11          6           0        3.796004   -0.271366   -0.381598
     12          6           0        1.009193    0.138594    0.172609
     13          6           0       -1.906784    1.318270    0.055808
     14          1           0       -3.753995    1.839093   -0.935238
     15          1           0       -3.970904    1.059043    0.612803
     16          1           0        2.162728   -1.094570    1.503261
     17          1           0        1.140647   -2.008777    0.397741
     18          1           0        2.831093    1.035839   -1.771820
     19          1           0        3.889534    1.852231   -0.640126
     20          1           0       -3.364378   -1.518585    0.805860
     21          1           0       -2.809806   -2.337163   -0.647550
     22          1           0       -3.040144   -0.284668   -1.958831
     23          1           0       -4.552520   -0.573870   -1.120761
     24          1           0        2.299103    1.497747    1.197676
     25          1           0        1.424242    2.226586   -0.134606
     26          1           0       -1.840171    0.063535    1.801047
     27          1           0        4.568879   -0.536995   -1.089791
     28          1           0        4.238630   -0.232437    0.611251
     29          1           0        0.551340    0.043614   -0.802440
     30          1           0       -1.326333    1.453281   -0.852376
     31          1           0       -1.810148    2.221559    0.649815
 ---------------------------------------------------------------------
 Rotational constants (GHZ):           1.8442461           0.4067805           0.3723721
 Standard basis: 6-311++G(2d,2p) (5D, 7F)
 There are   557 symmetry adapted cartesian basis functions of A   symmetry.
 There are   531 symmetry adapted basis functions of A   symmetry.
   531 basis functions,   762 primitive gaussians,   557 cartesian basis functions
    51 alpha electrons       51 beta electrons
       nuclear repulsion energy       888.9288628789 Hartrees.
 NAtoms=   31 NActive=   31 NUniq=   31 SFac= 1.00D+00 NAtFMM=   60 NAOKFM=F Big=F
 Integral buffers will be    131072 words long.
 Raffenetti 2 integral format.
 Two-electron integral symmetry is turned on.
 ------------------------------------------------------------------------------
 Polarizable Continuum Model (PCM)
 =================================
 Model                : PCM.
 Atomic radii         : SMD-Coulomb.
 Polarization charges : Total charges.
 Charge compensation  : None.
 Solution method      : On-the-fly selection.
 Cavity type          : VdW (van der Waals Surface) (Alpha=1.000).
 Cavity algorithm     : GePol (No added spheres)
                        Default sphere list used, NSphG=   31.
                        Lebedev-Laikov grids with approx.  5.0 points / Ang**2.
                        Smoothing algorithm: York/Karplus (Gamma=1.0000).
                        Polarization charges: spherical gaussians, with
                                              point-specific exponents (IZeta= 3).
                        Self-potential: point-specific (ISelfS= 7).
                        Self-field    : sphere-specific E.n sum rule (ISelfD= 2).
 1st derivatives      : Analytical E(r).r(x)/FMM algorithm (CHGder, D1EAlg=3).
                        Cavity 1st derivative terms included.
 Solvent              : Water, Eps=  78.355300 Eps(inf)=   1.777849
 ------------------------------------------------------------------------------
 ------------------------------------------------------------------------------
 Atomic radii for non-electrostatic terms: SMD-CDS.
 ------------------------------------------------------------------------------
 Nuclear repulsion after PCM non-electrostatic terms =      888.9353006892 Hartrees.
 One-electron integrals computed using PRISM.
 NBasis=   531 RedAO= T EigKep=  5.84D-06  NBF=   531
 NBsUse=   531 1.00D-06 EigRej= -1.00D+00 NBFU=   531
 ExpMin= 3.60D-02 ExpMax= 8.59D+03 ExpMxC= 1.30D+03 IAcc=3 IRadAn=         5 AccDes= 0.00D+00
 Harris functional with IExCor= 1009 and IRadAn=       5 diagonalized for initial guess.
 HarFok:  IExCor= 1009 AccDes= 0.00D+00 IRadAn=         5 IDoV= 1 UseB2=F ITyADJ=14
 ICtDFT=  3500011 ScaDFX=  1.000000  1.000000  1.000000  1.000000
 FoFCou: FMM=F IPFlag=           0 FMFlag=      100000 FMFlg1=           0
         NFxFlg=           0 DoJE=T BraDBF=F KetDBF=T FulRan=T
         wScrn=  0.000000 ICntrl=       500 IOpCl=  0 I1Cent=   200000004 NGrid=           0
         NMat0=    1 NMatS0=      1 NMatT0=    0 NMatD0=    1 NMtDS0=    0 NMtDT0=    0
 Petite list used in FoFCou.
 Requested convergence on RMS density matrix=1.00D-08 within 128 cycles.
 Requested convergence on MAX density matrix=1.00D-06.
 Requested convergence on             energy=1.00D-06.
 No special actions if energy rises.
 Inv3:  Mode=1 IEnd=    12229083.
 Iteration    1 A*A^-1 deviation from unit magnitude is 4.33D-15 for   1988.
 Iteration    1 A*A^-1 deviation from orthogonality  is 2.79D-15 for   2007    630.
 Iteration    1 A^-1*A deviation from unit magnitude is 4.66D-15 for   2003.
 Iteration    1 A^-1*A deviation from orthogonality  is 5.60D-15 for   1945   1913.
 Error on total polarization charges =  0.06240
 SCF Done:  E(RM062X) =  -617.502666684     A.U. after   12 cycles
            NFock= 12  Conv=0.50D-08     -V/T= 2.0035
 SMD-CDS (non-electrostatic) energy       (kcal/mol) =       4.04
 (included in total energy above)

 **********************************************************************

            Population analysis using the SCF Density.

 **********************************************************************

 Orbital symmetries:
       Occupied  (A) (A) (A) (A) (A) (A) (A) (A) (A) (A) (A) (A)
                 (A) (A) (A) (A) (A) (A) (A) (A) (A) (A) (A) (A)
                 (A) (A) (A) (A) (A) (A) (A) (A) (A) (A) (A) (A)
                 (A) (A) (A) (A) (A) (A) (A) (A) (A) (A) (A) (A)
                 (A) (A) (A)
       Virtual   (A) (A) (A) (A) (A) (A) (A) (A) (A) (A) (A) (A)
                 (A) (A) (A) (A) (A) (A) (A) (A) (A) (A) (A) (A)
                 (A) (A) (A) (A) (A) (A) (A) (A) (A) (A) (A) (A)
                 (A) (A) (A) (A) (A) (A) (A) (A) (A) (A) (A) (A)
                 (A) (A) (A) (A) (A) (A) (A) (A) (A) (A) (A) (A)
                 (A) (A) (A) (A) (A) (A) (A) (A) (A) (A) (A) (A)
                 (A) (A) (A) (A) (A) (A) (A) (A) (A) (A) (A) (A)
                 (A) (A) (A) (A) (A) (A) (A) (A) (A) (A) (A) (A)
                 (A) (A) (A) (A) (A) (A) (A) (A) (A) (A) (A) (A)
                 (A) (A) (A) (A) (A) (A) (A) (A) (A) (A) (A) (A)
                 (A) (A) (A) (A) (A) (A) (A) (A) (A) (A) (A) (A)
                 (A) (A) (A) (A) (A) (A) (A) (A) (A) (A) (A) (A)
                 (A) (A) (A) (A) (A) (A) (A) (A) (A) (A) (A) (A)
                 (A) (A) (A) (A) (A) (A) (A) (A) (A) (A) (A) (A)
                 (A) (A) (A) (A) (A) (A) (A) (A) (A) (A) (A) (A)
                 (A) (A) (A) (A) (A) (A) (A) (A) (A) (A) (A) (A)
                 (A) (A) (A) (A) (A) (A) (A) (A) (A) (A) (A) (A)
                 (A) (A) (A) (A) (A) (A) (A) (A) (A) (A) (A) (A)
                 (A) (A) (A) (A) (A) (A) (A) (A) (A) (A) (A) (A)
                 (A) (A) (A) (A) (A) (A) (A) (A) (A) (A) (A) (A)
                 (A) (A) (A) (A) (A) (A) (A) (A) (A) (A) (A) (A)
                 (A) (A) (A) (A) (A) (A) (A) (A) (A) (A) (A) (A)
                 (A) (A) (A) (A) (A) (A) (A) (A) (A) (A) (A) (A)
                 (A) (A) (A) (A) (A) (A) (A) (A) (A) (A) (A) (A)
                 (A) (A) (A) (A) (A) (A) (A) (A) (A) (A) (A) (A)
                 (A) (A) (A) (A) (A) (A) (A) (A) (A) (A) (A) (A)
                 (A) (A) (A) (A) (A) (A) (A) (A) (A) (A) (A) (A)
                 (A) (A) (A) (A) (A) (A) (A) (A) (A) (A) (A) (A)
                 (A) (A) (A) (A) (A) (A) (A) (A) (A) (A) (A) (A)
                 (A) (A) (A) (A) (A) (A) (A) (A) (A) (A) (A) (A)
                 (A) (A) (A) (A) (A) (A) (A) (A) (A) (A) (A) (A)
                 (A) (A) (A) (A) (A) (A) (A) (A) (A) (A) (A) (A)
                 (A) (A) (A) (A) (A) (A) (A) (A) (A) (A) (A) (A)
                 (A) (A) (A) (A) (A) (A) (A) (A) (A) (A) (A) (A)
                 (A) (A) (A) (A) (A) (A) (A) (A) (A) (A) (A) (A)
                 (A) (A) (A) (A) (A) (A) (A) (A) (A) (A) (A) (A)
                 (A) (A) (A) (A) (A) (A) (A) (A) (A) (A) (A) (A)
                 (A) (A) (A) (A) (A) (A) (A) (A) (A) (A) (A) (A)
                 (A) (A) (A) (A) (A) (A) (A) (A) (A) (A) (A) (A)
                 (A) (A) (A) (A) (A) (A) (A) (A) (A) (A) (A) (A)
 The electronic state is 1-A.
 Alpha  occ. eigenvalues --  -19.63265 -19.62998 -19.62849 -10.63272 -10.58150
 Alpha  occ. eigenvalues --  -10.57437 -10.57170 -10.57140 -10.52415 -10.52370
 Alpha  occ. eigenvalues --  -10.52331 -10.52142 -10.52128  -1.20401  -1.16638
 Alpha  occ. eigenvalues --   -1.13957  -0.90289  -0.89480  -0.86906  -0.83937
 Alpha  occ. eigenvalues --   -0.74840  -0.73869  -0.72764  -0.69573  -0.66146
 Alpha  occ. eigenvalues --   -0.64063  -0.60100  -0.58171  -0.56359  -0.56100
 Alpha  occ. eigenvalues --   -0.53823  -0.52590  -0.51733  -0.51123  -0.49872
 Alpha  occ. eigenvalues --   -0.48710  -0.46561  -0.45421  -0.45207  -0.44389
 Alpha  occ. eigenvalues --   -0.42811  -0.41836  -0.40336  -0.39553  -0.39352
 Alpha  occ. eigenvalues --   -0.38223  -0.37693  -0.36983  -0.35392  -0.32458
 Alpha  occ. eigenvalues --   -0.30953
 Alpha virt. eigenvalues --    0.00436   0.01276   0.01333   0.01580   0.02654
 Alpha virt. eigenvalues --    0.02921   0.03065   0.03842   0.04144   0.04954
 Alpha virt. eigenvalues --    0.05029   0.05069   0.06016   0.06069   0.07523
 Alpha virt. eigenvalues --    0.07700   0.08051   0.08126   0.08680   0.09945
 Alpha virt. eigenvalues --    0.10458   0.11433   0.11859   0.12020   0.12455
 Alpha virt. eigenvalues --    0.12791   0.13349   0.13575   0.13682   0.13999
 Alpha virt. eigenvalues --    0.14186   0.14507   0.14677   0.15035   0.15613
 Alpha virt. eigenvalues --    0.15684   0.15930   0.16035   0.16516   0.16714
 Alpha virt. eigenvalues --    0.17006   0.17395   0.17682   0.17938   0.18228
 Alpha virt. eigenvalues --    0.18368   0.18827   0.19078   0.19160   0.19447
 Alpha virt. eigenvalues --    0.19986   0.20325   0.20836   0.21363   0.21551
 Alpha virt. eigenvalues --    0.22289   0.23236   0.23428   0.23910   0.24695
 Alpha virt. eigenvalues --    0.25734   0.26083   0.26560   0.27227   0.27616
 Alpha virt. eigenvalues --    0.28331   0.28516   0.29013   0.29428   0.29549
 Alpha virt. eigenvalues --    0.30236   0.31032   0.31463   0.32021   0.32218
 Alpha virt. eigenvalues --    0.32819   0.33324   0.33904   0.34305   0.34885
 Alpha virt. eigenvalues --    0.35004   0.35106   0.35738   0.36081   0.36372
 Alpha virt. eigenvalues --    0.37326   0.37587   0.37841   0.37979   0.38536
 Alpha virt. eigenvalues --    0.38889   0.39124   0.39848   0.40296   0.41126
 Alpha virt. eigenvalues --    0.42432   0.42657   0.43129   0.44744   0.46234
 Alpha virt. eigenvalues --    0.47175   0.47449   0.49141   0.50873   0.50981
 Alpha virt. eigenvalues --    0.53073   0.53371   0.53852   0.54367   0.56622
 Alpha virt. eigenvalues --    0.56946   0.57528   0.58859   0.59231   0.59834
 Alpha virt. eigenvalues --    0.60156   0.60606   0.61247   0.61474   0.62125
 Alpha virt. eigenvalues --    0.62234   0.63083   0.63995   0.64323   0.64866
 Alpha virt. eigenvalues --    0.65207   0.65904   0.66120   0.66593   0.67148
 Alpha virt. eigenvalues --    0.68604   0.69463   0.69891   0.70430   0.71292
 Alpha virt. eigenvalues --    0.71608   0.72036   0.72769   0.73166   0.73660
 Alpha virt. eigenvalues --    0.74075   0.74901   0.75381   0.75776   0.76671
 Alpha virt. eigenvalues --    0.77185   0.77852   0.78988   0.79441   0.80849
 Alpha virt. eigenvalues --    0.81889   0.82126   0.82473   0.85039   0.85548
 Alpha virt. eigenvalues --    0.86395   0.87578   0.88420   0.89694   0.90256
 Alpha virt. eigenvalues --    0.90724   0.92424   0.93253   0.94208   0.94638
 Alpha virt. eigenvalues --    0.97024   0.99847   1.00722   1.00933   1.01906
 Alpha virt. eigenvalues --    1.03654   1.03836   1.05280   1.05738   1.07672
 Alpha virt. eigenvalues --    1.08547   1.09382   1.10352   1.11266   1.12261
 Alpha virt. eigenvalues --    1.12664   1.13655   1.15241   1.15757   1.16943
 Alpha virt. eigenvalues --    1.17503   1.18513   1.19115   1.19436   1.20841
 Alpha virt. eigenvalues --    1.21824   1.23361   1.23558   1.23891   1.24321
 Alpha virt. eigenvalues --    1.25333   1.26175   1.26667   1.27538   1.27593
 Alpha virt. eigenvalues --    1.28377   1.29049   1.30614   1.30809   1.31134
 Alpha virt. eigenvalues --    1.31266   1.31991   1.33466   1.34310   1.34837
 Alpha virt. eigenvalues --    1.35086   1.35760   1.37080   1.38019   1.38434
 Alpha virt. eigenvalues --    1.38959   1.40207   1.40451   1.40919   1.41473
 Alpha virt. eigenvalues --    1.42403   1.43481   1.43876   1.44519   1.45622
 Alpha virt. eigenvalues --    1.46253   1.46908   1.47163   1.47795   1.48644
 Alpha virt. eigenvalues --    1.49716   1.50101   1.51142   1.51322   1.52651
 Alpha virt. eigenvalues --    1.53311   1.53964   1.54989   1.55042   1.55899
 Alpha virt. eigenvalues --    1.57174   1.57758   1.58461   1.58639   1.59927
 Alpha virt. eigenvalues --    1.61244   1.62101   1.62238   1.63283   1.63353
 Alpha virt. eigenvalues --    1.63666   1.63834   1.65835   1.66977   1.67951
 Alpha virt. eigenvalues --    1.68384   1.69062   1.70678   1.71697   1.72172
 Alpha virt. eigenvalues --    1.74290   1.74673   1.75822   1.77736   1.78986
 Alpha virt. eigenvalues --    1.79385   1.80334   1.81897   1.83728   1.84047
 Alpha virt. eigenvalues --    1.84750   1.87280   1.90851   1.93995   1.98451
 Alpha virt. eigenvalues --    2.03813   2.06018   2.12295   2.16441   2.19526
 Alpha virt. eigenvalues --    2.25938   2.26528   2.28344   2.32008   2.35975
 Alpha virt. eigenvalues --    2.40082   2.44541   2.45853   2.50409   2.54160
 Alpha virt. eigenvalues --    2.55746   2.76629   2.76779   2.80142   2.82158
 Alpha virt. eigenvalues --    2.86627   2.90673   2.92159   2.92456   2.96103
 Alpha virt. eigenvalues --    2.97538   2.99150   3.01245   3.02808   3.04984
 Alpha virt. eigenvalues --    3.07936   3.08676   3.09145   3.10113   3.12435
 Alpha virt. eigenvalues --    3.13517   3.16423   3.17595   3.19039   3.21913
 Alpha virt. eigenvalues --    3.25316   3.31211   3.32016   3.33853   3.35948
 Alpha virt. eigenvalues --    3.36082   3.37327   3.38721   3.41040   3.41697
 Alpha virt. eigenvalues --    3.42785   3.44317   3.44652   3.46282   3.47087
 Alpha virt. eigenvalues --    3.47736   3.48168   3.49774   3.51206   3.51837
 Alpha virt. eigenvalues --    3.53736   3.54344   3.55343   3.55553   3.56941
 Alpha virt. eigenvalues --    3.57150   3.57743   3.59186   3.59361   3.60268
 Alpha virt. eigenvalues --    3.61271   3.61721   3.62947   3.64829   3.65885
 Alpha virt. eigenvalues --    3.66569   3.67275   3.68264   3.68783   3.70685
 Alpha virt. eigenvalues --    3.72316   3.72664   3.73781   3.74035   3.74477
 Alpha virt. eigenvalues --    3.75202   3.76154   3.77122   3.77240   3.78163
 Alpha virt. eigenvalues --    3.78361   3.79230   3.82178   3.83981   3.84332
 Alpha virt. eigenvalues --    3.87085   3.87524   3.89793   3.91288   3.91733
 Alpha virt. eigenvalues --    3.92895   3.94090   3.95772   3.97067   3.98287
 Alpha virt. eigenvalues --    3.99092   4.02902   4.03900   4.04096   4.04751
 Alpha virt. eigenvalues --    4.05989   4.06713   4.07039   4.07337   4.08599
 Alpha virt. eigenvalues --    4.08958   4.10053   4.10151   4.10624   4.12382
 Alpha virt. eigenvalues --    4.12753   4.13614   4.14863   4.15537   4.16467
 Alpha virt. eigenvalues --    4.18417   4.18884   4.19613   4.20370   4.20889
 Alpha virt. eigenvalues --    4.21629   4.24091   4.24557   4.25674   4.27011
 Alpha virt. eigenvalues --    4.28259   4.30060   4.31213   4.32008   4.33518
 Alpha virt. eigenvalues --    4.34410   4.35017   4.35524   4.37613   4.41336
 Alpha virt. eigenvalues --    4.42868   4.43837   4.44854   4.46421   4.50877
 Alpha virt. eigenvalues --    4.58757   4.61078   4.77210   4.77582   4.83552
 Alpha virt. eigenvalues --    4.88748   4.92348   4.93869   4.99298   5.01058
 Alpha virt. eigenvalues --    5.06867   5.07481   5.08393   5.09321   5.12460
 Alpha virt. eigenvalues --    5.12983   5.14215   5.15970   5.30534   5.33570
 Alpha virt. eigenvalues --    5.41811   5.57113   5.58869   5.64375   5.87008
 Alpha virt. eigenvalues --    5.88279   6.01761   7.02794   7.04888   7.05463
 Alpha virt. eigenvalues --    7.06050   7.10043   7.12758   7.13669   7.17592
 Alpha virt. eigenvalues --    7.24280   7.35684   7.38114   7.46687   7.53620
 Alpha virt. eigenvalues --    7.56019   7.64286  23.95178  23.99685  24.07228
 Alpha virt. eigenvalues --   24.07926  24.10358  24.13806  24.14527  24.15709
 Alpha virt. eigenvalues --   24.17682  24.19723  50.17373  50.19417  50.24895
          Condensed to atoms (all electrons):
               1          2          3          4          5          6
     1  C    5.869042  -0.025286  -0.011846  -0.000955  -0.014014  -0.028308
     2  C   -0.025286   6.170726   0.106603   0.121307  -0.009957  -0.000226
     3  C   -0.011846   0.106603   5.513520  -0.012292   0.002608   0.002883
     4  O   -0.000955   0.121307  -0.012292   8.384143  -0.001256   0.000242
     5  O   -0.014014  -0.009957   0.002608  -0.001256   8.368036   0.027936
     6  C   -0.028308  -0.000226   0.002883   0.000242   0.027936   5.394558
     7  O    0.024767  -0.153339  -0.001781   0.004456   0.009229   0.006250
     8  C   -0.014163   0.000986  -0.001085   0.000466  -0.037291   0.054146
     9  C    0.009462   0.113929   0.115524  -0.012816   0.057148   0.013109
    10  C    0.133759   0.073301  -0.065455  -0.000786   0.250500  -0.102295
    11  C    0.000347  -0.274427   0.072896   0.081788  -0.003987  -0.001352
    12  C    0.026476  -0.582149  -0.112786   0.034431  -0.075025  -0.053591
    13  C   -0.313832   0.057791   0.022298  -0.000366  -0.019370   0.069316
    14  H    0.401979   0.001303  -0.000473  -0.000053  -0.000485   0.007291
    15  H    0.508614   0.000490   0.000048   0.000014   0.000510  -0.011060
    16  H   -0.001068   0.365172  -0.002779  -0.038023  -0.002427  -0.000765
    17  H    0.002077   0.461797   0.005731  -0.065649   0.012606   0.005187
    18  H   -0.000524   0.007153   0.499616   0.000710   0.000456  -0.000193
    19  H    0.000078  -0.002434   0.430311   0.008304   0.000362   0.000185
    20  H   -0.020074   0.001535  -0.000330   0.000001  -0.050138   0.485267
    21  H    0.008548   0.002777   0.000381   0.000171  -0.071327   0.443462
    22  H   -0.040569   0.000825   0.000177   0.000090  -0.005194  -0.068246
    23  H   -0.049627  -0.000062  -0.000131  -0.000009   0.006166  -0.033408
    24  H    0.001874  -0.013907  -0.072339   0.001001   0.000597  -0.000967
    25  H   -0.005669   0.001916   0.001495  -0.003642  -0.000994  -0.000201
    26  H   -0.010210   0.009367   0.000610   0.000109  -0.033760  -0.009161
    27  H   -0.000048   0.014553  -0.044116  -0.069420  -0.000208  -0.000059
    28  H   -0.000228  -0.038164  -0.038953  -0.043804  -0.000019   0.000188
    29  H    0.019367  -0.041406  -0.027713  -0.026170  -0.005715   0.001822
    30  H   -0.022008   0.005356   0.000586   0.001799  -0.013327   0.009633
    31  H   -0.006524  -0.000713  -0.001429  -0.000014   0.004651  -0.003102
               7          8          9         10         11         12
     1  C    0.024767  -0.014163   0.009462   0.133759   0.000347   0.026476
     2  C   -0.153339   0.000986   0.113929   0.073301  -0.274427  -0.582149
     3  C   -0.001781  -0.001085   0.115524  -0.065455   0.072896  -0.112786
     4  O    0.004456   0.000466  -0.012816  -0.000786   0.081788   0.034431
     5  O    0.009229  -0.037291   0.057148   0.250500  -0.003987  -0.075025
     6  C    0.006250   0.054146   0.013109  -0.102295  -0.001352  -0.053591
     7  O    8.384773   0.002953  -0.223958   0.118851   0.017754   0.330207
     8  C    0.002953   5.559549  -0.012461  -0.039685   0.001785   0.045059
     9  C   -0.223958  -0.012461   6.489339  -0.004868  -0.163387  -1.077688
    10  C    0.118851  -0.039685  -0.004868   6.417979  -0.021188  -0.421896
    11  C    0.017754   0.001785  -0.163387  -0.021188   5.454530   0.231815
    12  C    0.330207   0.045059  -1.077688  -0.421896   0.231815   7.505694
    13  C   -0.111787  -0.040183   0.059617  -0.478320  -0.006387  -0.032706
    14  H   -0.002726  -0.021196   0.001611   0.017796  -0.000262  -0.006594
    15  H    0.001744  -0.059100  -0.001114  -0.015556   0.000095  -0.000464
    16  H    0.004557   0.002310  -0.017840   0.018362   0.003776   0.008501
    17  H    0.001742  -0.005221   0.011331  -0.002793   0.010691  -0.083795
    18  H   -0.000185   0.000307  -0.009338   0.003074  -0.086151  -0.035893
    19  H   -0.002642   0.000002  -0.046024  -0.001158  -0.033595   0.012019
    20  H    0.002861  -0.047384   0.001435  -0.004268  -0.000140  -0.014549
    21  H   -0.002355  -0.043032  -0.001361   0.009552   0.000034  -0.003851
    22  H    0.000128   0.489637   0.000449   0.011996  -0.000396  -0.002064
    23  H    0.000860   0.457773  -0.000030  -0.006358   0.000038   0.000013
    24  H   -0.002287   0.000348   0.509186   0.005753  -0.014827  -0.047785
    25  H    0.001326  -0.001287   0.439098  -0.010197  -0.006245  -0.047667
    26  H   -0.077108   0.004388   0.009247   0.471020  -0.001239  -0.024726
    27  H    0.000880   0.000052   0.008063  -0.001302   0.435045  -0.000629
    28  H    0.000287  -0.000092  -0.020617   0.002238   0.463032   0.034993
    29  H   -0.014245  -0.007175   0.034649   0.010578   0.013274   0.365874
    30  H   -0.002452  -0.018858  -0.026062  -0.005299   0.003569   0.023924
    31  H   -0.001858   0.009110   0.006715  -0.055627  -0.000887  -0.011740
              13         14         15         16         17         18
     1  C   -0.313832   0.401979   0.508614  -0.001068   0.002077  -0.000524
     2  C    0.057791   0.001303   0.000490   0.365172   0.461797   0.007153
     3  C    0.022298  -0.000473   0.000048  -0.002779   0.005731   0.499616
     4  O   -0.000366  -0.000053   0.000014  -0.038023  -0.065649   0.000710
     5  O   -0.019370  -0.000485   0.000510  -0.002427   0.012606   0.000456
     6  C    0.069316   0.007291  -0.011060  -0.000765   0.005187  -0.000193
     7  O   -0.111787  -0.002726   0.001744   0.004557   0.001742  -0.000185
     8  C   -0.040183  -0.021196  -0.059100   0.002310  -0.005221   0.000307
     9  C    0.059617   0.001611  -0.001114  -0.017840   0.011331  -0.009338
    10  C   -0.478320   0.017796  -0.015556   0.018362  -0.002793   0.003074
    11  C   -0.006387  -0.000262   0.000095   0.003776   0.010691  -0.086151
    12  C   -0.032706  -0.006594  -0.000464   0.008501  -0.083795  -0.035893
    13  C    6.091178  -0.032879  -0.046689  -0.003948  -0.004989   0.002191
    14  H   -0.032879   0.491296  -0.006579  -0.000055  -0.000063   0.000022
    15  H   -0.046689  -0.006579   0.452205   0.000057  -0.000099  -0.000033
    16  H   -0.003948  -0.000055   0.000057   0.482532  -0.016426   0.003502
    17  H   -0.004989  -0.000063  -0.000099  -0.016426   0.450983  -0.002592
    18  H    0.002191   0.000022  -0.000033   0.003502  -0.002592   0.470030
    19  H   -0.000761  -0.000011  -0.000006  -0.001833   0.001776  -0.008154
    20  H    0.009435  -0.000420   0.000581  -0.000111  -0.000156   0.000044
    21  H    0.006898   0.000343  -0.001939   0.000364  -0.002241   0.000010
    22  H   -0.003703  -0.005344   0.003676   0.000079  -0.000419   0.000365
    23  H    0.004037  -0.005020  -0.006000   0.000013   0.000028  -0.000023
    24  H   -0.002175   0.000129  -0.000055   0.000117  -0.002648   0.002486
    25  H    0.025268   0.000250   0.000268  -0.003101  -0.000283  -0.000903
    26  H   -0.030444   0.002566  -0.007609   0.000155   0.000949   0.000217
    27  H   -0.000043  -0.000012   0.000008  -0.001754   0.002757  -0.004020
    28  H   -0.000049   0.000005  -0.000008   0.008487  -0.003174   0.003035
    29  H   -0.026369   0.001247   0.000171  -0.011122   0.006172  -0.014013
    30  H    0.425366  -0.005943   0.002999   0.001467  -0.000165  -0.000616
    31  H    0.442864  -0.009974  -0.007148  -0.000033  -0.000368   0.000202
              19         20         21         22         23         24
     1  C    0.000078  -0.020074   0.008548  -0.040569  -0.049627   0.001874
     2  C   -0.002434   0.001535   0.002777   0.000825  -0.000062  -0.013907
     3  C    0.430311  -0.000330   0.000381   0.000177  -0.000131  -0.072339
     4  O    0.008304   0.000001   0.000171   0.000090  -0.000009   0.001001
     5  O    0.000362  -0.050138  -0.071327  -0.005194   0.006166   0.000597
     6  C    0.000185   0.485267   0.443462  -0.068246  -0.033408  -0.000967
     7  O   -0.002642   0.002861  -0.002355   0.000128   0.000860  -0.002287
     8  C    0.000002  -0.047384  -0.043032   0.489637   0.457773   0.000348
     9  C   -0.046024   0.001435  -0.001361   0.000449  -0.000030   0.509186
    10  C   -0.001158  -0.004268   0.009552   0.011996  -0.006358   0.005753
    11  C   -0.033595  -0.000140   0.000034  -0.000396   0.000038  -0.014827
    12  C    0.012019  -0.014549  -0.003851  -0.002064   0.000013  -0.047785
    13  C   -0.000761   0.009435   0.006898  -0.003703   0.004037  -0.002175
    14  H   -0.000011  -0.000420   0.000343  -0.005344  -0.005020   0.000129
    15  H   -0.000006   0.000581  -0.001939   0.003676  -0.006000  -0.000055
    16  H   -0.001833  -0.000111   0.000364   0.000079   0.000013   0.000117
    17  H    0.001776  -0.000156  -0.002241  -0.000419   0.000028  -0.002648
    18  H   -0.008154   0.000044   0.000010   0.000365  -0.000023   0.002486
    19  H    0.471984   0.000003  -0.000026  -0.000031   0.000005  -0.004332
    20  H    0.000003   0.472824  -0.009568   0.002387   0.001141   0.000191
    21  H   -0.000026  -0.009568   0.477523  -0.002100  -0.010551  -0.000072
    22  H   -0.000031   0.002387  -0.002100   0.468320  -0.011679   0.000095
    23  H    0.000005   0.001141  -0.010551  -0.011679   0.474164  -0.000006
    24  H   -0.004332   0.000191  -0.000072   0.000095  -0.000006   0.443175
    25  H   -0.011693   0.000021   0.000060   0.000163  -0.000144  -0.011746
    26  H    0.000042  -0.001341   0.000467   0.000074  -0.001600  -0.000644
    27  H   -0.008623  -0.000011   0.000016  -0.000013  -0.000003  -0.001203
    28  H    0.003543   0.000015   0.000013   0.000010   0.000000  -0.003676
    29  H    0.002259   0.000163  -0.000744  -0.004251   0.000547   0.004180
    30  H   -0.000027  -0.000622  -0.000587   0.002093  -0.003166  -0.000886
    31  H    0.000078   0.000276   0.000815  -0.001703   0.002131   0.000856
              25         26         27         28         29         30
     1  C   -0.005669  -0.010210  -0.000048  -0.000228   0.019367  -0.022008
     2  C    0.001916   0.009367   0.014553  -0.038164  -0.041406   0.005356
     3  C    0.001495   0.000610  -0.044116  -0.038953  -0.027713   0.000586
     4  O   -0.003642   0.000109  -0.069420  -0.043804  -0.026170   0.001799
     5  O   -0.000994  -0.033760  -0.000208  -0.000019  -0.005715  -0.013327
     6  C   -0.000201  -0.009161  -0.000059   0.000188   0.001822   0.009633
     7  O    0.001326  -0.077108   0.000880   0.000287  -0.014245  -0.002452
     8  C   -0.001287   0.004388   0.000052  -0.000092  -0.007175  -0.018858
     9  C    0.439098   0.009247   0.008063  -0.020617   0.034649  -0.026062
    10  C   -0.010197   0.471020  -0.001302   0.002238   0.010578  -0.005299
    11  C   -0.006245  -0.001239   0.435045   0.463032   0.013274   0.003569
    12  C   -0.047667  -0.024726  -0.000629   0.034993   0.365874   0.023924
    13  C    0.025268  -0.030444  -0.000043  -0.000049  -0.026369   0.425366
    14  H    0.000250   0.002566  -0.000012   0.000005   0.001247  -0.005943
    15  H    0.000268  -0.007609   0.000008  -0.000008   0.000171   0.002999
    16  H   -0.003101   0.000155  -0.001754   0.008487  -0.011122   0.001467
    17  H   -0.000283   0.000949   0.002757  -0.003174   0.006172  -0.000165
    18  H   -0.000903   0.000217  -0.004020   0.003035  -0.014013  -0.000616
    19  H   -0.011693   0.000042  -0.008623   0.003543   0.002259  -0.000027
    20  H    0.000021  -0.001341  -0.000011   0.000015   0.000163  -0.000622
    21  H    0.000060   0.000467   0.000016   0.000013  -0.000744  -0.000587
    22  H    0.000163   0.000074  -0.000013   0.000010  -0.004251   0.002093
    23  H   -0.000144  -0.001600  -0.000003   0.000000   0.000547  -0.003166
    24  H   -0.011746  -0.000644  -0.001203  -0.003676   0.004180  -0.000886
    25  H    0.478168   0.000990   0.000865  -0.000192  -0.003776  -0.003153
    26  H    0.000990   0.425055  -0.000075   0.000029  -0.000953  -0.002925
    27  H    0.000865  -0.000075   0.463527  -0.005701   0.000036   0.000078
    28  H   -0.000192   0.000029  -0.005701   0.482342  -0.003606   0.000033
    29  H   -0.003776  -0.000953   0.000036  -0.003606   0.437041  -0.014014
    30  H   -0.003153  -0.002925   0.000078   0.000033  -0.014014   0.476876
    31  H   -0.003035   0.001330  -0.000042   0.000075   0.003206  -0.021568
              31
     1  C   -0.006524
     2  C   -0.000713
     3  C   -0.001429
     4  O   -0.000014
     5  O    0.004651
     6  C   -0.003102
     7  O   -0.001858
     8  C    0.009110
     9  C    0.006715
    10  C   -0.055627
    11  C   -0.000887
    12  C   -0.011740
    13  C    0.442864
    14  H   -0.009974
    15  H   -0.007148
    16  H   -0.000033
    17  H   -0.000368
    18  H    0.000202
    19  H    0.000078
    20  H    0.000276
    21  H    0.000815
    22  H   -0.001703
    23  H    0.002131
    24  H    0.000856
    25  H   -0.003035
    26  H    0.001330
    27  H   -0.000042
    28  H    0.000075
    29  H    0.003206
    30  H   -0.021568
    31  H    0.465501
 Mulliken charges:
               1
     1  C   -0.441438
     2  C   -0.374817
     3  C   -0.381779
     4  O   -0.363775
     5  O   -0.396311
     6  C   -0.208539
     7  O   -0.316902
     8  C   -0.280659
     9  C   -0.262347
    10  C   -0.307709
    11  C   -0.175998
    12  C    0.016593
    13  C   -0.061259
    14  H    0.172250
    15  H    0.191982
    16  H    0.201833
    17  H    0.217254
    18  H    0.169218
    19  H    0.190399
    20  H    0.170934
    21  H    0.198322
    22  H    0.165149
    23  H    0.180901
    24  H    0.209569
    25  H    0.164042
    26  H    0.275179
    27  H    0.211402
    28  H    0.159959
    29  H    0.300688
    30  H    0.187900
    31  H    0.187957
 Sum of Mulliken charges =  -0.00000
 Mulliken charges with hydrogens summed into heavy atoms:
               1
     1  C   -0.077206
     2  C    0.044271
     3  C   -0.022162
     4  O   -0.363775
     5  O   -0.396311
     6  C    0.160716
     7  O   -0.316902
     8  C    0.065391
     9  C    0.111264
    10  C   -0.032530
    11  C    0.195363
    12  C    0.317281
    13  C    0.314598
 Electronic spatial extent (au):  <R**2>=           3128.1474
 Charge=             -0.0000 electrons
 Dipole moment (field-independent basis, Debye):
    X=             -2.4440    Y=              2.6970    Z=             -0.6305  Tot=              3.6938
 Quadrupole moment (field-independent basis, Debye-Ang):
   XX=            -64.8390   YY=            -82.3217   ZZ=            -81.2295
   XY=              7.1878   XZ=              1.2004   YZ=             -2.5467
 Traceless Quadrupole moment (field-independent basis, Debye-Ang):
   XX=             11.2911   YY=             -6.1916   ZZ=             -5.0994
   XY=              7.1878   XZ=              1.2004   YZ=             -2.5467
 Octapole moment (field-independent basis, Debye-Ang**2):
  XXX=             -6.4433  YYY=             -0.5362  ZZZ=             -0.5743  XYY=            -13.6324
  XXY=             12.4338  XXZ=              4.2722  XZZ=             -1.9819  YZZ=             -2.1464
  YYZ=              1.1829  XYZ=             -6.6043
 Hexadecapole moment (field-independent basis, Debye-Ang**3):
 XXXX=          -2991.7073 YYYY=           -622.0117 ZZZZ=           -317.3113 XXXY=             84.4989
 XXXZ=             -7.2078 YYYX=             25.9296 YYYZ=              0.9232 ZZZX=             -9.6235
 ZZZY=             -2.0874 XXYY=           -656.7701 XXZZ=           -573.3182 YYZZ=           -158.9228
 XXYZ=             -8.3600 YYXZ=             11.1827 ZZXY=             -1.0954
 N-N= 8.889353006892D+02 E-N=-3.220055364724D+03  KE= 6.153612090525D+02
 D1PCM: PCM CHGder 1st derivatives, ID1Alg=3 FixD1E=F DoIter=F DoCFld=F I1PDM=0.
 Calling FoFJK, ICntrl=      2127 FMM=F ISym2X=0 I1Cent= 0 IOpClX= 0 NMat=1 NMatS=1 NMatT=0.
 ***** Axes restored to original set *****
 -------------------------------------------------------------------
 Center     Atomic                   Forces (Hartrees/Bohr)
 Number     Number              X              Y              Z
 -------------------------------------------------------------------
      1        6           0.002919418   -0.002731400   -0.000950415
      2        6          -0.000666280    0.005964706   -0.001604732
      3        6          -0.000443438   -0.001308653    0.002938508
      4        8           0.000989281   -0.009579726   -0.007631097
      5        8           0.009449948   -0.009722387   -0.003059459
      6        6          -0.002647720    0.005815617   -0.002480246
      7        8           0.004565065   -0.001456057    0.012728280
      8        6           0.000584553    0.000828592    0.003297706
      9        6           0.001152568   -0.003669816   -0.002765912
     10        6          -0.003701678    0.009437451   -0.009271961
     11        6          -0.003882199    0.006202156    0.000247636
     12        6           0.002490592    0.003394153    0.000379150
     13        6          -0.003139714   -0.001996342    0.001406257
     14        1          -0.000887995    0.001938006   -0.001676986
     15        1          -0.001279709   -0.000580748    0.003081980
     16        1           0.001331985    0.001730570    0.005795978
     17        1          -0.004158894   -0.003785260   -0.000501598
     18        1          -0.001291719   -0.000776211   -0.002961644
     19        1           0.001904374    0.002108826    0.000379451
     20        1          -0.003262719    0.000155589    0.004682139
     21        1          -0.000084391   -0.003993795   -0.002361234
     22        1           0.002160677    0.000061147   -0.002616328
     23        1          -0.002692168   -0.000649313   -0.000171658
     24        1           0.001107149   -0.000591222    0.003765631
     25        1          -0.002280747    0.002389330   -0.001098201
     26        1          -0.004211989    0.000013254    0.006443604
     27        1           0.003078448   -0.000959587   -0.003124834
     28        1           0.001840561    0.001107741    0.005318729
     29        1          -0.002520737   -0.000899877   -0.006628485
     30        1           0.003120756   -0.000825081   -0.003639837
     31        1           0.000456721    0.002378337    0.002079576
 -------------------------------------------------------------------
 Cartesian Forces:  Max     0.012728280 RMS     0.003823178

 GradGradGradGradGradGradGradGradGradGradGradGradGradGradGradGradGradGrad
 Berny optimization.
 FormGI is forming the generalized inverse of G from B-inverse, IUseBI=4.
 Internal  Forces:  Max     0.015362946 RMS     0.002305266
 Search for a local minimum.
 Step number   1 out of a maximum of  186
 All quantities printed in internal units (Hartrees-Bohrs-Radians)
 Mixed Optimization -- RFO/linear search
 Second derivative matrix not updated -- first step.
 ITU=  0
     Eigenvalues ---    0.00616   0.00645   0.00737   0.00740   0.01429
     Eigenvalues ---    0.01446   0.01471   0.02701   0.02793   0.03111
     Eigenvalues ---    0.03162   0.04183   0.04369   0.04568   0.04768
     Eigenvalues ---    0.04800   0.04991   0.04994   0.05143   0.05156
     Eigenvalues ---    0.05176   0.05670   0.05739   0.06086   0.06160
     Eigenvalues ---    0.06239   0.06396   0.06783   0.07586   0.07907
     Eigenvalues ---    0.07924   0.07934   0.07939   0.07990   0.08106
     Eigenvalues ---    0.08708   0.09265   0.09360   0.10870   0.11502
     Eigenvalues ---    0.11613   0.11704   0.11732   0.12344   0.12496
     Eigenvalues ---    0.14501   0.14569   0.16596   0.16607   0.17512
     Eigenvalues ---    0.19394   0.21545   0.21752   0.25000   0.28514
     Eigenvalues ---    0.28563   0.28680   0.28726   0.28909   0.29301
     Eigenvalues ---    0.30169   0.30306   0.35013   0.35065   0.35069
     Eigenvalues ---    0.35075   0.35114   0.35126   0.35140   0.35247
     Eigenvalues ---    0.35249   0.35286   0.35342   0.35349   0.35367
     Eigenvalues ---    0.35514   0.35825   0.35829   0.35897   0.35972
     Eigenvalues ---    0.41037   0.41508   0.42246   0.42482   0.43312
     Eigenvalues ---    0.462471000.000001000.000001000.000001000.00000
     Eigenvalues --- 1000.000001000.000001000.000001000.000001000.00000
     Eigenvalues --- 1000.000001000.000001000.000001000.000001000.00000
     Eigenvalues --- 1000.000001000.000001000.000001000.000001000.00000
     Eigenvalues --- 1000.000001000.000001000.000001000.000001000.00000
     Eigenvalues --- 1000.000001000.000001000.000001000.000001000.00000
     Eigenvalues --- 1000.000001000.000001000.000001000.000001000.00000
     Eigenvalues --- 1000.000001000.000001000.000001000.000001000.00000
     Eigenvalues --- 1000.000001000.000001000.000001000.000001000.00000
     Eigenvalues --- 1000.000001000.000001000.000001000.000001000.00000
     Eigenvalues --- 1000.000001000.000001000.000001000.000001000.00000
     Eigenvalues --- 1000.000001000.000001000.000001000.000001000.00000
     Eigenvalues --- 1000.000001000.000001000.000001000.000001000.00000
     Eigenvalues --- 1000.000001000.000001000.000001000.000001000.00000
     Eigenvalues --- 1000.000001000.000001000.000001000.000001000.00000
     Eigenvalues --- 1000.000001000.000001000.000001000.000001000.00000
     Eigenvalues --- 1000.000001000.000001000.000001000.000001000.00000
     Eigenvalues --- 1000.000001000.000001000.000001000.000001000.00000
     Eigenvalues --- 1000.000001000.000001000.000001000.000001000.00000
     Eigenvalues --- 1000.000001000.000001000.000001000.000001000.00000
 RFO step:  Lambda=-3.47365422D-03 EMin= 6.15562556D-03
 Linear search not attempted -- first point.
 Iteration  1 RMS(Cart)=  0.05738030 RMS(Int)=  0.00069010
 Iteration  2 RMS(Cart)=  0.00231266 RMS(Int)=  0.00003569
 Iteration  3 RMS(Cart)=  0.00000103 RMS(Int)=  0.00003569
 Iteration  4 RMS(Cart)=  0.00000000 RMS(Int)=  0.00003569
 Iteration  1 RMS(Cart)=  0.00003707 RMS(Int)=  0.00000860
 Iteration  2 RMS(Cart)=  0.00001993 RMS(Int)=  0.00000961
 Iteration  3 RMS(Cart)=  0.00001072 RMS(Int)=  0.00001083
 Iteration  4 RMS(Cart)=  0.00000576 RMS(Int)=  0.00001163
 Iteration  5 RMS(Cart)=  0.00000310 RMS(Int)=  0.00001209
 Iteration  6 RMS(Cart)=  0.00000167 RMS(Int)=  0.00001234
 Iteration  7 RMS(Cart)=  0.00000090 RMS(Int)=  0.00001248
 Variable       Old X    -DE/DX   Delta X   Delta X   Delta X     New X
                                 (Linear)    (Quad)   (Total)
    R1        2.88880  -0.00066   0.00000  -0.00430  -0.00434   2.88446
    R2        2.89350  -0.00104   0.00000  -0.00400  -0.00402   2.88949
    R3        2.05083   0.00271   0.00000   0.00758   0.00758   2.05841
    R4        2.05654   0.00328   0.00000   0.00927   0.00927   2.06581
    R5        2.66734   0.00611   0.00000   0.01430   0.01432   2.68166
    R6        2.88110  -0.00094   0.00000  -0.00290  -0.00289   2.87821
    R7        2.05569   0.00596   0.00000   0.01682   0.01682   2.07251
    R8        2.04125   0.00553   0.00000   0.01524   0.01524   2.05649
    R9        2.89237  -0.00095   0.00000  -0.00388  -0.00390   2.88846
   R10        2.87258  -0.00060   0.00000  -0.00209  -0.00209   2.87049
   R11        2.05447   0.00323   0.00000   0.00910   0.00910   2.06357
   R12        2.05213   0.00286   0.00000   0.00804   0.00804   2.06017
   R13        2.67621   0.00625   0.00000   0.01482   0.01485   2.69106
   R14        2.68319   0.00557   0.00000   0.01341   0.01344   2.69663
   R15        2.65281   0.00805   0.00000   0.01912   0.01916   2.67197
   R16        2.87195  -0.00053   0.00000  -0.00282  -0.00285   2.86910
   R17        2.05490   0.00562   0.00000   0.01584   0.01584   2.07074
   R18        2.04243   0.00463   0.00000   0.01278   0.01278   2.05521
   R19        2.63854   0.00429   0.00000   0.00920   0.00920   2.64774
   R20        2.68313   0.00416   0.00000   0.00971   0.00971   2.69284
   R21        2.05471   0.00329   0.00000   0.00927   0.00927   2.06398
   R22        2.05276   0.00277   0.00000   0.00778   0.00778   2.06054
   R23        2.87851  -0.00206   0.00000  -0.00735  -0.00738   2.87113
   R24        2.05563   0.00379   0.00000   0.01069   0.01069   2.06633
   R25        2.05124   0.00340   0.00000   0.00952   0.00952   2.06076
   R26        2.87532  -0.00156   0.00000  -0.00386  -0.00382   2.87149
   R27        2.04849   0.00764   0.00000   0.02131   0.02131   2.06979
   R28        2.04355   0.00448   0.00000   0.01240   0.01240   2.05595
   R29        2.05553   0.00564   0.00000   0.01592   0.01592   2.07145
   R30        2.04350   0.00712   0.00000   0.01969   0.01969   2.06319
   R31        2.05272   0.00460   0.00000   0.01293   0.01293   2.06566
   R32        2.05113   0.00316   0.00000   0.00885   0.00885   2.05998
    A1        1.92172   0.00184   0.00000  -0.00270  -0.00278   1.91894
    A2        1.93317  -0.00049   0.00000   0.00040   0.00041   1.93357
    A3        1.90882  -0.00070   0.00000  -0.00098  -0.00096   1.90786
    A4        1.92200  -0.00043   0.00000   0.00102   0.00107   1.92306
    A5        1.91009  -0.00085   0.00000  -0.00256  -0.00257   1.90752
    A6        1.86716   0.00056   0.00000   0.00497   0.00496   1.87212
    A7        1.93204   0.00117   0.00000   0.00640   0.00645   1.93849
    A8        1.91565   0.00112   0.00000   0.00802   0.00804   1.92369
    A9        1.86547  -0.00024   0.00000   0.00464   0.00465   1.87012
   A10        1.91335  -0.00197   0.00000  -0.01367  -0.01373   1.89962
   A11        1.93978  -0.00091   0.00000  -0.00890  -0.00895   1.93082
   A12        1.89671   0.00091   0.00000   0.00420   0.00408   1.90079
   A13        1.92772  -0.00036   0.00000  -0.00517  -0.00523   1.92249
   A14        1.91984   0.00065   0.00000   0.00162   0.00164   1.92148
   A15        1.92822  -0.00050   0.00000  -0.00057  -0.00056   1.92766
   A16        1.90362  -0.00032   0.00000  -0.00178  -0.00178   1.90184
   A17        1.90895   0.00037   0.00000   0.00125   0.00128   1.91023
   A18        1.87457   0.00018   0.00000   0.00490   0.00489   1.87946
   A19        1.97950  -0.00493   0.00000  -0.02733  -0.02725   1.95225
   A20        1.98448  -0.00513   0.00000  -0.02436  -0.02427   1.96021
   A21        1.93892   0.00091   0.00000   0.00375   0.00370   1.94262
   A22        1.90077   0.00076   0.00000   0.00388   0.00390   1.90468
   A23        1.84891  -0.00072   0.00000   0.00009   0.00011   1.84903
   A24        1.93089  -0.00130   0.00000  -0.00740  -0.00737   1.92352
   A25        1.95082  -0.00013   0.00000  -0.00268  -0.00269   1.94813
   A26        1.89080   0.00053   0.00000   0.00288   0.00285   1.89366
   A27        2.09318  -0.01536   0.00000  -0.06061  -0.06061   2.03257
   A28        1.92085   0.00027   0.00000  -0.00419  -0.00424   1.91660
   A29        1.91936   0.00051   0.00000   0.00147   0.00148   1.92084
   A30        1.93735  -0.00069   0.00000  -0.00045  -0.00044   1.93691
   A31        1.90486  -0.00046   0.00000  -0.00209  -0.00210   1.90276
   A32        1.90408   0.00005   0.00000   0.00019   0.00022   1.90430
   A33        1.87655   0.00031   0.00000   0.00524   0.00523   1.88178
   A34        1.92139   0.00175   0.00000  -0.00288  -0.00295   1.91844
   A35        1.91497  -0.00044   0.00000   0.00161   0.00160   1.91657
   A36        1.93565  -0.00007   0.00000   0.00490   0.00490   1.94056
   A37        1.89586  -0.00115   0.00000  -0.00659  -0.00659   1.88927
   A38        1.91884  -0.00080   0.00000  -0.00408  -0.00403   1.91481
   A39        1.87618   0.00065   0.00000   0.00703   0.00699   1.88318
   A40        1.90332  -0.00195   0.00000  -0.01662  -0.01676   1.88656
   A41        1.93156   0.00172   0.00000  -0.00052  -0.00071   1.93085
   A42        1.90218  -0.00020   0.00000   0.01202   0.01209   1.91427
   A43        1.96949  -0.00054   0.00000  -0.01195  -0.01210   1.95739
   A44        1.83207   0.00096   0.00000   0.01457   0.01468   1.84675
   A45        1.92186  -0.00004   0.00000   0.00387   0.00385   1.92571
   A46        1.93524   0.00135   0.00000   0.00704   0.00703   1.94227
   A47        1.94555  -0.00035   0.00000  -0.00351  -0.00351   1.94204
   A48        1.93074  -0.00125   0.00000  -0.00772  -0.00773   1.92301
   A49        1.85592  -0.00097   0.00000  -0.00287  -0.00287   1.85306
   A50        1.90212   0.00064   0.00000   0.00429   0.00432   1.90644
   A51        1.89201   0.00062   0.00000   0.00311   0.00309   1.89510
   A52        1.89455   0.00001   0.00000  -0.00060  -0.00058   1.89397
   A53        1.92240   0.00034   0.00000   0.00030   0.00025   1.92265
   A54        1.90240  -0.00048   0.00000  -0.00414  -0.00412   1.89828
   A55        1.90644  -0.00055   0.00000   0.00043   0.00044   1.90688
   A56        1.92506   0.00021   0.00000   0.00250   0.00248   1.92754
   A57        1.91294   0.00047   0.00000   0.00150   0.00151   1.91445
   A58        1.92334  -0.00054   0.00000  -0.00319  -0.00322   1.92012
   A59        1.91897   0.00102   0.00000   0.00493   0.00489   1.92386
   A60        1.93606  -0.00002   0.00000   0.00404   0.00404   1.94010
   A61        1.90563  -0.00086   0.00000  -0.01036  -0.01032   1.89531
   A62        1.89670   0.00014   0.00000  -0.00212  -0.00211   1.89459
   A63        1.88235   0.00025   0.00000   0.00657   0.00652   1.88887
    D1        0.90702  -0.00020   0.00000   0.00891   0.00885   0.91587
    D2       -1.19207  -0.00013   0.00000   0.01322   0.01320  -1.17886
[...]
 0000309,0.00000088,0.00000042,-0.00000134,-0.00000129,-0.00000041,0.00
 000006,-0.00000099,-0.00000109,0.00000017,-0.00000233,-0.00000190,-0.0
 1343647,0.02460111,-0.00681126,0.03587613,-0.06319531,0.06897193,0.001
 32611,-0.00024391,0.00001208,0.00015603,-0.00078902,0.00051839,-0.0002
 8189,-0.00067474,-0.00026860,-0.00062204,0.00045252,0.00013783,0.00319
 600,0.00058831,-0.00089047,0.00222102,-0.00046315,-0.00158856,-0.03729
 004,-0.00263998,0.02881702,-0.00015741,0.00022171,0.00001669,-0.001145
 77,0.00080692,0.00143552,-0.10397131,-0.01216841,0.09806207,0.00023320
 ,0.00003820,0.00007766,-0.00068551,-0.00337595,-0.00458815,0.00692498,
 0.00248103,-0.00947838,0.00015238,-0.00000781,0.00014015,0.00009581,0.
 00010497,0.00025428,-0.00006302,0.00006241,-0.00007201,-0.00000397,0.0
 0009948,-0.00002468,0.00000482,0.00001054,0.00003617,-0.00023849,0.000
 04198,0.00016954,0.00051886,0.00024529,0.00054344,0.00021851,0.0000860
 9,-0.00011556,-0.00009786,-0.00007470,0.00010863,0.00000375,-0.0000122
 6,0.00001058,-0.00000738,-0.00001763,-0.00007262,0.00004322,-0.0000703
 4,-0.00001270,0.12975743,-0.00102918,0.00023646,-0.00047365,-0.0000717
 0,-0.00027730,0.00017348,-0.00001257,-0.00004911,-0.00002952,-0.000132
 06,0.00013234,0.00002609,0.01097292,-0.01195560,-0.03898034,0.00519522
 ,0.00161693,-0.00022439,-0.00422843,0.00305557,0.00284672,-0.00051289,
 -0.00024609,0.00005506,-0.00003027,0.00003452,0.00002407,-0.01508519,-
 0.05499239,0.03041371,0.00004795,0.00001022,0.00000805,0.00037453,0.00
 058729,-0.00088626,-0.01061544,-0.00203085,0.02410880,0.00022248,-0.00
 004493,-0.00027617,0.00043025,0.00016174,-0.00033992,-0.00001586,0.000
 03503,-0.00001544,0.00003383,0.00005479,0.00000303,-0.00000021,-0.0000
 0007,0.00000397,-0.00002007,0.00000424,0.00001555,-0.00048648,0.000149
 28,0.00105230,-0.00012211,-0.00007905,0.00024471,-0.00000532,-0.000040
 39,0.00002851,-0.00010787,0.00024231,-0.00004181,-0.00000997,-0.000009
 96,-0.00000930,-0.00000521,-0.00000518,-0.00000793,0.01332881,0.065568
 36,0.00061960,-0.00035750,0.00032068,0.00001482,-0.00015941,0.00014202
 ,-0.00006264,-0.00012870,-0.00003978,-0.00007437,0.00009942,0.00000039
 ,0.00528521,-0.01475871,-0.01970714,0.00265631,0.00080038,0.00094509,-
 0.00601759,-0.00038127,0.01147065,-0.00035066,-0.00014822,0.00003343,-
 0.00018566,0.00010820,0.00027841,0.10736259,0.02852844,-0.24487100,0.0
 0003396,0.00000151,0.00000137,-0.00227022,-0.00016620,0.00096561,0.009
 21446,0.00405651,-0.01475593,-0.00021566,0.00002750,0.00018337,-0.0004
 9861,-0.00014594,0.00002779,0.00000651,0.00001105,-0.00002062,-0.00000
 198,0.00004854,-0.00000085,0.00000729,-0.00000106,0.00000076,-0.000047
 23,0.00000704,0.00002646,-0.00101605,-0.00010282,-0.00001250,-0.000400
 45,-0.00015730,0.00023930,0.00012581,0.00004230,-0.00004345,-0.0000890
 1,0.00001809,-0.00010370,0.00000567,0.00000268,-0.00001367,0.00000464,
 -0.00001892,-0.00000370,-0.11240149,-0.02006224,0.26498798,0.00000563,
 0.00001735,-0.00000814,-0.00046045,-0.00356378,-0.00308462,-0.00797378
 ,0.00451158,0.00846412,-0.02483733,-0.00125234,0.01887916,-0.00016008,
 -0.00006309,-0.00004898,0.00005206,0.00002460,0.00001439,-0.00049732,0
 .00027765,0.00019255,-0.00001372,-0.00000320,0.00000377,0.00026571,0.0
 0211977,-0.00115401,0.00028005,0.00008086,0.00009778,-0.17701378,0.047
 79891,0.12085091,0.00068407,-0.00049173,0.00005633,-0.00004632,-0.0000
 1698,-0.00002080,-0.00001140,0.00000064,-0.00000412,-0.00000334,-0.000
 00125,0.00000113,0.00008788,0.00010789,0.00035449,-0.00094581,0.000231
 79,0.00087639,0.00028814,-0.00074312,0.00005905,0.00025258,0.00028786,
 -0.00007566,-0.00001194,-0.00000135,0.00000167,-0.00000762,-0.00000603
 ,-0.00000366,0.00000170,0.00000010,-0.00000172,-0.00000417,0.00000128,
 -0.00000522,-0.00002211,-0.00001069,0.00022017,-0.00046320,0.00006868,
 0.00053579,-0.00004868,-0.00000630,-0.00000480,0.19977884,-0.00000244,
 0.00000312,-0.00000563,-0.00258991,-0.00349806,-0.00161930,0.02057756,
 -0.00588882,-0.02105168,-0.02701072,0.00255302,0.02164164,-0.00002402,
 0.00002073,-0.00000841,0.00000252,0.00001787,0.00000367,0.00005987,0.0
 0051711,-0.00005385,-0.00000232,-0.00000299,-0.00000067,0.00172658,-0.
 00515592,0.00320843,-0.00001955,0.00006456,-0.00005048,0.05538271,-0.0
 6789623,-0.05261335,-0.00066762,-0.00114396,0.00040147,-0.00001618,-0.
 00000294,0.00001210,-0.00000023,-0.00000025,-0.00000023,0.00000182,0.0
 0000094,-0.00000013,0.00013628,-0.00000699,0.00008354,-0.00119200,0.00
 024337,0.00076706,-0.00066696,0.00138789,0.00038156,-0.00083419,0.0008
 0999,-0.00000757,-0.00000136,-0.00000004,0.00000042,0.00000200,0.00000
 052,0.00000069,-0.00000019,-0.00000016,0.00000028,-0.00000032,0.000001
 63,-0.00000037,-0.00030042,0.00005532,0.00007801,0.00179277,-0.0002589
 3,-0.00110478,0.00002108,0.00000202,0.00000246,-0.04664140,0.07708421,
 -0.00000055,-0.00000049,0.00000058,-0.00093584,0.00048200,0.00144692,-
 0.00754388,0.00267473,0.00618040,-0.00120330,0.00176832,0.00248945,0.0
 0001641,-0.00000600,-0.00000085,-0.00000519,-0.00000389,-0.00000102,0.
 00001912,-0.00000489,0.00001687,0.00000077,0.00000031,-0.00000105,-0.0
 0065693,0.00122657,0.00050150,-0.00002393,-0.00000296,0.00000069,0.129
 13967,-0.04680327,-0.17762032,-0.00002234,0.00006957,-0.00009892,-0.00
 000326,0.00000226,-0.00000269,0.00000052,-0.00000041,0.00000024,0.0000
 0067,-0.00000020,0.00000045,-0.00008896,0.00006501,0.00039883,0.000269
 91,-0.00010806,0.00013515,0.00011440,-0.00063784,0.00085104,0.00044657
 ,-0.00056186,0.00013314,0.00000131,0.00000027,-0.00000030,0.00000036,0
 .00000048,0.00000044,-0.00000013,-0.00000008,0.00000038,0.00000090,-0.
 00000026,0.00000026,-0.00013227,0.00005269,0.00028518,-0.00016541,0.00
 020099,0.00025799,0.00000059,0.00000052,-0.00000121,-0.13858191,0.0492
 4831,0.18257973,0.00000269,0.00000927,-0.00000598,0.00184856,-0.000238
 99,-0.00447158,-0.00426109,0.00175201,-0.01327862,-0.02059576,-0.01444
 257,-0.02106608,-0.00004132,-0.00003348,-0.00002198,0.00002188,0.00000
 477,0.00000286,-0.00037635,0.00021213,0.00016629,-0.00000393,-0.000000
 27,0.00000079,0.00033525,-0.00086377,-0.00070646,0.00013321,0.00004741
 ,0.00006864,-0.08810202,0.00453442,-0.08280799,-0.00006074,-0.00011898
 ,0.00032783,-0.00001817,-0.00000938,-0.00000805,-0.00000515,0.00000003
 ,-0.00000181,-0.00000112,-0.00000079,0.00000105,0.00025108,0.00031418,
 0.00075623,0.00010284,-0.00001329,0.00030134,-0.00007215,0.00219476,-0
 .00075848,0.00046452,0.00007805,0.00019830,-0.00000443,-0.00000013,0.0
 0000137,-0.00000358,-0.00000203,-0.00000151,0.00000048,-0.00000013,0.0
 0000038,-0.00000168,0.00000015,-0.00000129,-0.00005996,0.00006844,0.00
 015581,0.00014287,0.00001405,0.00014515,-0.00002593,-0.00000392,-0.000
 00193,0.01088791,0.00022126,0.01937180,0.09940890,-0.00000082,0.000006
 09,-0.00000376,0.00292478,0.00022811,-0.00313018,0.01260389,-0.0004139
 4,0.02864560,-0.02421427,-0.01047915,-0.02492118,-0.00003126,-0.000020
 93,-0.00001586,0.00001369,0.00000489,0.00000443,-0.00019802,0.00026649
 ,0.00006983,-0.00000230,-0.00000013,0.00000132,-0.00097696,0.00131665,
 0.00063500,0.00009977,0.00005936,0.00002205,0.00348628,-0.04778996,0.0
 0271902,-0.00005023,-0.00045504,0.00035654,-0.00002072,-0.00000758,-0.
 00000372,-0.00000392,0.00000016,-0.00000139,-0.00000029,0.00000004,-0.
 00000026,0.00051095,0.00030277,0.00087067,0.00011875,-0.00006854,0.000
 22602,0.00335483,-0.00497137,0.00112620,-0.00075588,0.00119395,-0.0005
 8105,-0.00000311,0.00000008,0.00000077,-0.00000206,-0.00000078,-0.0000
 0085,-0.00000018,-0.00000053,-0.00000084,-0.00000105,0.00000021,-0.000
 00126,-0.00008684,0.00003182,-0.00055435,-0.00030989,-0.00003597,-0.00
 019286,-0.00000737,-0.00000237,-0.00000109,-0.00274365,0.00101034,-0.0
 0763888,0.00631548,0.05985169,0.00000240,0.00000938,-0.00000226,0.0016
 3165,0.00078455,0.00236947,-0.00207513,0.00040510,-0.00777203,-0.00434
 414,-0.00606463,0.00167469,-0.00006674,-0.00003208,-0.00001726,0.00002
 643,0.00000710,0.00000420,-0.00037208,0.00001244,0.00007222,-0.0000043
 7,-0.00000076,0.00000085,0.00037681,-0.00051384,0.00090463,0.00013276,
 0.00003565,0.00006412,-0.08707579,0.00026746,-0.26477463,0.00027512,-0
 .00020535,-0.00004632,-0.00002039,-0.00000669,-0.00001549,-0.00000553,
 0.00000016,-0.00000225,-0.00000292,-0.00000065,0.00000115,-0.00127525,
 0.00010552,0.00040452,-0.00007161,-0.00002702,0.00040934,-0.00056368,0
 .00158561,0.00092558,-0.00004936,0.00037209,0.00014388,-0.00000552,-0.
 00000070,0.00000171,-0.00000427,-0.00000244,-0.00000201,0.00000048,-0.
 00000020,0.00000009,-0.00000241,0.00000029,-0.00000190,-0.00049738,-0.
 00001190,0.00037740,0.00004334,0.00014092,0.00019169,-0.00003072,-0.00
 000447,-0.00000236,-0.00762312,0.00070336,-0.01756353,0.10161257,0.002
 38772,0.28283713,0.00005421,-0.00007988,-0.00004030,-0.00700049,-0.000
 46655,-0.01462437,0.00073169,0.00016123,-0.00073065,0.00098185,-0.0005
 7693,0.00018706,-0.00267538,-0.00162073,0.00067287,0.00006326,0.000016
 14,0.00013930,0.00568442,0.00297685,0.03134196,0.00000316,0.00000254,0
 .00002783,-0.00918981,-0.00187886,-0.01790663,0.00160175,-0.00026751,0
 .00149059,0.00004717,-0.00006131,0.00007318,-0.10886595,-0.00684576,-0
 .11415833,-0.00030873,0.00060410,-0.00013694,0.00001095,0.00000559,0.0
 0001503,0.00000372,-0.00002679,0.00003383,-0.00109876,0.00263172,-0.00
 020977,0.00066034,-0.00018999,0.00061271,-0.00012319,0.00000424,0.0003
 3511,0.00008543,-0.00004861,0.00015557,-0.00007045,0.00000747,0.000035
 65,0.00000755,-0.00000275,-0.00000147,0.00005611,0.00001194,-0.0000229
 8,0.00001143,0.00000517,-0.00000998,-0.00202286,-0.00309353,0.00020018
 ,0.00094921,0.00028765,0.00064411,0.00005647,0.00010561,-0.00025271,-0
 .00006147,0.00004576,-0.00001784,0.00003358,-0.00001863,-0.00000698,0.
 12174916,-0.00001635,0.00008651,0.00011307,0.01545904,-0.00013675,0.02
 773903,0.00097270,0.00065970,-0.00032660,-0.00201669,0.00147412,-0.000
 95037,-0.00079033,-0.00026271,0.00076769,-0.00014442,-0.00002906,0.000
 01240,-0.00083160,-0.00077646,-0.00627595,0.00003374,0.00003012,0.0000
 1093,-0.01406133,-0.00319611,-0.02352692,-0.00083347,0.00095727,-0.000
 15929,-0.00021835,-0.00028548,-0.00001360,-0.00607883,-0.05018012,-0.0
 1532904,0.00013929,-0.00021602,-0.00051697,-0.00002658,0.00000174,-0.0
 0000680,-0.00004665,-0.00001276,-0.00000886,0.00333810,-0.00430607,0.0
 0122698,-0.00093098,0.00150218,-0.00037600,0.00002327,0.00017780,0.000
 45038,0.00025006,-0.00009292,0.00025259,0.00000488,-0.00001216,-0.0000
 1683,0.00003034,0.00000625,0.00001084,0.00001161,-0.00000007,-0.000005
 64,0.00000644,-0.00001780,0.00000289,-0.00361262,-0.00315567,-0.000172
 14,0.00101438,0.00126989,-0.00006521,0.00008375,-0.00007844,0.00000523
 ,0.00001719,0.00008598,-0.00002346,-0.00003809,-0.00002435,0.00005214,
 0.00715808,0.05738455,-0.00002356,-0.00014120,0.00031176,-0.00397177,0
 .00045949,-0.00598408,-0.00035418,0.00004758,0.00049063,-0.00063102,-0
 .00035887,0.00171153,-0.00138625,0.00000035,0.00132253,0.00015642,0.00
 020267,0.00055976,0.00232628,-0.00259637,-0.03003050,0.00000341,0.0000
 0667,0.00000678,-0.00075540,-0.00063850,0.00146443,-0.00391198,-0.0015
 7396,-0.00164754,0.00013755,0.00020599,0.00006888,-0.10413481,-0.01393
 127,-0.25207129,0.00049033,0.00021983,-0.00012344,0.00005719,0.0000189
 2,0.00000743,-0.00012149,-0.00004233,-0.00002468,0.00003843,0.00068867
 ,0.00027165,0.00011457,-0.00002953,0.00048287,-0.00024590,0.00019003,0
 .00013117,-0.00007766,0.00000354,0.00021488,-0.00022764,-0.00006176,-0
 .00003083,0.00004140,-0.00001150,0.00000213,0.00005074,0.00001143,-0.0
 0002947,-0.00000955,0.00000410,-0.00002535,0.00070466,0.00052349,0.000
 83460,-0.00002324,-0.00016911,0.00030090,0.00029381,0.00003720,0.00017
 763,-0.00000093,-0.00001563,0.00001024,0.00001913,-0.00002051,-0.00018
 996,0.11194678,0.01713654,0.28109698,-0.01974079,-0.00321832,0.0263680
 3,-0.00010967,0.00002479,-0.00026378,-0.00001501,0.00002551,-0.0000286
 6,0.00003560,-0.00003667,0.00000517,-0.00002189,-0.00142330,0.00087351
 ,-0.00028357,-0.00008274,-0.00014813,0.00148196,-0.00123654,0.00143992
 ,0.00145519,0.00088630,0.00082802,-0.00001155,0.00018678,0.00022502,0.
 00626935,0.00148449,-0.01196722,-0.00000409,0.00000749,0.00000682,-0.0
 0117186,0.00074077,-0.00001528,-0.12420517,-0.01539260,0.11985422,0.00
 156533,0.00050399,-0.00003017,-0.00556356,-0.00166653,-0.00204846,-0.0
 0003113,0.00006853,-0.00000522,0.00000512,-0.00000854,0.00000571,0.000
 01050,-0.00000532,0.00000576,-0.00000158,-0.00000053,0.00000066,-0.000
 04031,0.00001467,-0.00002434,0.00004715,-0.00007949,0.00005951,0.00028
 017,-0.00037290,-0.00045386,0.00013794,0.00023823,-0.00033664,0.000063
 13,-0.00004649,0.00000156,0.00003381,-0.00008742,-0.00000731,-0.000485
 18,0.00216231,-0.00128361,0.00000023,0.00000223,-0.00000270,0.00000111
 ,-0.00000014,-0.00000272,-0.00142334,0.00113554,-0.00033492,0.14068488
 ,-0.00215235,-0.00124708,0.00355817,0.00000378,-0.00005510,-0.00007146
 ,0.00002506,0.00001772,0.00000818,-0.00002080,-0.00000741,0.00001169,0
 .00013707,0.00272640,-0.00086985,-0.00001074,0.00003341,-0.00000615,-0
 .00027113,0.00127377,-0.00231775,-0.00030827,0.00013123,0.00066889,0.0
 0006004,0.00001097,-0.00025077,-0.01648300,-0.00479590,0.02417766,0.00
 001369,0.00001189,-0.00000029,0.00050027,0.00009519,0.00029089,-0.0141
 9380,-0.05194431,0.02056420,0.00020786,0.00021353,-0.00035166,-0.00072
 549,0.00075091,0.00003546,-0.00002878,0.00003765,0.00000416,0.00000663
 ,0.00000664,0.00000292,0.00000050,0.00000210,0.00000088,0.00000587,-0.
 00000156,-0.00000352,0.00005222,0.00003754,-0.00003794,0.00001216,-0.0
 0001099,-0.00001190,-0.00010512,0.00004180,0.00001153,0.00003556,0.000
 05067,-0.00000285,-0.00004390,-0.00003194,-0.00000851,-0.00001601,-0.0
 0001675,-0.00000449,0.00207179,-0.00309397,0.00249283,-0.00000266,-0.0
 0000246,0.00000070,-0.00000120,-0.00000194,-0.00000005,0.00122246,-0.0
 0084712,-0.00023434,0.01509413,0.05250348,-0.00545303,-0.00141616,0.00
 799999,0.00001646,0.00014652,0.00040993,-0.00002163,-0.00003068,0.0000
 2958,0.00001205,0.00002334,-0.00002929,-0.00031195,-0.00085413,0.00225
 785,-0.00031990,-0.00010494,0.00006100,0.00011146,-0.00070472,0.001405
 03,0.00000954,0.00038524,0.00067643,-0.00014213,-0.00008099,0.00007085
 ,0.01147070,0.00164833,-0.01959487,-0.00002552,-0.00001240,-0.00001973
 ,0.00004122,-0.00052934,-0.00045039,0.11953211,0.02247147,-0.22733404,
 0.00070782,0.00007606,0.00062034,-0.00211661,-0.00067272,0.00053306,0.
 00009440,-0.00013620,0.00000775,-0.00000629,-0.00001609,-0.00000262,-0
 .00000705,0.00000112,-0.00000662,0.00000451,0.00000483,-0.00000352,0.0
 0001215,-0.00008097,-0.00017858,0.00003581,0.00000868,0.00001262,0.000
 08069,0.00033983,-0.00010574,0.00003907,0.00017434,0.00010503,0.000021
 93,0.00006801,0.00001131,-0.00012714,0.00001480,-0.00004497,-0.0016286
 7,0.00317891,-0.00082489,0.00000810,-0.00000388,0.00000118,0.00000151,
 0.00000141,0.00000567,0.00013707,-0.00002068,0.00052693,-0.13025889,-0
 .02626642,0.24669385,-0.00164554,-0.02820350,-0.01703235,-0.00002316,-
 0.00008932,-0.00009961,-0.00000479,-0.00001457,-0.00000248,-0.00003434
 ,0.00000804,0.00001619,0.00053331,0.00460341,-0.00127182,-0.00101501,0
 .00020184,-0.00043155,0.00087558,-0.00001186,0.00068566,-0.00664777,0.
 00019758,-0.00093163,0.00001205,0.00000094,-0.00001112,-0.00157795,0.0
 0801976,0.00746082,0.00002099,0.00000702,0.00000123,-0.00010628,0.0002
 5971,0.00013648,-0.04708342,-0.01504108,-0.00912147,0.00137699,0.00072
 771,0.00025755,0.00151958,0.00031555,0.00066076,-0.00001878,0.00003685
 ,-0.00001904,0.00000918,-0.00000012,0.00000177,0.00000126,0.00000037,-
 0.00000113,-0.00000449,-0.00000074,0.00000224,0.00012514,0.00000823,0.
 00013178,0.00023060,-0.00005145,0.00011244,0.00011992,0.00004980,-0.00
 013823,-0.00018692,-0.00187930,-0.00078527,-0.00001744,-0.00001139,-0.
 00000772,0.00003049,-0.00002900,0.00002417,0.00021589,-0.00037283,-0.0
 0016222,-0.00000227,-0.00000262,0.00000144,-0.00000148,-0.00000081,-0.
 00000144,0.00004897,-0.00003214,-0.00017039,0.00103726,0.01491414,0.00
 808218,0.05221242,-0.00073189,-0.00286680,-0.00142168,-0.00007279,0.00
 000518,0.00004625,0.00000422,0.00001439,0.00001121,0.00000281,0.000028
 58,0.00000396,0.00133824,-0.00753747,0.00246730,0.00178285,0.00089554,
 0.00029715,-0.00067794,0.00183013,-0.00016784,-0.00108097,0.00147710,0
 .00017611,0.00009302,-0.00007134,0.00001780,-0.00318487,-0.01881545,-0
 .01683735,-0.00000384,-0.00000571,-0.00000718,-0.00004026,0.00013326,-
 0.00002878,-0.01408330,-0.23591445,-0.11981239,-0.00037658,0.00038575,
 0.00000291,-0.00005734,0.00021052,0.00013676,0.00001658,-0.00001437,-0
 .00000572,0.00000555,0.00001106,0.00000181,0.00000060,-0.00000116,-0.0
 0000138,0.00000677,-0.00000038,-0.00000505,-0.00021915,-0.00005188,0.0
 0002772,-0.00020016,-0.00007723,-0.00006880,0.00007247,-0.00005778,-0.
 00009464,0.00017150,-0.00022142,-0.00019367,0.00001248,0.00001325,-0.0
 0000442,0.00001675,-0.00001842,-0.00000980,-0.00019963,0.00101460,0.00
 033722,0.00000146,-0.00000086,-0.00000018,0.00000060,-0.00000006,0.000
 00130,-0.00006872,-0.00000605,0.00006838,0.00108177,0.00411166,0.00238
 744,0.01638978,0.25552984,0.00063619,-0.00573952,-0.00462501,0.0000363
 4,0.00006340,0.00006943,-0.00000698,0.00001592,-0.00000406,0.00002837,
 -0.00000421,-0.00001745,-0.00169341,0.00553223,-0.00002580,-0.00084625
 ,-0.00023024,-0.00042999,0.00120855,-0.00027102,0.00072701,-0.00234937
 ,0.00020628,0.00074484,-0.00001968,-0.00009184,0.00002172,0.00129007,0
 .01413650,0.00936765,-0.00001698,-0.00001530,0.00000332,0.00006815,-0.
 00012560,-0.00021510,-0.00946513,-0.12384415,-0.12980146,0.00030614,0.
 00009997,-0.00008879,-0.00015144,0.00035655,0.00061825,0.00001427,-0.0
 0002758,0.00001257,-0.00000664,-0.00000729,-0.00000234,-0.00000092,-0.
 00000056,0.00000101,0.00000486,0.00000073,-0.00000129,0.00009044,-0.00
 001505,0.00002869,0.00016963,-0.00005200,0.00004547,-0.00000647,0.0003
 8187,0.00020589,-0.00003915,-0.00083807,-0.00000497,0.00000719,0.00001
 480,0.00000210,-0.00001950,0.00001998,-0.00002126,0.00053820,-0.000869
 23,0.00059985,0.00000193,0.00000298,-0.00000078,0.00000069,0.00000143,
 0.00000167,0.00007011,0.00001366,0.00016344,-0.00246200,-0.02139022,-0
 .01283315,0.01261279,0.13267558,0.13545854\\-0.00000551,0.00000860,-0.
 00000793,0.00000033,-0.00000886,0.00001083,-0.00000115,0.00001156,-0.0
 0000244,0.00000629,0.00000511,-0.00000068,0.00044281,0.00139725,-0.002
 47544,0.00002394,-0.00000712,0.00001345,-0.00018639,0.00467819,-0.0019
 0242,-0.00000727,0.00000337,-0.00001146,-0.00001239,0.00001276,0.00000
 120,-0.00051155,-0.00317501,0.00362683,0.00000332,-0.00000721,-0.00000
 537,0.00022376,-0.00290423,0.00074405,0.00000523,-0.00000316,0.0000055
 1,-0.00000421,-0.00000789,0.00001195,0.00000022,-0.00000268,0.00000197
 ,-0.00000508,-0.00000174,-0.00001334,0.00000404,0.00001029,-0.00000177
 ,-0.00000050,0.00000432,0.00000604,0.00000097,-0.00000119,-0.00000493,
 0.00000205,-0.00000588,-0.00000787,-0.00000063,0.00000548,0.00000359,-
 0.00000302,0.00000176,0.00000516,0.00000877,-0.00000591,0.00000181,-0.
 00000118,0.00000438,-0.00000491,0.00000516,-0.00000416,0.00000849,0.00
 001493,-0.00000927,-0.00001517,-0.00000634,0.00001025,0.00000501,-0.00
 000037,0.00000542,-0.00001048,0.00000683,-0.00000331,0.00001172,-0.000
 00497,-0.00000366,0.00000945,0.00000192,-0.00000746,-0.00000285\\\@


 THE CHYMISTS ARE A STRANGE CLASS OF MORTALS IMPELLED
 BY AN ALMOST INSANE IMPULSE TO SEEK THEIR PLEASURE
 AMONG SMOKE AND VAPOR, SOOT AND FLAME, POISONS AND
 POVERTY; YET AMONG ALL THESE EVILS I SEEM TO LIVE
 SO SWEETLY, THAT I MAY DIE IF I WOULD CHANGE PLACES
 WITH THE PERSIAN KING.
   --  JOHANN JOACHIM BECHER, 1635-1682
 ACTA LABORATORII CHYMICA MONACENSIS, 1669
 Job cpu time:       0 days 12 hours 48 minutes 26.7 seconds.
 Elapsed time:       0 days  1 hours  4 minutes 17.9 seconds.
 File lengths (MBytes):  RWF=    721 Int=      0 D2E=      0 Chk=     34 Scr=      1
 Normal termination of Gaussian 16 at Sun Mar 10 08:10:34 2019.
