 Entering Gaussian System, Link 0=g16
 Initial command:
 /sw/Projects/G16/g16/l1.exe "/nvme/pbs/tmpdir/pbs.74289[3].flm1/Gau-15318.inp" -scrdir="/nvme/pbs/tmpdir/pbs.74289[3].flm1/"
 Entering Link 1 = /sw/Projects/G16/g16/l1.exe PID=     15319.
  
 Copyright (c) 1988-2017, Gaussian, Inc.  All Rights Reserved.
  
 This is part of the Gaussian(R) 16 program.  It is based on
 the Gaussian(R) 09 system (copyright 2009, Gaussian, Inc.),
 the Gaussian(R) 03 system (copyright 2003, Gaussian, Inc.),
 the Gaussian(R) 98 system (copyright 1998, Gaussian, Inc.),
 the Gaussian(R) 94 system (copyright 1995, Gaussian, Inc.),
 the Gaussian 92(TM) system (copyright 1992, Gaussian, Inc.),
 the Gaussian 90(TM) system (copyright 1990, Gaussian, Inc.),
 the Gaussian 88(TM) system (copyright 1988, Gaussian, Inc.),
 the Gaussian 86(TM) system (copyright 1986, Carnegie Mellon
 University), and the Gaussian 82(TM) system (copyright 1983,
 Carnegie Mellon University). Gaussian is a federally registered
 trademark of Gaussian, Inc.
  
 This software contains proprietary and confidential information,
 including trade secrets, belonging to Gaussian, Inc.
  
 This software is provided under written license and may be
 used, copied, transmitted, or stored only in accord with that
 written license.
  
 The following legend is applicable only to US Government
 contracts under FAR:
  
                    RESTRICTED RIGHTS LEGEND
  
 Use, reproduction and disclosure by the US Government is
 subject to restrictions as set forth in subparagraphs (a)
 and (c) of the Commercial Computer Software - Restricted
 Rights clause in FAR 52.227-19.
  
 Gaussian, Inc.
 340 Quinnipiac St., Bldg. 40, Wallingford CT 06492
  
  
 ---------------------------------------------------------------
 Warning -- This program may not be used in any manner that
 competes with the business of Gaussian, Inc. or will provide
 assistance to any competitor of Gaussian, Inc.  The licensee
 of this program is prohibited from giving any competitor of
 Gaussian, Inc. access to this program.  By using this program,
 the user acknowledges that Gaussian, Inc. is engaged in the
 business of creating and licensing software in the field of
 computational chemistry and represents and warrants to the
 licensee that it is not a competitor of Gaussian, Inc. and that
 it will not use this program in any manner prohibited above.
 ---------------------------------------------------------------
  

 Cite this work as:
 Gaussian 16, Revision B.01,
 M. J. Frisch, G. W. Trucks, H. B. Schlegel, G. E. Scuseria, 
 M. A. Robb, J. R. Cheeseman, G. Scalmani, V. Barone, 
 G. A. Petersson, H. Nakatsuji, X. Li, M. Caricato, A. V. Marenich, 
 J. Bloino, B. G. Janesko, R. Gomperts, B. Mennucci, H. P. Hratchian, 
 J. V. Ortiz, A. F. Izmaylov, J. L. Sonnenberg, D. Williams-Young, 
 F. Ding, F. Lipparini, F. Egidi, J. Goings, B. Peng, A. Petrone, 
 T. Henderson, D. Ranasinghe, V. G. Zakrzewski, J. Gao, N. Rega, 
 G. Zheng, W. Liang, M. Hada, M. Ehara, K. Toyota, R. Fukuda, 
 J. Hasegawa, M. Ishida, T. Nakajima, Y. Honda, O. Kitao, H. Nakai, 
 T. Vreven, K. Throssell, J. A. Montgomery, Jr., J. E. Peralta, 
 F. Ogliaro, M. J. Bearpark, J. J. Heyd, E. N. Brothers, K. N. Kudin, 
 V. N. Staroverov, T. A. Keith, R. Kobayashi, J. Normand, 
 K. Raghavachari, A. P. Rendell, J. C. Burant, S. S. Iyengar, 
 J. Tomasi, M. Cossi, J. M. Millam, M. Klene, C. Adamo, R. Cammi, 
 J. W. Ochterski, R. L. Martin, K. Morokuma, O. Farkas, 
 J. B. Foresman, and D. J. Fox, Gaussian, Inc., Wallingford CT, 2016.
 
 ******************************************
 Gaussian 16:  ES64L-G16RevB.01 20-Dec-2017
                10-Mar-2019 
 ******************************************
 %mem=20gb
 %nproc=12
 Will use up to   12 processors via shared memory.
 %chk=4c1_b1_4e_4c1_PHI.inp_extract_3.chk
 ----------------------------------------------------------------------
 #M062X/6-311++G(2d,2p) opt=ModRedundant freq=noraman SCRF=(SMD,solvent
 =water)
 ----------------------------------------------------------------------
 1/18=120,19=15,26=3,38=1/1,3;
 2/9=110,12=2,17=6,18=5,40=1/2;
 3/5=4,6=6,7=1212,11=2,25=1,30=1,70=32201,71=1,72=1,74=-55/1,2,3;
 4//1;
 5/5=2,38=5,53=1/2;
 6/7=2,8=2,9=2,10=2,28=1/1;
 7//1,2,3,16;
 1/18=20,19=15,26=3/3(2);
 2/9=110/2;
 99//99;
 2/9=110/2;
 3/5=4,6=6,7=1212,11=2,25=1,30=1,70=32205,71=1,72=1,74=-55/1,2,3;
 4/5=5,16=3,69=1/1;
 5/5=2,38=5,53=1/2;
 7//1,2,3,16;
 1/18=20,19=15,26=3/3(-5);
 2/9=110/2;
 6/7=2,8=2,9=2,10=2,19=2,28=1/1;
 99/9=1/99;
 -------------------------------
 4c1_b1_4e_4c1_PHI.inp_extract_3
 -------------------------------
 Symbolic Z-matrix:
 Charge =  0 Multiplicity = 1
 C                    -3.72835  -0.72919   0.21882 
 C                     2.18285  -1.23622  -0.45345 
 C                     3.0066    1.35109   0.46008 
 O                     3.38635  -0.63142  -0.87279 
 O                    -1.39167   0.83984  -0.28114 
 C                    -2.62912   1.25291  -0.84097 
 O                    -0.01606  -0.87975   0.33074 
 C                    -3.79535   0.78531   0.01506 
 C                     1.64894   0.79626   0.89978 
 C                    -1.27125  -0.5548   -0.18097 
 C                     3.95686   0.21894   0.10604 
 C                     1.12565  -0.18283  -0.14342 
 C                    -2.34057  -1.13592   0.72182 
 H                    -4.48817  -1.05514   0.92167 
 H                    -3.93274  -1.23023  -0.72503 
 H                     2.36593  -1.84788   0.42716 
 H                     1.8548   -1.8788   -1.25907 
 H                     2.88208   1.99459  -0.40738 
 H                     3.44373   1.95345   1.25082 
 H                    -2.71014   0.85636  -1.85027 
 H                    -2.58335   2.331    -0.90169 
 H                    -3.75498   1.29095   0.97677 
 H                    -4.72684   1.07079  -0.46531 
 H                     1.75835   0.26618   1.84347 
 H                     0.93782   1.59924   1.0571 
 H                    -1.35779  -0.96291  -1.1869 
 H                     4.87878   0.59348  -0.31727 
 H                     4.19819  -0.36941   0.9885 
 H                     0.88298   0.34043  -1.05928 
 H                    -2.17819  -0.75896   1.72807 
 H                    -2.23687  -2.21582   0.74757 
 
 The following ModRedundant input section has been read:
 D      12       7      10       5 F                                           
 

 GradGradGradGradGradGradGradGradGradGradGradGradGradGradGradGradGradGrad
 Berny optimization.
 Initialization pass.
                           ----------------------------
                           !    Initial Parameters    !
                           ! (Angstroms and Degrees)  !
 --------------------------                            --------------------------
 ! Name  Definition              Value          Derivative Info.                !
 --------------------------------------------------------------------------------
 ! R1    R(1,8)                  1.5296         estimate D2E/DX2                !
 ! R2    R(1,13)                 1.5311         estimate D2E/DX2                !
 ! R3    R(1,14)                 1.0852         estimate D2E/DX2                !
 ! R4    R(1,15)                 1.088          estimate D2E/DX2                !
 ! R5    R(2,4)                  1.4107         estimate D2E/DX2                !
 ! R6    R(2,12)                 1.5243         estimate D2E/DX2                !
 ! R7    R(2,16)                 1.0877         estimate D2E/DX2                !
 ! R8    R(2,17)                 1.0815         estimate D2E/DX2                !
 ! R9    R(3,9)                  1.5311         estimate D2E/DX2                !
 ! R10   R(3,11)                 1.5199         estimate D2E/DX2                !
 ! R11   R(3,18)                 1.0872         estimate D2E/DX2                !
 ! R12   R(3,19)                 1.0859         estimate D2E/DX2                !
 ! R13   R(4,11)                 1.4166         estimate D2E/DX2                !
 ! R14   R(5,6)                  1.4196         estimate D2E/DX2                !
 ! R15   R(5,10)                 1.4034         estimate D2E/DX2                !
 ! R16   R(6,8)                  1.5204         estimate D2E/DX2                !
 ! R17   R(6,20)                 1.0874         estimate D2E/DX2                !
 ! R18   R(6,21)                 1.0808         estimate D2E/DX2                !
 ! R19   R(7,10)                 1.3939         estimate D2E/DX2                !
 ! R20   R(7,12)                 1.4192         estimate D2E/DX2                !
 ! R21   R(8,22)                 1.0873         estimate D2E/DX2                !
 ! R22   R(8,23)                 1.0862         estimate D2E/DX2                !
 ! R23   R(9,12)                 1.5234         estimate D2E/DX2                !
 ! R24   R(9,24)                 1.0879         estimate D2E/DX2                !
 ! R25   R(9,25)                 1.0841         estimate D2E/DX2                !
 ! R26   R(10,13)                1.5153         estimate D2E/DX2                !
 ! R27   R(10,26)                1.089          estimate D2E/DX2                !
 ! R28   R(11,27)                1.0814         estimate D2E/DX2                !
 ! R29   R(11,28)                1.0877         estimate D2E/DX2                !
 ! R30   R(12,29)                1.0824         estimate D2E/DX2                !
 ! R31   R(13,30)                1.0867         estimate D2E/DX2                !
 ! R32   R(13,31)                1.0852         estimate D2E/DX2                !
 ! A1    A(8,1,13)             110.2721         estimate D2E/DX2                !
 ! A2    A(8,1,14)             110.6711         estimate D2E/DX2                !
 ! A3    A(8,1,15)             109.4015         estimate D2E/DX2                !
 ! A4    A(13,1,14)            110.003          estimate D2E/DX2                !
 ! A5    A(13,1,15)            109.4476         estimate D2E/DX2                !
 ! A6    A(14,1,15)            106.9795         estimate D2E/DX2                !
 ! A7    A(4,2,12)             110.8484         estimate D2E/DX2                !
 ! A8    A(4,2,16)             109.7642         estimate D2E/DX2                !
 ! A9    A(4,2,17)             106.9832         estimate D2E/DX2                !
 ! A10   A(12,2,16)            109.9186         estimate D2E/DX2                !
 ! A11   A(12,2,17)            110.5949         estimate D2E/DX2                !
 ! A12   A(16,2,17)            108.6639         estimate D2E/DX2                !
 ! A13   A(9,3,11)             110.57           estimate D2E/DX2                !
 ! A14   A(9,3,18)             110.0015         estimate D2E/DX2                !
 ! A15   A(9,3,19)             110.4154         estimate D2E/DX2                !
 ! A16   A(11,3,18)            109.0641         estimate D2E/DX2                !
 ! A17   A(11,3,19)            109.3375         estimate D2E/DX2                !
 ! A18   A(18,3,19)            107.3843         estimate D2E/DX2                !
 ! A19   A(2,4,11)             113.3            estimate D2E/DX2                !
 ! A20   A(6,5,10)             113.0849         estimate D2E/DX2                !
 ! A21   A(5,6,8)              110.9227         estimate D2E/DX2                !
 ! A22   A(5,6,20)             108.9568         estimate D2E/DX2                !
 ! A23   A(5,6,21)             105.9914         estimate D2E/DX2                !
 ! A24   A(8,6,20)             110.6884         estimate D2E/DX2                !
 ! A25   A(8,6,21)             111.7717         estimate D2E/DX2                !
 ! A26   A(20,6,21)            108.347          estimate D2E/DX2                !
 ! A27   A(10,7,12)            119.1636         estimate D2E/DX2                !
 ! A28   A(1,8,6)              110.2378         estimate D2E/DX2                !
 ! A29   A(1,8,22)             109.9383         estimate D2E/DX2                !
 ! A30   A(1,8,23)             110.8973         estimate D2E/DX2                !
 ! A31   A(6,8,22)             109.0562         estimate D2E/DX2                !
 ! A32   A(6,8,23)             109.145          estimate D2E/DX2                !
 ! A33   A(22,8,23)            107.5043         estimate D2E/DX2                !
 ! A34   A(3,9,12)             109.9272         estimate D2E/DX2                !
 ! A35   A(3,9,24)             109.6635         estimate D2E/DX2                !
 ! A36   A(3,9,25)             110.7886         estimate D2E/DX2                !
 ! A37   A(12,9,24)            108.3846         estimate D2E/DX2                !
 ! A38   A(12,9,25)            110.4933         estimate D2E/DX2                !
 ! A39   A(24,9,25)            107.5179         estimate D2E/DX2                !
 ! A40   A(5,10,7)             109.5809         estimate D2E/DX2                !
 ! A41   A(5,10,13)            111.2893         estimate D2E/DX2                !
 ! A42   A(5,10,26)            107.4378         estimate D2E/DX2                !
 ! A43   A(7,10,13)            109.107          estimate D2E/DX2                !
 ! A44   A(7,10,26)            108.862          estimate D2E/DX2                !
 ! A45   A(13,10,26)           110.5199         estimate D2E/DX2                !
 ! A46   A(3,11,4)             110.8736         estimate D2E/DX2                !
 ! A47   A(3,11,27)            111.4822         estimate D2E/DX2                !
 ! A48   A(3,11,28)            110.6496         estimate D2E/DX2                !
 ! A49   A(4,11,27)            106.3061         estimate D2E/DX2                !
 ! A50   A(4,11,28)            108.9801         estimate D2E/DX2                !
 ! A51   A(27,11,28)           108.4068         estimate D2E/DX2                !
 ! A52   A(2,12,7)             106.6527         estimate D2E/DX2                !
 ! A53   A(2,12,9)             110.1936         estimate D2E/DX2                !
 ! A54   A(2,12,29)            108.5109         estimate D2E/DX2                !
 ! A55   A(7,12,9)             111.2953         estimate D2E/DX2                !
 ! A56   A(7,12,29)            109.862          estimate D2E/DX2                !
 ! A57   A(9,12,29)            110.2275         estimate D2E/DX2                !
 ! A58   A(1,13,10)            109.9992         estimate D2E/DX2                !
 ! A59   A(1,13,30)            110.3325         estimate D2E/DX2                !
 ! A60   A(1,13,31)            111.0234         estimate D2E/DX2                !
 ! A61   A(10,13,30)           108.2515         estimate D2E/DX2                !
 ! A62   A(10,13,31)           109.1682         estimate D2E/DX2                !
 ! A63   A(30,13,31)           107.9956         estimate D2E/DX2                !
 ! D1    D(13,1,8,6)            51.4557         estimate D2E/DX2                !
 ! D2    D(13,1,8,22)          -68.8029         estimate D2E/DX2                !
 ! D3    D(13,1,8,23)          172.4473         estimate D2E/DX2                !
 ! D4    D(14,1,8,6)           173.4006         estimate D2E/DX2                !
 ! D5    D(14,1,8,22)           53.142          estimate D2E/DX2                !
 ! D6    D(14,1,8,23)          -65.6078         estimate D2E/DX2                !
 ! D7    D(15,1,8,6)           -68.9674         estimate D2E/DX2                !
 ! D8    D(15,1,8,22)          170.774          estimate D2E/DX2                !
 ! D9    D(15,1,8,23)           52.0243         estimate D2E/DX2                !
 ! D10   D(8,1,13,10)          -51.6726         estimate D2E/DX2                !
 ! D11   D(8,1,13,30)           67.6875         estimate D2E/DX2                !
 ! D12   D(8,1,13,31)         -172.6173         estimate D2E/DX2                !
 ! D13   D(14,1,13,10)        -174.0117         estimate D2E/DX2                !
 ! D14   D(14,1,13,30)         -54.6515         estimate D2E/DX2                !
 ! D15   D(14,1,13,31)          65.0437         estimate D2E/DX2                !
 ! D16   D(15,1,13,10)          68.7227         estimate D2E/DX2                !
 ! D17   D(15,1,13,30)        -171.9171         estimate D2E/DX2                !
 ! D18   D(15,1,13,31)         -52.2219         estimate D2E/DX2                !
 ! D19   D(12,2,4,11)           60.9451         estimate D2E/DX2                !
 ! D20   D(16,2,4,11)          -60.6702         estimate D2E/DX2                !
 ! D21   D(17,2,4,11)         -178.3993         estimate D2E/DX2                !
 ! D22   D(4,2,12,7)          -177.1266         estimate D2E/DX2                !
 ! D23   D(4,2,12,9)           -56.2016         estimate D2E/DX2                !
 ! D24   D(4,2,12,29)           64.5712         estimate D2E/DX2                !
 ! D25   D(16,2,12,7)          -55.602          estimate D2E/DX2                !
 ! D26   D(16,2,12,9)           65.3229         estimate D2E/DX2                !
 ! D27   D(16,2,12,29)        -173.9043         estimate D2E/DX2                !
 ! D28   D(17,2,12,7)           64.3837         estimate D2E/DX2                !
 ! D29   D(17,2,12,9)         -174.6913         estimate D2E/DX2                !
 ! D30   D(17,2,12,29)         -53.9185         estimate D2E/DX2                !
 ! D31   D(11,3,9,12)          -51.8893         estimate D2E/DX2                !
 ! D32   D(11,3,9,24)           67.1757         estimate D2E/DX2                !
 ! D33   D(11,3,9,25)         -174.2981         estimate D2E/DX2                !
 ! D34   D(18,3,9,12)           68.6322         estimate D2E/DX2                !
 ! D35   D(18,3,9,24)         -172.3028         estimate D2E/DX2                !
 ! D36   D(18,3,9,25)          -53.7767         estimate D2E/DX2                !
 ! D37   D(19,3,9,12)         -173.0248         estimate D2E/DX2                !
 ! D38   D(19,3,9,24)          -53.9599         estimate D2E/DX2                !
 ! D39   D(19,3,9,25)           64.5663         estimate D2E/DX2                !
 ! D40   D(9,3,11,4)            55.0304         estimate D2E/DX2                !
 ! D41   D(9,3,11,27)          173.2596         estimate D2E/DX2                !
 ! D42   D(9,3,11,28)          -66.0134         estimate D2E/DX2                !
 ! D43   D(18,3,11,4)          -66.0489         estimate D2E/DX2                !
 ! D44   D(18,3,11,27)          52.1802         estimate D2E/DX2                !
 ! D45   D(18,3,11,28)         172.9072         estimate D2E/DX2                !
 ! D46   D(19,3,11,4)          176.8031         estimate D2E/DX2                !
 ! D47   D(19,3,11,27)         -64.9678         estimate D2E/DX2                !
 ! D48   D(19,3,11,28)          55.7592         estimate D2E/DX2                !
 ! D49   D(2,4,11,3)           -60.3744         estimate D2E/DX2                !
 ! D50   D(2,4,11,27)          178.299          estimate D2E/DX2                !
 ! D51   D(2,4,11,28)           61.6498         estimate D2E/DX2                !
 ! D52   D(10,5,6,8)            60.7372         estimate D2E/DX2                !
 ! D53   D(10,5,6,20)          -61.3517         estimate D2E/DX2                !
 ! D54   D(10,5,6,21)         -177.753          estimate D2E/DX2                !
 ! D55   D(6,5,10,7)           177.8858         estimate D2E/DX2                !
 ! D56   D(6,5,10,13)          -61.3518         estimate D2E/DX2                !
 ! D57   D(6,5,10,26)           59.7611         estimate D2E/DX2                !
 ! D58   D(5,6,8,1)            -55.0271         estimate D2E/DX2                !
 ! D59   D(5,6,8,22)            65.7612         estimate D2E/DX2                !
 ! D60   D(5,6,8,23)          -177.0603         estimate D2E/DX2                !
 ! D61   D(20,6,8,1)            66.0464         estimate D2E/DX2                !
 ! D62   D(20,6,8,22)         -173.1653         estimate D2E/DX2                !
 ! D63   D(20,6,8,23)          -55.9868         estimate D2E/DX2                !
 ! D64   D(21,6,8,1)          -173.0804         estimate D2E/DX2                !
 ! D65   D(21,6,8,22)          -52.292          estimate D2E/DX2                !
 ! D66   D(21,6,8,23)           64.8865         estimate D2E/DX2                !
 ! D67   D(12,7,10,5)          -42.5457         Frozen                          !
 ! D68   D(12,7,10,13)        -164.6225         estimate D2E/DX2                !
 ! D69   D(12,7,10,26)          74.689          estimate D2E/DX2                !
 ! D70   D(10,7,12,2)         -133.0735         estimate D2E/DX2                !
 ! D71   D(10,7,12,9)          106.708          estimate D2E/DX2                !
 ! D72   D(10,7,12,29)         -15.6608         estimate D2E/DX2                !
 ! D73   D(3,9,12,2)            52.2127         estimate D2E/DX2                !
 ! D74   D(3,9,12,7)           170.317          estimate D2E/DX2                !
 ! D75   D(3,9,12,29)          -67.5254         estimate D2E/DX2                !
 ! D76   D(24,9,12,2)          -67.6331         estimate D2E/DX2                !
 ! D77   D(24,9,12,7)           50.4712         estimate D2E/DX2                !
 ! D78   D(24,9,12,29)         172.6287         estimate D2E/DX2                !
 ! D79   D(25,9,12,2)          174.7962         estimate D2E/DX2                !
 ! D80   D(25,9,12,7)          -67.0995         estimate D2E/DX2                !
 ! D81   D(25,9,12,29)          55.058          estimate D2E/DX2                !
 ! D82   D(5,10,13,1)           56.019          estimate D2E/DX2                !
 ! D83   D(5,10,13,30)         -64.6034         estimate D2E/DX2                !
 ! D84   D(5,10,13,31)         178.0714         estimate D2E/DX2                !
 ! D85   D(7,10,13,1)          177.0593         estimate D2E/DX2                !
 ! D86   D(7,10,13,30)          56.4369         estimate D2E/DX2                !
 ! D87   D(7,10,13,31)         -60.8883         estimate D2E/DX2                !
 ! D88   D(26,10,13,1)         -63.2725         estimate D2E/DX2                !
 ! D89   D(26,10,13,30)        176.1051         estimate D2E/DX2                !
 ! D90   D(26,10,13,31)         58.7799         estimate D2E/DX2                !
 --------------------------------------------------------------------------------
 Trust Radius=3.00D-01 FncErr=1.00D-07 GrdErr=1.00D-06 EigMax=2.50D+02 EigMin=1.00D-04
 Number of steps in this run=    186 maximum allowed number of steps=    186.
 GradGradGradGradGradGradGradGradGradGradGradGradGradGradGradGradGradGrad

                          Input orientation:                          
 ---------------------------------------------------------------------
 Center     Atomic      Atomic             Coordinates (Angstroms)
 Number     Number       Type             X           Y           Z
 ---------------------------------------------------------------------
      1          6           0       -3.728349   -0.729190    0.218815
      2          6           0        2.182847   -1.236216   -0.453454
      3          6           0        3.006598    1.351086    0.460075
      4          8           0        3.386348   -0.631423   -0.872793
      5          8           0       -1.391672    0.839838   -0.281138
      6          6           0       -2.629122    1.252908   -0.840972
      7          8           0       -0.016058   -0.879747    0.330740
      8          6           0       -3.795354    0.785308    0.015059
      9          6           0        1.648944    0.796264    0.899778
     10          6           0       -1.271253   -0.554795   -0.180971
     11          6           0        3.956855    0.218943    0.106037
     12          6           0        1.125646   -0.182834   -0.143417
     13          6           0       -2.340567   -1.135918    0.721820
     14          1           0       -4.488174   -1.055136    0.921672
     15          1           0       -3.932741   -1.230225   -0.725027
     16          1           0        2.365929   -1.847880    0.427156
     17          1           0        1.854801   -1.878804   -1.259065
     18          1           0        2.882084    1.994585   -0.407381
     19          1           0        3.443730    1.953445    1.250821
     20          1           0       -2.710136    0.856362   -1.850272
     21          1           0       -2.583354    2.331004   -0.901691
     22          1           0       -3.754977    1.290954    0.976770
     23          1           0       -4.726840    1.070792   -0.465313
     24          1           0        1.758353    0.266178    1.843469
     25          1           0        0.937819    1.599244    1.057096
     26          1           0       -1.357787   -0.962909   -1.186895
     27          1           0        4.878779    0.593476   -0.317273
     28          1           0        4.198193   -0.369412    0.988496
     29          1           0        0.882978    0.340427   -1.059284
     30          1           0       -2.178193   -0.758957    1.728066
     31          1           0       -2.236874   -2.215819    0.747565
 ---------------------------------------------------------------------
                    Distance matrix (angstroms):
                    1          2          3          4          5
     1  C    0.000000
     2  C    5.970868   0.000000
     3  C    7.053032   2.864827   0.000000
     4  O    7.198617   1.410686   2.418902   0.000000
     5  O    2.858647   4.137255   4.489493   5.034296   0.000000
     6  C    2.502031   5.431478   5.784782   6.303776   1.419621
     7  O    3.717028   2.361612   3.758962   3.617530   2.285537
     8  C    1.529611   6.328108   6.839934   7.373754   2.422477
     9  C    5.630808   2.499453   1.531140   2.863367   3.262178
    10  C    2.495509   3.531202   4.726873   4.709324   1.403401
    11  C    7.744291   2.361699   1.519894   1.416583   5.398348
    12  C    4.898059   1.524274   2.501019   2.417436   2.720609
    13  C    1.531137   4.674677   5.903039   5.966143   2.410381
    14  H    1.085165   6.813683   7.885086   8.087505   3.824396
    15  H    1.087957   6.121618   7.498137   7.345030   3.307451
    16  H    6.199605   1.087716   3.262656   2.052045   4.673871
    17  H    5.888744   1.081454   3.835918   2.012660   4.345911
    18  H    7.176970   3.305924   1.087233   2.714187   4.428811
    19  H    7.726596   3.829924   1.085910   3.345829   5.193085
    20  H    2.798545   5.501933   6.185750   6.351070   2.049586
    21  H    3.454176   5.970146   5.836284   6.664394   2.007179
    22  H    2.157820   6.609832   6.781555   7.623316   2.714968
    23  H    2.169090   7.284655   7.793649   8.299843   3.348224
    24  H    5.808111   2.777272   2.156135   3.291525   3.842616
    25  H    5.281803   3.445532   2.167455   3.833489   2.791791
    26  H    2.765901   3.626117   5.207201   4.766063   2.017781
    27  H    8.724648   3.261038   2.164094   2.009062   6.275393
    28  H    7.971946   2.625298   2.158527   2.047471   5.858400
    29  H    4.903260   2.131312   2.799937   2.691864   2.455393
    30  H    2.163726   4.899538   5.739524   6.143684   2.685454
    31  H    2.171207   4.683589   6.348186   6.062714   3.333112
                    6          7          8          9         10
     6  C    0.000000
     7  O    3.570606   0.000000
     8  C    1.520374   4.141876   0.000000
     9  C    4.641183   2.430031   5.515726   0.000000
    10  C    2.355249   1.393900   2.864505   3.394249   0.000000
    11  C    6.733573   4.128153   7.773403   2.507943   5.292840
    12  C    4.079978   1.419155   5.017834   1.523394   2.425879
    13  C    2.869159   2.371057   2.511379   4.436349   1.515311
    14  H    3.448196   4.514397   2.165452   6.410334   3.437258
    15  H    2.806923   4.071595   2.151505   6.156448   2.799236
    16  H    6.014447   2.573021   6.713040   2.780096   3.907810
    17  H    5.485252   2.650605   6.375354   3.443685   3.561952
    18  H    5.577766   4.147992   6.799190   2.159924   4.878607
    19  H    6.461105   4.565486   7.436127   2.164152   5.529228
    20  H    1.087427   3.876718   2.159214   5.154412   2.616928
    21  H    1.080774   4.291715   2.167614   4.849027   3.250982
    22  H    2.138500   4.371363   1.087288   5.427063   3.303943
    23  H    2.138856   5.160404   1.086243   6.526060   3.829421
    24  H    5.237346   2.598082   5.869944   1.087894   3.735086
    25  H    4.055327   2.753701   4.914393   1.084078   3.324559
    26  H    2.577945   2.027404   3.231515   4.060705   1.089003
    27  H    7.554978   5.152644   8.682616   3.457480   6.257795
    28  H    7.251973   4.295695   8.134971   2.804522   5.596147
    29  H    3.635262   2.056516   4.820677   2.152305   2.492703
    30  H    3.294070   2.577196   2.816799   4.213283   2.123357
    31  H    3.835280   2.625044   3.460085   4.918881   2.133917
                   11         12         13         14         15
    11  C    0.000000
    12  C    2.870435   0.000000
    13  C    6.470886   3.697518   0.000000
    14  H    8.579455   5.780164   2.158398   0.000000
    15  H    8.064520   5.198324   2.153434   1.746648   0.000000
    16  H    2.627912   2.153192   4.769153   6.917494   6.432905
    17  H    3.268436   2.157001   4.698606   6.757764   5.848204
    18  H    2.138138   2.809965   6.192837   8.086277   7.546001
    19  H    2.140637   3.446897   6.578913   8.489700   8.273576
    20  H    6.977264   4.325102   3.274358   3.807744   2.667355
    21  H    6.946269   4.544342   3.835920   4.291729   3.812402
    22  H    7.834522   5.219900   2.820508   2.458608   3.046975
    23  H    8.744063   5.993896   3.460224   2.549560   2.448004
    24  H    2.802555   2.132990   4.474943   6.450944   6.420665
    25  H    3.453161   2.156922   4.282679   6.041976   5.907979
    26  H    5.595879   2.804426   2.153830   3.775432   2.629671
    27  H    1.081393   3.836521   7.495964   9.591283   9.007499
    28  H    1.087722   3.279723   6.588932   8.713648   8.353996
    29  H    3.289597   1.082360   3.967766   5.892458   5.076399
    30  H    6.420754   3.840536   1.086736   2.464550   3.052572
    31  H    6.685948   4.029072   1.085173   2.538868   2.452731
                   16         17         18         19         20
    16  H    0.000000
    17  H    1.762257   0.000000
    18  H    3.965779   4.096806   0.000000
    19  H    4.036106   4.848748   1.751220   0.000000
    20  H    6.185955   5.354373   5.886460   6.977853   0.000000
    21  H    6.612436   6.127595   5.498048   6.411053   1.757967
    22  H    6.900713   6.820259   6.816271   7.234320   3.045116
    23  H    7.721562   7.255905   7.665016   8.395380   2.455847
    24  H    2.616167   3.773058   3.052292   2.457356   5.827472
    25  H    3.784044   4.278116   2.466000   2.538223   4.723583
    26  H    4.153841   3.341376   5.227898   6.123900   2.361920
    27  H    3.581733   4.017908   2.440905   2.523450   7.746665
    28  H    2.420364   3.580682   3.044519   2.456358   7.568760
    29  H    3.032711   2.430913   2.675377   3.807343   3.715147
    30  H    4.850481   5.142183   6.143983   6.260264   3.961909
    31  H    4.628589   4.569677   6.727937   7.064368   4.051053
                   21         22         23         24         25
    21  H    0.000000
    22  H    2.446021   0.000000
    23  H    2.524498   1.752881   0.000000
    24  H    5.536229   5.674341   6.930772   0.000000
    25  H    4.095239   4.703597   5.889427   1.751777   0.000000
    26  H    3.526077   3.938003   4.000892   4.517089   4.107302
    27  H    7.684008   8.758012   9.618610   3.809592   4.293207
    28  H    7.540188   8.124646   9.156635   2.662287   3.809245
    29  H    4.000336   5.153605   5.688259   3.032782   2.463066
    30  H    4.077700   2.693108   3.828119   4.069473   3.964952
    31  H    4.849092   3.828136   4.298001   4.829405   4.972845
                   26         27         28         29         30
    26  H    0.000000
    27  H    6.486396   0.000000
    28  H    5.996122   1.759370   0.000000
    29  H    2.595380   4.071982   3.960799   0.000000
    30  H    3.035072   7.470833   6.430941   4.283542   0.000000
    31  H    2.466721   7.723894   6.699056   4.419567   1.757064
                   31
    31  H    0.000000
 Stoichiometry    C10H18O3
 Framework group  C1[X(C10H18O3)]
 Deg. of freedom    87
 Full point group                 C1      NOp   1
 Largest Abelian subgroup         C1      NOp   1
 Largest concise Abelian subgroup C1      NOp   1
                         Standard orientation:                         
 ---------------------------------------------------------------------
 Center     Atomic      Atomic             Coordinates (Angstroms)
 Number     Number       Type             X           Y           Z
 ---------------------------------------------------------------------
      1          6           0       -3.728349   -0.729190    0.218815
      2          6           0        2.182847   -1.236216   -0.453454
      3          6           0        3.006598    1.351086    0.460075
      4          8           0        3.386348   -0.631423   -0.872793
      5          8           0       -1.391672    0.839838   -0.281138
      6          6           0       -2.629122    1.252908   -0.840972
      7          8           0       -0.016058   -0.879747    0.330740
      8          6           0       -3.795354    0.785308    0.015059
      9          6           0        1.648944    0.796264    0.899778
     10          6           0       -1.271253   -0.554795   -0.180971
     11          6           0        3.956855    0.218943    0.106037
     12          6           0        1.125646   -0.182834   -0.143417
     13          6           0       -2.340567   -1.135918    0.721820
     14          1           0       -4.488174   -1.055136    0.921672
     15          1           0       -3.932741   -1.230225   -0.725027
     16          1           0        2.365929   -1.847880    0.427156
     17          1           0        1.854801   -1.878804   -1.259065
     18          1           0        2.882084    1.994585   -0.407381
     19          1           0        3.443730    1.953445    1.250821
     20          1           0       -2.710136    0.856362   -1.850272
     21          1           0       -2.583354    2.331004   -0.901691
     22          1           0       -3.754977    1.290954    0.976770
     23          1           0       -4.726840    1.070792   -0.465313
     24          1           0        1.758353    0.266178    1.843469
     25          1           0        0.937819    1.599244    1.057096
     26          1           0       -1.357787   -0.962909   -1.186895
     27          1           0        4.878779    0.593476   -0.317273
     28          1           0        4.198193   -0.369412    0.988496
     29          1           0        0.882978    0.340427   -1.059284
     30          1           0       -2.178193   -0.758957    1.728066
     31          1           0       -2.236874   -2.215819    0.747565
 ---------------------------------------------------------------------
 Rotational constants (GHZ):           2.1512045           0.3699820           0.3450241
 Standard basis: 6-311++G(2d,2p) (5D, 7F)
 There are   557 symmetry adapted cartesian basis functions of A   symmetry.
 There are   531 symmetry adapted basis functions of A   symmetry.
   531 basis functions,   762 primitive gaussians,   557 cartesian basis functions
    51 alpha electrons       51 beta electrons
       nuclear repulsion energy       881.7569527511 Hartrees.
 NAtoms=   31 NActive=   31 NUniq=   31 SFac= 1.00D+00 NAtFMM=   60 NAOKFM=F Big=F
 Integral buffers will be    131072 words long.
 Raffenetti 2 integral format.
 Two-electron integral symmetry is turned on.
 ------------------------------------------------------------------------------
 Polarizable Continuum Model (PCM)
 =================================
 Model                : PCM.
 Atomic radii         : SMD-Coulomb.
 Polarization charges : Total charges.
 Charge compensation  : None.
 Solution method      : On-the-fly selection.
 Cavity type          : VdW (van der Waals Surface) (Alpha=1.000).
 Cavity algorithm     : GePol (No added spheres)
                        Default sphere list used, NSphG=   31.
                        Lebedev-Laikov grids with approx.  5.0 points / Ang**2.
                        Smoothing algorithm: York/Karplus (Gamma=1.0000).
                        Polarization charges: spherical gaussians, with
                                              point-specific exponents (IZeta= 3).
                        Self-potential: point-specific (ISelfS= 7).
                        Self-field    : sphere-specific E.n sum rule (ISelfD= 2).
 1st derivatives      : Analytical E(r).r(x)/FMM algorithm (CHGder, D1EAlg=3).
                        Cavity 1st derivative terms included.
 Solvent              : Water, Eps=  78.355300 Eps(inf)=   1.777849
 ------------------------------------------------------------------------------
 ------------------------------------------------------------------------------
 Atomic radii for non-electrostatic terms: SMD-CDS.
 ------------------------------------------------------------------------------
 Nuclear repulsion after PCM non-electrostatic terms =      881.7634425166 Hartrees.
 One-electron integrals computed using PRISM.
 NBasis=   531 RedAO= T EigKep=  6.30D-06  NBF=   531
 NBsUse=   531 1.00D-06 EigRej= -1.00D+00 NBFU=   531
 ExpMin= 3.60D-02 ExpMax= 8.59D+03 ExpMxC= 1.30D+03 IAcc=3 IRadAn=         5 AccDes= 0.00D+00
 Harris functional with IExCor= 1009 and IRadAn=       5 diagonalized for initial guess.
 HarFok:  IExCor= 1009 AccDes= 0.00D+00 IRadAn=         5 IDoV= 1 UseB2=F ITyADJ=14
 ICtDFT=  3500011 ScaDFX=  1.000000  1.000000  1.000000  1.000000
 FoFCou: FMM=F IPFlag=           0 FMFlag=      100000 FMFlg1=           0
         NFxFlg=           0 DoJE=T BraDBF=F KetDBF=T FulRan=T
         wScrn=  0.000000 ICntrl=       500 IOpCl=  0 I1Cent=   200000004 NGrid=           0
         NMat0=    1 NMatS0=      1 NMatT0=    0 NMatD0=    1 NMtDS0=    0 NMtDT0=    0
 Petite list used in FoFCou.
 Requested convergence on RMS density matrix=1.00D-08 within 128 cycles.
 Requested convergence on MAX density matrix=1.00D-06.
 Requested convergence on             energy=1.00D-06.
 No special actions if energy rises.
 Inv3:  Mode=1 IEnd=    12108243.
 Iteration    1 A*A^-1 deviation from unit magnitude is 7.77D-15 for    227.
 Iteration    1 A*A^-1 deviation from orthogonality  is 4.05D-15 for   1588    216.
 Iteration    1 A^-1*A deviation from unit magnitude is 6.44D-15 for    227.
 Iteration    1 A^-1*A deviation from orthogonality  is 2.04D-14 for   1496   1396.
 Error on total polarization charges =  0.06284
 SCF Done:  E(RM062X) =  -617.502813953     A.U. after   12 cycles
            NFock= 12  Conv=0.48D-08     -V/T= 2.0035
 SMD-CDS (non-electrostatic) energy       (kcal/mol) =       4.07
 (included in total energy above)

 **********************************************************************

            Population analysis using the SCF Density.

 **********************************************************************

 Orbital symmetries:
       Occupied  (A) (A) (A) (A) (A) (A) (A) (A) (A) (A) (A) (A)
                 (A) (A) (A) (A) (A) (A) (A) (A) (A) (A) (A) (A)
                 (A) (A) (A) (A) (A) (A) (A) (A) (A) (A) (A) (A)
                 (A) (A) (A) (A) (A) (A) (A) (A) (A) (A) (A) (A)
                 (A) (A) (A)
       Virtual   (A) (A) (A) (A) (A) (A) (A) (A) (A) (A) (A) (A)
                 (A) (A) (A) (A) (A) (A) (A) (A) (A) (A) (A) (A)
                 (A) (A) (A) (A) (A) (A) (A) (A) (A) (A) (A) (A)
                 (A) (A) (A) (A) (A) (A) (A) (A) (A) (A) (A) (A)
                 (A) (A) (A) (A) (A) (A) (A) (A) (A) (A) (A) (A)
                 (A) (A) (A) (A) (A) (A) (A) (A) (A) (A) (A) (A)
                 (A) (A) (A) (A) (A) (A) (A) (A) (A) (A) (A) (A)
                 (A) (A) (A) (A) (A) (A) (A) (A) (A) (A) (A) (A)
                 (A) (A) (A) (A) (A) (A) (A) (A) (A) (A) (A) (A)
                 (A) (A) (A) (A) (A) (A) (A) (A) (A) (A) (A) (A)
                 (A) (A) (A) (A) (A) (A) (A) (A) (A) (A) (A) (A)
                 (A) (A) (A) (A) (A) (A) (A) (A) (A) (A) (A) (A)
                 (A) (A) (A) (A) (A) (A) (A) (A) (A) (A) (A) (A)
                 (A) (A) (A) (A) (A) (A) (A) (A) (A) (A) (A) (A)
                 (A) (A) (A) (A) (A) (A) (A) (A) (A) (A) (A) (A)
                 (A) (A) (A) (A) (A) (A) (A) (A) (A) (A) (A) (A)
                 (A) (A) (A) (A) (A) (A) (A) (A) (A) (A) (A) (A)
                 (A) (A) (A) (A) (A) (A) (A) (A) (A) (A) (A) (A)
                 (A) (A) (A) (A) (A) (A) (A) (A) (A) (A) (A) (A)
                 (A) (A) (A) (A) (A) (A) (A) (A) (A) (A) (A) (A)
                 (A) (A) (A) (A) (A) (A) (A) (A) (A) (A) (A) (A)
                 (A) (A) (A) (A) (A) (A) (A) (A) (A) (A) (A) (A)
                 (A) (A) (A) (A) (A) (A) (A) (A) (A) (A) (A) (A)
                 (A) (A) (A) (A) (A) (A) (A) (A) (A) (A) (A) (A)
                 (A) (A) (A) (A) (A) (A) (A) (A) (A) (A) (A) (A)
                 (A) (A) (A) (A) (A) (A) (A) (A) (A) (A) (A) (A)
                 (A) (A) (A) (A) (A) (A) (A) (A) (A) (A) (A) (A)
                 (A) (A) (A) (A) (A) (A) (A) (A) (A) (A) (A) (A)
                 (A) (A) (A) (A) (A) (A) (A) (A) (A) (A) (A) (A)
                 (A) (A) (A) (A) (A) (A) (A) (A) (A) (A) (A) (A)
                 (A) (A) (A) (A) (A) (A) (A) (A) (A) (A) (A) (A)
                 (A) (A) (A) (A) (A) (A) (A) (A) (A) (A) (A) (A)
                 (A) (A) (A) (A) (A) (A) (A) (A) (A) (A) (A) (A)
                 (A) (A) (A) (A) (A) (A) (A) (A) (A) (A) (A) (A)
                 (A) (A) (A) (A) (A) (A) (A) (A) (A) (A) (A) (A)
                 (A) (A) (A) (A) (A) (A) (A) (A) (A) (A) (A) (A)
                 (A) (A) (A) (A) (A) (A) (A) (A) (A) (A) (A) (A)
                 (A) (A) (A) (A) (A) (A) (A) (A) (A) (A) (A) (A)
                 (A) (A) (A) (A) (A) (A) (A) (A) (A) (A) (A) (A)
                 (A) (A) (A) (A) (A) (A) (A) (A) (A) (A) (A) (A)
 The electronic state is 1-A.
 Alpha  occ. eigenvalues --  -19.63341 -19.63004 -19.62878 -10.63264 -10.58158
 Alpha  occ. eigenvalues --  -10.57445 -10.57243 -10.57173 -10.52485 -10.52344
 Alpha  occ. eigenvalues --  -10.52330 -10.52247 -10.52166  -1.20523  -1.16691
 Alpha  occ. eigenvalues --   -1.14055  -0.90627  -0.89293  -0.87096  -0.83783
 Alpha  occ. eigenvalues --   -0.74742  -0.73690  -0.72690  -0.69597  -0.65779
 Alpha  occ. eigenvalues --   -0.64637  -0.60255  -0.58054  -0.57188  -0.55325
 Alpha  occ. eigenvalues --   -0.54666  -0.52573  -0.51687  -0.50870  -0.50240
 Alpha  occ. eigenvalues --   -0.47986  -0.46360  -0.45704  -0.45468  -0.44268
 Alpha  occ. eigenvalues --   -0.43268  -0.40588  -0.40133  -0.39891  -0.39396
 Alpha  occ. eigenvalues --   -0.39009  -0.37666  -0.36926  -0.35154  -0.32523
 Alpha  occ. eigenvalues --   -0.31238
 Alpha virt. eigenvalues --    0.00493   0.01298   0.01337   0.01457   0.02607
 Alpha virt. eigenvalues --    0.02889   0.03036   0.03998   0.04125   0.04697
 Alpha virt. eigenvalues --    0.04907   0.05215   0.05899   0.06137   0.07171
 Alpha virt. eigenvalues --    0.07491   0.07812   0.08428   0.09001   0.09998
 Alpha virt. eigenvalues --    0.10543   0.10938   0.11512   0.11800   0.12025
 Alpha virt. eigenvalues --    0.12757   0.13017   0.13395   0.13858   0.13986
 Alpha virt. eigenvalues --    0.14066   0.14167   0.14929   0.15356   0.15529
 Alpha virt. eigenvalues --    0.15643   0.15921   0.16193   0.16406   0.16714
 Alpha virt. eigenvalues --    0.17174   0.17444   0.17602   0.17959   0.18104
 Alpha virt. eigenvalues --    0.18424   0.18799   0.19025   0.19246   0.19592
 Alpha virt. eigenvalues --    0.19766   0.20131   0.20584   0.20860   0.22222
 Alpha virt. eigenvalues --    0.22482   0.22863   0.23432   0.23874   0.24833
 Alpha virt. eigenvalues --    0.25529   0.25665   0.26805   0.27077   0.27584
 Alpha virt. eigenvalues --    0.28236   0.28628   0.29146   0.29556   0.29840
 Alpha virt. eigenvalues --    0.30332   0.30733   0.31351   0.31748   0.32026
 Alpha virt. eigenvalues --    0.32399   0.33538   0.34063   0.34329   0.34510
 Alpha virt. eigenvalues --    0.35300   0.35702   0.36003   0.36419   0.36747
 Alpha virt. eigenvalues --    0.37053   0.37333   0.37990   0.38069   0.38302
 Alpha virt. eigenvalues --    0.38584   0.38973   0.39270   0.39915   0.40407
 Alpha virt. eigenvalues --    0.42003   0.42233   0.42864   0.44612   0.44894
 Alpha virt. eigenvalues --    0.46851   0.48235   0.49245   0.50446   0.51036
 Alpha virt. eigenvalues --    0.52539   0.53190   0.53996   0.54410   0.55039
 Alpha virt. eigenvalues --    0.56595   0.57250   0.58322   0.59173   0.59667
 Alpha virt. eigenvalues --    0.60298   0.61154   0.61566   0.61631   0.62148
 Alpha virt. eigenvalues --    0.62820   0.63045   0.63344   0.63794   0.64427
 Alpha virt. eigenvalues --    0.64700   0.65168   0.65629   0.66618   0.67453
 Alpha virt. eigenvalues --    0.67691   0.68448   0.70349   0.70566   0.71200
 Alpha virt. eigenvalues --    0.71391   0.72391   0.72630   0.72927   0.73402
 Alpha virt. eigenvalues --    0.74146   0.74608   0.75493   0.75976   0.76252
 Alpha virt. eigenvalues --    0.76873   0.77009   0.77939   0.78965   0.79349
 Alpha virt. eigenvalues --    0.81422   0.82677   0.83605   0.85307   0.85794
 Alpha virt. eigenvalues --    0.86211   0.87822   0.88836   0.89495   0.89709
 Alpha virt. eigenvalues --    0.91471   0.92044   0.93331   0.94289   0.96835
 Alpha virt. eigenvalues --    0.96960   0.97200   0.99796   1.01291   1.02497
 Alpha virt. eigenvalues --    1.03363   1.04404   1.05665   1.06982   1.07484
 Alpha virt. eigenvalues --    1.08607   1.08839   1.10538   1.11256   1.12241
 Alpha virt. eigenvalues --    1.13449   1.14141   1.15118   1.15572   1.15959
 Alpha virt. eigenvalues --    1.17616   1.18084   1.18930   1.19084   1.19944
 Alpha virt. eigenvalues --    1.21077   1.22149   1.22278   1.23050   1.24467
 Alpha virt. eigenvalues --    1.24853   1.25054   1.26796   1.27026   1.28148
 Alpha virt. eigenvalues --    1.28825   1.29391   1.29856   1.30318   1.30529
 Alpha virt. eigenvalues --    1.31329   1.32705   1.33489   1.33724   1.33860
 Alpha virt. eigenvalues --    1.35074   1.35406   1.36134   1.37842   1.37927
 Alpha virt. eigenvalues --    1.38896   1.39241   1.39955   1.41586   1.42101
 Alpha virt. eigenvalues --    1.42209   1.43177   1.43571   1.44175   1.45502
 Alpha virt. eigenvalues --    1.45928   1.46497   1.46787   1.47722   1.48859
 Alpha virt. eigenvalues --    1.49756   1.50245   1.50540   1.51526   1.52571
 Alpha virt. eigenvalues --    1.53048   1.53285   1.54487   1.55267   1.55418
 Alpha virt. eigenvalues --    1.56480   1.57611   1.58094   1.58567   1.59180
 Alpha virt. eigenvalues --    1.60086   1.60644   1.61065   1.62150   1.62526
 Alpha virt. eigenvalues --    1.63428   1.64031   1.65818   1.66405   1.67461
 Alpha virt. eigenvalues --    1.69185   1.69270   1.69861   1.70961   1.72963
 Alpha virt. eigenvalues --    1.73201   1.75431   1.76989   1.77303   1.77933
 Alpha virt. eigenvalues --    1.78813   1.80058   1.81481   1.82079   1.84729
 Alpha virt. eigenvalues --    1.86490   1.88661   1.89120   1.92655   1.96966
 Alpha virt. eigenvalues --    2.01161   2.09668   2.12319   2.16783   2.21136
 Alpha virt. eigenvalues --    2.24465   2.26539   2.27808   2.33059   2.35350
 Alpha virt. eigenvalues --    2.40291   2.43483   2.44708   2.49616   2.52982
 Alpha virt. eigenvalues --    2.57851   2.76175   2.76985   2.78602   2.81404
 Alpha virt. eigenvalues --    2.88084   2.90274   2.93184   2.93809   2.94831
 Alpha virt. eigenvalues --    2.97814   2.98045   3.00949   3.02721   3.03410
 Alpha virt. eigenvalues --    3.07634   3.07666   3.08798   3.10063   3.10777
 Alpha virt. eigenvalues --    3.13012   3.15480   3.17631   3.20185   3.22645
 Alpha virt. eigenvalues --    3.25171   3.30609   3.32107   3.32771   3.35675
 Alpha virt. eigenvalues --    3.36209   3.37308   3.39391   3.40033   3.42247
 Alpha virt. eigenvalues --    3.43485   3.44312   3.44776   3.45775   3.46310
 Alpha virt. eigenvalues --    3.47667   3.48091   3.50727   3.51886   3.52693
 Alpha virt. eigenvalues --    3.53415   3.54754   3.55089   3.56067   3.56409
 Alpha virt. eigenvalues --    3.57191   3.57978   3.58924   3.59881   3.60351
 Alpha virt. eigenvalues --    3.60736   3.61808   3.62805   3.64061   3.64789
 Alpha virt. eigenvalues --    3.65444   3.66690   3.68363   3.69294   3.69664
 Alpha virt. eigenvalues --    3.70857   3.71200   3.72093   3.73201   3.73870
 Alpha virt. eigenvalues --    3.75415   3.76021   3.76818   3.77216   3.78131
 Alpha virt. eigenvalues --    3.78526   3.79262   3.80046   3.82820   3.84975
 Alpha virt. eigenvalues --    3.86324   3.88108   3.89772   3.90469   3.91652
 Alpha virt. eigenvalues --    3.92009   3.93831   3.95386   3.97364   3.99034
 Alpha virt. eigenvalues --    4.00499   4.02031   4.03866   4.04047   4.04761
 Alpha virt. eigenvalues --    4.05237   4.06506   4.06712   4.07326   4.08200
 Alpha virt. eigenvalues --    4.08839   4.09304   4.09935   4.11558   4.11913
 Alpha virt. eigenvalues --    4.12594   4.13668   4.14491   4.14974   4.15777
 Alpha virt. eigenvalues --    4.16948   4.18519   4.19647   4.19739   4.21293
 Alpha virt. eigenvalues --    4.22525   4.23456   4.24393   4.26136   4.27623
 Alpha virt. eigenvalues --    4.28524   4.29022   4.29459   4.31952   4.32790
 Alpha virt. eigenvalues --    4.34212   4.34790   4.35735   4.37352   4.39277
 Alpha virt. eigenvalues --    4.40703   4.43954   4.46115   4.47254   4.53763
 Alpha virt. eigenvalues --    4.58700   4.61105   4.77148   4.77611   4.83359
 Alpha virt. eigenvalues --    4.88674   4.91640   4.93955   5.00179   5.00703
 Alpha virt. eigenvalues --    5.06919   5.07180   5.08277   5.09149   5.12381
 Alpha virt. eigenvalues --    5.12951   5.14393   5.15441   5.29742   5.34320
 Alpha virt. eigenvalues --    5.37631   5.57565   5.59139   5.64876   5.85936
 Alpha virt. eigenvalues --    5.89897   6.04999   7.03475   7.04779   7.05412
 Alpha virt. eigenvalues --    7.05865   7.10108   7.12695   7.14789   7.16514
 Alpha virt. eigenvalues --    7.23185   7.35291   7.39063   7.45862   7.53508
 Alpha virt. eigenvalues --    7.56363   7.62886  23.95600  23.97989  24.06421
 Alpha virt. eigenvalues --   24.09422  24.11767  24.13478  24.14911  24.16201
 Alpha virt. eigenvalues --   24.17004  24.19287  50.17442  50.18840  50.23388
          Condensed to atoms (all electrons):
               1          2          3          4          5          6
     1  C    5.686013   0.008244  -0.000593  -0.000247   0.019504  -0.040360
     2  C    0.008244   6.375364   0.147326   0.104837   0.033659   0.016942
     3  C   -0.000593   0.147326   5.651900  -0.029463  -0.013973   0.001165
     4  O   -0.000247   0.104837  -0.029463   8.406225   0.000291  -0.000023
     5  O    0.019504   0.033659  -0.013973   0.000291   8.406655   0.010174
     6  C   -0.040360   0.016942   0.001165  -0.000023   0.010174   5.487200
     7  O    0.017821  -0.219031   0.001609   0.001072   0.001823  -0.011284
     8  C   -0.009876  -0.012509   0.003702   0.000180  -0.078936   0.013426
     9  C    0.007430  -0.337256   0.008808  -0.010615  -0.054010  -0.034724
    10  C    0.158592  -0.164511  -0.119904   0.000055   0.225908  -0.162990
    11  C   -0.002247  -0.183596   0.100620   0.088465  -0.000765   0.000898
    12  C   -0.096908  -0.282066  -0.137215   0.035125  -0.006402   0.044567
    13  C   -0.087433   0.113969   0.027920   0.000748  -0.041287   0.093164
    14  H    0.409566   0.000867   0.000109  -0.000005  -0.001961   0.009711
    15  H    0.521649  -0.000834   0.000081   0.000009   0.001482  -0.019610
    16  H   -0.001633   0.375624  -0.007700  -0.033573   0.000996  -0.000488
    17  H    0.002115   0.466649   0.010652  -0.072360  -0.000650  -0.001464
    18  H    0.000395   0.012159   0.487154   0.001511   0.001091  -0.000212
    19  H   -0.000224  -0.004252   0.430877   0.007197  -0.000657  -0.000402
    20  H   -0.019539   0.001930   0.000709  -0.000009  -0.026451   0.471080
    21  H    0.008724   0.000593  -0.000693  -0.000036  -0.070739   0.450584
    22  H   -0.024401   0.000154   0.000324   0.000022  -0.002115  -0.076061
    23  H   -0.056117  -0.000263  -0.000001  -0.000010   0.006923  -0.035425
    24  H    0.000751  -0.030334  -0.089031   0.000075   0.000411  -0.000616
    25  H    0.001217   0.001686   0.009944  -0.003116   0.004573  -0.001106
    26  H   -0.015216  -0.014051  -0.004824   0.001166  -0.047392   0.007219
    27  H   -0.000109   0.020767  -0.045073  -0.068903  -0.000091   0.000024
    28  H    0.000195  -0.043573  -0.043554  -0.042454   0.000120  -0.000094
    29  H   -0.007460  -0.086503  -0.024565  -0.011808  -0.009453  -0.002336
    30  H   -0.009834   0.004044  -0.000341  -0.000019  -0.004925  -0.000826
    31  H   -0.029706   0.000082   0.000377   0.000077   0.004327   0.002159
               7          8          9         10         11         12
     1  C    0.017821  -0.009876   0.007430   0.158592  -0.002247  -0.096908
     2  C   -0.219031  -0.012509  -0.337256  -0.164511  -0.183596  -0.282066
     3  C    0.001609   0.003702   0.008808  -0.119904   0.100620  -0.137215
     4  O    0.001072   0.000180  -0.010615   0.000055   0.088465   0.035125
     5  O    0.001823  -0.078936  -0.054010   0.225908  -0.000765  -0.006402
     6  C   -0.011284   0.013426  -0.034724  -0.162990   0.000898   0.044567
     7  O    8.444528   0.021609  -0.110293   0.162343   0.016058   0.306069
     8  C    0.021609   5.573000   0.025008   0.118889   0.000826  -0.028319
     9  C   -0.110293   0.025008   6.725975   0.215674  -0.128375  -0.961832
    10  C    0.162343   0.118889   0.215674   6.552180  -0.018179  -0.475601
    11  C    0.016058   0.000826  -0.128375  -0.018179   5.401713   0.144047
    12  C    0.306069  -0.028319  -0.961832  -0.475601   0.144047   7.270596
    13  C   -0.232125  -0.126911  -0.050018  -0.670041   0.002394  -0.031801
    14  H   -0.003666  -0.026546   0.000181   0.022144  -0.000060  -0.003684
    15  H    0.001240  -0.050480   0.001142  -0.023483   0.000054  -0.000728
    16  H    0.007478   0.000525   0.014006   0.003969   0.000381  -0.030358
    17  H    0.001827  -0.000343   0.019938  -0.003152   0.004590  -0.073694
    18  H    0.000059   0.000220  -0.013010   0.005288  -0.081989  -0.035900
    19  H   -0.001646   0.000005  -0.029460  -0.002631  -0.035720  -0.003820
    20  H    0.004456  -0.040948   0.002324  -0.055559   0.000019   0.006578
    21  H   -0.001953  -0.050188  -0.000141   0.000707   0.000128   0.001034
    22  H    0.003429   0.492584  -0.000859  -0.014016   0.000188   0.006176
    23  H    0.000287   0.460475  -0.000161   0.003612  -0.000027  -0.000775
    24  H   -0.002151  -0.000814   0.514889   0.027808  -0.011299  -0.035546
    25  H   -0.008228  -0.000518   0.437341   0.001262  -0.007150  -0.053230
    26  H   -0.043948   0.005865   0.004767   0.496198  -0.000722   0.020821
    27  H    0.000705   0.000006   0.007027  -0.002282   0.435323  -0.004665
    28  H    0.000280   0.000116  -0.008664   0.002594   0.463095   0.028273
    29  H   -0.020043  -0.005420   0.004574   0.027724   0.013960   0.470415
    30  H    0.005125  -0.009838  -0.002980  -0.089764  -0.000676   0.004520
    31  H   -0.003433   0.003758   0.004596  -0.051286   0.000116  -0.004399
              13         14         15         16         17         18
     1  C   -0.087433   0.409566   0.521649  -0.001633   0.002115   0.000395
     2  C    0.113969   0.000867  -0.000834   0.375624   0.466649   0.012159
     3  C    0.027920   0.000109   0.000081  -0.007700   0.010652   0.487154
     4  O    0.000748  -0.000005   0.000009  -0.033573  -0.072360   0.001511
     5  O   -0.041287  -0.001961   0.001482   0.000996  -0.000650   0.001091
     6  C    0.093164   0.009711  -0.019610  -0.000488  -0.001464  -0.000212
     7  O   -0.232125  -0.003666   0.001240   0.007478   0.001827   0.000059
     8  C   -0.126911  -0.026546  -0.050480   0.000525  -0.000343   0.000220
     9  C   -0.050018   0.000181   0.001142   0.014006   0.019938  -0.013010
    10  C   -0.670041   0.022144  -0.023483   0.003969  -0.003152   0.005288
    11  C    0.002394  -0.000060   0.000054   0.000381   0.004590  -0.081989
    12  C   -0.031801  -0.003684  -0.000728  -0.030358  -0.073694  -0.035900
    13  C    6.385324  -0.043864  -0.044577   0.003752  -0.002507  -0.000182
    14  H   -0.043864   0.466172   0.000321  -0.000013  -0.000033   0.000003
    15  H   -0.044577   0.000321   0.444545   0.000041   0.000240   0.000005
    16  H    0.003752  -0.000013   0.000041   0.480426  -0.019120   0.002962
    17  H   -0.002507  -0.000033   0.000240  -0.019120   0.474904  -0.001967
    18  H   -0.000182   0.000003   0.000005   0.002962  -0.001967   0.469548
    19  H    0.000794   0.000006  -0.000001  -0.002111   0.002178  -0.009379
    20  H    0.023742  -0.001435   0.002195   0.000007   0.000419  -0.000037
    21  H    0.009995   0.000714  -0.002259  -0.000018  -0.000131  -0.000254
    22  H   -0.006034  -0.003353   0.003384   0.000057   0.000103   0.000018
    23  H    0.003965  -0.007667  -0.005821  -0.000041  -0.000067  -0.000018
    24  H   -0.010089  -0.000014  -0.000023  -0.001801  -0.002495   0.001363
    25  H    0.005352   0.000094   0.000074  -0.001656   0.000001  -0.000453
    26  H   -0.086232  -0.001899  -0.005376   0.000708  -0.003754   0.000472
    27  H    0.000137  -0.000002   0.000000  -0.002588   0.002171  -0.004247
    28  H   -0.000017   0.000001   0.000004   0.009956  -0.003351   0.002777
    29  H   -0.027604  -0.000143  -0.000317  -0.003297  -0.005995  -0.007780
    30  H    0.482502  -0.004033   0.002548  -0.000124   0.000264   0.000221
    31  H    0.450499  -0.008456  -0.006855  -0.000476  -0.000010  -0.000055
              19         20         21         22         23         24
     1  C   -0.000224  -0.019539   0.008724  -0.024401  -0.056117   0.000751
     2  C   -0.004252   0.001930   0.000593   0.000154  -0.000263  -0.030334
     3  C    0.430877   0.000709  -0.000693   0.000324  -0.000001  -0.089031
     4  O    0.007197  -0.000009  -0.000036   0.000022  -0.000010   0.000075
     5  O   -0.000657  -0.026451  -0.070739  -0.002115   0.006923   0.000411
     6  C   -0.000402   0.471080   0.450584  -0.076061  -0.035425  -0.000616
     7  O   -0.001646   0.004456  -0.001953   0.003429   0.000287  -0.002151
     8  C    0.000005  -0.040948  -0.050188   0.492584   0.460475  -0.000814
     9  C   -0.029460   0.002324  -0.000141  -0.000859  -0.000161   0.514889
    10  C   -0.002631  -0.055559   0.000707  -0.014016   0.003612   0.027808
    11  C   -0.035720   0.000019   0.000128   0.000188  -0.000027  -0.011299
    12  C   -0.003820   0.006578   0.001034   0.006176  -0.000775  -0.035546
    13  C    0.000794   0.023742   0.009995  -0.006034   0.003965  -0.010089
    14  H    0.000006  -0.001435   0.000714  -0.003353  -0.007667  -0.000014
    15  H   -0.000001   0.002195  -0.002259   0.003384  -0.005821  -0.000023
    16  H   -0.002111   0.000007  -0.000018   0.000057  -0.000041  -0.001801
    17  H    0.002178   0.000419  -0.000131   0.000103  -0.000067  -0.002495
    18  H   -0.009379  -0.000037  -0.000254   0.000018  -0.000018   0.001363
    19  H    0.486447   0.000071   0.000059  -0.000015  -0.000009  -0.003609
    20  H    0.000071   0.471919  -0.006271   0.003110   0.001573  -0.000030
    21  H    0.000059  -0.006271   0.471714  -0.002116  -0.010129   0.000023
    22  H   -0.000015   0.003110  -0.002116   0.473745  -0.012799  -0.000262
    23  H   -0.000009   0.001573  -0.010129  -0.012799   0.475181   0.000053
    24  H   -0.003609  -0.000030   0.000023  -0.000262   0.000053   0.446196
    25  H   -0.010681  -0.000108  -0.001529  -0.000456   0.000065  -0.012208
    26  H   -0.000248  -0.006815  -0.000907  -0.000251  -0.000646  -0.000357
    27  H   -0.008859  -0.000014   0.000020  -0.000001   0.000001  -0.001297
    28  H    0.003078  -0.000007  -0.000025   0.000008   0.000000  -0.005006
    29  H    0.000094   0.000011   0.000719  -0.000453   0.000390   0.005644
    30  H   -0.000162   0.000186  -0.000649   0.001224  -0.003147   0.000040
    31  H    0.000063   0.000220   0.001154  -0.001836   0.001957   0.000193
              25         26         27         28         29         30
     1  C    0.001217  -0.015216  -0.000109   0.000195  -0.007460  -0.009834
     2  C    0.001686  -0.014051   0.020767  -0.043573  -0.086503   0.004044
     3  C    0.009944  -0.004824  -0.045073  -0.043554  -0.024565  -0.000341
     4  O   -0.003116   0.001166  -0.068903  -0.042454  -0.011808  -0.000019
     5  O    0.004573  -0.047392  -0.000091   0.000120  -0.009453  -0.004925
     6  C   -0.001106   0.007219   0.000024  -0.000094  -0.002336  -0.000826
     7  O   -0.008228  -0.043948   0.000705   0.000280  -0.020043   0.005125
     8  C   -0.000518   0.005865   0.000006   0.000116  -0.005420  -0.009838
     9  C    0.437341   0.004767   0.007027  -0.008664   0.004574  -0.002980
    10  C    0.001262   0.496198  -0.002282   0.002594   0.027724  -0.089764
    11  C   -0.007150  -0.000722   0.435323   0.463095   0.013960  -0.000676
    12  C   -0.053230   0.020821  -0.004665   0.028273   0.470415   0.004520
    13  C    0.005352  -0.086232   0.000137  -0.000017  -0.027604   0.482502
    14  H    0.000094  -0.001899  -0.000002   0.000001  -0.000143  -0.004033
    15  H    0.000074  -0.005376   0.000000   0.000004  -0.000317   0.002548
    16  H   -0.001656   0.000708  -0.002588   0.009956  -0.003297  -0.000124
    17  H    0.000001  -0.003754   0.002171  -0.003351  -0.005995   0.000264
    18  H   -0.000453   0.000472  -0.004247   0.002777  -0.007780   0.000221
    19  H   -0.010681  -0.000248  -0.008859   0.003078   0.000094  -0.000162
    20  H   -0.000108  -0.006815  -0.000014  -0.000007   0.000011   0.000186
    21  H   -0.001529  -0.000907   0.000020  -0.000025   0.000719  -0.000649
    22  H   -0.000456  -0.000251  -0.000001   0.000008  -0.000453   0.001224
    23  H    0.000065  -0.000646   0.000001   0.000000   0.000390  -0.003147
    24  H   -0.012208  -0.000357  -0.001297  -0.005006   0.005644   0.000040
    25  H    0.460198  -0.001246   0.001034  -0.000139  -0.000149   0.001224
    26  H   -0.001246   0.439731  -0.000160   0.000366  -0.000820  -0.001423
    27  H    0.001034  -0.000160   0.462465  -0.006627   0.000409  -0.000047
    28  H   -0.000139   0.000366  -0.006627   0.485077  -0.001630   0.000171
    29  H   -0.000149  -0.000820   0.000409  -0.001630   0.416981  -0.002044
    30  H    0.001224  -0.001423  -0.000047   0.000171  -0.002044   0.454905
    31  H   -0.000518   0.001403   0.000023  -0.000131   0.000365  -0.018001
              31
     1  C   -0.029706
     2  C    0.000082
     3  C    0.000377
     4  O    0.000077
     5  O    0.004327
     6  C    0.002159
     7  O   -0.003433
     8  C    0.003758
     9  C    0.004596
    10  C   -0.051286
    11  C    0.000116
    12  C   -0.004399
    13  C    0.450499
    14  H   -0.008456
    15  H   -0.006855
    16  H   -0.000476
    17  H   -0.000010
    18  H   -0.000055
    19  H    0.000063
    20  H    0.000220
    21  H    0.001154
    22  H   -0.001836
    23  H    0.001957
    24  H    0.000193
    25  H   -0.000518
    26  H    0.001403
    27  H    0.000023
    28  H   -0.000131
    29  H    0.000365
    30  H   -0.018001
    31  H    0.466213
 Mulliken charges:
               1
     1  C   -0.440314
     2  C   -0.306115
     3  C   -0.366349
     4  O   -0.374414
     5  O   -0.358130
     6  C   -0.220292
     7  O   -0.340014
     8  C   -0.278547
     9  C   -0.251281
    10  C   -0.171549
    11  C   -0.202070
    12  C   -0.071279
    13  C   -0.143538
    14  H    0.196942
    15  H    0.181350
    16  H    0.204110
    17  H    0.205042
    18  H    0.170241
    19  H    0.183017
    20  H    0.166667
    21  H    0.201869
    22  H    0.160500
    23  H    0.178637
    24  H    0.209536
    25  H    0.178426
    26  H    0.257572
    27  H    0.214851
    28  H    0.159160
    29  H    0.276531
    30  H    0.191861
    31  H    0.187579
 Sum of Mulliken charges =  -0.00000
 Mulliken charges with hydrogens summed into heavy atoms:
               1
     1  C   -0.062022
     2  C    0.103037
     3  C   -0.013091
     4  O   -0.374414
     5  O   -0.358130
     6  C    0.148245
     7  O   -0.340014
     8  C    0.060590
     9  C    0.136681
    10  C    0.086022
    11  C    0.171941
    12  C    0.205252
    13  C    0.235902
 Electronic spatial extent (au):  <R**2>=           3317.4829
 Charge=              0.0000 electrons
 Dipole moment (field-independent basis, Debye):
    X=             -2.8632    Y=              0.9388    Z=              0.1605  Tot=              3.0174
 Quadrupole moment (field-independent basis, Debye-Ang):
   XX=            -70.4626   YY=            -79.0239   ZZ=            -80.4353
   XY=              4.1671   XZ=              9.0800   YZ=             -0.2470
 Traceless Quadrupole moment (field-independent basis, Debye-Ang):
   XX=              6.1780   YY=             -2.3833   ZZ=             -3.7947
   XY=              4.1671   XZ=              9.0800   YZ=             -0.2470
 Octapole moment (field-independent basis, Debye-Ang**2):
  XXX=            -31.4923  YYY=              1.5494  ZZZ=             -1.5669  XYY=             -1.7898
  XXY=             22.0080  XXZ=             22.2003  XZZ=             -8.1372  YZZ=              0.9401
  YYZ=             -3.4860  XYZ=             -0.6963
 Hexadecapole moment (field-independent basis, Debye-Ang**3):
 XXXX=          -3441.4736 YYYY=           -545.5916 ZZZZ=           -291.3532 XXXY=             55.6255
 XXXZ=             99.2853 YYYX=            -16.7997 YYYZ=             -0.4537 ZZZX=              9.3832
 ZZZY=              1.8589 XXYY=           -672.8981 XXZZ=           -655.4392 YYZZ=           -138.1597
 XXYZ=            -28.9662 YYXZ=              5.7581 ZZXY=              0.7848
 N-N= 8.817634425166D+02 E-N=-3.205759051801D+03  KE= 6.153661276429D+02
 D1PCM: PCM CHGder 1st derivatives, ID1Alg=3 FixD1E=F DoIter=F DoCFld=F I1PDM=0.
 Calling FoFJK, ICntrl=      2127 FMM=F ISym2X=0 I1Cent= 0 IOpClX= 0 NMat=1 NMatS=1 NMatT=0.
 ***** Axes restored to original set *****
 -------------------------------------------------------------------
 Center     Atomic                   Forces (Hartrees/Bohr)
 Number     Number              X              Y              Z
 -------------------------------------------------------------------
      1        6           0.003195175    0.002876016    0.000234457
      2        6          -0.002342432    0.004971488    0.002249971
      3        6          -0.000463062   -0.002916903    0.001135199
      4        8           0.005096339   -0.001636621   -0.010935537
      5        8           0.007566438    0.010382560    0.007940346
      6        6          -0.004576176   -0.003645242    0.003307301
      7        8           0.000523357   -0.002810074    0.016288611
      8        6           0.001489484   -0.002449894   -0.001796732
      9        6           0.002680316   -0.000725503   -0.003876945
     10        6          -0.004006776   -0.004636643   -0.005144800
     11        6          -0.005567330    0.003898404    0.002657696
     12        6           0.003057147   -0.002318716   -0.000848270
     13        6          -0.001509111    0.000507044   -0.003138686
     14        1          -0.001695887   -0.000764314    0.001858230
     15        1           0.000028574   -0.001163286   -0.003165205
     16        1          -0.000142058   -0.002539807    0.005702473
     17        1          -0.002166761   -0.002610065   -0.003529137
     18        1          -0.000504667    0.001299185   -0.003019133
     19        1           0.001081570    0.001542568    0.002195156
     20        1          -0.001182802   -0.002654280   -0.004900677
     21        1          -0.000017923    0.004607995   -0.000177989
     22        1           0.000931230    0.001374945    0.002913253
     23        1          -0.002320909    0.000596670   -0.001397320
     24        1           0.000583367   -0.002818247    0.002623947
     25        1          -0.003011978    0.002437279   -0.000107164
     26        1          -0.001999706   -0.002632868   -0.007505168
     27        1           0.003701778    0.001793717   -0.001824701
     28        1           0.000536111   -0.002550736    0.005111281
     29        1          -0.000696527    0.003465650   -0.005589724
     30        1           0.001169789    0.002299314    0.002956911
     31        1           0.000563431   -0.003179637   -0.000217644
 -------------------------------------------------------------------
 Cartesian Forces:  Max     0.016288611 RMS     0.003784038

 GradGradGradGradGradGradGradGradGradGradGradGradGradGradGradGradGradGrad
 Berny optimization.
 FormGI is forming the generalized inverse of G from B-inverse, IUseBI=4.
 Internal  Forces:  Max     0.012155324 RMS     0.002258089
 Search for a local minimum.
 Step number   1 out of a maximum of  186
 All quantities printed in internal units (Hartrees-Bohrs-Radians)
 Mixed Optimization -- RFO/linear search
 Second derivative matrix not updated -- first step.
 ITU=  0
     Eigenvalues ---    0.00611   0.00642   0.00738   0.00764   0.01438
     Eigenvalues ---    0.01447   0.01500   0.02720   0.02778   0.03128
     Eigenvalues ---    0.03164   0.04177   0.04351   0.04746   0.04780
     Eigenvalues ---    0.04792   0.04983   0.05031   0.05151   0.05166
     Eigenvalues ---    0.05169   0.05683   0.05745   0.06154   0.06188
     Eigenvalues ---    0.06269   0.06395   0.06827   0.07638   0.07876
     Eigenvalues ---    0.07929   0.07947   0.07963   0.08009   0.08139
     Eigenvalues ---    0.08689   0.09111   0.09361   0.10874   0.11445
     Eigenvalues ---    0.11621   0.11704   0.11719   0.12313   0.12501
     Eigenvalues ---    0.14415   0.14564   0.16398   0.16553   0.17569
     Eigenvalues ---    0.19234   0.21488   0.21764   0.25000   0.28543
     Eigenvalues ---    0.28568   0.28694   0.28722   0.28969   0.29290
     Eigenvalues ---    0.30193   0.30603   0.34928   0.35050   0.35057
     Eigenvalues ---    0.35077   0.35078   0.35112   0.35128   0.35134
     Eigenvalues ---    0.35193   0.35250   0.35290   0.35376   0.35377
     Eigenvalues ---    0.35506   0.35711   0.35819   0.35827   0.35901
     Eigenvalues ---    0.41068   0.41456   0.42362   0.42588   0.43347
     Eigenvalues ---    0.466471000.000001000.000001000.000001000.00000
     Eigenvalues --- 1000.000001000.000001000.000001000.000001000.00000
     Eigenvalues --- 1000.000001000.000001000.000001000.000001000.00000
     Eigenvalues --- 1000.000001000.000001000.000001000.000001000.00000
     Eigenvalues --- 1000.000001000.000001000.000001000.000001000.00000
     Eigenvalues --- 1000.000001000.000001000.000001000.000001000.00000
     Eigenvalues --- 1000.000001000.000001000.000001000.000001000.00000
     Eigenvalues --- 1000.000001000.000001000.000001000.000001000.00000
     Eigenvalues --- 1000.000001000.000001000.000001000.000001000.00000
     Eigenvalues --- 1000.000001000.000001000.000001000.000001000.00000
     Eigenvalues --- 1000.000001000.000001000.000001000.000001000.00000
     Eigenvalues --- 1000.000001000.000001000.000001000.000001000.00000
     Eigenvalues --- 1000.000001000.000001000.000001000.000001000.00000
     Eigenvalues --- 1000.000001000.000001000.000001000.000001000.00000
     Eigenvalues --- 1000.000001000.000001000.000001000.000001000.00000
     Eigenvalues --- 1000.000001000.000001000.000001000.000001000.00000
     Eigenvalues --- 1000.000001000.000001000.000001000.000001000.00000
     Eigenvalues --- 1000.000001000.000001000.000001000.000001000.00000
     Eigenvalues --- 1000.000001000.000001000.000001000.000001000.00000
     Eigenvalues --- 1000.000001000.000001000.000001000.000001000.00000
 RFO step:  Lambda=-3.14913557D-03 EMin= 6.10501523D-03
 Linear search not attempted -- first point.
 Iteration  1 RMS(Cart)=  0.05154946 RMS(Int)=  0.00061795
 Iteration  2 RMS(Cart)=  0.00160209 RMS(Int)=  0.00002304
 Iteration  3 RMS(Cart)=  0.00000058 RMS(Int)=  0.00002304
 Iteration  1 RMS(Cart)=  0.00001408 RMS(Int)=  0.00000321
 Iteration  2 RMS(Cart)=  0.00000749 RMS(Int)=  0.00000358
 Iteration  3 RMS(Cart)=  0.00000399 RMS(Int)=  0.00000404
 Iteration  4 RMS(Cart)=  0.00000212 RMS(Int)=  0.00000433
 Iteration  5 RMS(Cart)=  0.00000113 RMS(Int)=  0.00000449
 Iteration  6 RMS(Cart)=  0.00000060 RMS(Int)=  0.00000458
 Variable       Old X    -DE/DX   Delta X   Delta X   Delta X     New X
                                 (Linear)    (Quad)   (Total)
    R1        2.89055  -0.00100   0.00000  -0.00371  -0.00375   2.88680
    R2        2.89343  -0.00115   0.00000  -0.00430  -0.00433   2.88910
    R3        2.05066   0.00262   0.00000   0.00735   0.00735   2.05801
    R4        2.05594   0.00327   0.00000   0.00926   0.00926   2.06520
    R5        2.66581   0.00620   0.00000   0.01460   0.01463   2.68044
    R6        2.88046  -0.00063   0.00000  -0.00189  -0.00189   2.87857
    R7        2.05549   0.00602   0.00000   0.01700   0.01700   2.07248
    R8        2.04365   0.00484   0.00000   0.01340   0.01340   2.05705
    R9        2.89344  -0.00092   0.00000  -0.00395  -0.00398   2.88946
   R10        2.87218  -0.00068   0.00000  -0.00233  -0.00233   2.86985
   R11        2.05457   0.00323   0.00000   0.00912   0.00912   2.06370
   R12        2.05207   0.00289   0.00000   0.00811   0.00811   2.06018
   R13        2.67695   0.00623   0.00000   0.01480   0.01483   2.69179
   R14        2.68269   0.00558   0.00000   0.01326   0.01329   2.69599
   R15        2.65204   0.00853   0.00000   0.01909   0.01912   2.67117
   R16        2.87309  -0.00107   0.00000  -0.00248  -0.00248   2.87061
   R17        2.05494   0.00560   0.00000   0.01580   0.01580   2.07074
   R18        2.04237   0.00461   0.00000   0.01273   0.01273   2.05509
   R19        2.63409   0.00550   0.00000   0.01171   0.01171   2.64580
   R20        2.68181   0.00481   0.00000   0.01122   0.01122   2.69303
   R21        2.05468   0.00326   0.00000   0.00919   0.00919   2.06387
   R22        2.05270   0.00276   0.00000   0.00777   0.00777   2.06047
   R23        2.87880  -0.00207   0.00000  -0.00738  -0.00741   2.87139
   R24        2.05582   0.00371   0.00000   0.01049   0.01049   2.06631
   R25        2.04861   0.00376   0.00000   0.01050   0.01050   2.05911
   R26        2.86352  -0.00125   0.00000  -0.00499  -0.00498   2.85854
   R27        2.05792   0.00808   0.00000   0.02292   0.02292   2.08084
   R28        2.04354   0.00449   0.00000   0.01243   0.01243   2.05597
   R29        2.05550   0.00564   0.00000   0.01594   0.01594   2.07144
   R30        2.04536   0.00656   0.00000   0.01822   0.01822   2.06358
   R31        2.05363   0.00371   0.00000   0.01045   0.01045   2.06408
   R32        2.05068   0.00321   0.00000   0.00900   0.00900   2.05968
    A1        1.92461   0.00166   0.00000  -0.00154  -0.00163   1.92298
    A2        1.93158  -0.00068   0.00000   0.00051   0.00054   1.93211
    A3        1.90942  -0.00036   0.00000  -0.00123  -0.00121   1.90821
    A4        1.91991  -0.00039   0.00000  -0.00099  -0.00096   1.91895
    A5        1.91022  -0.00080   0.00000  -0.00147  -0.00145   1.90877
    A6        1.86714   0.00053   0.00000   0.00486   0.00485   1.87200
    A7        1.93467   0.00111   0.00000   0.00575   0.00579   1.94046
    A8        1.91575   0.00106   0.00000   0.00729   0.00730   1.92305
    A9        1.86721  -0.00038   0.00000   0.00321   0.00321   1.87042
   A10        1.91844  -0.00197   0.00000  -0.01380  -0.01384   1.90460
   A11        1.93024  -0.00056   0.00000  -0.00566  -0.00570   1.92455
   A12        1.89654   0.00080   0.00000   0.00381   0.00372   1.90027
   A13        1.92981  -0.00039   0.00000  -0.00598  -0.00603   1.92378
   A14        1.91989   0.00063   0.00000   0.00167   0.00168   1.92157
   A15        1.92711  -0.00047   0.00000  -0.00037  -0.00037   1.92674
   A16        1.90353  -0.00029   0.00000  -0.00145  -0.00146   1.90207
   A17        1.90830   0.00038   0.00000   0.00152   0.00155   1.90984
   A18        1.87421   0.00017   0.00000   0.00493   0.00492   1.87913
   A19        1.97746  -0.00483   0.00000  -0.02622  -0.02615   1.95131
   A20        1.97370  -0.00473   0.00000  -0.02607  -0.02600   1.94770
   A21        1.93597   0.00087   0.00000   0.00366   0.00369   1.93965
   A22        1.90165   0.00065   0.00000   0.00402   0.00403   1.90568
   A23        1.84990  -0.00061   0.00000  -0.00019  -0.00020   1.84970
   A24        1.93188  -0.00109   0.00000  -0.00800  -0.00801   1.92387
   A25        1.95078  -0.00030   0.00000  -0.00187  -0.00188   1.94891
   A26        1.89101   0.00052   0.00000   0.00290   0.00288   1.89390
   A27        2.07980  -0.01216   0.00000  -0.04802  -0.04802   2.03178
   A28        1.92401   0.00033   0.00000  -0.00387  -0.00394   1.92007
   A29        1.91879   0.00038   0.00000   0.00191   0.00193   1.92071
   A30        1.93552  -0.00058   0.00000  -0.00085  -0.00084   1.93468
   A31        1.90339  -0.00059   0.00000  -0.00196  -0.00194   1.90145
   A32        1.90494   0.00012   0.00000  -0.00034  -0.00032   1.90462
   A33        1.87630   0.00032   0.00000   0.00528   0.00527   1.88158
   A34        1.91859   0.00185   0.00000  -0.00236  -0.00244   1.91616
   A35        1.91399  -0.00040   0.00000   0.00222   0.00221   1.91620
   A36        1.93363  -0.00010   0.00000   0.00496   0.00496   1.93858
   A37        1.89167  -0.00115   0.00000  -0.00628  -0.00627   1.88540
   A38        1.92847  -0.00096   0.00000  -0.00593  -0.00589   1.92258
   A39        1.87654   0.00070   0.00000   0.00740   0.00735   1.88390
   A40        1.91255  -0.00195   0.00000  -0.01679  -0.01676   1.89578
   A41        1.94237   0.00036   0.00000   0.00745   0.00741   1.94978
   A42        1.87514   0.00187   0.00000   0.00057   0.00062   1.87576
   A43        1.90428  -0.00087   0.00000  -0.00182  -0.00184   1.90244
   A44        1.90000   0.00203   0.00000   0.01352   0.01354   1.91354
   A45        1.92894  -0.00138   0.00000  -0.00286  -0.00287   1.92606
   A46        1.93511   0.00138   0.00000   0.00687   0.00686   1.94197
   A47        1.94573  -0.00037   0.00000  -0.00349  -0.00349   1.94224
   A48        1.93120  -0.00126   0.00000  -0.00778  -0.00778   1.92342
   A49        1.85539  -0.00094   0.00000  -0.00251  -0.00250   1.85289
   A50        1.90206   0.00061   0.00000   0.00423   0.00426   1.90632
   A51        1.89206   0.00061   0.00000   0.00304   0.00301   1.89507
   A52        1.86144   0.00051   0.00000   0.00363   0.00364   1.86508
   A53        1.92324   0.00022   0.00000  -0.00106  -0.00110   1.92214
   A54        1.89387  -0.00013   0.00000   0.00113   0.00114   1.89501
   A55        1.94247  -0.00104   0.00000  -0.00418  -0.00416   1.93831
   A56        1.91745   0.00034   0.00000   0.00490   0.00487   1.92233
   A57        1.92383   0.00013   0.00000  -0.00403  -0.00401   1.91982
   A58        1.91985  -0.00019   0.00000  -0.00751  -0.00755   1.91230
   A59        1.92567   0.00058   0.00000   0.00429   0.00425   1.92991
   A60        1.93772  -0.00005   0.00000   0.00349   0.00348   1.94120
   A61        1.88934  -0.00038   0.00000  -0.00664  -0.00663   1.88272
   A62        1.90534  -0.00027   0.00000  -0.00073  -0.00070   1.90464
   A63        1.88488   0.00030   0.00000   0.00706   0.00703   1.89191
    D1        0.89807  -0.00029   0.00000   0.01300   0.01298   0.91106
    D2       -1.20084  -0.00001   0.00000   0.01666   0.01666  -1.18417
    D3        3.00977  -0.00029   0.00000   0.00943   0.00942   3.01919
[...]
 234,-0.00047789,0.00021420,0.00112122,0.00164883,0.00035738,0.01795156
 ,-0.01784938,-0.00392335,-0.00008640,0.00003611,-0.00005476,-0.0000117
 7,0.00000735,-0.00000367,-0.00000132,0.00000067,-0.00000232,0.00021067
 ,-0.00022907,0.00010930,0.00098133,-0.00100011,-0.00014809,-0.00041649
 ,-0.00041572,0.00031112,-0.00037850,0.00031929,0.00020780,0.00000587,0
 .00000697,0.00001478,-0.00000482,-0.00000055,-0.00000001,0.00000284,0.
 00000035,-0.00000113,0.00000509,0.00000195,-0.00000353,-0.01924888,0.0
 1972144,0.00408064,-0.02186462,0.02432892,0.05356401,0.00147405,0.0001
 4106,0.00049004,0.00020931,-0.00008105,-0.00011278,0.00001122,-0.00022
 576,-0.00021023,-0.00018909,0.00001249,0.00007103,0.00452048,-0.000164
 21,-0.00175135,0.00099520,0.00117419,0.00108884,-0.02238244,-0.0024084
 0,-0.03873145,-0.00012124,-0.00022777,0.00000648,-0.00072391,-0.000646
 07,0.00052299,-0.05382423,-0.00713001,-0.00505010,0.00006174,-0.000025
 16,0.00003733,0.00445697,0.00241876,-0.00334438,0.00237033,0.00585019,
 0.02258996,0.00007138,-0.00009573,-0.00015784,-0.00006892,-0.00014691,
 -0.00022523,-0.00000013,0.00000322,0.00001955,0.00000707,0.00003823,0.
 00004682,-0.00003468,-0.00001946,0.00002386,-0.00011489,-0.00005100,0.
 00001858,0.00006842,-0.00000793,0.00009040,0.00009877,0.00000048,0.000
 17516,0.00000725,0.00000006,-0.00008680,0.00001875,0.00008186,-0.00002
 364,0.00001916,0.00000143,0.00017168,0.00002947,-0.00002769,-0.0000244
 7,0.06521964,0.00059553,-0.00009127,0.00000012,-0.00015046,0.00004599,
 -0.00002533,-0.00002253,0.00012839,0.00008439,0.00006794,-0.00002016,-
 0.00002408,0.00196134,-0.04075346,-0.03378578,-0.00483285,0.00103833,-
 0.00377603,0.00798838,0.00576406,0.01156131,0.00048364,-0.00018633,0.0
 0049047,0.00031473,0.00018023,-0.00012846,-0.00790874,-0.06658750,-0.0
 6479916,-0.00003973,0.00000125,-0.00000589,-0.00105688,-0.00048667,0.0
 0075106,-0.00078310,0.00652858,0.01206526,0.00001291,-0.00009420,-0.00
 012428,-0.00001309,-0.00003990,-0.00025265,-0.00001137,0.00000463,0.00
 001228,-0.00002275,-0.00003506,-0.00002001,0.00001179,0.00000704,-0.00
 000807,0.00004557,0.00002330,-0.00001123,0.00054133,0.00041026,0.00108
 048,0.00016093,0.00004405,0.00050343,-0.00005478,-0.00000428,-0.000016
 76,0.00023167,0.00014867,-0.00010452,-0.00000273,-0.00001627,-0.000057
 73,-0.00001437,0.00006410,0.00001824,0.00372615,0.09350148,-0.00075108
 ,-0.00013494,0.00022339,0.00012312,-0.00058588,0.00015630,-0.00001420,
 -0.00011913,-0.00020358,-0.00050124,0.00004833,0.00004195,-0.00053771,
 -0.00686295,0.00277871,0.00013674,0.00114189,0.00113820,-0.01576523,0.
 00227519,-0.01175159,0.00003186,-0.00015110,0.00011446,-0.00046514,-0.
 00012788,0.00037567,-0.00726141,-0.06709284,-0.26495677,0.00006737,0.0
 0001951,0.00008583,0.00157831,0.00110739,-0.00008867,-0.00080536,-0.00
 577436,-0.01845457,0.00020042,0.00016379,0.00033195,0.00042402,-0.0001
 2875,0.00053401,0.00000262,-0.00000563,-0.00003996,-0.00005561,-0.0000
 1787,-0.00002032,-0.00001646,-0.00001518,0.00001518,-0.00009203,-0.000
 05093,0.00002159,0.00090990,-0.00049280,0.00001263,0.00031020,-0.00005
 973,0.00040459,-0.00008360,0.00001781,-0.00017377,0.00005168,-0.000100
 95,-0.00000951,0.00004885,0.00011623,-0.00001518,0.00000813,0.00001554
 ,-0.00000255,0.02112830,0.07553764,0.29044245,-0.00000505,-0.00001158,
 0.00002132,0.00185847,0.00011314,-0.00284844,-0.01650423,-0.00686950,0
 .00891072,-0.01303759,-0.00992388,0.00091058,-0.00018332,0.00006629,-0
 .00007224,0.00004578,-0.00003219,0.00002536,-0.00053600,-0.00010597,0.
 00002859,-0.00001066,0.00000232,-0.00001163,-0.00111412,0.00409417,0.0
 0021361,0.00025457,-0.00009283,0.00015007,-0.24467209,-0.07882514,0.08
 985683,0.00084690,0.00016711,0.00023380,-0.00004626,0.00002116,-0.0000
 3654,-0.00001152,0.00000190,-0.00000230,-0.00000150,-0.00000031,-0.000
 00225,-0.00003449,-0.00007582,0.00023135,-0.00063144,-0.00030582,0.000
 26522,0.00084005,-0.00055461,-0.00058311,0.00039989,0.00017837,0.00013
 804,-0.00001072,0.00000092,-0.00000852,-0.00000648,0.00000738,-0.00000
 262,0.00000090,0.00000050,0.00000142,-0.00000688,0.00000034,0.00000260
 ,0.00010198,-0.00009644,0.00010034,-0.00106803,-0.00063737,0.00034242,
 -0.00002494,0.00000541,-0.00003020,0.26646249,-0.00000283,-0.00000512,
 0.00000321,0.00036750,-0.00122405,-0.00439360,0.02266880,0.01087283,-0
 .00997171,-0.02513335,-0.01463913,0.00513143,0.00008640,0.00001506,0.0
 0005094,-0.00000943,0.00002792,-0.00000166,-0.00015429,0.00039973,0.00
 014101,0.00000470,-0.00000305,0.00000303,0.00282352,-0.00425401,-0.000
 36666,-0.00001915,-0.00000902,0.00007390,-0.07574695,-0.08090226,0.037
 18414,-0.00011343,-0.00106576,-0.00040736,-0.00001445,0.00000770,-0.00
 001006,-0.00000177,0.00000086,-0.00000100,-0.00000030,0.00000036,-0.00
 000005,0.00018853,0.00008336,-0.00005802,-0.00137178,-0.00039333,0.000
 15554,-0.00090036,0.00106685,0.00036195,-0.00115921,0.00070088,0.00017
 580,0.00000623,-0.00000055,0.00000438,-0.00000145,-0.00000098,-0.00000
 079,-0.00000062,0.00000054,0.00000019,0.00000195,0.00000084,-0.0000013
 0,-0.00013111,0.00004406,-0.00011153,0.00147040,0.00060359,-0.00039366
 ,0.00001134,-0.00000078,-0.00000107,0.09041629,0.09307417,-0.00000403,
 -0.00000699,0.00000706,-0.00095561,-0.00197009,-0.00310228,0.00335977,
 0.00332742,-0.00177413,-0.02746937,-0.01550462,0.00783818,0.00001932,0
 .00003701,0.00001526,0.00000013,0.00001330,0.00000191,-0.00024711,0.00
 028813,0.00015494,0.00000053,-0.00000112,-0.00000002,0.00063190,-0.001
 94563,0.00082775,0.00002186,-0.00002362,0.00008399,0.09995096,0.044046
 15,-0.09731310,0.00009437,-0.00072151,-0.00034855,-0.00002287,0.000008
 24,-0.00001695,-0.00000337,0.00000134,-0.00000114,-0.00000005,0.000000
 25,-0.00000039,-0.00008191,-0.00023062,0.00039861,-0.00096396,-0.00057
 001,0.00037950,-0.00033707,-0.00056729,0.00059567,-0.00009970,0.000047
 95,0.00010804,0.00000149,-0.00000022,0.00000139,-0.00000230,0.00000040
 ,-0.00000092,0.00000003,0.00000044,0.00000039,0.00000030,0.00000057,-0
 .00000011,-0.00032801,-0.00021008,0.00019749,0.00064474,0.00029259,0.0
 0009141,0.00000187,0.00000015,-0.00000595,-0.09623510,-0.03462021,0.10
 018285,-0.00000310,-0.00000387,0.00000601,0.00119253,0.00194193,-0.002
 60569,-0.00423264,0.01330618,-0.01750005,-0.00393143,-0.00094427,-0.01
 646092,-0.00001006,0.00001679,-0.00000132,0.00000816,0.00000051,0.0000
 0444,-0.00024863,-0.00003175,0.00005659,-0.00000051,-0.00000057,-0.000
 00168,0.00117679,-0.00010719,-0.00124537,0.00005364,-0.00003592,0.0000
 4902,-0.06328933,0.02347364,-0.03404216,-0.00014379,-0.00003526,0.0001
 4942,-0.00001515,0.00000788,-0.00001266,-0.00000310,0.00000057,-0.0000
 0034,0.00000001,0.00000005,-0.00000045,0.00021515,0.00004026,0.0003893
 6,0.00003381,-0.00005855,0.00012861,-0.00200229,0.00320147,0.00057599,
 0.00070388,-0.00040598,0.00029830,-0.00000058,0.00000002,-0.00000032,-
 0.00000151,0.00000059,-0.00000052,-0.00000011,0.00000069,0.00000041,-0
 .00000082,0.00000026,0.00000029,0.00000814,-0.00013830,0.00025464,0.00
 017016,-0.00007019,0.00020550,-0.00000364,0.00000249,-0.00000795,0.007
 15248,-0.01330091,0.02204163,0.06313821,-0.00000013,-0.00000123,-0.000
 00105,0.00233393,0.00292158,-0.00310257,0.00505136,-0.01415644,0.02173
 948,-0.01082568,0.00702160,-0.02777015,0.00000903,-0.00000842,0.000000
 06,-0.00000409,0.00000340,-0.00000369,-0.00003021,0.00017703,0.0001179
 5,0.00000059,-0.00000016,0.00000131,-0.00124325,0.00087770,0.00016630,
 -0.00002877,0.00002279,0.00003219,0.02434866,-0.12055147,0.11415154,-0
 .00022457,-0.00043784,0.00005267,-0.00000294,0.00000140,0.00000023,0.0
 0000035,0.00000022,-0.00000041,-0.00000018,0.00000015,-0.00000007,0.00
 099468,0.00002020,0.00095587,0.00016021,0.00001985,0.00000849,0.004140
 28,-0.00290793,-0.00130889,-0.00055121,0.00074033,-0.00016603,0.000000
 77,-0.00000091,0.00000061,-0.00000044,0.00000036,0.00000007,-0.0000000
 2,-0.00000019,-0.00000040,0.00000074,0.00000014,-0.00000025,0.00031036
 ,0.00049266,-0.00036115,-0.00013794,0.00003308,-0.00033460,0.00000923,
 -0.00000223,-0.00000004,0.00249578,-0.00447883,0.00828691,-0.02679664,
 0.13032225,-0.00000613,-0.00001168,0.00001793,0.00336909,0.00204246,0.
 00054548,0.00240336,-0.00222725,0.00583717,-0.01306525,-0.00270284,-0.
 03244840,-0.00007727,0.00004877,-0.00002024,0.00002345,-0.00000651,0.0
 0001535,-0.00057458,0.00005289,0.00003258,-0.00000454,-0.00000099,-0.0
 0000638,-0.00028983,-0.00049558,0.00055325,0.00015249,-0.00008951,0.00
 013386,-0.03759356,0.11048129,-0.21740541,0.00025006,-0.00050336,0.000
 02042,-0.00004168,0.00002224,-0.00003227,-0.00000966,0.00000178,-0.000
 00205,-0.00000069,0.00000011,-0.00000130,-0.00086281,-0.00047307,0.000
 76928,-0.00004664,-0.00038323,0.00036892,0.00139516,-0.00103479,0.0008
 5568,-0.00057541,0.00077149,0.00032873,-0.00000324,0.00000025,-0.00000
 269,-0.00000497,0.00000428,-0.00000257,0.00000019,0.00000092,0.0000014
 0,-0.00000340,0.00000096,0.00000109,-0.00046301,-0.00006470,-0.0000934
 5,-0.00010899,-0.00000311,0.00009017,-0.00001582,0.00000472,-0.0000205
 6,-0.00154965,0.00699365,-0.00833798,0.04768066,-0.11251326,0.24890781
 ,0.00001451,-0.00003684,-0.00001712,-0.00609876,0.01161351,-0.02049897
 ,0.00054838,0.00043595,-0.00034594,0.00185773,-0.00046729,0.00017622,-
 0.00284142,0.00079657,0.00102894,0.00009084,-0.00002860,0.00012655,-0.
 00434160,-0.02015524,0.03065569,-0.00008099,0.00002311,-0.00004617,-0.
 00108476,0.00459320,-0.00796079,0.00264177,-0.00066051,0.00291291,0.00
 004615,-0.00004439,0.00006539,-0.06670938,0.02971015,-0.06176048,-0.00
 022178,-0.00002118,-0.00027272,-0.00001788,0.00000157,0.00000188,-0.00
 002350,0.00000736,-0.00000722,-0.00304588,0.00281760,0.00085809,0.0010
 8450,-0.00070241,0.00050302,-0.00006874,-0.00016941,0.00003431,0.00002
 777,-0.00001320,0.00001287,0.00000825,-0.00001626,-0.00002799,-0.00000
 315,0.00001647,-0.00000489,0.00000653,0.00000389,-0.00000246,-0.000022
 61,0.00000988,0.00001260,-0.00015273,-0.00153323,-0.00126739,0.0002250
 3,-0.00037311,0.00039406,0.00030338,-0.00000017,-0.00077319,-0.0000579
 0,0.00001394,-0.00001940,0.00003506,-0.00001048,0.00002177,0.07785373,
 -0.00002893,-0.00007009,0.00005395,0.00778138,-0.01257233,0.02028194,0
 .00098865,0.00105409,0.00014730,-0.00122110,0.00185392,-0.00093654,0.0
 0139164,0.00057002,-0.00089991,-0.00000936,0.00015743,-0.00010188,-0.0
 0529289,-0.01159818,0.01699362,0.00006942,-0.00001225,0.00000841,-0.00
 568729,0.00980570,-0.02093174,0.00265070,-0.00061615,0.00123589,-0.000
 03681,-0.00026116,-0.00026131,0.02465615,-0.09709646,0.09554111,-0.000
 19564,-0.00000592,-0.00024843,-0.00003808,0.00001187,-0.00000501,-0.00
 001379,0.00000221,-0.00000745,0.00295644,-0.00223362,-0.00040955,-0.00
 081422,0.00098935,0.00010209,0.00006703,-0.00017807,0.00029696,0.00022
 305,-0.00010168,0.00011779,-0.00001251,0.00001266,0.00001083,-0.000036
 98,0.00000713,-0.00001973,-0.00000350,0.00000153,0.00000540,0.00001085
 ,0.00001545,-0.00000814,-0.00185625,-0.00257124,-0.00352036,0.00057897
 ,0.00093540,0.00084804,-0.00025166,-0.00007920,-0.00030323,-0.00003767
 ,0.00007781,0.00002115,-0.00006370,-0.00010887,0.00008577,-0.02581690,
 0.11197167,0.00005033,0.00009174,-0.00007398,0.00205797,-0.00339031,0.
 00585371,0.00037993,0.00045939,0.00021492,-0.00143477,-0.00046023,0.00
 038329,-0.00168802,-0.00042808,0.00086268,0.00017346,-0.00035929,0.000
 40139,0.00636712,0.00860889,-0.01084019,-0.00016326,0.00005974,-0.0000
 8415,-0.00664857,0.00863651,-0.02004603,-0.00199088,0.00246163,0.00059
 328,0.00004239,-0.00011844,0.00006132,-0.05435903,0.09621872,-0.245291
 64,0.00012051,-0.00009322,0.00025798,0.00003950,-0.00002185,0.00000718
 ,0.00000783,-0.00000488,-0.00000225,0.00160443,-0.00091110,0.00069515,
 -0.00042012,0.00043371,0.00079998,-0.00035869,-0.00013852,0.00043681,-
 0.00002502,-0.00030359,0.00028177,-0.00000540,-0.00001318,-0.00006972,
 0.00002003,0.00000957,0.00000378,0.00000874,-0.00000176,-0.00000325,-0
 .00004972,-0.00002730,0.00002702,-0.00139891,-0.00280715,-0.00204935,0
 .00047087,0.00036801,0.00104119,0.00098358,-0.00023012,0.00006633,-0.0
 0005059,0.00005985,0.00001767,0.00003798,0.00005015,-0.00010749,0.0563
 4924,-0.10806900,0.26655036,-0.00574250,-0.01008188,-0.02948859,0.0000
 1986,0.00003203,-0.00001615,-0.00000334,-0.00000693,-0.00000454,0.0000
 3358,-0.00000721,-0.00000666,0.00110739,0.00103200,-0.00206815,-0.0003
 8845,0.00015974,-0.00011112,0.00251102,0.00004968,0.00029517,0.0013540
 2,-0.00113450,0.00040007,-0.00002486,0.00006776,-0.00002707,0.00023249
 ,0.00902831,0.02570130,0.00000114,-0.00000292,-0.00000157,0.00004551,-
 0.00026443,-0.00015958,-0.05117447,-0.01288281,-0.03568814,0.00139460,
 -0.00051747,0.00069923,-0.00508036,0.00253364,-0.00221742,-0.00000434,
 0.00000433,0.00000191,0.00000737,0.00000180,0.00000339,-0.00000023,0.0
 0000034,0.00000033,-0.00000307,-0.00000118,0.00000141,-0.00004812,0.00
 004026,0.00001501,0.00009784,0.00001923,-0.00004559,0.00012993,0.00041
 691,0.00037559,-0.00005322,-0.00009990,0.00036578,-0.00001106,-0.00001
 671,-0.00001285,0.00001257,-0.00001483,-0.00000060,-0.00303070,-0.0020
 6189,0.00230971,0.00000066,0.00000010,0.00000053,-0.00000058,0.0000003
 0,0.00000004,-0.00000402,0.00005059,-0.00010139,0.05913685,0.00084800,
 0.00214854,0.00881222,0.00000794,0.00003282,-0.00001962,0.00000097,-0.
 00000634,0.00000273,0.00002257,-0.00000580,-0.00000155,0.00032320,0.00
 194286,-0.00012635,0.00013038,-0.00004867,0.00015637,0.00120192,0.0001
 3414,-0.00055024,-0.00015196,0.00073729,0.00063238,-0.00000958,0.00004
 654,-0.00003501,0.00095961,0.00228686,0.01378364,-0.00000210,0.0000007
 9,-0.00000337,0.00005603,-0.00014623,-0.00000046,-0.01208655,-0.077822
 79,-0.08114372,-0.00045367,0.00022414,-0.00035691,0.00153844,0.0003663
 8,0.00088557,-0.00000199,-0.00000007,0.00000421,0.00000228,0.00000121,
 0.00000162,-0.00000058,-0.00000052,0.00000110,0.00000123,0.00000033,-0
 .00000051,0.00001125,-0.00009139,-0.00012440,-0.00001601,-0.00000586,-
 0.00000797,0.00014217,0.00011268,-0.00010953,-0.00003034,0.00014167,-0
 .00005408,-0.00000541,-0.00001155,-0.00000090,0.00001575,-0.00001456,0
 .00000202,-0.00171296,-0.00009471,0.00133600,0.00000081,-0.00000031,0.
 00000047,0.00000096,-0.00000053,0.00000052,-0.00001422,0.00001151,-0.0
 0003513,0.01332738,0.07829257,-0.00182916,-0.00283164,-0.00859735,-0.0
 0001914,-0.00002220,0.00003942,0.00000291,0.00001897,0.00002225,-0.000
 00487,0.00000663,-0.00000416,-0.00102892,-0.00016847,0.00229039,0.0000
 4771,0.00003768,0.00019950,-0.00111672,0.00003291,0.00200864,0.0004738
 2,-0.00016823,0.00018577,0.00008577,0.00001445,-0.00007143,-0.00238150
 ,-0.00758017,-0.02364807,-0.00000730,-0.00000284,-0.00000622,-0.000115
 33,0.00006794,0.00043555,-0.03348226,-0.07854911,-0.27699612,-0.000100
 01,0.00010713,0.00069240,-0.00156204,0.00060584,0.00044959,0.00000457,
 -0.00000368,0.00000013,-0.00000151,-0.00000384,-0.00000299,-0.00000019
 ,-0.00000033,0.00000042,0.00000828,0.00000394,-0.00000148,0.00002517,-
 0.00014667,-0.00005441,0.00001097,0.00003538,-0.00003904,0.00007141,0.
 00042232,-0.00010209,-0.00005246,0.00011868,0.00019023,0.00001188,-0.0
 0000344,-0.00000345,0.00000616,0.00000366,-0.00001281,0.00300367,0.001
 92888,-0.00143713,0.00000013,0.00000013,-0.00000059,0.00000077,-0.0000
 0141,0.00000161,-0.00014689,-0.00003525,-0.00000364,0.03762658,0.08611
 351,0.30322728,-0.00097640,0.03136189,0.00049647,0.00000492,0.00003037
 ,-0.00000117,-0.00000104,0.00000706,0.00000589,0.00001589,-0.00000264,
 -0.00000077,-0.00325489,-0.00580530,0.00448708,-0.00159463,0.00044385,
 -0.00037394,0.00078367,0.00031203,-0.00002246,-0.00600951,0.00040077,-
 0.00262311,0.00001876,-0.00002419,-0.00001555,0.00250310,-0.02233585,-
 0.00406515,-0.00000428,-0.00000796,-0.00000393,0.00031676,0.00004645,-
 0.00012264,-0.04783585,0.02007026,0.00206747,0.00124582,-0.00062767,0.
 00078962,0.00142810,-0.00074210,0.00016154,-0.00000406,0.00000002,0.00
 000083,0.00000200,0.,0.00000063,-0.00000010,-0.00000023,0.00000005,0.0
 0000155,0.00000124,0.,0.00021244,-0.00006914,0.00001062,0.00032908,-0.
 00002913,0.00001713,0.00001499,-0.00017260,0.00014588,0.00001132,0.001
 99495,-0.00045440,-0.00000444,0.00000476,0.00000256,-0.00001988,0.0000
 1664,0.00000374,0.00057622,0.00082566,-0.00017080,-0.00000099,0.000001
 70,0.00000045,-0.00000075,0.00000027,0.00000088,0.00003147,-0.00000762
 ,-0.00001951,-0.00051551,-0.00410550,0.00046849,0.05272623,0.00045556,
 -0.00674764,-0.00021727,-0.00002153,-0.00006437,-0.00000637,-0.0000000
 2,0.00001962,0.00001000,-0.00004186,0.00001250,0.00000983,-0.00183465,
 -0.00194000,0.00295104,-0.00078707,0.00057741,-0.00077996,0.00036997,0
 .00088693,-0.00036308,0.00200827,0.00144210,0.00080038,0.00003704,0.00
 000472,-0.00002422,0.00335734,-0.01288707,-0.00261025,0.00000275,-0.00
 000069,0.00000865,-0.00015601,0.00029642,0.00012267,0.01796386,-0.3163
 5243,-0.00417788,0.00022605,0.00032319,-0.00014537,0.00000468,0.000532
 78,0.00021896,-0.00000805,0.00000526,-0.00000401,0.00000041,0.00000280
 ,0.00000554,-0.00000022,-0.00000071,0.00000064,0.00000285,-0.00000134,
 -0.00000167,0.00009121,-0.00002273,0.00011832,0.00006184,-0.00009835,0
 .00004840,-0.00002695,0.00012379,-0.00007633,-0.00019460,-0.00061598,0
 .00007777,-0.00000515,-0.00000288,-0.00000433,-0.00001533,0.00001612,-
 0.00000062,-0.00024693,0.00060166,0.00024592,-0.00000277,0.00000061,-0
 .00000043,-0.00000119,0.00000032,-0.00000224,0.00002025,0.00002747,-0.
 00004479,0.00032827,-0.00823101,-0.00000079,-0.02158800,0.34209150,-0.
 00091464,0.01113979,-0.00135025,0.00000727,-0.00000680,0.00001489,-0.0
 0000299,-0.00001032,-0.00000894,0.00000388,0.00000314,-0.00000555,0.00
 331731,0.00411388,-0.00164693,0.00073119,-0.00071467,0.00055224,-0.000
 85791,-0.00050709,0.00050191,-0.00205209,0.00001048,0.00016146,-0.0000
 2000,0.00000714,0.00002207,-0.00396690,0.01899430,0.00054364,0.0000022
 5,0.00000024,-0.00000046,-0.00004724,-0.00009336,-0.00010822,0.0025014
 6,-0.00743167,-0.04992401,0.00020152,-0.00048176,0.00016920,0.00065195
 ,0.00008698,0.00045163,0.00000150,-0.00000065,-0.00000195,-0.00000010,
 -0.00000001,-0.00000039,0.00000056,0.00000155,-0.00000052,-0.00000292,
 -0.00000053,0.00000138,-0.00006778,-0.00002590,-0.00009413,-0.00008958
 ,0.00002320,-0.00003891,0.00004174,0.00039812,0.00010303,-0.00008576,0
 .00049236,0.00020252,0.00000605,-0.00000455,-0.00000625,0.00001114,-0.
 00001138,-0.00000538,-0.00073605,-0.00066830,0.00043687,0.00000077,-0.
 00000047,0.,-0.00000019,0.00000015,0.00000008,-0.00000194,0.00000725,0
 .00001588,0.00215339,-0.02916260,0.00123786,-0.00078591,0.00384149,0.0
 4877720\\-0.00003459,-0.00001340,0.00002273,-0.00006422,-0.00004906,0.
 00003298,-0.00002547,0.00001175,-0.00000857,0.00001626,0.00001523,-0.0
 0003922,0.00182939,0.00001844,-0.00455372,-0.00002313,0.00002224,-0.00
 003331,0.00127913,-0.00481706,-0.00712794,-0.00000887,0.00000357,0.000
 00840,-0.00001021,0.00001253,0.00002604,-0.00264048,0.00143996,0.00781
 294,0.00005094,0.00000280,0.00003488,-0.00041122,0.00332722,0.00379072
 ,0.00001065,0.00000916,0.00000328,0.00000798,0.00000639,-0.00001107,-0
 .00000312,0.00000228,0.00001290,0.00000442,0.00001135,-0.00003465,0.00
 001228,0.00000745,0.00001884,0.00000611,-0.00001031,0.00000508,0.00000
 136,-0.00000103,-0.00002070,0.00000460,0.00000944,0.00002432,0.0000018
 5,-0.00002270,-0.00000615,0.00000074,-0.00000264,-0.00000825,0.0000128
 7,0.00000535,0.00001273,-0.00000439,0.00001197,-0.00001598,-0.00000022
 ,-0.00001754,-0.00000631,0.00000816,0.00002661,0.00005077,-0.00001962,
 -0.00001922,0.00000378,-0.00000581,0.00001268,-0.00002769,0.00000521,-
 0.00001506,0.00003461,-0.00000098,-0.00000212,-0.00001707,0.00000037,0
 .00001372,0.00001563\\\@


 MYSTERY IS THE WISDOM OF BLOCKHEADS... HORACE WALPOLE 
 Job cpu time:       0 days 15 hours  1 minutes 16.7 seconds.
 Elapsed time:       0 days  1 hours 15 minutes 12.6 seconds.
 File lengths (MBytes):  RWF=    721 Int=      0 D2E=      0 Chk=     34 Scr=      1
 Normal termination of Gaussian 16 at Sun Mar 10 07:54:24 2019.
