 Entering Gaussian System, Link 0=g16
 Initial command:
 /sw/Projects/G16/g16/l1.exe "/nvme/pbs/tmpdir/pbs.74289[25].flm1/Gau-31766.inp" -scrdir="/nvme/pbs/tmpdir/pbs.74289[25].flm1/"
 Entering Link 1 = /sw/Projects/G16/g16/l1.exe PID=     31767.
  
 Copyright (c) 1988-2017, Gaussian, Inc.  All Rights Reserved.
  
 This is part of the Gaussian(R) 16 program.  It is based on
 the Gaussian(R) 09 system (copyright 2009, Gaussian, Inc.),
 the Gaussian(R) 03 system (copyright 2003, Gaussian, Inc.),
 the Gaussian(R) 98 system (copyright 1998, Gaussian, Inc.),
 the Gaussian(R) 94 system (copyright 1995, Gaussian, Inc.),
 the Gaussian 92(TM) system (copyright 1992, Gaussian, Inc.),
 the Gaussian 90(TM) system (copyright 1990, Gaussian, Inc.),
 the Gaussian 88(TM) system (copyright 1988, Gaussian, Inc.),
 the Gaussian 86(TM) system (copyright 1986, Carnegie Mellon
 University), and the Gaussian 82(TM) system (copyright 1983,
 Carnegie Mellon University). Gaussian is a federally registered
 trademark of Gaussian, Inc.
  
 This software contains proprietary and confidential information,
 including trade secrets, belonging to Gaussian, Inc.
  
 This software is provided under written license and may be
 used, copied, transmitted, or stored only in accord with that
 written license.
  
 The following legend is applicable only to US Government
 contracts under FAR:
  
                    RESTRICTED RIGHTS LEGEND
  
 Use, reproduction and disclosure by the US Government is
 subject to restrictions as set forth in subparagraphs (a)
 and (c) of the Commercial Computer Software - Restricted
 Rights clause in FAR 52.227-19.
  
 Gaussian, Inc.
 340 Quinnipiac St., Bldg. 40, Wallingford CT 06492
  
  
 ---------------------------------------------------------------
 Warning -- This program may not be used in any manner that
 competes with the business of Gaussian, Inc. or will provide
 assistance to any competitor of Gaussian, Inc.  The licensee
 of this program is prohibited from giving any competitor of
 Gaussian, Inc. access to this program.  By using this program,
 the user acknowledges that Gaussian, Inc. is engaged in the
 business of creating and licensing software in the field of
 computational chemistry and represents and warrants to the
 licensee that it is not a competitor of Gaussian, Inc. and that
 it will not use this program in any manner prohibited above.
 ---------------------------------------------------------------
  

 Cite this work as:
 Gaussian 16, Revision B.01,
 M. J. Frisch, G. W. Trucks, H. B. Schlegel, G. E. Scuseria, 
 M. A. Robb, J. R. Cheeseman, G. Scalmani, V. Barone, 
 G. A. Petersson, H. Nakatsuji, X. Li, M. Caricato, A. V. Marenich, 
 J. Bloino, B. G. Janesko, R. Gomperts, B. Mennucci, H. P. Hratchian, 
 J. V. Ortiz, A. F. Izmaylov, J. L. Sonnenberg, D. Williams-Young, 
 F. Ding, F. Lipparini, F. Egidi, J. Goings, B. Peng, A. Petrone, 
 T. Henderson, D. Ranasinghe, V. G. Zakrzewski, J. Gao, N. Rega, 
 G. Zheng, W. Liang, M. Hada, M. Ehara, K. Toyota, R. Fukuda, 
 J. Hasegawa, M. Ishida, T. Nakajima, Y. Honda, O. Kitao, H. Nakai, 
 T. Vreven, K. Throssell, J. A. Montgomery, Jr., J. E. Peralta, 
 F. Ogliaro, M. J. Bearpark, J. J. Heyd, E. N. Brothers, K. N. Kudin, 
 V. N. Staroverov, T. A. Keith, R. Kobayashi, J. Normand, 
 K. Raghavachari, A. P. Rendell, J. C. Burant, S. S. Iyengar, 
 J. Tomasi, M. Cossi, J. M. Millam, M. Klene, C. Adamo, R. Cammi, 
 J. W. Ochterski, R. L. Martin, K. Morokuma, O. Farkas, 
 J. B. Foresman, and D. J. Fox, Gaussian, Inc., Wallingford CT, 2016.
 
 ******************************************
 Gaussian 16:  ES64L-G16RevB.01 20-Dec-2017
                10-Mar-2019 
 ******************************************
 %mem=20gb
 %nproc=12
 Will use up to   12 processors via shared memory.
 %chk=4c1_b1_4e_4c1_PHI.inp_extract_25.chk
 ----------------------------------------------------------------------
 #M062X/6-311++G(2d,2p) opt=ModRedundant freq=noraman SCRF=(SMD,solvent
 =water)
 ----------------------------------------------------------------------
 1/18=120,19=15,26=3,38=1/1,3;
 2/9=110,12=2,17=6,18=5,40=1/2;
 3/5=4,6=6,7=1212,11=2,25=1,30=1,70=32201,71=1,72=1,74=-55/1,2,3;
 4//1;
 5/5=2,38=5,53=1/2;
 6/7=2,8=2,9=2,10=2,28=1/1;
 7//1,2,3,16;
 1/18=20,19=15,26=3/3(2);
 2/9=110/2;
 99//99;
 2/9=110/2;
 3/5=4,6=6,7=1212,11=2,25=1,30=1,70=32205,71=1,72=1,74=-55/1,2,3;
 4/5=5,16=3,69=1/1;
 5/5=2,38=5,53=1/2;
 7//1,2,3,16;
 1/18=20,19=15,26=3/3(-5);
 2/9=110/2;
 6/7=2,8=2,9=2,10=2,19=2,28=1/1;
 99/9=1/99;
 --------------------------------
 4c1_b1_4e_4c1_PHI.inp_extract_25
 --------------------------------
 Symbolic Z-matrix:
 Charge =  0 Multiplicity = 1
 C                    -3.53439  -1.07708   0.09149 
 C                     1.82556  -1.18162  -0.30374 
 C                     3.47438   1.11616   0.15843 
 O                     3.04923  -0.97975  -0.97634 
 O                    -1.71233   1.10732  -0.13127 
 C                    -2.9185    1.14358  -0.87783 
 O                    -0.01719  -0.07153   0.76655 
 C                    -4.01084   0.35078  -0.1785 
 C                     2.11801   1.00889   0.8601 
 C                    -1.19481  -0.1919    0.03988 
 C                     3.99863  -0.26373  -0.20621 
 C                     1.17257   0.15575   0.02868 
 C                    -2.17759  -1.06082   0.80068 
 H                    -4.26045  -1.6166    0.69115 
 H                    -3.4423   -1.61122  -0.85205 
 H                     1.9952   -1.7429    0.61236 
 H                     1.19964  -1.7714   -0.95931 
 H                     3.37727   1.71002  -0.74689 
 H                     4.19425   1.61617   0.79931 
 H                    -2.73264   0.74552  -1.87281 
 H                    -3.18019   2.18796  -0.97381 
 H                    -4.26126   0.8418    0.75875 
 H                    -4.90425   0.35093  -0.79645 
 H                     2.24334   0.54185   1.83439 
 H                     1.68592   1.99144   1.02049 
 H                    -0.99056  -0.61076  -0.9408 
 H                     4.89328  -0.1995   -0.81014 
 H                     4.22938  -0.83507   0.69004 
 H                     0.93049   0.6745   -0.89256 
 H                    -2.28195  -0.65748   1.80459 
 H                    -1.77108  -2.06355   0.88436 
 
 The following ModRedundant input section has been read:
 D      12       7      10       5 F                                           
 

 GradGradGradGradGradGradGradGradGradGradGradGradGradGradGradGradGradGrad
 Berny optimization.
 Initialization pass.
                           ----------------------------
                           !    Initial Parameters    !
                           ! (Angstroms and Degrees)  !
 --------------------------                            --------------------------
 ! Name  Definition              Value          Derivative Info.                !
 --------------------------------------------------------------------------------
 ! R1    R(1,8)                  1.5293         estimate D2E/DX2                !
 ! R2    R(1,13)                 1.5311         estimate D2E/DX2                !
 ! R3    R(1,14)                 1.0853         estimate D2E/DX2                !
 ! R4    R(1,15)                 1.0881         estimate D2E/DX2                !
 ! R5    R(2,4)                  1.4109         estimate D2E/DX2                !
 ! R6    R(2,12)                 1.5249         estimate D2E/DX2                !
 ! R7    R(2,16)                 1.0877         estimate D2E/DX2                !
 ! R8    R(2,17)                 1.0814         estimate D2E/DX2                !
 ! R9    R(3,9)                  1.5309         estimate D2E/DX2                !
 ! R10   R(3,11)                 1.5205         estimate D2E/DX2                !
 ! R11   R(3,18)                 1.0871         estimate D2E/DX2                !
 ! R12   R(3,19)                 1.0858         estimate D2E/DX2                !
 ! R13   R(4,11)                 1.4167         estimate D2E/DX2                !
 ! R14   R(5,6)                  1.419          estimate D2E/DX2                !
 ! R15   R(5,10)                 1.4089         estimate D2E/DX2                !
 ! R16   R(6,8)                  1.5201         estimate D2E/DX2                !
 ! R17   R(6,20)                 1.0877         estimate D2E/DX2                !
 ! R18   R(6,21)                 1.0809         estimate D2E/DX2                !
 ! R19   R(7,10)                 1.389          estimate D2E/DX2                !
 ! R20   R(7,12)                 1.4183         estimate D2E/DX2                !
 ! R21   R(8,22)                 1.0873         estimate D2E/DX2                !
 ! R22   R(8,23)                 1.0863         estimate D2E/DX2                !
 ! R23   R(9,12)                 1.5208         estimate D2E/DX2                !
 ! R24   R(9,24)                 1.0877         estimate D2E/DX2                !
 ! R25   R(9,25)                 1.0853         estimate D2E/DX2                !
 ! R26   R(10,13)                1.5165         estimate D2E/DX2                !
 ! R27   R(10,26)                1.0858         estimate D2E/DX2                !
 ! R28   R(11,27)                1.0813         estimate D2E/DX2                !
 ! R29   R(11,28)                1.0876         estimate D2E/DX2                !
 ! R30   R(12,29)                1.0846         estimate D2E/DX2                !
 ! R31   R(13,30)                1.0869         estimate D2E/DX2                !
 ! R32   R(13,31)                1.0852         estimate D2E/DX2                !
 ! A1    A(8,1,13)             110.362          estimate D2E/DX2                !
 ! A2    A(8,1,14)             110.6882         estimate D2E/DX2                !
 ! A3    A(8,1,15)             109.3661         estimate D2E/DX2                !
 ! A4    A(13,1,14)            110.0117         estimate D2E/DX2                !
 ! A5    A(13,1,15)            109.3811         estimate D2E/DX2                !
 ! A6    A(14,1,15)            106.9603         estimate D2E/DX2                !
 ! A7    A(4,2,12)             110.4768         estimate D2E/DX2                !
 ! A8    A(4,2,16)             109.8826         estimate D2E/DX2                !
 ! A9    A(4,2,17)             106.9203         estimate D2E/DX2                !
 ! A10   A(12,2,16)            109.6178         estimate D2E/DX2                !
 ! A11   A(12,2,17)            111.2603         estimate D2E/DX2                !
 ! A12   A(16,2,17)            108.6292         estimate D2E/DX2                !
 ! A13   A(9,3,11)             110.5981         estimate D2E/DX2                !
 ! A14   A(9,3,18)             109.9284         estimate D2E/DX2                !
 ! A15   A(9,3,19)             110.4347         estimate D2E/DX2                !
 ! A16   A(11,3,18)            109.0788         estimate D2E/DX2                !
 ! A17   A(11,3,19)            109.3219         estimate D2E/DX2                !
 ! A18   A(18,3,19)            107.4107         estimate D2E/DX2                !
 ! A19   A(2,4,11)             113.2276         estimate D2E/DX2                !
 ! A20   A(6,5,10)             113.5599         estimate D2E/DX2                !
 ! A21   A(5,6,8)              110.8209         estimate D2E/DX2                !
 ! A22   A(5,6,20)             109.068          estimate D2E/DX2                !
 ! A23   A(5,6,21)             106.0934         estimate D2E/DX2                !
 ! A24   A(8,6,20)             110.6565         estimate D2E/DX2                !
 ! A25   A(8,6,21)             111.7633         estimate D2E/DX2                !
 ! A26   A(20,6,21)            108.2851         estimate D2E/DX2                !
 ! A27   A(10,7,12)            116.9307         estimate D2E/DX2                !
 ! A28   A(1,8,6)              110.1388         estimate D2E/DX2                !
 ! A29   A(1,8,22)             109.9509         estimate D2E/DX2                !
 ! A30   A(1,8,23)             110.9026         estimate D2E/DX2                !
 ! A31   A(6,8,22)             109.0589         estimate D2E/DX2                !
 ! A32   A(6,8,23)             109.2214         estimate D2E/DX2                !
 ! A33   A(22,8,23)            107.5096         estimate D2E/DX2                !
 ! A34   A(3,9,12)             109.848          estimate D2E/DX2                !
 ! A35   A(3,9,24)             109.7891         estimate D2E/DX2                !
 ! A36   A(3,9,25)             110.9189         estimate D2E/DX2                !
 ! A37   A(12,9,24)            108.69           estimate D2E/DX2                !
 ! A38   A(12,9,25)            109.9471         estimate D2E/DX2                !
 ! A39   A(24,9,25)            107.5925         estimate D2E/DX2                !
 ! A40   A(5,10,7)             107.1612         estimate D2E/DX2                !
 ! A41   A(5,10,13)            110.5651         estimate D2E/DX2                !
 ! A42   A(5,10,26)            108.3674         estimate D2E/DX2                !
 ! A43   A(7,10,13)            109.6723         estimate D2E/DX2                !
 ! A44   A(7,10,26)            110.2714         estimate D2E/DX2                !
 ! A45   A(13,10,26)           110.7314         estimate D2E/DX2                !
 ! A46   A(3,11,4)             110.9755         estimate D2E/DX2                !
 ! A47   A(3,11,27)            111.4256         estimate D2E/DX2                !
 ! A48   A(3,11,28)            110.6261         estimate D2E/DX2                !
 ! A49   A(4,11,27)            106.3116         estimate D2E/DX2                !
 ! A50   A(4,11,28)            108.9433         estimate D2E/DX2                !
 ! A51   A(27,11,28)           108.4158         estimate D2E/DX2                !
 ! A52   A(2,12,7)             109.3944         estimate D2E/DX2                !
 ! A53   A(2,12,9)             110.178          estimate D2E/DX2                !
 ! A54   A(2,12,29)            109.2612         estimate D2E/DX2                !
 ! A55   A(7,12,9)             109.0842         estimate D2E/DX2                !
 ! A56   A(7,12,29)            109.3474         estimate D2E/DX2                !
 ! A57   A(9,12,29)            109.5597         estimate D2E/DX2                !
 ! A58   A(1,13,10)            110.3662         estimate D2E/DX2                !
 ! A59   A(1,13,30)            110.2841         estimate D2E/DX2                !
 ! A60   A(1,13,31)            110.9686         estimate D2E/DX2                !
 ! A61   A(10,13,30)           108.2379         estimate D2E/DX2                !
 ! A62   A(10,13,31)           108.9875         estimate D2E/DX2                !
 ! A63   A(30,13,31)           107.9157         estimate D2E/DX2                !
 ! D1    D(13,1,8,6)            51.4074         estimate D2E/DX2                !
 ! D2    D(13,1,8,22)          -68.7998         estimate D2E/DX2                !
 ! D3    D(13,1,8,23)          172.4326         estimate D2E/DX2                !
 ! D4    D(14,1,8,6)           173.4357         estimate D2E/DX2                !
 ! D5    D(14,1,8,22)           53.2285         estimate D2E/DX2                !
 ! D6    D(14,1,8,23)          -65.5391         estimate D2E/DX2                !
 ! D7    D(15,1,8,6)           -68.9672         estimate D2E/DX2                !
 ! D8    D(15,1,8,22)          170.8256         estimate D2E/DX2                !
 ! D9    D(15,1,8,23)           52.058          estimate D2E/DX2                !
 ! D10   D(8,1,13,10)          -51.8637         estimate D2E/DX2                !
 ! D11   D(8,1,13,30)           67.6814         estimate D2E/DX2                !
 ! D12   D(8,1,13,31)         -172.7901         estimate D2E/DX2                !
 ! D13   D(14,1,13,10)        -174.29           estimate D2E/DX2                !
 ! D14   D(14,1,13,30)         -54.7449         estimate D2E/DX2                !
 ! D15   D(14,1,13,31)          64.7836         estimate D2E/DX2                !
 ! D16   D(15,1,13,10)          68.5019         estimate D2E/DX2                !
 ! D17   D(15,1,13,30)        -171.953          estimate D2E/DX2                !
 ! D18   D(15,1,13,31)         -52.4245         estimate D2E/DX2                !
 ! D19   D(12,2,4,11)           61.3512         estimate D2E/DX2                !
 ! D20   D(16,2,4,11)          -59.7235         estimate D2E/DX2                !
 ! D21   D(17,2,4,11)         -177.4389         estimate D2E/DX2                !
 ! D22   D(4,2,12,7)          -176.8671         estimate D2E/DX2                !
 ! D23   D(4,2,12,9)           -56.9554         estimate D2E/DX2                !
 ! D24   D(4,2,12,29)           63.4586         estimate D2E/DX2                !
 ! D25   D(16,2,12,7)          -55.6351         estimate D2E/DX2                !
 ! D26   D(16,2,12,9)           64.2766         estimate D2E/DX2                !
 ! D27   D(16,2,12,29)        -175.3094         estimate D2E/DX2                !
 ! D28   D(17,2,12,7)           64.5355         estimate D2E/DX2                !
 ! D29   D(17,2,12,9)         -175.5528         estimate D2E/DX2                !
 ! D30   D(17,2,12,29)         -55.1388         estimate D2E/DX2                !
 ! D31   D(11,3,9,12)          -51.7325         estimate D2E/DX2                !
 ! D32   D(11,3,9,24)           67.7361         estimate D2E/DX2                !
 ! D33   D(11,3,9,25)         -173.4861         estimate D2E/DX2                !
 ! D34   D(18,3,9,12)           68.778          estimate D2E/DX2                !
 ! D35   D(18,3,9,24)         -171.7534         estimate D2E/DX2                !
 ! D36   D(18,3,9,25)          -52.9756         estimate D2E/DX2                !
 ! D37   D(19,3,9,12)         -172.8799         estimate D2E/DX2                !
 ! D38   D(19,3,9,24)          -53.4113         estimate D2E/DX2                !
 ! D39   D(19,3,9,25)           65.3665         estimate D2E/DX2                !
 ! D40   D(9,3,11,4)            54.6304         estimate D2E/DX2                !
 ! D41   D(9,3,11,27)          172.8963         estimate D2E/DX2                !
 ! D42   D(9,3,11,28)          -66.4194         estimate D2E/DX2                !
 ! D43   D(18,3,11,4)          -66.3856         estimate D2E/DX2                !
 ! D44   D(18,3,11,27)          51.8802         estimate D2E/DX2                !
 ! D45   D(18,3,11,28)         172.5646         estimate D2E/DX2                !
 ! D46   D(19,3,11,4)          176.435          estimate D2E/DX2                !
 ! D47   D(19,3,11,27)         -65.2991         estimate D2E/DX2                !
 ! D48   D(19,3,11,28)          55.3852         estimate D2E/DX2                !
 ! D49   D(2,4,11,3)           -60.3332         estimate D2E/DX2                !
 ! D50   D(2,4,11,27)          178.347          estimate D2E/DX2                !
 ! D51   D(2,4,11,28)           61.7028         estimate D2E/DX2                !
 ! D52   D(10,5,6,8)            61.0337         estimate D2E/DX2                !
 ! D53   D(10,5,6,20)          -61.0236         estimate D2E/DX2                !
 ! D54   D(10,5,6,21)         -177.4613         estimate D2E/DX2                !
 ! D55   D(6,5,10,7)           179.2588         estimate D2E/DX2                !
 ! D56   D(6,5,10,13)          -61.2581         estimate D2E/DX2                !
 ! D57   D(6,5,10,26)           60.272          estimate D2E/DX2                !
 ! D58   D(5,6,8,1)            -54.9516         estimate D2E/DX2                !
 ! D59   D(5,6,8,22)            65.7925         estimate D2E/DX2                !
 ! D60   D(5,6,8,23)          -176.9778         estimate D2E/DX2                !
 ! D61   D(20,6,8,1)            66.1726         estimate D2E/DX2                !
 ! D62   D(20,6,8,22)         -173.0833         estimate D2E/DX2                !
 ! D63   D(20,6,8,23)          -55.8536         estimate D2E/DX2                !
 ! D64   D(21,6,8,1)          -173.0607         estimate D2E/DX2                !
 ! D65   D(21,6,8,22)          -52.3165         estimate D2E/DX2                !
 ! D66   D(21,6,8,23)           64.9132         estimate D2E/DX2                !
 ! D67   D(12,7,10,5)          -87.5456         Frozen                          !
 ! D68   D(12,7,10,13)         152.3995         estimate D2E/DX2                !
 ! D69   D(12,7,10,26)          30.2051         estimate D2E/DX2                !
 ! D70   D(10,7,12,2)          -91.5402         estimate D2E/DX2                !
 ! D71   D(10,7,12,9)          147.8789         estimate D2E/DX2                !
 ! D72   D(10,7,12,29)          28.0811         estimate D2E/DX2                !
 ! D73   D(3,9,12,2)            52.7034         estimate D2E/DX2                !
 ! D74   D(3,9,12,7)           172.8027         estimate D2E/DX2                !
 ! D75   D(3,9,12,29)          -67.5307         estimate D2E/DX2                !
 ! D76   D(24,9,12,2)          -67.4349         estimate D2E/DX2                !
 ! D77   D(24,9,12,7)           52.6644         estimate D2E/DX2                !
 ! D78   D(24,9,12,29)         172.3309         estimate D2E/DX2                !
 ! D79   D(25,9,12,2)          175.0355         estimate D2E/DX2                !
 ! D80   D(25,9,12,7)          -64.8652         estimate D2E/DX2                !
 ! D81   D(25,9,12,29)          54.8014         estimate D2E/DX2                !
 ! D82   D(5,10,13,1)           55.7312         estimate D2E/DX2                !
 ! D83   D(5,10,13,30)         -65.0444         estimate D2E/DX2                !
 ! D84   D(5,10,13,31)         177.8323         estimate D2E/DX2                !
 ! D85   D(7,10,13,1)          173.6882         estimate D2E/DX2                !
 ! D86   D(7,10,13,30)          52.9126         estimate D2E/DX2                !
 ! D87   D(7,10,13,31)         -64.2107         estimate D2E/DX2                !
 ! D88   D(26,10,13,1)         -64.3921         estimate D2E/DX2                !
 ! D89   D(26,10,13,30)        174.8323         estimate D2E/DX2                !
 ! D90   D(26,10,13,31)         57.709          estimate D2E/DX2                !
 --------------------------------------------------------------------------------
 Trust Radius=3.00D-01 FncErr=1.00D-07 GrdErr=1.00D-06 EigMax=2.50D+02 EigMin=1.00D-04
 Number of steps in this run=    186 maximum allowed number of steps=    186.
 GradGradGradGradGradGradGradGradGradGradGradGradGradGradGradGradGradGrad

                          Input orientation:                          
 ---------------------------------------------------------------------
 Center     Atomic      Atomic             Coordinates (Angstroms)
 Number     Number       Type             X           Y           Z
 ---------------------------------------------------------------------
      1          6           0       -3.534395   -1.077082    0.091494
      2          6           0        1.825557   -1.181621   -0.303738
      3          6           0        3.474381    1.116159    0.158428
      4          8           0        3.049227   -0.979749   -0.976343
      5          8           0       -1.712327    1.107315   -0.131274
      6          6           0       -2.918495    1.143580   -0.877825
      7          8           0       -0.017185   -0.071530    0.766547
      8          6           0       -4.010835    0.350784   -0.178497
      9          6           0        2.118013    1.008886    0.860103
     10          6           0       -1.194808   -0.191896    0.039883
     11          6           0        3.998632   -0.263734   -0.206208
     12          6           0        1.172572    0.155748    0.028677
     13          6           0       -2.177589   -1.060823    0.800675
     14          1           0       -4.260449   -1.616599    0.691147
     15          1           0       -3.442296   -1.611222   -0.852046
     16          1           0        1.995198   -1.742898    0.612363
     17          1           0        1.199638   -1.771395   -0.959313
     18          1           0        3.377268    1.710023   -0.746885
     19          1           0        4.194247    1.616166    0.799314
     20          1           0       -2.732641    0.745515   -1.872808
     21          1           0       -3.180193    2.187961   -0.973809
     22          1           0       -4.261264    0.841798    0.758745
     23          1           0       -4.904245    0.350927   -0.796447
     24          1           0        2.243341    0.541847    1.834387
     25          1           0        1.685923    1.991440    1.020488
     26          1           0       -0.990564   -0.610762   -0.940797
     27          1           0        4.893277   -0.199495   -0.810142
     28          1           0        4.229384   -0.835072    0.690035
     29          1           0        0.930494    0.674501   -0.892560
     30          1           0       -2.281948   -0.657482    1.804593
     31          1           0       -1.771084   -2.063549    0.884355
 ---------------------------------------------------------------------
                    Distance matrix (angstroms):
                    1          2          3          4          5
     1  C    0.000000
     2  C    5.375521   0.000000
     3  C    7.344231   2.865661   0.000000
     4  O    6.670369   1.410857   2.421010   0.000000
     5  O    2.853270   4.217297   5.194800   5.267103   0.000000
     6  C    2.500050   5.314336   6.476375   6.334977   1.418977
     7  O    3.719892   2.402813   3.737840   3.642171   2.251503
     8  C    1.529278   6.035513   7.531784   7.228510   2.420270
     9  C    6.073857   2.497674   1.530879   2.862580   3.957780
    10  C    2.501976   3.196910   4.850401   4.434553   1.408925
    11  C    7.582655   2.360992   1.520494   1.416741   5.873708
    12  C    4.866144   1.524941   2.497509   2.412727   3.041991
    13  C    1.531053   4.154455   6.090689   5.521229   2.405373
    14  H    1.085273   6.182109   8.220666   7.524458   3.819556
    15  H    1.088143   5.313706   7.503338   6.523349   3.301931
    16  H    5.593837   1.087681   3.250884   2.053621   4.735235
    17  H    4.898707   1.081382   3.842105   2.011957   4.177578
    18  H    7.499461   3.311464   1.087059   2.719400   5.161997
    19  H    8.215017   3.828189   1.085794   3.347059   6.001045
    20  H    2.796990   5.191628   6.541439   6.100015   2.050581
    21  H    3.452656   6.071294   6.834770   6.988567   2.008057
    22  H    2.157699   6.501729   7.763753   7.731225   2.712879
    23  H    2.168902   6.919660   8.467511   8.066026   3.347076
    24  H    6.248267   2.777852   2.157344   3.296196   4.453188
    25  H    6.126220   3.441132   2.169757   3.830652   3.695448
    26  H    2.784628   2.943172   4.911852   4.056763   2.031762
    27  H    8.521077   3.260663   2.163871   2.009214   6.767763
    28  H    7.790577   2.624131   2.158689   2.047075   6.304867
    29  H    4.896084   2.143137   2.787651   2.689348   2.784131
    30  H    2.163191   4.646652   6.244276   6.021535   2.680776
    31  H    2.170486   3.889112   6.176764   5.279415   3.330065
                    6          7          8          9         10
     6  C    0.000000
     7  O    3.549373   0.000000
     8  C    1.520129   4.125615   0.000000
     9  C    5.329629   2.394811   6.250965   0.000000
    10  C    2.365752   1.389001   2.876143   3.617931   0.000000
    11  C    7.090716   4.136421   8.033054   2.508647   5.199764
    12  C    4.305158   1.418319   5.191211   1.520846   2.392795
    13  C    2.868048   2.376386   2.512410   4.768587   1.516475
    14  H    3.446897   4.516438   2.165452   6.899746   3.442685
    15  H    2.804276   4.089240   2.150900   6.380710   2.803788
    16  H    5.890398   2.620483   6.409477   2.765642   3.592976
    17  H    5.046062   2.710866   5.679995   3.447267   3.037529
    18  H    6.322550   4.121495   7.533569   2.158640   5.013998
    19  H    7.323062   4.537130   8.359466   2.164078   5.734783
    20  H    1.087653   3.873946   2.158769   5.573779   2.627177
    21  H    1.080940   4.258962   2.167419   5.729262   3.260835
    22  H    2.138332   4.341248   1.087305   6.382270   3.314881
    23  H    2.139655   5.148279   1.086298   7.244941   3.841097
    24  H    5.861973   2.574197   6.572893   1.087686   3.947087
    25  H    5.052042   2.687175   6.048336   1.085282   3.745284
    26  H    2.607412   2.037955   3.260017   3.940781   1.085771
    27  H    7.926677   5.158969   8.943433   3.457165   6.147144
    28  H    7.580595   4.315345   8.370293   2.808379   5.500748
    29  H    3.877495   2.051169   5.003140   2.143325   2.477297
    30  H    3.293081   2.559303   2.817498   4.798802   2.124346
    31  H    3.835037   2.656724   3.460512   4.956362   2.132677
                   11         12         13         14         15
    11  C    0.000000
    12  C    2.866662   0.000000
    13  C    6.308318   3.646862   0.000000
    14  H    8.417120   5.753069   2.158515   0.000000
    15  H    7.589482   5.019448   2.152652   1.746668   0.000000
    16  H    2.621399   2.149944   4.232356   6.257418   5.632777
    17  H    3.267197   2.165811   3.874033   5.706183   4.645935
    18  H    2.138724   2.806769   6.397575   8.453938   7.586052
    19  H    2.140879   3.443432   6.911336   9.052312   8.453391
    20  H    7.007580   4.383396   3.273905   3.806264   2.664540
    21  H    7.624667   4.907283   3.835180   4.291120   3.810160
    22  H    8.389232   5.525417   2.821954   2.459326   3.046746
    23  H    8.943568   6.135685   3.460995   2.549229   2.447532
    24  H    2.809633   2.134527   4.814741   6.947314   6.646736
    25  H    3.455317   2.148717   4.928626   6.963171   6.540962
    26  H    5.054911   2.491300   2.155066   3.790395   2.649488
    27  H    1.081320   3.830595   7.302997   9.383643   8.454378
    28  H    1.087624   3.280734   6.411904   8.525729   7.863530
    29  H    3.280981   1.084612   3.941900   5.890938   4.934315
    30  H    6.606364   3.968492   1.086934   2.464576   3.051845
    31  H    6.141521   3.784518   1.085223   2.536539   2.452068
                   16         17         18         19         20
    16  H    0.000000
    17  H    1.761787   0.000000
    18  H    3.959840   4.111869   0.000000
    19  H    4.019214   4.851394   1.751284   0.000000
    20  H    5.892430   4.757324   6.287207   7.475296   0.000000
    21  H    6.689713   5.904204   6.578770   7.606134   1.757598
    22  H    6.770923   6.293008   7.833767   8.490993   3.044837
    23  H    7.346507   6.464377   8.392440   9.323617   2.455630
    24  H    2.602879   3.774277   3.051785   2.455926   6.208476
    25  H    3.769283   4.279604   2.462408   2.545867   5.426527
    26  H    3.550889   2.478789   4.949909   5.905037   2.396448
    27  H    3.578334   4.016975   2.438964   2.524998   7.757379
    28  H    2.412834   3.574410   3.044396   2.453924   7.585263
    29  H    3.040100   2.461565   2.660870   3.794898   3.792689
    30  H    4.570943   4.582731   6.643933   6.936942   3.961667
    31  H    3.789680   3.508512   6.588347   7.009473   4.051837
                   21         22         23         24         25
    21  H    0.000000
    22  H    2.445938   0.000000
    23  H    2.525571   1.752998   0.000000
    24  H    6.325376   6.599762   7.618774   0.000000
    25  H    5.262597   6.062938   7.030139   1.753416   0.000000
    26  H    3.553648   3.961799   4.032689   4.414555   4.216833
    27  H    8.420668   9.346193   9.812981   3.816449   4.294010
    28  H    8.173673   8.654924   9.329491   2.673914   3.816748
    29  H    4.381200   5.450610   5.844495   3.029423   2.442285
    30  H    4.077120   2.694314   3.828673   4.681615   4.834833
    31  H    4.849093   3.828553   4.297847   4.879166   5.330325
                   26         27         28         29         30
    26  H    0.000000
    27  H    5.899644   0.000000
    28  H    5.473371   1.759330   0.000000
    29  H    2.311859   4.058856   3.958042   0.000000
    30  H    3.034307   7.650519   6.608421   4.400977   0.000000
    31  H    2.459874   7.124586   6.128012   4.237083   1.756373
                   31
    31  H    0.000000
 Stoichiometry    C10H18O3
 Framework group  C1[X(C10H18O3)]
 Deg. of freedom    87
 Full point group                 C1      NOp   1
 Largest Abelian subgroup         C1      NOp   1
 Largest concise Abelian subgroup C1      NOp   1
                         Standard orientation:                         
 ---------------------------------------------------------------------
 Center     Atomic      Atomic             Coordinates (Angstroms)
 Number     Number       Type             X           Y           Z
 ---------------------------------------------------------------------
      1          6           0       -3.534395   -1.077082    0.091494
      2          6           0        1.825557   -1.181621   -0.303738
      3          6           0        3.474381    1.116159    0.158428
      4          8           0        3.049227   -0.979749   -0.976343
      5          8           0       -1.712327    1.107315   -0.131274
      6          6           0       -2.918495    1.143580   -0.877825
      7          8           0       -0.017185   -0.071530    0.766547
      8          6           0       -4.010835    0.350784   -0.178497
      9          6           0        2.118013    1.008886    0.860103
     10          6           0       -1.194808   -0.191896    0.039883
     11          6           0        3.998632   -0.263734   -0.206208
     12          6           0        1.172572    0.155748    0.028677
     13          6           0       -2.177589   -1.060823    0.800675
     14          1           0       -4.260449   -1.616599    0.691147
     15          1           0       -3.442296   -1.611222   -0.852046
     16          1           0        1.995198   -1.742898    0.612363
     17          1           0        1.199638   -1.771395   -0.959313
     18          1           0        3.377268    1.710023   -0.746885
     19          1           0        4.194247    1.616166    0.799314
     20          1           0       -2.732641    0.745515   -1.872808
     21          1           0       -3.180193    2.187961   -0.973809
     22          1           0       -4.261264    0.841798    0.758745
     23          1           0       -4.904245    0.350927   -0.796447
     24          1           0        2.243341    0.541847    1.834387
     25          1           0        1.685923    1.991440    1.020488
     26          1           0       -0.990564   -0.610762   -0.940797
     27          1           0        4.893277   -0.199495   -0.810142
     28          1           0        4.229384   -0.835072    0.690035
     29          1           0        0.930494    0.674501   -0.892560
     30          1           0       -2.281948   -0.657482    1.804593
     31          1           0       -1.771084   -2.063549    0.884355
 ---------------------------------------------------------------------
 Rotational constants (GHZ):           2.1710566           0.3555659           0.3354660
 Standard basis: 6-311++G(2d,2p) (5D, 7F)
 There are   557 symmetry adapted cartesian basis functions of A   symmetry.
 There are   531 symmetry adapted basis functions of A   symmetry.
   531 basis functions,   762 primitive gaussians,   557 cartesian basis functions
    51 alpha electrons       51 beta electrons
       nuclear repulsion energy       876.6659937392 Hartrees.
 NAtoms=   31 NActive=   31 NUniq=   31 SFac= 1.00D+00 NAtFMM=   60 NAOKFM=F Big=F
 Integral buffers will be    131072 words long.
 Raffenetti 2 integral format.
 Two-electron integral symmetry is turned on.
 ------------------------------------------------------------------------------
 Polarizable Continuum Model (PCM)
 =================================
 Model                : PCM.
 Atomic radii         : SMD-Coulomb.
 Polarization charges : Total charges.
 Charge compensation  : None.
 Solution method      : On-the-fly selection.
 Cavity type          : VdW (van der Waals Surface) (Alpha=1.000).
 Cavity algorithm     : GePol (No added spheres)
                        Default sphere list used, NSphG=   31.
                        Lebedev-Laikov grids with approx.  5.0 points / Ang**2.
                        Smoothing algorithm: York/Karplus (Gamma=1.0000).
                        Polarization charges: spherical gaussians, with
                                              point-specific exponents (IZeta= 3).
                        Self-potential: point-specific (ISelfS= 7).
                        Self-field    : sphere-specific E.n sum rule (ISelfD= 2).
 1st derivatives      : Analytical E(r).r(x)/FMM algorithm (CHGder, D1EAlg=3).
                        Cavity 1st derivative terms included.
 Solvent              : Water, Eps=  78.355300 Eps(inf)=   1.777849
 ------------------------------------------------------------------------------
 ------------------------------------------------------------------------------
 Atomic radii for non-electrostatic terms: SMD-CDS.
 ------------------------------------------------------------------------------
 Nuclear repulsion after PCM non-electrostatic terms =      876.6723840181 Hartrees.
 One-electron integrals computed using PRISM.
 NBasis=   531 RedAO= T EigKep=  5.89D-06  NBF=   531
 NBsUse=   531 1.00D-06 EigRej= -1.00D+00 NBFU=   531
 ExpMin= 3.60D-02 ExpMax= 8.59D+03 ExpMxC= 1.30D+03 IAcc=3 IRadAn=         5 AccDes= 0.00D+00
 Harris functional with IExCor= 1009 and IRadAn=       5 diagonalized for initial guess.
 HarFok:  IExCor= 1009 AccDes= 0.00D+00 IRadAn=         5 IDoV= 1 UseB2=F ITyADJ=14
 ICtDFT=  3500011 ScaDFX=  1.000000  1.000000  1.000000  1.000000
 FoFCou: FMM=F IPFlag=           0 FMFlag=      100000 FMFlg1=           0
         NFxFlg=           0 DoJE=T BraDBF=F KetDBF=T FulRan=T
         wScrn=  0.000000 ICntrl=       500 IOpCl=  0 I1Cent=   200000004 NGrid=           0
         NMat0=    1 NMatS0=      1 NMatT0=    0 NMatD0=    1 NMtDS0=    0 NMtDT0=    0
 Petite list used in FoFCou.
 Requested convergence on RMS density matrix=1.00D-08 within 128 cycles.
 Requested convergence on MAX density matrix=1.00D-06.
 Requested convergence on             energy=1.00D-06.
 No special actions if energy rises.
 Inv3:  Mode=1 IEnd=    12229083.
 Iteration    1 A*A^-1 deviation from unit magnitude is 4.66D-15 for   2010.
 Iteration    1 A*A^-1 deviation from orthogonality  is 4.04D-15 for   1995   1743.
 Iteration    1 A^-1*A deviation from unit magnitude is 4.22D-15 for   2010.
 Iteration    1 A^-1*A deviation from orthogonality  is 4.61D-13 for   1910   1880.
 Error on total polarization charges =  0.06369
 SCF Done:  E(RM062X) =  -617.506618376     A.U. after   12 cycles
            NFock= 12  Conv=0.44D-08     -V/T= 2.0035
 SMD-CDS (non-electrostatic) energy       (kcal/mol) =       4.01
 (included in total energy above)

 **********************************************************************

            Population analysis using the SCF Density.

 **********************************************************************

 Orbital symmetries:
       Occupied  (A) (A) (A) (A) (A) (A) (A) (A) (A) (A) (A) (A)
                 (A) (A) (A) (A) (A) (A) (A) (A) (A) (A) (A) (A)
                 (A) (A) (A) (A) (A) (A) (A) (A) (A) (A) (A) (A)
                 (A) (A) (A) (A) (A) (A) (A) (A) (A) (A) (A) (A)
                 (A) (A) (A)
       Virtual   (A) (A) (A) (A) (A) (A) (A) (A) (A) (A) (A) (A)
                 (A) (A) (A) (A) (A) (A) (A) (A) (A) (A) (A) (A)
                 (A) (A) (A) (A) (A) (A) (A) (A) (A) (A) (A) (A)
                 (A) (A) (A) (A) (A) (A) (A) (A) (A) (A) (A) (A)
                 (A) (A) (A) (A) (A) (A) (A) (A) (A) (A) (A) (A)
                 (A) (A) (A) (A) (A) (A) (A) (A) (A) (A) (A) (A)
                 (A) (A) (A) (A) (A) (A) (A) (A) (A) (A) (A) (A)
                 (A) (A) (A) (A) (A) (A) (A) (A) (A) (A) (A) (A)
                 (A) (A) (A) (A) (A) (A) (A) (A) (A) (A) (A) (A)
                 (A) (A) (A) (A) (A) (A) (A) (A) (A) (A) (A) (A)
                 (A) (A) (A) (A) (A) (A) (A) (A) (A) (A) (A) (A)
                 (A) (A) (A) (A) (A) (A) (A) (A) (A) (A) (A) (A)
                 (A) (A) (A) (A) (A) (A) (A) (A) (A) (A) (A) (A)
                 (A) (A) (A) (A) (A) (A) (A) (A) (A) (A) (A) (A)
                 (A) (A) (A) (A) (A) (A) (A) (A) (A) (A) (A) (A)
                 (A) (A) (A) (A) (A) (A) (A) (A) (A) (A) (A) (A)
                 (A) (A) (A) (A) (A) (A) (A) (A) (A) (A) (A) (A)
                 (A) (A) (A) (A) (A) (A) (A) (A) (A) (A) (A) (A)
                 (A) (A) (A) (A) (A) (A) (A) (A) (A) (A) (A) (A)
                 (A) (A) (A) (A) (A) (A) (A) (A) (A) (A) (A) (A)
                 (A) (A) (A) (A) (A) (A) (A) (A) (A) (A) (A) (A)
                 (A) (A) (A) (A) (A) (A) (A) (A) (A) (A) (A) (A)
                 (A) (A) (A) (A) (A) (A) (A) (A) (A) (A) (A) (A)
                 (A) (A) (A) (A) (A) (A) (A) (A) (A) (A) (A) (A)
                 (A) (A) (A) (A) (A) (A) (A) (A) (A) (A) (A) (A)
                 (A) (A) (A) (A) (A) (A) (A) (A) (A) (A) (A) (A)
                 (A) (A) (A) (A) (A) (A) (A) (A) (A) (A) (A) (A)
                 (A) (A) (A) (A) (A) (A) (A) (A) (A) (A) (A) (A)
                 (A) (A) (A) (A) (A) (A) (A) (A) (A) (A) (A) (A)
                 (A) (A) (A) (A) (A) (A) (A) (A) (A) (A) (A) (A)
                 (A) (A) (A) (A) (A) (A) (A) (A) (A) (A) (A) (A)
                 (A) (A) (A) (A) (A) (A) (A) (A) (A) (A) (A) (A)
                 (A) (A) (A) (A) (A) (A) (A) (A) (A) (A) (A) (A)
                 (A) (A) (A) (A) (A) (A) (A) (A) (A) (A) (A) (A)
                 (A) (A) (A) (A) (A) (A) (A) (A) (A) (A) (A) (A)
                 (A) (A) (A) (A) (A) (A) (A) (A) (A) (A) (A) (A)
                 (A) (A) (A) (A) (A) (A) (A) (A) (A) (A) (A) (A)
                 (A) (A) (A) (A) (A) (A) (A) (A) (A) (A) (A) (A)
                 (A) (A) (A) (A) (A) (A) (A) (A) (A) (A) (A) (A)
                 (A) (A) (A) (A) (A) (A) (A) (A) (A) (A) (A) (A)
 The electronic state is 1-A.
 Alpha  occ. eigenvalues --  -19.63671 -19.62951 -19.62817 -10.63186 -10.58302
 Alpha  occ. eigenvalues --  -10.57316 -10.57273 -10.57222 -10.52501 -10.52446
 Alpha  occ. eigenvalues --  -10.52428 -10.52305 -10.52116  -1.20613  -1.16740
 Alpha  occ. eigenvalues --   -1.14167  -0.90568  -0.89414  -0.86953  -0.83852
 Alpha  occ. eigenvalues --   -0.74595  -0.73528  -0.72933  -0.69967  -0.66116
 Alpha  occ. eigenvalues --   -0.64400  -0.60114  -0.58009  -0.57395  -0.55530
 Alpha  occ. eigenvalues --   -0.54847  -0.52747  -0.51675  -0.50741  -0.50236
 Alpha  occ. eigenvalues --   -0.48157  -0.45999  -0.45541  -0.45494  -0.44231
 Alpha  occ. eigenvalues --   -0.43800  -0.40434  -0.40290  -0.40072  -0.39164
 Alpha  occ. eigenvalues --   -0.38134  -0.38088  -0.37083  -0.35779  -0.32460
 Alpha  occ. eigenvalues --   -0.31690
 Alpha virt. eigenvalues --    0.00502   0.01275   0.01378   0.01512   0.02585
 Alpha virt. eigenvalues --    0.02845   0.03036   0.04103   0.04236   0.04710
 Alpha virt. eigenvalues --    0.04802   0.05085   0.05950   0.06137   0.06961
 Alpha virt. eigenvalues --    0.07535   0.07978   0.08611   0.09295   0.10245
 Alpha virt. eigenvalues --    0.10675   0.11096   0.11322   0.11726   0.12074
 Alpha virt. eigenvalues --    0.12600   0.12907   0.13258   0.13559   0.13730
 Alpha virt. eigenvalues --    0.14082   0.14333   0.14705   0.15118   0.15405
 Alpha virt. eigenvalues --    0.15483   0.15784   0.16078   0.16362   0.16608
 Alpha virt. eigenvalues --    0.17040   0.17226   0.17388   0.17924   0.17941
 Alpha virt. eigenvalues --    0.18309   0.18970   0.19353   0.19411   0.20120
 Alpha virt. eigenvalues --    0.20308   0.20644   0.20983   0.21269   0.21998
 Alpha virt. eigenvalues --    0.22206   0.23271   0.23439   0.24292   0.24578
 Alpha virt. eigenvalues --    0.25091   0.25936   0.26519   0.27527   0.27759
 Alpha virt. eigenvalues --    0.28259   0.28409   0.28842   0.29601   0.29766
 Alpha virt. eigenvalues --    0.30107   0.30567   0.31310   0.31951   0.32306
 Alpha virt. eigenvalues --    0.32527   0.32709   0.33327   0.34133   0.35060
 Alpha virt. eigenvalues --    0.35422   0.35611   0.35663   0.35874   0.36622
 Alpha virt. eigenvalues --    0.37156   0.37276   0.37542   0.37725   0.38252
 Alpha virt. eigenvalues --    0.38421   0.38970   0.39531   0.40415   0.41002
 Alpha virt. eigenvalues --    0.41870   0.42180   0.42262   0.43960   0.45392
 Alpha virt. eigenvalues --    0.46336   0.48310   0.48711   0.50893   0.51170
 Alpha virt. eigenvalues --    0.52104   0.52736   0.53286   0.54154   0.55402
 Alpha virt. eigenvalues --    0.56074   0.56924   0.58310   0.59056   0.59742
 Alpha virt. eigenvalues --    0.60189   0.60291   0.61156   0.61652   0.61939
 Alpha virt. eigenvalues --    0.62817   0.62958   0.63490   0.64183   0.64484
 Alpha virt. eigenvalues --    0.64786   0.65076   0.66045   0.66570   0.66963
 Alpha virt. eigenvalues --    0.67806   0.69287   0.69864   0.70011   0.70734
 Alpha virt. eigenvalues --    0.71069   0.71364   0.72836   0.73013   0.73761
 Alpha virt. eigenvalues --    0.74541   0.74769   0.74863   0.75500   0.76176
 Alpha virt. eigenvalues --    0.76871   0.77157   0.77516   0.77995   0.79442
 Alpha virt. eigenvalues --    0.82270   0.82557   0.83970   0.84807   0.85562
 Alpha virt. eigenvalues --    0.87091   0.87807   0.89061   0.89901   0.90147
 Alpha virt. eigenvalues --    0.91098   0.91714   0.92545   0.94454   0.95617
 Alpha virt. eigenvalues --    0.96222   0.98278   1.00650   1.00837   1.01557
 Alpha virt. eigenvalues --    1.03410   1.04295   1.04804   1.06292   1.06702
 Alpha virt. eigenvalues --    1.08397   1.08805   1.09422   1.10152   1.11679
 Alpha virt. eigenvalues --    1.12168   1.13716   1.14422   1.16026   1.16699
 Alpha virt. eigenvalues --    1.17055   1.18520   1.18735   1.18997   1.19516
 Alpha virt. eigenvalues --    1.20622   1.22157   1.23483   1.23939   1.24092
 Alpha virt. eigenvalues --    1.24767   1.25377   1.25898   1.26764   1.27155
 Alpha virt. eigenvalues --    1.28027   1.28400   1.29745   1.30074   1.30861
 Alpha virt. eigenvalues --    1.31742   1.32302   1.32690   1.33719   1.34087
 Alpha virt. eigenvalues --    1.35262   1.35442   1.36328   1.36547   1.37260
 Alpha virt. eigenvalues --    1.37819   1.38854   1.39883   1.40384   1.41433
 Alpha virt. eigenvalues --    1.41888   1.42604   1.43183   1.43813   1.44418
 Alpha virt. eigenvalues --    1.45130   1.45800   1.47108   1.47833   1.48153
 Alpha virt. eigenvalues --    1.48988   1.49486   1.49791   1.50488   1.51783
 Alpha virt. eigenvalues --    1.52858   1.53361   1.54337   1.55207   1.55710
 Alpha virt. eigenvalues --    1.56072   1.57290   1.57887   1.58621   1.58988
 Alpha virt. eigenvalues --    1.59505   1.60459   1.61610   1.62014   1.62150
 Alpha virt. eigenvalues --    1.64529   1.64605   1.65435   1.66361   1.66509
 Alpha virt. eigenvalues --    1.67729   1.69369   1.70418   1.71009   1.71685
 Alpha virt. eigenvalues --    1.73772   1.75070   1.76159   1.76695   1.78467
 Alpha virt. eigenvalues --    1.78713   1.79786   1.80550   1.82540   1.84124
 Alpha virt. eigenvalues --    1.87529   1.89549   1.91087   1.95967   1.96802
 Alpha virt. eigenvalues --    2.00226   2.07252   2.11772   2.13083   2.18811
 Alpha virt. eigenvalues --    2.25106   2.26376   2.32350   2.33133   2.35968
 Alpha virt. eigenvalues --    2.41312   2.42872   2.45926   2.49613   2.51652
 Alpha virt. eigenvalues --    2.55902   2.76308   2.76623   2.79095   2.81652
 Alpha virt. eigenvalues --    2.87688   2.90847   2.92186   2.93471   2.94526
 Alpha virt. eigenvalues --    2.96973   2.98121   3.00278   3.01891   3.04264
 Alpha virt. eigenvalues --    3.06820   3.07709   3.08788   3.09085   3.11282
 Alpha virt. eigenvalues --    3.12972   3.14418   3.17372   3.19318   3.24182
 Alpha virt. eigenvalues --    3.25082   3.29285   3.31532   3.33809   3.35595
 Alpha virt. eigenvalues --    3.35946   3.37173   3.39335   3.41064   3.41337
 Alpha virt. eigenvalues --    3.43329   3.43942   3.44838   3.46238   3.46460
 Alpha virt. eigenvalues --    3.47819   3.48805   3.49872   3.50728   3.52587
 Alpha virt. eigenvalues --    3.53208   3.53626   3.54928   3.55773   3.56912
 Alpha virt. eigenvalues --    3.57426   3.57827   3.58500   3.59425   3.60955
 Alpha virt. eigenvalues --    3.61614   3.62070   3.62359   3.63719   3.65745
 Alpha virt. eigenvalues --    3.66489   3.66774   3.68433   3.69067   3.70275
 Alpha virt. eigenvalues --    3.70544   3.71472   3.73004   3.73434   3.74162
 Alpha virt. eigenvalues --    3.74701   3.75453   3.76344   3.77141   3.78028
 Alpha virt. eigenvalues --    3.78659   3.78963   3.79530   3.81664   3.83779
 Alpha virt. eigenvalues --    3.84982   3.87319   3.89273   3.90779   3.91994
 Alpha virt. eigenvalues --    3.93133   3.94336   3.95120   3.97156   3.98478
 Alpha virt. eigenvalues --    4.00219   4.02853   4.03132   4.03862   4.04803
 Alpha virt. eigenvalues --    4.05077   4.05692   4.06758   4.07272   4.08565
 Alpha virt. eigenvalues --    4.08678   4.08927   4.10118   4.11830   4.12239
 Alpha virt. eigenvalues --    4.12718   4.13335   4.14139   4.14761   4.15513
 Alpha virt. eigenvalues --    4.16942   4.18713   4.19161   4.19618   4.20579
 Alpha virt. eigenvalues --    4.22045   4.22491   4.25415   4.26584   4.27001
 Alpha virt. eigenvalues --    4.28061   4.29371   4.30449   4.31458   4.33012
 Alpha virt. eigenvalues --    4.33628   4.34200   4.34955   4.37256   4.40060
 Alpha virt. eigenvalues --    4.43088   4.44671   4.45209   4.46335   4.53238
 Alpha virt. eigenvalues --    4.58865   4.61587   4.76629   4.77339   4.83510
 Alpha virt. eigenvalues --    4.89155   4.92464   4.93357   4.99645   5.00254
 Alpha virt. eigenvalues --    5.06564   5.07406   5.08497   5.09215   5.12411
 Alpha virt. eigenvalues --    5.12824   5.14587   5.15312   5.30190   5.35357
 Alpha virt. eigenvalues --    5.38251   5.56273   5.58825   5.62993   5.87048
 Alpha virt. eigenvalues --    5.88685   6.03839   7.02428   7.03857   7.05541
 Alpha virt. eigenvalues --    7.09704   7.10870   7.11949   7.13058   7.16329
 Alpha virt. eigenvalues --    7.23435   7.36314   7.40155   7.44611   7.53329
 Alpha virt. eigenvalues --    7.55423   7.61540  23.95892  23.97934  24.07189
 Alpha virt. eigenvalues --   24.08138  24.12033  24.12974  24.14538  24.16165
 Alpha virt. eigenvalues --   24.17085  24.18576  50.17604  50.19601  50.22368
          Condensed to atoms (all electrons):
               1          2          3          4          5          6
     1  C    5.688569  -0.000602  -0.001799  -0.000374   0.015147  -0.079351
     2  C   -0.000602   6.162244   0.160494   0.164871   0.027203   0.013724
     3  C   -0.001799   0.160494   5.548241  -0.024862  -0.004605   0.002404
     4  O   -0.000374   0.164871  -0.024862   8.400490   0.000255  -0.000635
     5  O    0.015147   0.027203  -0.004605   0.000255   8.404634  -0.005056
     6  C   -0.079351   0.013724   0.002404  -0.000635  -0.005056   5.508339
     7  O    0.021027  -0.184273  -0.002553   0.005562   0.019915  -0.003242
     8  C    0.023322  -0.003691  -0.000499   0.000039  -0.058480   0.053259
     9  C    0.011064  -0.067589   0.102015  -0.007467  -0.065785   0.012906
    10  C    0.065404   0.007145  -0.134560  -0.008770   0.322298  -0.172979
    11  C   -0.001346  -0.240768   0.073276   0.069257  -0.000554  -0.001510
    12  C   -0.103485  -0.481716  -0.100293  -0.000836  -0.046184   0.022030
    13  C   -0.031610   0.163792   0.018364  -0.000089  -0.037402   0.001455
    14  H    0.427474   0.001058   0.000003  -0.000005  -0.003150   0.001222
    15  H    0.521658   0.000814   0.000052   0.000034   0.000919  -0.011587
    16  H   -0.003233   0.366838  -0.007447  -0.037474   0.000112  -0.001394
    17  H    0.005120   0.459295   0.011106  -0.069618  -0.000247   0.000058
    18  H    0.000275   0.004154   0.495894   0.000038   0.000456  -0.000731
    19  H   -0.000044  -0.005462   0.430351   0.007340  -0.000228   0.000225
    20  H    0.001030   0.003556   0.000734   0.000043  -0.024758   0.470223
    21  H    0.007658   0.000059   0.000012  -0.000010  -0.073249   0.436032
    22  H   -0.011760  -0.000050   0.000071  -0.000004  -0.000491  -0.074482
    23  H   -0.057506  -0.000582  -0.000030  -0.000005   0.005740  -0.033676
    24  H    0.001521  -0.034942  -0.073019  -0.000796   0.000586  -0.001580
    25  H   -0.001721   0.015048   0.004153  -0.002098  -0.001019   0.001388
    26  H   -0.045236  -0.050997  -0.007015   0.000446  -0.070588   0.012101
    27  H   -0.000070   0.012009  -0.047004  -0.070938  -0.000106  -0.000133
    28  H    0.000118  -0.045956  -0.047919  -0.040116  -0.000004   0.000031
    29  H   -0.003878  -0.099077  -0.019783  -0.013348   0.007985   0.000813
    30  H   -0.022379   0.002013   0.000899   0.000069  -0.008605  -0.007772
    31  H   -0.025958   0.005547   0.000462   0.000603   0.006553   0.005098
               7          8          9         10         11         12
     1  C    0.021027   0.023322   0.011064   0.065404  -0.001346  -0.103485
     2  C   -0.184273  -0.003691  -0.067589   0.007145  -0.240768  -0.481716
     3  C   -0.002553  -0.000499   0.102015  -0.134560   0.073276  -0.100293
     4  O    0.005562   0.000039  -0.007467  -0.008770   0.069257  -0.000836
     5  O    0.019915  -0.058480  -0.065785   0.322298  -0.000554  -0.046184
     6  C   -0.003242   0.053259   0.012906  -0.172979  -0.001510   0.022030
     7  O    8.371002   0.009911  -0.166578   0.192566   0.016994   0.325366
     8  C    0.009911   5.559907   0.002423   0.113181   0.000790  -0.053219
     9  C   -0.166578   0.002423   7.383815  -0.087607  -0.145118  -1.409335
    10  C    0.192566   0.113181  -0.087607   6.515412   0.005437  -0.435574
    11  C    0.016994   0.000790  -0.145118   0.005437   5.403472   0.177305
    12  C    0.325366  -0.053219  -1.409335  -0.435574   0.177305   7.868822
    13  C   -0.243522  -0.045766  -0.165549  -0.650160  -0.005612  -0.141577
    14  H   -0.002521  -0.022123  -0.000359   0.034651  -0.000034  -0.006860
    15  H    0.000081  -0.069861  -0.000708  -0.022169   0.000058   0.006577
    16  H    0.007671   0.000475  -0.025337  -0.017847   0.017800   0.018971
    17  H   -0.006111  -0.000308   0.037990   0.033757   0.000916  -0.114639
    18  H   -0.000400   0.000161  -0.025291   0.002491  -0.079368  -0.020741
    19  H   -0.001870  -0.000059  -0.017521  -0.002464  -0.038235  -0.007429
    20  H    0.003573  -0.067284  -0.002652  -0.043004  -0.000056   0.014590
    21  H   -0.002604  -0.038998   0.001908   0.011802  -0.000047  -0.003935
    22  H    0.002355   0.473628  -0.002397  -0.018535   0.000077   0.006692
    23  H    0.000168   0.459040   0.001310   0.008875  -0.000027  -0.002169
    24  H   -0.006418  -0.000495   0.465322   0.019574  -0.014067   0.001579
    25  H    0.005853   0.000488   0.399135  -0.014469   0.003989  -0.017218
    26  H   -0.020613   0.019378   0.030292   0.428786   0.000814   0.091606
    27  H    0.000914  -0.000005   0.007361  -0.002253   0.433426   0.004713
    28  H   -0.000127   0.000079  -0.027886   0.001479   0.478031   0.050683
    29  H   -0.023357  -0.004763   0.038017   0.024285   0.012796   0.423424
    30  H    0.000207  -0.011770   0.003957  -0.123381  -0.000280   0.006600
    31  H    0.001916  -0.002697   0.004110  -0.019160  -0.001223   0.001564
              13         14         15         16         17         18
     1  C   -0.031610   0.427474   0.521658  -0.003233   0.005120   0.000275
     2  C    0.163792   0.001058   0.000814   0.366838   0.459295   0.004154
     3  C    0.018364   0.000003   0.000052  -0.007447   0.011106   0.495894
     4  O   -0.000089  -0.000005   0.000034  -0.037474  -0.069618   0.000038
     5  O   -0.037402  -0.003150   0.000919   0.000112  -0.000247   0.000456
     6  C    0.001455   0.001222  -0.011587  -0.001394   0.000058  -0.000731
     7  O   -0.243522  -0.002521   0.000081   0.007671  -0.006111  -0.000400
     8  C   -0.045766  -0.022123  -0.069861   0.000475  -0.000308   0.000161
     9  C   -0.165549  -0.000359  -0.000708  -0.025337   0.037990  -0.025291
    10  C   -0.650160   0.034651  -0.022169  -0.017847   0.033757   0.002491
    11  C   -0.005612  -0.000034   0.000058   0.017800   0.000916  -0.079368
    12  C   -0.141577  -0.006860   0.006577   0.018971  -0.114639  -0.020741
    13  C    6.631677  -0.057447  -0.042312   0.007474  -0.009862   0.002127
    14  H   -0.057447   0.458520   0.000131   0.000026   0.000390   0.000017
    15  H   -0.042312   0.000131   0.449569   0.000234  -0.000386  -0.000004
    16  H    0.007474   0.000026   0.000234   0.470539  -0.014326   0.002331
    17  H   -0.009862   0.000390  -0.000386  -0.014326   0.468768  -0.002161
    18  H    0.002127   0.000017  -0.000004   0.002331  -0.002161   0.468054
    19  H   -0.000922  -0.000001  -0.000004  -0.001414   0.001870  -0.007104
    20  H    0.023828  -0.001192   0.002387   0.000075   0.000725   0.000053
    21  H    0.000912   0.000438  -0.002199  -0.000036   0.000074  -0.000064
    22  H   -0.001301   0.000105   0.002348   0.000073  -0.000102   0.000005
    23  H   -0.001736  -0.009614  -0.005792  -0.000086   0.000045  -0.000008
    24  H    0.002955   0.000060   0.000003  -0.001084  -0.002912   0.003712
    25  H    0.000682  -0.000077   0.000057  -0.002538   0.000151  -0.004530
    26  H   -0.078303  -0.003112  -0.007591   0.001888  -0.002797   0.000536
    27  H    0.000175  -0.000001   0.000008  -0.001062   0.002109  -0.002436
    28  H   -0.000062  -0.000001  -0.000011   0.007358  -0.004972   0.001854
    29  H   -0.018926  -0.000076  -0.000029  -0.004805   0.000683  -0.008677
    30  H    0.523625  -0.001412   0.004148   0.000918   0.000919   0.000135
    31  H    0.407757  -0.012948  -0.005539  -0.004322  -0.000428  -0.000054
              19         20         21         22         23         24
     1  C   -0.000044   0.001030   0.007658  -0.011760  -0.057506   0.001521
     2  C   -0.005462   0.003556   0.000059  -0.000050  -0.000582  -0.034942
     3  C    0.430351   0.000734   0.000012   0.000071  -0.000030  -0.073019
     4  O    0.007340   0.000043  -0.000010  -0.000004  -0.000005  -0.000796
     5  O   -0.000228  -0.024758  -0.073249  -0.000491   0.005740   0.000586
     6  C    0.000225   0.470223   0.436032  -0.074482  -0.033676  -0.001580
     7  O   -0.001870   0.003573  -0.002604   0.002355   0.000168  -0.006418
     8  C   -0.000059  -0.067284  -0.038998   0.473628   0.459040  -0.000495
     9  C   -0.017521  -0.002652   0.001908  -0.002397   0.001310   0.465322
    10  C   -0.002464  -0.043004   0.011802  -0.018535   0.008875   0.019574
    11  C   -0.038235  -0.000056  -0.000047   0.000077  -0.000027  -0.014067
    12  C   -0.007429   0.014590  -0.003935   0.006692  -0.002169   0.001579
    13  C   -0.000922   0.023828   0.000912  -0.001301  -0.001736   0.002955
    14  H   -0.000001  -0.001192   0.000438   0.000105  -0.009614   0.000060
    15  H   -0.000004   0.002387  -0.002199   0.002348  -0.005792   0.000003
    16  H   -0.001414   0.000075  -0.000036   0.000073  -0.000086  -0.001084
    17  H    0.001870   0.000725   0.000074  -0.000102   0.000045  -0.002912
    18  H   -0.007104   0.000053  -0.000064   0.000005  -0.000008   0.003712
    19  H    0.475285  -0.000010   0.000024  -0.000014   0.000004  -0.005617
    20  H   -0.000010   0.476074  -0.005791   0.004552  -0.000851   0.000075
    21  H    0.000024  -0.005791   0.473994  -0.003132  -0.009762  -0.000067
    22  H   -0.000014   0.004552  -0.003132   0.469951  -0.010635   0.000030
    23  H    0.000004  -0.000851  -0.009762  -0.010635   0.474346  -0.000020
    24  H   -0.005617   0.000075  -0.000067   0.000030  -0.000020   0.455593
    25  H   -0.011324   0.000076  -0.000284   0.000035   0.000011  -0.017233
    26  H    0.000227  -0.007065  -0.001107  -0.001687   0.002219  -0.001018
    27  H   -0.009413   0.000015  -0.000006   0.000007  -0.000004  -0.000919
    28  H    0.003469  -0.000026   0.000005  -0.000007   0.000005  -0.002860
    29  H    0.001434  -0.002503   0.000624  -0.000285   0.000061   0.006087
    30  H   -0.000005   0.001314  -0.000789   0.001553  -0.003192  -0.000538
    31  H    0.000032  -0.000183   0.001194  -0.001138   0.001707   0.000247
              25         26         27         28         29         30
     1  C   -0.001721  -0.045236  -0.000070   0.000118  -0.003878  -0.022379
     2  C    0.015048  -0.050997   0.012009  -0.045956  -0.099077   0.002013
     3  C    0.004153  -0.007015  -0.047004  -0.047919  -0.019783   0.000899
     4  O   -0.002098   0.000446  -0.070938  -0.040116  -0.013348   0.000069
     5  O   -0.001019  -0.070588  -0.000106  -0.000004   0.007985  -0.008605
     6  C    0.001388   0.012101  -0.000133   0.000031   0.000813  -0.007772
     7  O    0.005853  -0.020613   0.000914  -0.000127  -0.023357   0.000207
     8  C    0.000488   0.019378  -0.000005   0.000079  -0.004763  -0.011770
     9  C    0.399135   0.030292   0.007361  -0.027886   0.038017   0.003957
    10  C   -0.014469   0.428786  -0.002253   0.001479   0.024285  -0.123381
    11  C    0.003989   0.000814   0.433426   0.478031   0.012796  -0.000280
    12  C   -0.017218   0.091606   0.004713   0.050683   0.423424   0.006600
    13  C    0.000682  -0.078303   0.000175  -0.000062  -0.018926   0.523625
    14  H   -0.000077  -0.003112  -0.000001  -0.000001  -0.000076  -0.001412
    15  H    0.000057  -0.007591   0.000008  -0.000011  -0.000029   0.004148
    16  H   -0.002538   0.001888  -0.001062   0.007358  -0.004805   0.000918
    17  H    0.000151  -0.002797   0.002109  -0.004972   0.000683   0.000919
    18  H   -0.004530   0.000536  -0.002436   0.001854  -0.008677   0.000135
    19  H   -0.011324   0.000227  -0.009413   0.003469   0.001434  -0.000005
    20  H    0.000076  -0.007065   0.000015  -0.000026  -0.002503   0.001314
    21  H   -0.000284  -0.001107  -0.000006   0.000005   0.000624  -0.000789
    22  H    0.000035  -0.001687   0.000007  -0.000007  -0.000285   0.001553
    23  H    0.000011   0.002219  -0.000004   0.000005   0.000061  -0.003192
    24  H   -0.017233  -0.001018  -0.000919  -0.002860   0.006087  -0.000538
    25  H    0.472655   0.000385   0.001110  -0.001009  -0.009091   0.000215
    26  H    0.000385   0.455493  -0.000191   0.000729  -0.013289  -0.004250
    27  H    0.001110  -0.000191   0.459702  -0.003122  -0.000333  -0.000020
    28  H   -0.001009   0.000729  -0.003122   0.475490  -0.001501   0.000051
    29  H   -0.009091  -0.013289  -0.000333  -0.001501   0.434017  -0.001780
    30  H    0.000215  -0.004250  -0.000020   0.000051  -0.001780   0.459190
    31  H   -0.000085   0.003657  -0.000013  -0.000103   0.000290  -0.018806
              31
     1  C   -0.025958
     2  C    0.005547
     3  C    0.000462
     4  O    0.000603
     5  O    0.006553
     6  C    0.005098
     7  O    0.001916
     8  C   -0.002697
     9  C    0.004110
    10  C   -0.019160
    11  C   -0.001223
    12  C    0.001564
    13  C    0.407757
    14  H   -0.012948
    15  H   -0.005539
    16  H   -0.004322
    17  H   -0.000428
    18  H   -0.000054
    19  H    0.000032
    20  H   -0.000183
    21  H    0.001194
    22  H   -0.001138
    23  H    0.001707
    24  H    0.000247
    25  H   -0.000085
    26  H    0.003657
    27  H   -0.000013
    28  H   -0.000103
    29  H    0.000290
    30  H   -0.018806
    31  H    0.483583
 Mulliken charges:
               1
     1  C   -0.399036
     2  C   -0.354160
     3  C   -0.377141
     4  O   -0.371601
     5  O   -0.411294
     6  C   -0.147180
     7  O   -0.320890
     8  C   -0.336064
     9  C   -0.284449
    10  C   -0.034210
    11  C   -0.166193
    12  C   -0.075310
    13  C   -0.252665
    14  H    0.196838
    15  H    0.179113
    16  H    0.219622
    17  H    0.204892
    18  H    0.169278
    19  H    0.188879
    20  H    0.152450
    21  H    0.207342
    22  H    0.164539
    23  H    0.182164
    24  H    0.206242
    25  H    0.177261
    26  H    0.266305
    27  H    0.216479
    28  H    0.156299
    29  H    0.274986
    30  H    0.199165
    31  H    0.168339
 Sum of Mulliken charges =  -0.00000
 Mulliken charges with hydrogens summed into heavy atoms:
               1
     1  C   -0.023085
     2  C    0.070354
     3  C   -0.018984
     4  O   -0.371601
     5  O   -0.411294
     6  C    0.212612
     7  O   -0.320890
     8  C    0.010640
     9  C    0.099054
    10  C    0.232094
    11  C    0.206585
    12  C    0.199676
    13  C    0.114839
 Electronic spatial extent (au):  <R**2>=           3414.6691
 Charge=             -0.0000 electrons
 Dipole moment (field-independent basis, Debye):
    X=             -1.3727    Y=             -0.6557    Z=             -0.7019  Tot=              1.6754
 Quadrupole moment (field-independent basis, Debye-Ang):
   XX=            -66.0193   YY=            -80.8213   ZZ=            -82.5012
   XY=              6.4208   XZ=              8.7513   YZ=             -2.9290
 Traceless Quadrupole moment (field-independent basis, Debye-Ang):
   XX=             10.4280   YY=             -4.3740   ZZ=             -6.0539
   XY=              6.4208   XZ=              8.7513   YZ=             -2.9290
 Octapole moment (field-independent basis, Debye-Ang**2):
  XXX=             -4.3085  YYY=              0.1043  ZZZ=             -1.1581  XYY=             -3.4955
  XXY=             18.9771  XXZ=             12.4946  XZZ=             -9.2450  YZZ=              2.9165
  YYZ=              0.2754  XYZ=             -3.1840
 Hexadecapole moment (field-independent basis, Debye-Ang**3):
 XXXX=          -3439.7328 YYYY=           -527.3862 ZZZZ=           -306.1731 XXXY=             26.3745
 XXXZ=             63.8972 YYYX=            -10.1540 YYYZ=             -4.8855 ZZZX=              9.3553
 ZZZY=             -2.3684 XXYY=           -713.4864 XXZZ=           -673.6868 YYZZ=           -139.8559
 XXYZ=            -35.2600 YYXZ=             13.2858 ZZXY=              4.3549
 N-N= 8.766723840181D+02 E-N=-3.195404771058D+03  KE= 6.153685988987D+02
 D1PCM: PCM CHGder 1st derivatives, ID1Alg=3 FixD1E=F DoIter=F DoCFld=F I1PDM=0.
 Calling FoFJK, ICntrl=      2127 FMM=F ISym2X=0 I1Cent= 0 IOpClX= 0 NMat=1 NMatS=1 NMatT=0.
 ***** Axes restored to original set *****
 -------------------------------------------------------------------
 Center     Atomic                   Forces (Hartrees/Bohr)
 Number     Number              X              Y              Z
 -------------------------------------------------------------------
      1        6           0.001970357    0.003649870    0.000745941
      2        6          -0.000540921    0.005798862    0.002111893
      3        6          -0.001192048   -0.002727654    0.001505557
      4        8           0.002485570   -0.003916077   -0.011544340
      5        8           0.005210448    0.012064051    0.003332180
      6        6          -0.003868266   -0.004960873    0.002504179
      7        8           0.000803556   -0.002041579    0.012309455
      8        6           0.002418245   -0.001872287   -0.001459445
      9        6           0.001388400   -0.001732798   -0.004096315
     10        6          -0.005688516   -0.006125677    0.002260631
     11        6          -0.003774000    0.005523826    0.003065837
     12        6           0.003624290    0.000076257    0.001229614
     13        6          -0.001256809    0.000230498   -0.003508421
     14        1          -0.001712914   -0.001245522    0.001597210
     15        1           0.000883556   -0.001062021   -0.003071771
     16        1           0.000172678   -0.001873044    0.005926762
     17        1          -0.003875892   -0.002316571   -0.003016437
     18        1          -0.000674415    0.001179566   -0.003054392
     19        1           0.001811517    0.001281561    0.001827386
     20        1           0.000310107   -0.002817013   -0.004907163
     21        1          -0.001337840    0.004390777   -0.000358008
     22        1           0.000020258    0.001558914    0.002964816
     23        1          -0.002173719   -0.000115185   -0.001711488
     24        1           0.000306444   -0.002717817    0.002927806
     25        1          -0.001649271    0.002730798    0.000107042
     26        1           0.000982439   -0.003742868   -0.007697990
     27        1           0.003645642    0.000512359   -0.002596037
     28        1           0.000749892   -0.002246024    0.005220092
     29        1          -0.000590263    0.002937354   -0.005616285
     30        1          -0.000004507    0.002460585    0.003058647
     31        1           0.001555980   -0.002882269   -0.000056958
 -------------------------------------------------------------------
 Cartesian Forces:  Max     0.012309455 RMS     0.003588240

 GradGradGradGradGradGradGradGradGradGradGradGradGradGradGradGradGradGrad
 Berny optimization.
 FormGI is forming the generalized inverse of G from B-inverse, IUseBI=4.
 Internal  Forces:  Max     0.010475006 RMS     0.002149456
 Search for a local minimum.
 Step number   1 out of a maximum of  186
 All quantities printed in internal units (Hartrees-Bohrs-Radians)
 Mixed Optimization -- RFO/linear search
 Second derivative matrix not updated -- first step.
 ITU=  0
     Eigenvalues ---    0.00612   0.00651   0.00743   0.00758   0.01446
     Eigenvalues ---    0.01449   0.01490   0.02733   0.02789   0.03099
     Eigenvalues ---    0.03178   0.04165   0.04359   0.04775   0.04806
     Eigenvalues ---    0.04835   0.04975   0.05064   0.05151   0.05154
     Eigenvalues ---    0.05167   0.05679   0.05741   0.06121   0.06155
     Eigenvalues ---    0.06238   0.06402   0.06828   0.07675   0.07877
     Eigenvalues ---    0.07947   0.07965   0.07986   0.08009   0.08100
     Eigenvalues ---    0.08724   0.09214   0.09371   0.10856   0.11435
     Eigenvalues ---    0.11595   0.11709   0.11711   0.12303   0.12499
     Eigenvalues ---    0.14348   0.14596   0.16374   0.16616   0.17513
     Eigenvalues ---    0.19111   0.21395   0.21769   0.25000   0.28534
     Eigenvalues ---    0.28542   0.28699   0.28721   0.28963   0.29499
     Eigenvalues ---    0.30137   0.30544   0.35028   0.35081   0.35082
     Eigenvalues ---    0.35085   0.35089   0.35126   0.35155   0.35169
     Eigenvalues ---    0.35244   0.35303   0.35306   0.35364   0.35365
     Eigenvalues ---    0.35371   0.35443   0.35828   0.35835   0.35881
     Eigenvalues ---    0.41149   0.41440   0.42328   0.42522   0.42714
     Eigenvalues ---    0.474931000.000001000.000001000.000001000.00000
     Eigenvalues --- 1000.000001000.000001000.000001000.000001000.00000
     Eigenvalues --- 1000.000001000.000001000.000001000.000001000.00000
     Eigenvalues --- 1000.000001000.000001000.000001000.000001000.00000
     Eigenvalues --- 1000.000001000.000001000.000001000.000001000.00000
     Eigenvalues --- 1000.000001000.000001000.000001000.000001000.00000
     Eigenvalues --- 1000.000001000.000001000.000001000.000001000.00000
     Eigenvalues --- 1000.000001000.000001000.000001000.000001000.00000
     Eigenvalues --- 1000.000001000.000001000.000001000.000001000.00000
     Eigenvalues --- 1000.000001000.000001000.000001000.000001000.00000
     Eigenvalues --- 1000.000001000.000001000.000001000.000001000.00000
     Eigenvalues --- 1000.000001000.000001000.000001000.000001000.00000
     Eigenvalues --- 1000.000001000.000001000.000001000.000001000.00000
     Eigenvalues --- 1000.000001000.000001000.000001000.000001000.00000
     Eigenvalues --- 1000.000001000.000001000.000001000.000001000.00000
     Eigenvalues --- 1000.000001000.000001000.000001000.000001000.00000
     Eigenvalues --- 1000.000001000.000001000.000001000.000001000.00000
     Eigenvalues --- 1000.000001000.000001000.000001000.000001000.00000
     Eigenvalues --- 1000.000001000.000001000.000001000.000001000.00000
     Eigenvalues --- 1000.000001000.000001000.000001000.000001000.00000
 RFO step:  Lambda=-2.91292020D-03 EMin= 6.11503078D-03
 Linear search not attempted -- first point.
 Iteration  1 RMS(Cart)=  0.03739695 RMS(Int)=  0.00043837
 Iteration  2 RMS(Cart)=  0.00104185 RMS(Int)=  0.00002339
 Iteration  3 RMS(Cart)=  0.00000022 RMS(Int)=  0.00002339
 Iteration  1 RMS(Cart)=  0.00000118 RMS(Int)=  0.00000026
 Iteration  2 RMS(Cart)=  0.00000063 RMS(Int)=  0.00000029
 Variable       Old X    -DE/DX   Delta X   Delta X   Delta X     New X
                                 (Linear)    (Quad)   (Total)
    R1        2.88992  -0.00077   0.00000  -0.00407  -0.00409   2.88582
    R2        2.89327  -0.00102   0.00000  -0.00401  -0.00404   2.88923
    R3        2.05087   0.00265   0.00000   0.00742   0.00742   2.05829
    R4        2.05629   0.00326   0.00000   0.00923   0.00923   2.06552
    R5        2.66613   0.00626   0.00000   0.01460   0.01463   2.68077
    R6        2.88172  -0.00089   0.00000  -0.00267  -0.00267   2.87905
    R7        2.05542   0.00598   0.00000   0.01692   0.01692   2.07234
    R8        2.04352   0.00534   0.00000   0.01477   0.01477   2.05829
    R9        2.89294  -0.00104   0.00000  -0.00416  -0.00419   2.88875
   R10        2.87332  -0.00064   0.00000  -0.00226  -0.00226   2.87106
   R11        2.05424   0.00325   0.00000   0.00916   0.00916   2.06340
   R12        2.05185   0.00287   0.00000   0.00806   0.00806   2.05992
   R13        2.67725   0.00610   0.00000   0.01461   0.01465   2.69190
   R14        2.68148   0.00579   0.00000   0.01393   0.01396   2.69544
   R15        2.66248   0.00809   0.00000   0.01918   0.01920   2.68168
   R16        2.87263  -0.00062   0.00000  -0.00257  -0.00257   2.87006
   R17        2.05537   0.00557   0.00000   0.01575   0.01575   2.07112
   R18        2.04268   0.00460   0.00000   0.01271   0.01271   2.05539
   R19        2.62483   0.00563   0.00000   0.01178   0.01178   2.63661
   R20        2.68023   0.00510   0.00000   0.01186   0.01186   2.69210
   R21        2.05471   0.00325   0.00000   0.00919   0.00919   2.06390
   R22        2.05281   0.00276   0.00000   0.00777   0.00777   2.06058
   R23        2.87398  -0.00215   0.00000  -0.00771  -0.00774   2.86624
   R24        2.05543   0.00383   0.00000   0.01082   0.01082   2.06625
   R25        2.05089   0.00314   0.00000   0.00882   0.00882   2.05971
   R26        2.86572  -0.00159   0.00000  -0.00448  -0.00448   2.86125
   R27        2.05181   0.00858   0.00000   0.02411   0.02411   2.07592
   R28        2.04340   0.00450   0.00000   0.01245   0.01245   2.05584
   R29        2.05531   0.00564   0.00000   0.01594   0.01594   2.07126
   R30        2.04962   0.00631   0.00000   0.01765   0.01765   2.06727
   R31        2.05401   0.00374   0.00000   0.01054   0.01054   2.06455
   R32        2.05077   0.00324   0.00000   0.00909   0.00909   2.05986
    A1        1.92618   0.00208   0.00000  -0.00149  -0.00156   1.92462
    A2        1.93187  -0.00048   0.00000   0.00078   0.00081   1.93268
    A3        1.90880  -0.00083   0.00000  -0.00174  -0.00173   1.90707
    A4        1.92007  -0.00062   0.00000  -0.00005  -0.00002   1.92004
    A5        1.90906  -0.00082   0.00000  -0.00231  -0.00230   1.90676
    A6        1.86681   0.00060   0.00000   0.00494   0.00493   1.87174
    A7        1.92818   0.00117   0.00000   0.00684   0.00688   1.93507
    A8        1.91781   0.00117   0.00000   0.00780   0.00783   1.92564
    A9        1.86611  -0.00035   0.00000   0.00436   0.00437   1.87048
   A10        1.91319  -0.00198   0.00000  -0.01400  -0.01405   1.89914
   A11        1.94186  -0.00080   0.00000  -0.00808  -0.00813   1.93373
   A12        1.89594   0.00087   0.00000   0.00374   0.00362   1.89956
   A13        1.93030  -0.00032   0.00000  -0.00495  -0.00502   1.92529
   A14        1.91861   0.00063   0.00000   0.00151   0.00152   1.92014
   A15        1.92745  -0.00053   0.00000  -0.00088  -0.00087   1.92658
   A16        1.90378  -0.00027   0.00000  -0.00155  -0.00155   1.90223
   A17        1.90803   0.00031   0.00000   0.00115   0.00118   1.90920
   A18        1.87467   0.00019   0.00000   0.00501   0.00500   1.87967
   A19        1.97620  -0.00498   0.00000  -0.02818  -0.02809   1.94810
   A20        1.98199  -0.00501   0.00000  -0.02584  -0.02578   1.95621
   A21        1.93419   0.00097   0.00000   0.00355   0.00355   1.93774
   A22        1.90360   0.00079   0.00000   0.00473   0.00474   1.90834
   A23        1.85168  -0.00077   0.00000  -0.00040  -0.00040   1.85128
   A24        1.93132  -0.00137   0.00000  -0.00777  -0.00779   1.92353
   A25        1.95064  -0.00009   0.00000  -0.00226  -0.00226   1.94838
   A26        1.88993   0.00052   0.00000   0.00267   0.00265   1.89258
   A27        2.04083  -0.01048   0.00000  -0.04142  -0.04142   1.99941
   A28        1.92228   0.00005   0.00000  -0.00439  -0.00447   1.91782
   A29        1.91901   0.00057   0.00000   0.00204   0.00205   1.92106
   A30        1.93562  -0.00062   0.00000  -0.00092  -0.00092   1.93470
   A31        1.90344  -0.00034   0.00000  -0.00155  -0.00154   1.90190
   A32        1.90627   0.00008   0.00000  -0.00018  -0.00015   1.90612
   A33        1.87640   0.00026   0.00000   0.00521   0.00520   1.88159
   A34        1.91721   0.00172   0.00000  -0.00381  -0.00389   1.91332
   A35        1.91618  -0.00048   0.00000   0.00158   0.00157   1.91775
   A36        1.93590  -0.00015   0.00000   0.00384   0.00385   1.93975
   A37        1.89700  -0.00111   0.00000  -0.00634  -0.00633   1.89067
   A38        1.91894  -0.00068   0.00000  -0.00233  -0.00229   1.91665
   A39        1.87784   0.00064   0.00000   0.00706   0.00703   1.88487
   A40        1.87032  -0.00148   0.00000  -0.00667  -0.00666   1.86366
   A41        1.92973   0.00170   0.00000   0.00618   0.00617   1.93589
   A42        1.89137  -0.00010   0.00000   0.00329   0.00330   1.89467
   A43        1.91414   0.00004   0.00000  -0.00263  -0.00263   1.91151
   A44        1.92460   0.00044   0.00000   0.00420   0.00420   1.92880
   A45        1.93263  -0.00060   0.00000  -0.00429  -0.00429   1.92833
   A46        1.93689   0.00139   0.00000   0.00689   0.00689   1.94378
   A47        1.94474  -0.00033   0.00000  -0.00328  -0.00328   1.94146
   A48        1.93079  -0.00129   0.00000  -0.00791  -0.00792   1.92287
   A49        1.85549  -0.00097   0.00000  -0.00253  -0.00253   1.85296
   A50        1.90142   0.00063   0.00000   0.00414   0.00417   1.90558
   A51        1.89221   0.00061   0.00000   0.00306   0.00304   1.89525
   A52        1.90929  -0.00037   0.00000  -0.00444  -0.00442   1.90487
   A53        1.92297   0.00026   0.00000  -0.00193  -0.00199   1.92098
   A54        1.90697  -0.00038   0.00000  -0.00285  -0.00284   1.90413
   A55        1.90388  -0.00038   0.00000   0.00079   0.00079   1.90467
   A56        1.90847   0.00042   0.00000   0.00645   0.00644   1.91491
   A57        1.91218   0.00044   0.00000   0.00205   0.00206   1.91424
   A58        1.92625  -0.00059   0.00000  -0.00584  -0.00590   1.92035
   A59        1.92482   0.00086   0.00000   0.00433   0.00431   1.92913
   A60        1.93677  -0.00008   0.00000   0.00297   0.00297   1.93973
   A61        1.88911  -0.00056   0.00000  -0.00621  -0.00619   1.88292
   A62        1.90219   0.00013   0.00000  -0.00202  -0.00199   1.90020
   A63        1.88348   0.00023   0.00000   0.00674   0.00671   1.89019
    D1        0.89723  -0.00007   0.00000   0.01252   0.01249   0.90972
    D2       -1.20078  -0.00004   0.00000   0.01593   0.01592  -1.18486
    D3        3.00952  -0.00034   0.00000   0.00876   0.00874   3.01826
    D4        3.02702   0.00023   0.00000   0.01196   0.01195   3.03897
    D5        0.92901   0.00026   0.00000   0.01538   0.01538   0.94439
    D6       -1.14387  -0.00004   0.00000   0.00821   0.00820  -1.13568
    D7       -1.20371   0.00018   0.00000   0.01740   0.01740  -1.18631
[...]
 181465,-0.00056208,0.00798779,-0.01940583,-0.00598358,-0.00000703,-0.0
 0000345,-0.00000958,-0.00000511,-0.00000083,-0.00000138,-0.00000192,0.
 00000011,-0.00000171,0.00016643,-0.00030381,0.00009359,0.00047455,-0.0
 0105419,-0.00015616,-0.00073062,-0.00017760,0.00048384,-0.00044633,0.0
 0044461,0.00047010,-0.00000364,-0.00000163,-0.00000212,-0.00000647,0.0
 0000270,-0.00000215,0.00000043,0.00000095,0.00000077,-0.00000202,0.000
 00051,0.00000007,-0.01001031,0.02450327,0.00667546,-0.02141155,0.05462
 878,0.06169896,0.00114277,0.00066726,0.00055660,0.00051517,0.00021921,
 -0.00024988,0.00000540,-0.00002980,-0.00002823,0.00016205,-0.00003916,
 0.00010349,-0.00352795,0.01448178,0.00726719,0.00201756,0.00113831,0.0
 0227077,-0.00705760,-0.01364110,-0.03583926,-0.00020320,-0.00019056,-0
 .00019638,-0.00026540,0.00006122,0.00021016,-0.06731519,0.01881790,0.0
 5880022,-0.00001686,-0.00004633,-0.00001907,0.00218628,-0.00037509,-0.
 00336573,-0.00326351,0.00665668,0.02008421,0.00008497,-0.00010827,-0.0
 0016743,-0.00007843,-0.00017157,-0.00027999,0.00007578,-0.00006554,-0.
 00000289,-0.00126067,0.00077917,-0.00024586,-0.00001610,-0.00000303,0.
 00001403,-0.00003220,0.00000388,0.00000297,0.00002419,-0.00036289,-0.0
 0038114,-0.00002316,-0.00001907,-0.00011956,0.00003667,0.00000716,-0.0
 0004185,-0.00008147,0.00001202,-0.00000068,-0.00004243,-0.00010429,0.0
 0012469,0.00004929,0.00003608,0.00001156,0.07888083,0.00099619,0.00034
 572,0.00027888,-0.00020786,0.00000292,0.00017463,-0.00002540,-0.000020
 06,-0.00001076,-0.00001644,0.00002649,-0.00004127,0.02009839,-0.034178
 68,-0.02495751,-0.00371009,0.00004475,-0.00353000,-0.00263252,0.002429
 40,-0.00409893,0.00033969,-0.00007552,0.00050779,-0.00006825,-0.000059
 09,0.00011646,0.01618927,-0.08051087,-0.07813957,-0.00000959,0.0000278
 7,-0.00000597,0.00016761,-0.00002583,-0.00132480,-0.00559271,0.0085483
 8,0.01667475,0.00010693,-0.00010116,-0.00011880,0.00010944,-0.00011803
 ,-0.00030856,0.00004615,0.00000883,0.00004700,0.00101427,-0.00015000,0
 .00015554,-0.00000280,-0.00000154,0.00000249,-0.00000083,0.00000156,0.
 00000419,0.00012993,0.00064128,0.00096343,0.00005349,0.00012370,0.0005
 3937,-0.00003636,-0.00002684,-0.00005757,0.00016128,0.00020662,-0.0000
 8270,0.00000552,0.00000422,0.00003961,0.00000686,0.00001270,0.00000358
 ,-0.02464410,0.10379890,-0.00047206,-0.00016809,0.00039282,-0.00042064
 ,-0.00070738,0.00027445,-0.00006946,-0.00010131,-0.00011532,-0.0001498
 1,0.00037358,0.00029550,-0.00186528,0.00047355,0.00733574,0.00064680,0
 .00123029,0.00215632,-0.00945160,-0.00887321,-0.02195582,-0.00005717,-
 0.00017704,-0.00001244,-0.00008513,-0.00014831,0.00057457,0.05093044,-
 0.08136991,-0.24905902,0.00009351,-0.00000404,-0.00003614,0.00361183,0
 .00193176,-0.00081479,0.00442509,-0.00569212,-0.01410367,0.00003768,0.
 00020247,0.00025881,0.00034271,0.00000566,0.00049568,0.00009288,0.0000
 3666,0.00006680,0.00000779,0.00038466,0.00060377,-0.00001003,-0.000002
 65,0.00000292,-0.00005520,0.00000170,0.00002049,0.00099140,-0.00040854
 ,-0.00002006,0.00019403,0.00004309,0.00030141,-0.00002805,-0.00001308,
 -0.00019127,0.00002838,-0.00008901,0.00001924,0.00015878,0.00011706,0.
 00006105,0.00002372,0.00002161,0.00000256,-0.05022172,0.09167088,0.272
 96690,-0.00000307,-0.00000982,0.00001946,0.00004769,-0.00118946,-0.004
 87317,-0.00603976,0.00047512,0.00600265,-0.02873518,-0.00751353,0.0107
 7312,-0.00010200,0.00007255,-0.00003801,0.00003247,0.00000988,0.000022
 34,-0.00051246,0.00017830,0.00019979,-0.00000243,-0.00000322,-0.000006
 93,0.00079926,0.00174154,0.00010309,0.00027851,-0.00005532,0.00014608,
 -0.22290848,-0.00985203,0.12524122,0.00057902,-0.00062759,-0.00017084,
 -0.00003382,0.00001608,-0.00002850,-0.00001060,-0.00000181,-0.00000386
 ,-0.00000068,-0.00000052,-0.00000185,0.00005515,-0.00008369,0.00026990
 ,-0.00123711,-0.00007917,0.00067060,0.00021057,-0.00040632,-0.00034651
 ,0.00014018,0.00039516,0.00018781,-0.00000341,-0.00000251,-0.00000454,
 -0.00000842,0.00000292,-0.00000508,-0.00000024,0.00000088,0.00000126,-
 0.00000454,-0.00000002,0.,-0.00004891,-0.00009942,0.00011453,-0.000397
 38,-0.00016674,0.00028078,0.00000074,0.00000494,0.00001323,0.25081777,
 0.00000594,0.00000639,-0.00001058,-0.00133229,-0.00095497,-0.00292692,
 0.02605223,0.00289767,-0.01847260,-0.01956728,-0.00339004,0.00881589,0
 .00000003,0.00000139,0.00000792,-0.00000288,-0.00000101,-0.00000773,0.
 00011826,0.00034105,0.00022135,0.00000039,0.00000058,0.00000190,0.0009
 0749,-0.00599398,-0.00078920,0.00001382,0.00006405,-0.00005302,-0.0076
 7209,-0.05085148,0.00816344,-0.00076881,-0.00083230,-0.00033582,0.0000
 2928,-0.00000409,0.00002448,0.00000461,0.00000049,0.00000199,-0.000000
 26,0.00000024,0.00000080,0.00017724,0.00004023,-0.00019762,-0.00105845
 ,0.00011702,0.00029158,-0.00049888,0.00153160,0.00069241,-0.00090471,0
 .00097150,0.00033677,0.00000043,0.00000036,0.00000088,0.00000104,-0.00
 000021,0.00000089,-0.00000034,-0.00000007,0.00000009,0.00000092,-0.000
 00021,0.,-0.00012480,0.00011213,-0.00011504,0.00181443,0.00008798,-0.0
 0084743,0.00002164,-0.00000251,0.00001684,0.01698321,0.05569775,0.0000
 0243,0.00000103,-0.00000276,-0.00236920,-0.00129422,-0.00173140,0.0057
 4010,0.00204623,-0.00439432,-0.02317069,-0.00405901,0.01248210,-0.0000
 2065,0.00001569,-0.00000699,0.00000346,0.00000116,-0.00000186,-0.00004
 714,0.00027246,0.00022725,-0.00000053,-0.00000008,-0.00000033,-0.00005
 841,-0.00257829,0.00078594,0.00005250,0.00002971,0.00000295,0.13721366
 ,0.01177311,-0.14975753,-0.00033170,-0.00060301,-0.00032940,0.00000909
 ,0.00000048,0.00000770,0.00000080,0.00000010,0.00000047,0.00000004,0.0
 0000045,0.00000044,-0.00006664,-0.00018061,0.00038214,-0.00077085,-0.0
 0019671,0.00049529,-0.00043378,-0.00031086,0.00079293,-0.00010514,0.00
 001666,0.00009284,-0.00000086,-0.00000018,0.00000007,-0.00000087,0.000
 00017,-0.00000030,-0.00000025,0.00000008,0.00000022,0.00000003,-0.0000
 0017,0.00000004,-0.00032646,-0.00006484,0.00023582,0.00087034,0.000083
 80,-0.00013960,0.00001213,-0.00000314,0.00001131,-0.13595240,-0.005582
 85,0.15365206,-0.00000129,-0.00000474,0.00000634,0.00256801,0.00218578
 ,-0.00411118,-0.00088521,0.00731366,-0.00742120,-0.01596848,0.00470044
 ,-0.02850175,-0.00003066,0.00001726,-0.00001536,0.00000792,0.00000376,
 0.00000372,-0.00030539,0.00013185,0.00019516,-0.00000040,-0.00000068,-
 0.00000189,0.00033268,-0.00015909,-0.00099874,0.00010758,-0.00000948,0
 .00007667,-0.06073433,0.02642593,-0.02826552,-0.00019304,-0.00024145,0
 .00020914,-0.00001266,0.00000432,-0.00001063,-0.00000358,-0.00000067,-
 0.00000125,-0.00000012,0.00000003,-0.00000035,0.00051065,-0.00023125,0
 .00084304,0.00007804,-0.00014551,0.00018476,0.00049672,0.00171499,0.00
 023817,0.00039839,-0.00011357,0.00020879,-0.00000090,0.00000011,-0.000
 00076,-0.00000259,0.00000077,-0.00000143,-0.00000020,0.00000016,0.0000
 0074,-0.00000100,-0.00000019,-0.00000009,0.00005558,-0.00001373,0.0000
 5455,0.00008974,-0.00008051,0.00008075,0.00000708,-0.00000201,-0.00000
 619,0.00714235,-0.01427258,0.01974618,0.06633418,0.00000354,0.00000360
 ,-0.00000693,0.00169438,0.00140796,-0.00256741,0.00548043,-0.01932986,
 0.02524842,-0.01014907,0.00984826,-0.01808809,0.00001037,-0.00000400,0
 .00000328,-0.00000490,-0.00000108,-0.00000591,0.00011112,0.00014553,0.
 00013613,-0.00000030,0.00000096,0.00000175,-0.00096164,0.00132187,0.00
 076241,-0.00000259,0.00002813,-0.00003151,0.02777117,-0.13431734,0.117
 94262,-0.00028211,-0.00030570,0.00004675,0.00001534,-0.00000321,0.0000
 1547,0.00000301,0.00000066,0.00000076,-0.00000053,0.00000003,0.0000005
 1,0.00092279,-0.00033908,0.00052782,0.00014279,0.00000071,-0.00007864,
 0.00261873,-0.00511487,-0.00221639,-0.00048666,0.00106898,-0.00013249,
 0.00000014,0.00000009,0.00000053,0.00000061,0.00000004,0.00000082,0.00
 000034,-0.00000029,-0.00000027,0.00000086,-0.00000022,-0.00000015,0.00
 033685,0.00038382,-0.00048586,-0.00022503,0.00011387,-0.00033858,0.000
 00315,-0.00000086,0.00000267,0.00017600,0.00009043,0.00060322,-0.02714
 357,0.14508021,-0.00000297,-0.00000705,0.00001313,0.00341054,0.0003709
 4,0.00048222,0.00312818,-0.00520651,0.00772734,-0.01719385,0.00160502,
 -0.02334681,-0.00006558,0.00003908,-0.00003119,0.00001823,0.00000795,0
 .00001148,-0.00047427,0.00014453,0.00012098,-0.00000129,-0.00000190,-0
 .00000414,-0.00045116,-0.00028856,0.00087573,0.00018505,-0.00001748,0.
 00012946,-0.03277951,0.11577339,-0.20694300,0.00011414,-0.00053815,-0.
 00006294,-0.00002391,0.00000923,-0.00002113,-0.00000714,-0.00000136,-0
 .00000254,-0.00000054,0.00000003,-0.00000122,-0.00085396,-0.00012304,0
 .00082073,-0.00009625,-0.00033012,0.00036938,0.00110220,-0.00202581,0.
 00050534,-0.00030596,0.00099016,0.00037370,-0.00000211,-0.00000058,-0.
 00000203,-0.00000551,0.00000166,-0.00000350,-0.00000052,0.00000070,0.0
 0000117,-0.00000268,0.,0.00000015,-0.00045038,0.00010202,-0.00004728,-
 0.00012409,0.00006015,0.00007794,0.00000198,-0.00000246,-0.00000475,-0
 .00261122,0.01070921,-0.01282491,0.04746761,-0.12138223,0.23190864,-0.
 00000112,-0.00004002,0.00005088,-0.00197250,0.00633499,-0.01011255,0.0
 0100484,0.00046653,-0.00051789,0.00101787,-0.00039292,-0.00030283,-0.0
 0012890,0.00028281,0.00048927,0.00005279,0.00001242,-0.00011959,-0.006
 35493,-0.01855530,0.03280379,0.00001075,-0.00001897,0.00000196,-0.0051
 4763,0.01098137,-0.01786824,0.00207837,-0.00117936,0.00326083,-0.00001
 182,-0.00014125,-0.00000808,-0.06835151,0.03774761,-0.06073717,-0.0002
 1616,-0.00001257,-0.00025636,-0.00004742,-0.00000061,-0.00000529,-0.00
 001223,-0.00000208,-0.00001205,-0.00066808,0.00206518,0.00096620,0.000
 46168,-0.00029757,0.00050348,-0.00014072,-0.00018440,0.00021896,0.0000
 6297,-0.00012205,0.00008367,0.00001217,-0.00000267,-0.00000992,0.00000
 643,0.00001118,-0.00000286,0.00000123,0.00000387,0.00000058,-0.0000045
 0,0.00002570,-0.00000833,-0.00247019,-0.00238626,-0.00235725,0.0008748
 1,-0.00019732,0.00086254,-0.00028326,-0.00020166,-0.00013139,-0.000054
 08,0.00007270,0.00000489,0.00001311,-0.00003530,0.00002487,0.08027638,
 -0.00004585,-0.00002728,0.00003360,0.00910833,-0.01807506,0.02522267,0
 .00093423,0.00045463,0.00006225,-0.00082060,0.00241936,-0.00085810,-0.
 00005862,0.00038759,-0.00061867,-0.00013774,0.00006371,0.00000814,-0.0
 0508772,-0.00121823,0.00458333,0.00000955,0.00001163,-0.00000410,-0.00
 535492,0.00916083,-0.01593728,0.00076660,0.00036078,0.00209107,-0.0002
 9730,-0.00021787,-0.00031037,0.03579567,-0.12020988,0.10692172,-0.0000
 6025,-0.00013889,-0.00027624,-0.00001236,-0.00000130,-0.00000548,-0.00
 000269,-0.00000445,-0.00000099,0.00238495,-0.00453132,-0.00134281,-0.0
 0075687,0.00148786,-0.00003687,0.00013301,-0.00012590,0.00022235,0.000
 20753,-0.00011018,0.00002878,-0.00001281,0.00000191,-0.00000310,-0.000
 01562,-0.00001039,-0.00001709,-0.00000159,0.00000033,0.00000091,0.0000
 0284,-0.00000381,0.00000150,-0.00289540,-0.00100044,-0.00228368,0.0007
 2820,0.00097751,0.00045717,-0.00032819,-0.00030820,-0.00027073,0.00004
 060,0.00007201,0.00003279,-0.00007788,-0.00007945,0.00011533,-0.034183
 41,0.13060731,0.00007079,0.00009982,-0.00011155,0.00283820,-0.00551663
 ,0.00749210,0.00052810,0.00026766,0.00036471,-0.00175229,0.00022886,0.
 00077593,0.00045444,-0.00064745,0.00077035,0.00004777,-0.00020757,0.00
 005180,0.00793081,0.01196312,-0.02002222,-0.00003850,0.00000231,-0.000
 00531,-0.00634118,0.00836483,-0.01554304,-0.00412633,-0.00075182,-0.00
 159564,0.00000647,-0.00004856,0.00006496,-0.05246027,0.10690745,-0.217
 25368,0.00021716,0.00012120,0.00047476,0.00006192,0.00000615,0.0000205
 1,0.00001004,0.00000137,0.00000937,0.00135051,-0.00185778,0.00014110,-
 0.00042744,0.00060842,0.00058514,-0.00025399,0.00000129,0.00048246,0.0
 0000546,-0.00026544,0.00026177,0.00003639,-0.00000179,-0.00000961,0.00
 006807,-0.00000057,0.00004296,0.00000535,-0.00000212,-0.00000494,0.000
 00485,-0.00000790,0.00000302,-0.00212071,-0.00165456,-0.00105287,0.000
 63357,0.00018430,0.00070662,0.00005090,-0.00000792,0.00083083,-0.00000
 686,0.00005178,0.00001924,0.00002061,0.00004244,-0.00012468,0.05329900
 ,-0.11777007,0.24256702,0.00350114,-0.01240364,-0.02792373,0.00004991,
 -0.00002068,0.00002263,0.00001492,0.00000725,0.00000982,-0.00003720,-0
 .00000657,-0.00001622,0.00138366,0.00067606,-0.00221166,-0.00040265,-0
 .00000408,-0.00028530,0.00186624,0.00043543,-0.00014790,0.00146781,-0.
 00080010,0.00046130,0.00000550,0.00005128,-0.00010644,-0.00663377,0.01
 032295,0.02296149,0.00000207,0.00000323,0.00001162,0.00015136,0.000084
 28,0.00004575,-0.05186034,0.01589648,0.03466148,0.00146250,-0.00000600
 ,0.00092764,-0.00478565,0.00019193,-0.00338158,-0.00001456,0.00000596,
 -0.00000982,0.00003002,-0.00004324,-0.00001898,-0.00000097,0.00000116,
 0.00000244,0.00000221,-0.00000253,-0.00000020,-0.00009303,0.00007586,0
 .00004202,0.00009046,0.00004474,-0.00001788,-0.00004659,0.00025660,0.0
 0037616,-0.00004043,-0.00012953,0.00032092,-0.00002398,-0.00001893,-0.
 00001426,0.00000023,-0.00000634,-0.00000050,-0.00233342,-0.00311862,0.
 00168304,-0.00000331,-0.00000081,-0.00000153,-0.00000140,0.00000085,-0
 .00000092,-0.00003235,0.00005999,-0.00012420,0.05864076,-0.00027666,-0
 .00194536,-0.00206178,-0.00000101,-0.00000392,0.00004263,0.00001864,0.
 00000792,0.00001220,-0.00002478,-0.00000953,-0.00001801,-0.00002112,0.
 00212423,-0.00079004,-0.00005265,0.00003516,0.00009519,0.00164825,0.00
 051828,-0.00043821,0.00008455,0.00047152,0.00074628,0.00002020,0.00004
 337,-0.00010061,-0.00393978,0.00621042,0.01952463,-0.00000323,0.000005
 17,0.00000958,0.00011322,0.00000184,0.00017503,0.01707254,-0.09303828,
 -0.09713482,0.00004850,0.00003952,-0.00005985,-0.00073075,0.00105115,-
 0.00008115,-0.00000755,0.00000325,-0.00000514,-0.00001869,-0.00004420,
 -0.00002192,-0.00000164,0.00000042,0.00000265,0.00000325,-0.00000108,-
 0.00000158,0.00004084,-0.00007700,-0.00009556,0.00001971,0.00000315,-0
 .00002318,0.00005390,0.00034230,-0.00001132,-0.00009091,0.00008275,0.0
 0006369,-0.00002008,-0.00002038,-0.00000747,-0.00000027,-0.00000282,-0
 .00000114,-0.00246421,-0.00140528,0.00149196,-0.00000344,-0.00000148,-
 0.00000198,-0.00000032,-0.00000047,-0.00000133,-0.00007430,0.00004192,
 -0.00008095,-0.01520476,0.09564838,0.00150624,-0.00614462,-0.01385169,
 -0.00009364,-0.00004168,0.00000823,0.00001155,0.00001232,0.00001996,0.
 00002496,0.00002742,0.00001276,-0.00101160,-0.00036752,0.00176503,-0.0
 0010326,0.00003415,0.00015029,-0.00085554,-0.00003501,0.00150234,0.000
 71372,-0.00019893,0.00029727,0.00007844,-0.00002551,-0.00003533,0.0036
 2667,-0.00800392,-0.01969485,-0.00000501,-0.00000232,-0.00001499,-0.00
 010867,0.00011370,0.00036193,0.03537338,-0.09433581,-0.26026205,0.0000
 2411,0.00011434,0.00086683,-0.00269263,0.00004447,-0.00049356,0.000015
 16,0.00000067,0.00000799,0.00000926,0.00004574,0.00003178,0.00000159,0
 .00000043,-0.00000268,0.00001139,0.00000336,-0.00000457,0.00006283,-0.
 00011292,-0.00002169,0.00002437,0.00004521,-0.00004130,-0.00008899,0.0
 0043366,-0.00005776,-0.00012992,0.00008615,0.00021886,0.00001157,0.000
 00483,0.00000051,-0.00000344,0.00000557,-0.00000172,0.00214368,0.00223
 742,-0.00072651,0.00000432,0.00000056,0.00000103,0.00000081,-0.0000011
 2,0.00000310,-0.00012480,-0.00004343,0.00004632,-0.03786756,0.10464563
 ,0.28509103,-0.01030135,0.02709305,-0.00278410,0.00001054,-0.00007250,
 -0.00002417,0.00001074,0.00000432,0.00001376,-0.00001335,0.00003637,0.
 00001999,-0.00153904,-0.00605073,0.00361335,-0.00133162,-0.00016131,-0
 .00042346,0.00145695,-0.00020198,0.00019884,-0.00482917,-0.00223213,-0
 .00354300,0.00005439,-0.00000869,-0.00002412,0.00791069,-0.01869233,-0
 .00021657,0.00000120,-0.00000037,-0.00000768,0.00009608,0.00037374,0.0
 0001926,-0.08773010,0.09739734,-0.01002556,0.00098181,-0.00017700,0.00
 094500,0.00133018,-0.00042751,0.00025257,0.00002070,0.00002819,-0.0000
 3398,0.00004487,0.00004254,0.00001988,-0.00000077,0.00000074,-0.000000
 36,0.00000606,0.00000053,-0.00000280,0.00018733,0.00000781,0.00001913,
 0.00028794,0.00010737,0.00006141,0.00006706,-0.00022719,0.00017305,-0.
 00045888,0.00183833,-0.00069055,0.00000134,-0.00000075,0.00000280,-0.0
 0000158,-0.00000039,-0.00000283,0.00061208,0.00083930,-0.00025755,0.00
 000217,0.00000052,0.00000144,-0.00000080,-0.00000077,0.00000103,0.0000
 2398,-0.00002169,0.00001135,-0.00235913,0.00381254,-0.00055899,0.09545
 967,-0.00148875,0.00445939,-0.00065365,-0.00007514,-0.00005070,0.00006
 226,0.00000376,-0.00000267,-0.00000410,-0.00003133,0.00001943,-0.00000
 262,-0.00212843,-0.00417123,0.00418373,-0.00120420,0.00012880,-0.00105
 672,0.00035274,0.00125692,-0.00027448,-0.00066440,0.00133485,-0.000337
 09,-0.00000433,0.00000453,0.00000643,0.00991061,-0.01623895,-0.0008709
 9,0.00000783,-0.00000173,0.00001128,-0.00007884,0.00025215,-0.00000769
 ,0.09448021,-0.27352612,0.02804935,0.00054585,0.00027968,0.00022644,0.
 00033043,0.00043929,0.00033322,-0.00002181,-0.00001520,0.00000938,-0.0
 0006838,-0.00005066,-0.00000933,-0.00000066,-0.00000046,0.00000088,-0.
 00000281,-0.00000153,0.00000134,0.00014040,0.00000750,0.00013390,0.000
 18198,-0.00003338,0.00009226,-0.00003775,0.00007415,-0.00002935,-0.000
 19436,0.00003573,-0.00010636,-0.00000437,-0.00000255,-0.00000349,0.000
 00029,-0.00000292,-0.00000374,-0.00031223,0.00076116,0.00002100,-0.000
 00258,-0.00000051,-0.00000118,-0.00000184,0.00000127,-0.00000283,0.000
 02368,0.00001527,-0.00002990,0.00365180,-0.01008095,0.00145718,-0.1033
 0736,0.29510945,-0.00613342,0.01518279,-0.00332540,0.00002973,0.000000
 14,0.00002161,-0.00000501,0.00000288,-0.00000533,-0.00000768,-0.000005
 28,-0.00000842,0.00188642,0.00427230,-0.00117760,0.00064597,-0.0004161
 9,0.00070883,-0.00072254,-0.00099282,0.00030308,-0.00285021,-0.0011998
 1,-0.00081608,-0.00000651,0.00000332,0.00000464,-0.00865148,0.01449362
 ,-0.00234449,0.00000105,0.00000056,0.00000496,0.00002980,-0.00010670,-
 0.00007388,-0.00825918,0.02565707,-0.05212229,0.00046908,-0.00042784,0
 .00043001,0.00072763,0.00023016,0.00055115,-0.00000304,0.00000263,-0.0
 0000199,0.00000179,-0.00000829,-0.00000493,0.00000049,0.00000031,-0.00
 000037,-0.00000168,-0.00000060,0.00000101,-0.00001292,-0.00004609,-0.0
 0010601,-0.00004758,0.00000619,-0.00006131,-0.00008992,0.00034673,0.00
 009476,-0.00035196,0.00079974,0.00000126,-0.00000231,0.00000054,-0.000
 00318,0.00000058,0.00000182,0.00000150,-0.00049493,-0.00072606,0.00036
 861,-0.00000041,0.00000002,-0.00000045,-0.00000069,-0.00000002,-0.0000
 0040,0.00000370,-0.00000258,0.00001256,0.01060236,-0.02587343,0.004823
 45,0.01324288,-0.03119511,0.05272471\\-0.00001090,-0.00001239,0.000001
 46,-0.00001653,-0.00001685,0.00000664,0.00000795,-0.00000241,0.0000033
 1,-0.00001444,-0.00001257,-0.00000019,-0.00063441,-0.00010280,0.001036
 23,-0.00002465,0.00000988,-0.00003019,-0.00049107,0.00172212,0.0003865
 5,-0.00000148,-0.00000266,0.00000453,-0.00003343,0.00000546,0.00001936
 ,0.00092939,-0.00040721,-0.00136801,0.00003106,0.00001282,0.00001261,0
 .00024331,-0.00122101,-0.00009397,0.00000971,0.00000274,0.00000382,0.0
 0000259,-0.00000153,-0.00000762,-0.00000030,0.00000206,0.00000180,0.00
 000174,0.00000567,-0.00001991,0.00000347,0.00001031,-0.00000097,-0.000
 00352,0.00000236,0.00000442,0.00000019,0.00000099,-0.00000827,0.000003
 41,0.00000977,0.00001742,0.00000654,-0.00000581,0.00000789,0.00000124,
 -0.00000546,0.00000162,0.00000326,0.00000195,0.00000961,0.00000577,0.0
 0000514,-0.00000630,0.00000724,-0.00000750,0.00000536,-0.00000502,0.00
 001284,0.00001773,-0.00000757,0.00000405,0.00000198,-0.00000608,0.0000
 0086,-0.00001754,-0.00000079,-0.00000408,0.00001756,-0.00000284,-0.000
 01007,-0.00000617,-0.00000384,0.00000332,-0.00000076\\\@


 ONLY THE DAY DAWNS TO WHICH YOU ARE AWAKE.

                                 -- THOREAU
 Job cpu time:       0 days 11 hours  9 minutes 32.1 seconds.
 Elapsed time:       0 days  0 hours 55 minutes 49.0 seconds.
 File lengths (MBytes):  RWF=    721 Int=      0 D2E=      0 Chk=     34 Scr=      1
 Normal termination of Gaussian 16 at Sun Mar 10 10:45:33 2019.
