 Entering Gaussian System, Link 0=g16
 Initial command:
 /sw/Projects/G16/g16/l1.exe "/nvme/pbs/tmpdir/pbs.74289[7].flm1/Gau-5796.inp" -scrdir="/nvme/pbs/tmpdir/pbs.74289[7].flm1/"
 Entering Link 1 = /sw/Projects/G16/g16/l1.exe PID=      5797.
  
 Copyright (c) 1988-2017, Gaussian, Inc.  All Rights Reserved.
  
 This is part of the Gaussian(R) 16 program.  It is based on
 the Gaussian(R) 09 system (copyright 2009, Gaussian, Inc.),
 the Gaussian(R) 03 system (copyright 2003, Gaussian, Inc.),
 the Gaussian(R) 98 system (copyright 1998, Gaussian, Inc.),
 the Gaussian(R) 94 system (copyright 1995, Gaussian, Inc.),
 the Gaussian 92(TM) system (copyright 1992, Gaussian, Inc.),
 the Gaussian 90(TM) system (copyright 1990, Gaussian, Inc.),
 the Gaussian 88(TM) system (copyright 1988, Gaussian, Inc.),
 the Gaussian 86(TM) system (copyright 1986, Carnegie Mellon
 University), and the Gaussian 82(TM) system (copyright 1983,
 Carnegie Mellon University). Gaussian is a federally registered
 trademark of Gaussian, Inc.
  
 This software contains proprietary and confidential information,
 including trade secrets, belonging to Gaussian, Inc.
  
 This software is provided under written license and may be
 used, copied, transmitted, or stored only in accord with that
 written license.
  
 The following legend is applicable only to US Government
 contracts under FAR:
  
                    RESTRICTED RIGHTS LEGEND
  
 Use, reproduction and disclosure by the US Government is
 subject to restrictions as set forth in subparagraphs (a)
 and (c) of the Commercial Computer Software - Restricted
 Rights clause in FAR 52.227-19.
  
 Gaussian, Inc.
 340 Quinnipiac St., Bldg. 40, Wallingford CT 06492
  
  
 ---------------------------------------------------------------
 Warning -- This program may not be used in any manner that
 competes with the business of Gaussian, Inc. or will provide
 assistance to any competitor of Gaussian, Inc.  The licensee
 of this program is prohibited from giving any competitor of
 Gaussian, Inc. access to this program.  By using this program,
 the user acknowledges that Gaussian, Inc. is engaged in the
 business of creating and licensing software in the field of
 computational chemistry and represents and warrants to the
 licensee that it is not a competitor of Gaussian, Inc. and that
 it will not use this program in any manner prohibited above.
 ---------------------------------------------------------------
  

 Cite this work as:
 Gaussian 16, Revision B.01,
 M. J. Frisch, G. W. Trucks, H. B. Schlegel, G. E. Scuseria, 
 M. A. Robb, J. R. Cheeseman, G. Scalmani, V. Barone, 
 G. A. Petersson, H. Nakatsuji, X. Li, M. Caricato, A. V. Marenich, 
 J. Bloino, B. G. Janesko, R. Gomperts, B. Mennucci, H. P. Hratchian, 
 J. V. Ortiz, A. F. Izmaylov, J. L. Sonnenberg, D. Williams-Young, 
 F. Ding, F. Lipparini, F. Egidi, J. Goings, B. Peng, A. Petrone, 
 T. Henderson, D. Ranasinghe, V. G. Zakrzewski, J. Gao, N. Rega, 
 G. Zheng, W. Liang, M. Hada, M. Ehara, K. Toyota, R. Fukuda, 
 J. Hasegawa, M. Ishida, T. Nakajima, Y. Honda, O. Kitao, H. Nakai, 
 T. Vreven, K. Throssell, J. A. Montgomery, Jr., J. E. Peralta, 
 F. Ogliaro, M. J. Bearpark, J. J. Heyd, E. N. Brothers, K. N. Kudin, 
 V. N. Staroverov, T. A. Keith, R. Kobayashi, J. Normand, 
 K. Raghavachari, A. P. Rendell, J. C. Burant, S. S. Iyengar, 
 J. Tomasi, M. Cossi, J. M. Millam, M. Klene, C. Adamo, R. Cammi, 
 J. W. Ochterski, R. L. Martin, K. Morokuma, O. Farkas, 
 J. B. Foresman, and D. J. Fox, Gaussian, Inc., Wallingford CT, 2016.
 
 ******************************************
 Gaussian 16:  ES64L-G16RevB.01 20-Dec-2017
                10-Mar-2019 
 ******************************************
 %mem=20gb
 %nproc=12
 Will use up to   12 processors via shared memory.
 %chk=4c1_b1_4e_4c1_PHI.inp_extract_7.chk
 ----------------------------------------------------------------------
 #M062X/6-311++G(2d,2p) opt=ModRedundant freq=noraman SCRF=(SMD,solvent
 =water)
 ----------------------------------------------------------------------
 1/18=120,19=15,26=3,38=1/1,3;
 2/9=110,12=2,17=6,18=5,40=1/2;
 3/5=4,6=6,7=1212,11=2,25=1,30=1,70=32201,71=1,72=1,74=-55/1,2,3;
 4//1;
 5/5=2,38=5,53=1/2;
 6/7=2,8=2,9=2,10=2,28=1/1;
 7//1,2,3,16;
 1/18=20,19=15,26=3/3(2);
 2/9=110/2;
 99//99;
 2/9=110/2;
 3/5=4,6=6,7=1212,11=2,25=1,30=1,70=32205,71=1,72=1,74=-55/1,2,3;
 4/5=5,16=3,69=1/1;
 5/5=2,38=5,53=1/2;
 7//1,2,3,16;
 1/18=20,19=15,26=3/3(-5);
 2/9=110/2;
 6/7=2,8=2,9=2,10=2,19=2,28=1/1;
 99/9=1/99;
 -------------------------------
 4c1_b1_4e_4c1_PHI.inp_extract_7
 -------------------------------
 Symbolic Z-matrix:
 Charge =  0 Multiplicity = 1
 C                    -3.45606   0.02417   0.98218 
 C                     2.3319   -1.25937  -0.11845 
 C                     2.63085   1.57748   0.12456 
 O                     3.4785   -0.57605  -0.57373 
 O                    -1.42499   0.02404  -1.02833 
 C                    -2.77009   0.27846  -1.40828 
 O                     0.03703  -1.16057   0.29184 
 C                    -3.55222   0.90394  -0.26491 
 C                     1.32204   0.91952   0.57253 
 C                    -1.31253  -0.86108   0.05015 
 C                     3.77821   0.58291   0.18342 
 C                     1.09874  -0.36878  -0.21355 
 C                    -1.99014  -0.29478   1.28771 
 H                    -3.91806   0.51338   1.83369 
 H                    -4.00152  -0.9023    0.81358 
 H                     2.47983  -1.58214   0.90946 
 H                     2.21709  -2.13404  -0.74354 
 H                     2.53208   1.94539  -0.89375 
 H                     2.86057   2.43028   0.75633 
 H                    -3.22931  -0.6558   -1.72169 
 H                    -2.71601   0.93598  -2.26428 
 H                    -3.14744   1.89095  -0.05485 
 H                    -4.58621   1.03336  -0.57168 
 H                     1.37676   0.67662   1.63145 
 H                     0.49083   1.60162   0.43589 
 H                    -1.77897  -1.80188  -0.22516 
 H                     4.68355   0.99637  -0.23943 
 H                     3.98122   0.29125   1.21149 
 H                     0.92265  -0.13974  -1.25517 
 H                    -1.46607   0.60516   1.59455 
 H                    -1.90953  -1.01863   2.09268 
 
 The following ModRedundant input section has been read:
 D      12       7      10       5 F                                           
 

 GradGradGradGradGradGradGradGradGradGradGradGradGradGradGradGradGradGrad
 Berny optimization.
 Initialization pass.
                           ----------------------------
                           !    Initial Parameters    !
                           ! (Angstroms and Degrees)  !
 --------------------------                            --------------------------
 ! Name  Definition              Value          Derivative Info.                !
 --------------------------------------------------------------------------------
 ! R1    R(1,8)                  1.5292         estimate D2E/DX2                !
 ! R2    R(1,13)                 1.531          estimate D2E/DX2                !
 ! R3    R(1,14)                 1.0853         estimate D2E/DX2                !
 ! R4    R(1,15)                 1.0883         estimate D2E/DX2                !
 ! R5    R(2,4)                  1.4103         estimate D2E/DX2                !
 ! R6    R(2,12)                 1.5241         estimate D2E/DX2                !
 ! R7    R(2,16)                 1.0875         estimate D2E/DX2                !
 ! R8    R(2,17)                 1.0812         estimate D2E/DX2                !
 ! R9    R(3,9)                  1.5319         estimate D2E/DX2                !
 ! R10   R(3,11)                 1.5196         estimate D2E/DX2                !
 ! R11   R(3,18)                 1.0872         estimate D2E/DX2                !
 ! R12   R(3,19)                 1.0859         estimate D2E/DX2                !
 ! R13   R(4,11)                 1.4164         estimate D2E/DX2                !
 ! R14   R(5,6)                  1.4207         estimate D2E/DX2                !
 ! R15   R(5,10)                 1.3997         estimate D2E/DX2                !
 ! R16   R(6,8)                  1.5199         estimate D2E/DX2                !
 ! R17   R(6,20)                 1.0872         estimate D2E/DX2                !
 ! R18   R(6,21)                 1.0807         estimate D2E/DX2                !
 ! R19   R(7,10)                 1.4034         estimate D2E/DX2                !
 ! R20   R(7,12)                 1.4176         estimate D2E/DX2                !
 ! R21   R(8,22)                 1.0873         estimate D2E/DX2                !
 ! R22   R(8,23)                 1.0863         estimate D2E/DX2                !
 ! R23   R(9,12)                 1.5256         estimate D2E/DX2                !
 ! R24   R(9,24)                 1.0878         estimate D2E/DX2                !
 ! R25   R(9,25)                 1.0839         estimate D2E/DX2                !
 ! R26   R(10,13)                1.5203         estimate D2E/DX2                !
 ! R27   R(10,26)                1.0856         estimate D2E/DX2                !
 ! R28   R(11,27)                1.0814         estimate D2E/DX2                !
 ! R29   R(11,28)                1.0878         estimate D2E/DX2                !
 ! R30   R(12,29)                1.081          estimate D2E/DX2                !
 ! R31   R(13,30)                1.0857         estimate D2E/DX2                !
 ! R32   R(13,31)                1.0856         estimate D2E/DX2                !
 ! A1    A(8,1,13)             110.0478         estimate D2E/DX2                !
 ! A2    A(8,1,14)             110.7169         estimate D2E/DX2                !
 ! A3    A(8,1,15)             109.3852         estimate D2E/DX2                !
 ! A4    A(13,1,14)            110.1772         estimate D2E/DX2                !
 ! A5    A(13,1,15)            109.48           estimate D2E/DX2                !
 ! A6    A(14,1,15)            106.9745         estimate D2E/DX2                !
 ! A7    A(4,2,12)             110.7663         estimate D2E/DX2                !
 ! A8    A(4,2,16)             109.7763         estimate D2E/DX2                !
 ! A9    A(4,2,17)             106.9578         estimate D2E/DX2                !
 ! A10   A(12,2,16)            110.0271         estimate D2E/DX2                !
 ! A11   A(12,2,17)            110.5323         estimate D2E/DX2                !
 ! A12   A(16,2,17)            108.7118         estimate D2E/DX2                !
 ! A13   A(9,3,11)             110.6508         estimate D2E/DX2                !
 ! A14   A(9,3,18)             109.9761         estimate D2E/DX2                !
 ! A15   A(9,3,19)             110.36           estimate D2E/DX2                !
 ! A16   A(11,3,18)            109.0482         estimate D2E/DX2                !
 ! A17   A(11,3,19)            109.3751         estimate D2E/DX2                !
 ! A18   A(18,3,19)            107.36           estimate D2E/DX2                !
 ! A19   A(2,4,11)             113.3231         estimate D2E/DX2                !
 ! A20   A(6,5,10)             113.2891         estimate D2E/DX2                !
 ! A21   A(5,6,8)              111.0822         estimate D2E/DX2                !
 ! A22   A(5,6,20)             108.8519         estimate D2E/DX2                !
 ! A23   A(5,6,21)             105.8664         estimate D2E/DX2                !
 ! A24   A(8,6,20)             110.6794         estimate D2E/DX2                !
 ! A25   A(8,6,21)             111.7899         estimate D2E/DX2                !
 ! A26   A(20,6,21)            108.3988         estimate D2E/DX2                !
 ! A27   A(10,7,12)            122.6595         estimate D2E/DX2                !
 ! A28   A(1,8,6)              110.143          estimate D2E/DX2                !
 ! A29   A(1,8,22)             109.9561         estimate D2E/DX2                !
 ! A30   A(1,8,23)             111.0206         estimate D2E/DX2                !
 ! A31   A(6,8,22)             109.1065         estimate D2E/DX2                !
 ! A32   A(6,8,23)             109.0502         estimate D2E/DX2                !
 ! A33   A(22,8,23)            107.5037         estimate D2E/DX2                !
 ! A34   A(3,9,12)             109.6989         estimate D2E/DX2                !
 ! A35   A(3,9,24)             109.7311         estimate D2E/DX2                !
 ! A36   A(3,9,25)             110.368          estimate D2E/DX2                !
 ! A37   A(12,9,24)            108.6853         estimate D2E/DX2                !
 ! A38   A(12,9,25)            110.7452         estimate D2E/DX2                !
 ! A39   A(24,9,25)            107.567          estimate D2E/DX2                !
 ! A40   A(5,10,7)             110.1763         estimate D2E/DX2                !
 ! A41   A(5,10,13)            110.8445         estimate D2E/DX2                !
 ! A42   A(5,10,26)            108.5483         estimate D2E/DX2                !
 ! A43   A(7,10,13)            111.5872         estimate D2E/DX2                !
 ! A44   A(7,10,26)            105.7791         estimate D2E/DX2                !
 ! A45   A(13,10,26)           109.7396         estimate D2E/DX2                !
 ! A46   A(3,11,4)             110.7973         estimate D2E/DX2                !
 ! A47   A(3,11,27)            111.5148         estimate D2E/DX2                !
 ! A48   A(3,11,28)            110.6727         estimate D2E/DX2                !
 ! A49   A(4,11,27)            106.3181         estimate D2E/DX2                !
 ! A50   A(4,11,28)            108.9846         estimate D2E/DX2                !
 ! A51   A(27,11,28)           108.4113         estimate D2E/DX2                !
 ! A52   A(2,12,7)             104.9135         estimate D2E/DX2                !
 ! A53   A(2,12,9)             110.0517         estimate D2E/DX2                !
 ! A54   A(2,12,29)            108.4056         estimate D2E/DX2                !
 ! A55   A(7,12,9)             113.4278         estimate D2E/DX2                !
 ! A56   A(7,12,29)            109.8698         estimate D2E/DX2                !
 ! A57   A(9,12,29)            109.9635         estimate D2E/DX2                !
 ! A58   A(1,13,10)            109.9929         estimate D2E/DX2                !
 ! A59   A(1,13,30)            110.2371         estimate D2E/DX2                !
 ! A60   A(1,13,31)            110.9769         estimate D2E/DX2                !
 ! A61   A(10,13,30)           108.8852         estimate D2E/DX2                !
 ! A62   A(10,13,31)           108.7923         estimate D2E/DX2                !
 ! A63   A(30,13,31)           107.897          estimate D2E/DX2                !
 ! D1    D(13,1,8,6)            51.7215         estimate D2E/DX2                !
 ! D2    D(13,1,8,22)          -68.5507         estimate D2E/DX2                !
 ! D3    D(13,1,8,23)          172.612          estimate D2E/DX2                !
 ! D4    D(14,1,8,6)           173.7653         estimate D2E/DX2                !
 ! D5    D(14,1,8,22)           53.4932         estimate D2E/DX2                !
 ! D6    D(14,1,8,23)          -65.3442         estimate D2E/DX2                !
 ! D7    D(15,1,8,6)           -68.5915         estimate D2E/DX2                !
 ! D8    D(15,1,8,22)          171.1364         estimate D2E/DX2                !
 ! D9    D(15,1,8,23)           52.299          estimate D2E/DX2                !
 ! D10   D(8,1,13,10)          -52.3929         estimate D2E/DX2                !
 ! D11   D(8,1,13,30)           67.6881         estimate D2E/DX2                !
 ! D12   D(8,1,13,31)         -172.8319         estimate D2E/DX2                !
 ! D13   D(14,1,13,10)        -174.7562         estimate D2E/DX2                !
 ! D14   D(14,1,13,30)         -54.6753         estimate D2E/DX2                !
 ! D15   D(14,1,13,31)          64.8047         estimate D2E/DX2                !
 ! D16   D(15,1,13,10)          67.8628         estimate D2E/DX2                !
 ! D17   D(15,1,13,30)        -172.0563         estimate D2E/DX2                !
 ! D18   D(15,1,13,31)         -52.5763         estimate D2E/DX2                !
 ! D19   D(12,2,4,11)           61.1777         estimate D2E/DX2                !
 ! D20   D(16,2,4,11)          -60.5279         estimate D2E/DX2                !
 ! D21   D(17,2,4,11)         -178.3062         estimate D2E/DX2                !
 ! D22   D(4,2,12,7)          -178.9684         estimate D2E/DX2                !
 ! D23   D(4,2,12,9)           -56.6101         estimate D2E/DX2                !
 ! D24   D(4,2,12,29)           63.6883         estimate D2E/DX2                !
 ! D25   D(16,2,12,7)          -57.4102         estimate D2E/DX2                !
 ! D26   D(16,2,12,9)           64.9481         estimate D2E/DX2                !
 ! D27   D(16,2,12,29)        -174.7535         estimate D2E/DX2                !
 ! D28   D(17,2,12,7)           62.665          estimate D2E/DX2                !
 ! D29   D(17,2,12,9)         -174.9767         estimate D2E/DX2                !
 ! D30   D(17,2,12,29)         -54.6782         estimate D2E/DX2                !
 ! D31   D(11,3,9,12)          -52.1061         estimate D2E/DX2                !
 ! D32   D(11,3,9,24)           67.2294         estimate D2E/DX2                !
 ! D33   D(11,3,9,25)         -174.3989         estimate D2E/DX2                !
 ! D34   D(18,3,9,12)           68.4311         estimate D2E/DX2                !
 ! D35   D(18,3,9,24)         -172.2334         estimate D2E/DX2                !
 ! D36   D(18,3,9,25)          -53.8617         estimate D2E/DX2                !
 ! D37   D(19,3,9,12)         -173.3056         estimate D2E/DX2                !
 ! D38   D(19,3,9,24)          -53.97           estimate D2E/DX2                !
 ! D39   D(19,3,9,25)           64.4016         estimate D2E/DX2                !
 ! D40   D(9,3,11,4)            55.0505         estimate D2E/DX2                !
 ! D41   D(9,3,11,27)          173.2661         estimate D2E/DX2                !
 ! D42   D(9,3,11,28)          -65.9635         estimate D2E/DX2                !
 ! D43   D(18,3,11,4)          -66.038          estimate D2E/DX2                !
 ! D44   D(18,3,11,27)          52.1775         estimate D2E/DX2                !
 ! D45   D(18,3,11,28)         172.948          estimate D2E/DX2                !
 ! D46   D(19,3,11,4)          176.831          estimate D2E/DX2                !
 ! D47   D(19,3,11,27)         -64.9535         estimate D2E/DX2                !
 ! D48   D(19,3,11,28)          55.8169         estimate D2E/DX2                !
 ! D49   D(2,4,11,3)           -60.3385         estimate D2E/DX2                !
 ! D50   D(2,4,11,27)          178.3315         estimate D2E/DX2                !
 ! D51   D(2,4,11,28)           61.6685         estimate D2E/DX2                !
 ! D52   D(10,5,6,8)            60.6362         estimate D2E/DX2                !
 ! D53   D(10,5,6,20)          -61.4742         estimate D2E/DX2                !
 ! D54   D(10,5,6,21)         -177.8192         estimate D2E/DX2                !
 ! D55   D(6,5,10,7)           174.6487         estimate D2E/DX2                !
 ! D56   D(6,5,10,13)          -61.3417         estimate D2E/DX2                !
 ! D57   D(6,5,10,26)           59.2526         estimate D2E/DX2                !
 ! D58   D(5,6,8,1)            -54.8339         estimate D2E/DX2                !
 ! D59   D(5,6,8,22)            65.9494         estimate D2E/DX2                !
 ! D60   D(5,6,8,23)          -176.8981         estimate D2E/DX2                !
 ! D61   D(20,6,8,1)            66.2081         estimate D2E/DX2                !
 ! D62   D(20,6,8,22)         -173.0087         estimate D2E/DX2                !
 ! D63   D(20,6,8,23)          -55.8561         estimate D2E/DX2                !
 ! D64   D(21,6,8,1)          -172.8466         estimate D2E/DX2                !
 ! D65   D(21,6,8,22)          -52.0634         estimate D2E/DX2                !
 ! D66   D(21,6,8,23)           65.0892         estimate D2E/DX2                !
 ! D67   D(12,7,10,5)           17.4545         Frozen                          !
 ! D68   D(12,7,10,13)        -106.1243         estimate D2E/DX2                !
 ! D69   D(12,7,10,26)         134.5842         estimate D2E/DX2                !
 ! D70   D(10,7,12,2)         -162.2149         estimate D2E/DX2                !
 ! D71   D(10,7,12,9)           77.6458         estimate D2E/DX2                !
 ! D72   D(10,7,12,29)         -45.8757         estimate D2E/DX2                !
 ! D73   D(3,9,12,2)            52.5612         estimate D2E/DX2                !
 ! D74   D(3,9,12,7)           169.738          estimate D2E/DX2                !
 ! D75   D(3,9,12,29)          -66.7917         estimate D2E/DX2                !
 ! D76   D(24,9,12,2)          -67.4142         estimate D2E/DX2                !
 ! D77   D(24,9,12,7)           49.7626         estimate D2E/DX2                !
 ! D78   D(24,9,12,29)         173.2328         estimate D2E/DX2                !
 ! D79   D(25,9,12,2)          174.6292         estimate D2E/DX2                !
 ! D80   D(25,9,12,7)          -68.194          estimate D2E/DX2                !
 ! D81   D(25,9,12,29)          55.2762         estimate D2E/DX2                !
 ! D82   D(5,10,13,1)           56.5501         estimate D2E/DX2                !
 ! D83   D(5,10,13,30)         -64.3467         estimate D2E/DX2                !
 ! D84   D(5,10,13,31)         178.2994         estimate D2E/DX2                !
 ! D85   D(7,10,13,1)          179.7496         estimate D2E/DX2                !
 ! D86   D(7,10,13,30)          58.8528         estimate D2E/DX2                !
 ! D87   D(7,10,13,31)         -58.5011         estimate D2E/DX2                !
 ! D88   D(26,10,13,1)         -63.3348         estimate D2E/DX2                !
 ! D89   D(26,10,13,30)        175.7684         estimate D2E/DX2                !
 ! D90   D(26,10,13,31)         58.4145         estimate D2E/DX2                !
 --------------------------------------------------------------------------------
 Trust Radius=3.00D-01 FncErr=1.00D-07 GrdErr=1.00D-06 EigMax=2.50D+02 EigMin=1.00D-04
 Number of steps in this run=    186 maximum allowed number of steps=    186.
 GradGradGradGradGradGradGradGradGradGradGradGradGradGradGradGradGradGrad

                          Input orientation:                          
 ---------------------------------------------------------------------
 Center     Atomic      Atomic             Coordinates (Angstroms)
 Number     Number       Type             X           Y           Z
 ---------------------------------------------------------------------
      1          6           0       -3.456061    0.024169    0.982182
      2          6           0        2.331897   -1.259373   -0.118453
      3          6           0        2.630851    1.577478    0.124556
      4          8           0        3.478504   -0.576048   -0.573733
      5          8           0       -1.424985    0.024044   -1.028327
      6          6           0       -2.770092    0.278462   -1.408277
      7          8           0        0.037028   -1.160571    0.291835
      8          6           0       -3.552217    0.903936   -0.264905
      9          6           0        1.322039    0.919524    0.572534
     10          6           0       -1.312527   -0.861084    0.050148
     11          6           0        3.778210    0.582910    0.183419
     12          6           0        1.098737   -0.368782   -0.213546
     13          6           0       -1.990142   -0.294779    1.287713
     14          1           0       -3.918055    0.513378    1.833687
     15          1           0       -4.001519   -0.902296    0.813579
     16          1           0        2.479828   -1.582143    0.909464
     17          1           0        2.217090   -2.134038   -0.743540
     18          1           0        2.532077    1.945393   -0.893747
     19          1           0        2.860566    2.430283    0.756329
     20          1           0       -3.229307   -0.655800   -1.721692
     21          1           0       -2.716008    0.935983   -2.264277
     22          1           0       -3.147442    1.890951   -0.054852
     23          1           0       -4.586208    1.033359   -0.571676
     24          1           0        1.376763    0.676619    1.631445
     25          1           0        0.490833    1.601624    0.435893
     26          1           0       -1.778967   -1.801884   -0.225164
     27          1           0        4.683546    0.996373   -0.239425
     28          1           0        3.981223    0.291245    1.211488
     29          1           0        0.922651   -0.139739   -1.255173
     30          1           0       -1.466074    0.605157    1.594549
     31          1           0       -1.909532   -1.018630    2.092685
 ---------------------------------------------------------------------
                    Distance matrix (angstroms):
                    1          2          3          4          5
     1  C    0.000000
     2  C    6.029870   0.000000
     3  C    6.340251   2.862892   0.000000
     4  O    7.132273   1.410291   2.417395   0.000000
     5  O    2.857869   4.072983   4.493562   4.960945   0.000000
     6  C    2.499903   5.482597   5.762569   6.361730   1.420705
     7  O    3.752580   2.333350   3.775290   3.596475   2.298613
     8  C    1.529203   6.270897   6.231827   7.191437   2.425312
     9  C    4.878495   2.498973   1.531854   2.863740   3.303147
    10  C    2.499420   3.669998   4.637063   4.839881   1.399717
    11  C    7.299650   2.361558   1.519560   1.416434   5.371582
    12  C    4.725501   1.524099   2.499923   2.415778   2.680924
    13  C    1.531011   4.646264   5.119752   5.783613   2.405222
    14  H    1.085276   6.783465   6.851395   7.854400   3.827005
    15  H    1.088250   6.411579   7.114237   7.614579   3.299887
    16  H    6.149821   1.087510   3.259155   2.051695   4.645690
    17  H    6.310358   1.081181   3.834076   2.011798   4.243010
    18  H    6.562622   3.303283   1.087225   2.712157   4.400913
    19  H    6.763148   3.828615   1.085902   3.344987   5.228856
    20  H    2.797268   5.819078   6.537401   6.805799   2.049029
    21  H    3.452330   5.908087   5.891260   6.596678   2.006476
    22  H    2.157675   6.320739   5.789570   7.089322   2.720267
    23  H    2.170293   7.302206   7.270952   8.223732   3.349713
    24  H    4.919697   2.778937   2.157544   3.293828   3.917912
    25  H    4.285413   3.447045   2.162681   3.832464   2.881503
    26  H    2.757680   4.147880   5.566766   5.409730   2.025929
    27  H    8.287986   3.260871   2.164191   2.009078   6.235539
    28  H    7.445610   2.625535   2.158546   2.047422   5.857922
    29  H    4.919933   2.128776   2.787550   2.680879   2.364250
    30  H    2.161617   4.564585   4.459942   5.526802   2.686793
    31  H    2.170806   4.789239   5.588236   6.027984   3.326059
                    6          7          8          9         10
     6  C    0.000000
     7  O    3.583451   0.000000
     8  C    1.519946   4.177898   0.000000
     9  C    4.591308   2.461065   4.945697   0.000000
    10  C    2.355857   1.403354   2.868931   3.222482   0.000000
    11  C    6.745846   4.128913   7.351137   2.509481   5.293249
    12  C    4.100505   1.417592   4.822222   1.525620   2.475094
    13  C    2.864488   2.418840   2.507512   3.599522   1.520339
    14  H    3.447221   4.563123   2.165747   5.405002   3.443680
    15  H    2.801294   4.080292   2.151156   5.631820   2.795569
    16  H    6.032863   2.554694   6.629125   2.777109   3.954783
    17  H    5.579786   2.602366   6.537835   3.443459   3.835173
    18  H    5.581791   4.156668   6.204733   2.160227   4.852652
    19  H    6.404698   4.591552   6.670565   2.164079   5.361576
    20  H    1.087177   3.870146   2.158536   5.334779   2.618321
    21  H    1.080738   4.302145   2.167432   4.934936   3.248965
    22  H    2.138755   4.424119   1.087274   4.616659   3.309325
    23  H    2.137299   5.189729   1.086276   6.019099   3.833088
    24  H    5.157019   2.639074   5.286082   1.087791   3.478119
    25  H    3.973078   2.802929   4.162228   1.083898   3.076660
    26  H    2.590352   1.994093   3.235345   4.202216   1.085572
    27  H    7.578808   5.150221   8.236321   3.459033   6.283860
    28  H    7.241794   4.302349   7.701159   2.806111   5.540791
    29  H    3.719500   2.054181   4.700461   2.149898   2.687047
    30  H    3.290009   2.659732   2.810486   2.986120   2.135091
    31  H    3.831416   2.655617   3.457297   4.063293   2.133821
                   11         12         13         14         15
    11  C    0.000000
    12  C    2.871041   0.000000
    13  C    5.938324   3.435175   0.000000
    14  H    7.871513   5.489770   2.160568   0.000000
    15  H    7.945258   5.229936   2.153954   1.746917   0.000000
    16  H    2.626860   2.154254   4.667013   6.795462   6.517610
    17  H    3.267745   2.155861   5.020923   7.161768   6.527856
    18  H    2.137637   2.805805   5.497964   7.147990   7.328859
    19  H    2.140814   3.446660   5.589070   7.126354   7.628733
    20  H    7.366759   4.592260   3.274505   3.805532   2.661704
    21  H    6.949154   4.523294   3.828615   4.291482   3.808544
    22  H    7.052120   4.812651   2.814114   2.461327   3.047269
    23  H    8.410503   5.866247   3.458444   2.550016   2.451031
    24  H    2.805799   2.138727   3.521053   5.301193   5.664609
    25  H    3.450850   2.161901   3.236847   4.751463   5.156887
    26  H    6.061056   3.214825   2.145870   3.764971   2.613041
    27  H    1.081380   3.836036   6.966874   8.861073   8.952325
    28  H    1.087754   3.282542   6.000536   7.926857   8.081277
    29  H    3.278107   1.080950   3.869712   5.779278   5.395246
    30  H    5.430865   3.285730   1.085670   2.465324   3.051362
    31  H    6.209721   3.845866   1.085559   2.539349   2.454803
                   16         17         18         19         20
    16  H    0.000000
    17  H    1.762397   0.000000
    18  H    3.962046   4.094330   0.000000
    19  H    4.033358   4.847339   1.750935   0.000000
    20  H    6.354157   5.727583   6.375362   7.262992   0.000000
    21  H    6.588649   6.006091   5.517215   6.515763   1.758308
    22  H    6.682698   6.741886   5.741397   6.086465   3.044831
    23  H    7.678769   7.506451   7.183698   7.692167   2.452952
    24  H    2.615342   3.774453   3.053053   2.458218   5.851047
    25  H    3.783747   4.280911   2.460243   2.530808   4.857013
    26  H    4.412822   4.043206   5.751016   6.356086   2.378359
    27  H    3.581210   4.017090   2.440819   2.524060   8.218274
    28  H    2.419708   3.579986   3.044379   2.457341   7.841695
    29  H    3.031663   2.431989   2.658694   3.795612   4.209835
    30  H    4.563306   5.151266   4.896229   4.770064   3.961876
    31  H    4.580834   5.130041   6.118178   6.036115   4.052521
                   21         22         23         24         25
    21  H    0.000000
    22  H    2.445334   0.000000
    23  H    2.524288   1.752889   0.000000
    24  H    5.656385   4.978617   6.366948   0.000000
    25  H    4.244741   3.682606   5.207155   1.752099   0.000000
    26  H    3.540048   3.941923   4.004906   4.421381   4.144014
    27  H    7.671836   7.884080   9.275780   3.812769   4.289665
    28  H    7.572947   7.414886   8.782442   2.666100   3.808079
    29  H    3.926233   4.704267   5.673698   3.034011   2.465465
    30  H    4.069683   2.683428   3.822450   2.843974   2.482925
    31  H    4.842936   3.822303   4.298148   3.726439   3.920771
                   26         27         28         29         30
    26  H    0.000000
    27  H    7.042338   0.000000
    28  H    6.294835   1.759435   0.000000
    29  H    3.335024   4.057934   3.952850   0.000000
    30  H    3.033662   6.429179   5.469764   3.792333   0.000000
    31  H    2.450093   7.277888   6.098629   4.472344   1.755414
                   31
    31  H    0.000000
 Stoichiometry    C10H18O3
 Framework group  C1[X(C10H18O3)]
 Deg. of freedom    87
 Full point group                 C1      NOp   1
 Largest Abelian subgroup         C1      NOp   1
 Largest concise Abelian subgroup C1      NOp   1
                         Standard orientation:                         
 ---------------------------------------------------------------------
 Center     Atomic      Atomic             Coordinates (Angstroms)
 Number     Number       Type             X           Y           Z
 ---------------------------------------------------------------------
      1          6           0       -3.456061    0.024169    0.982182
      2          6           0        2.331897   -1.259373   -0.118453
      3          6           0        2.630851    1.577478    0.124556
      4          8           0        3.478504   -0.576048   -0.573733
      5          8           0       -1.424985    0.024044   -1.028327
      6          6           0       -2.770092    0.278462   -1.408277
      7          8           0        0.037028   -1.160571    0.291835
      8          6           0       -3.552217    0.903936   -0.264905
      9          6           0        1.322039    0.919524    0.572534
     10          6           0       -1.312527   -0.861084    0.050148
     11          6           0        3.778210    0.582910    0.183419
     12          6           0        1.098737   -0.368782   -0.213546
     13          6           0       -1.990142   -0.294779    1.287713
     14          1           0       -3.918055    0.513378    1.833687
     15          1           0       -4.001519   -0.902296    0.813579
     16          1           0        2.479828   -1.582143    0.909464
     17          1           0        2.217090   -2.134038   -0.743540
     18          1           0        2.532077    1.945393   -0.893747
     19          1           0        2.860566    2.430283    0.756329
     20          1           0       -3.229307   -0.655800   -1.721692
     21          1           0       -2.716008    0.935983   -2.264277
     22          1           0       -3.147442    1.890951   -0.054852
     23          1           0       -4.586208    1.033359   -0.571676
     24          1           0        1.376763    0.676619    1.631445
     25          1           0        0.490833    1.601624    0.435893
     26          1           0       -1.778967   -1.801884   -0.225164
     27          1           0        4.683546    0.996373   -0.239425
     28          1           0        3.981223    0.291245    1.211488
     29          1           0        0.922651   -0.139739   -1.255173
     30          1           0       -1.466074    0.605157    1.594549
     31          1           0       -1.909532   -1.018630    2.092685
 ---------------------------------------------------------------------
 Rotational constants (GHZ):           1.9576940           0.3869822           0.3777952
 Standard basis: 6-311++G(2d,2p) (5D, 7F)
 There are   557 symmetry adapted cartesian basis functions of A   symmetry.
 There are   531 symmetry adapted basis functions of A   symmetry.
   531 basis functions,   762 primitive gaussians,   557 cartesian basis functions
    51 alpha electrons       51 beta electrons
       nuclear repulsion energy       888.6815074019 Hartrees.
 NAtoms=   31 NActive=   31 NUniq=   31 SFac= 1.00D+00 NAtFMM=   60 NAOKFM=F Big=F
 Integral buffers will be    131072 words long.
 Raffenetti 2 integral format.
 Two-electron integral symmetry is turned on.
 ------------------------------------------------------------------------------
 Polarizable Continuum Model (PCM)
 =================================
 Model                : PCM.
 Atomic radii         : SMD-Coulomb.
 Polarization charges : Total charges.
 Charge compensation  : None.
 Solution method      : On-the-fly selection.
 Cavity type          : VdW (van der Waals Surface) (Alpha=1.000).
 Cavity algorithm     : GePol (No added spheres)
                        Default sphere list used, NSphG=   31.
                        Lebedev-Laikov grids with approx.  5.0 points / Ang**2.
                        Smoothing algorithm: York/Karplus (Gamma=1.0000).
                        Polarization charges: spherical gaussians, with
                                              point-specific exponents (IZeta= 3).
                        Self-potential: point-specific (ISelfS= 7).
                        Self-field    : sphere-specific E.n sum rule (ISelfD= 2).
 1st derivatives      : Analytical E(r).r(x)/FMM algorithm (CHGder, D1EAlg=3).
                        Cavity 1st derivative terms included.
 Solvent              : Water, Eps=  78.355300 Eps(inf)=   1.777849
 ------------------------------------------------------------------------------
 ------------------------------------------------------------------------------
 Atomic radii for non-electrostatic terms: SMD-CDS.
 ------------------------------------------------------------------------------
 Nuclear repulsion after PCM non-electrostatic terms =      888.6879190978 Hartrees.
 One-electron integrals computed using PRISM.
 NBasis=   531 RedAO= T EigKep=  4.78D-06  NBF=   531
 NBsUse=   531 1.00D-06 EigRej= -1.00D+00 NBFU=   531
 ExpMin= 3.60D-02 ExpMax= 8.59D+03 ExpMxC= 1.30D+03 IAcc=3 IRadAn=         5 AccDes= 0.00D+00
 Harris functional with IExCor= 1009 and IRadAn=       5 diagonalized for initial guess.
 HarFok:  IExCor= 1009 AccDes= 0.00D+00 IRadAn=         5 IDoV= 1 UseB2=F ITyADJ=14
 ICtDFT=  3500011 ScaDFX=  1.000000  1.000000  1.000000  1.000000
 FoFCou: FMM=F IPFlag=           0 FMFlag=      100000 FMFlg1=           0
         NFxFlg=           0 DoJE=T BraDBF=F KetDBF=T FulRan=T
         wScrn=  0.000000 ICntrl=       500 IOpCl=  0 I1Cent=   200000004 NGrid=           0
         NMat0=    1 NMatS0=      1 NMatT0=    0 NMatD0=    1 NMtDS0=    0 NMtDT0=    0
 Petite list used in FoFCou.
 Requested convergence on RMS density matrix=1.00D-08 within 128 cycles.
 Requested convergence on MAX density matrix=1.00D-06.
 Requested convergence on             energy=1.00D-06.
 No special actions if energy rises.
 Inv3:  Mode=1 IEnd=    12072108.
 Iteration    1 A*A^-1 deviation from unit magnitude is 5.11D-15 for    230.
 Iteration    1 A*A^-1 deviation from orthogonality  is 2.77D-15 for    224    210.
 Iteration    1 A^-1*A deviation from unit magnitude is 4.22D-15 for    254.
 Iteration    1 A^-1*A deviation from orthogonality  is 8.44D-15 for   1433   1398.
 Error on total polarization charges =  0.06220
 SCF Done:  E(RM062X) =  -617.497994263     A.U. after   12 cycles
            NFock= 12  Conv=0.55D-08     -V/T= 2.0035
 SMD-CDS (non-electrostatic) energy       (kcal/mol) =       4.02
 (included in total energy above)

 **********************************************************************

            Population analysis using the SCF Density.

 **********************************************************************

 Orbital symmetries:
       Occupied  (A) (A) (A) (A) (A) (A) (A) (A) (A) (A) (A) (A)
                 (A) (A) (A) (A) (A) (A) (A) (A) (A) (A) (A) (A)
                 (A) (A) (A) (A) (A) (A) (A) (A) (A) (A) (A) (A)
                 (A) (A) (A) (A) (A) (A) (A) (A) (A) (A) (A) (A)
                 (A) (A) (A)
       Virtual   (A) (A) (A) (A) (A) (A) (A) (A) (A) (A) (A) (A)
                 (A) (A) (A) (A) (A) (A) (A) (A) (A) (A) (A) (A)
                 (A) (A) (A) (A) (A) (A) (A) (A) (A) (A) (A) (A)
                 (A) (A) (A) (A) (A) (A) (A) (A) (A) (A) (A) (A)
                 (A) (A) (A) (A) (A) (A) (A) (A) (A) (A) (A) (A)
                 (A) (A) (A) (A) (A) (A) (A) (A) (A) (A) (A) (A)
                 (A) (A) (A) (A) (A) (A) (A) (A) (A) (A) (A) (A)
                 (A) (A) (A) (A) (A) (A) (A) (A) (A) (A) (A) (A)
                 (A) (A) (A) (A) (A) (A) (A) (A) (A) (A) (A) (A)
                 (A) (A) (A) (A) (A) (A) (A) (A) (A) (A) (A) (A)
                 (A) (A) (A) (A) (A) (A) (A) (A) (A) (A) (A) (A)
                 (A) (A) (A) (A) (A) (A) (A) (A) (A) (A) (A) (A)
                 (A) (A) (A) (A) (A) (A) (A) (A) (A) (A) (A) (A)
                 (A) (A) (A) (A) (A) (A) (A) (A) (A) (A) (A) (A)
                 (A) (A) (A) (A) (A) (A) (A) (A) (A) (A) (A) (A)
                 (A) (A) (A) (A) (A) (A) (A) (A) (A) (A) (A) (A)
                 (A) (A) (A) (A) (A) (A) (A) (A) (A) (A) (A) (A)
                 (A) (A) (A) (A) (A) (A) (A) (A) (A) (A) (A) (A)
                 (A) (A) (A) (A) (A) (A) (A) (A) (A) (A) (A) (A)
                 (A) (A) (A) (A) (A) (A) (A) (A) (A) (A) (A) (A)
                 (A) (A) (A) (A) (A) (A) (A) (A) (A) (A) (A) (A)
                 (A) (A) (A) (A) (A) (A) (A) (A) (A) (A) (A) (A)
                 (A) (A) (A) (A) (A) (A) (A) (A) (A) (A) (A) (A)
                 (A) (A) (A) (A) (A) (A) (A) (A) (A) (A) (A) (A)
                 (A) (A) (A) (A) (A) (A) (A) (A) (A) (A) (A) (A)
                 (A) (A) (A) (A) (A) (A) (A) (A) (A) (A) (A) (A)
                 (A) (A) (A) (A) (A) (A) (A) (A) (A) (A) (A) (A)
                 (A) (A) (A) (A) (A) (A) (A) (A) (A) (A) (A) (A)
                 (A) (A) (A) (A) (A) (A) (A) (A) (A) (A) (A) (A)
                 (A) (A) (A) (A) (A) (A) (A) (A) (A) (A) (A) (A)
                 (A) (A) (A) (A) (A) (A) (A) (A) (A) (A) (A) (A)
                 (A) (A) (A) (A) (A) (A) (A) (A) (A) (A) (A) (A)
                 (A) (A) (A) (A) (A) (A) (A) (A) (A) (A) (A) (A)
                 (A) (A) (A) (A) (A) (A) (A) (A) (A) (A) (A) (A)
                 (A) (A) (A) (A) (A) (A) (A) (A) (A) (A) (A) (A)
                 (A) (A) (A) (A) (A) (A) (A) (A) (A) (A) (A) (A)
                 (A) (A) (A) (A) (A) (A) (A) (A) (A) (A) (A) (A)
                 (A) (A) (A) (A) (A) (A) (A) (A) (A) (A) (A) (A)
                 (A) (A) (A) (A) (A) (A) (A) (A) (A) (A) (A) (A)
                 (A) (A) (A) (A) (A) (A) (A) (A) (A) (A) (A) (A)
 The electronic state is 1-A.
 Alpha  occ. eigenvalues --  -19.63202 -19.62936 -19.62894 -10.63299 -10.58188
 Alpha  occ. eigenvalues --  -10.57522 -10.57305 -10.57165 -10.52393 -10.52341
 Alpha  occ. eigenvalues --  -10.52198 -10.52165 -10.52017  -1.20279  -1.16726
 Alpha  occ. eigenvalues --   -1.13874  -0.90316  -0.89346  -0.87196  -0.83850
 Alpha  occ. eigenvalues --   -0.75031  -0.73537  -0.72898  -0.69364  -0.65303
 Alpha  occ. eigenvalues --   -0.64886  -0.60131  -0.58282  -0.56722  -0.55072
 Alpha  occ. eigenvalues --   -0.54231  -0.52474  -0.52105  -0.50727  -0.50327
 Alpha  occ. eigenvalues --   -0.47973  -0.46427  -0.45819  -0.45554  -0.44840
 Alpha  occ. eigenvalues --   -0.42661  -0.40896  -0.40467  -0.39860  -0.39097
 Alpha  occ. eigenvalues --   -0.38956  -0.37180  -0.36810  -0.35242  -0.32548
 Alpha  occ. eigenvalues --   -0.30630
 Alpha virt. eigenvalues --    0.00435   0.01290   0.01380   0.01421   0.02661
 Alpha virt. eigenvalues --    0.02957   0.03058   0.03859   0.04056   0.04896
 Alpha virt. eigenvalues --    0.05087   0.05274   0.05942   0.06036   0.07351
 Alpha virt. eigenvalues --    0.07808   0.08136   0.08376   0.08641   0.09967
 Alpha virt. eigenvalues --    0.10464   0.11029   0.11605   0.11858   0.12654
 Alpha virt. eigenvalues --    0.12996   0.13411   0.13698   0.13736   0.13781
 Alpha virt. eigenvalues --    0.14125   0.14649   0.14931   0.15065   0.15326
 Alpha virt. eigenvalues --    0.15716   0.15913   0.16279   0.16598   0.16765
 Alpha virt. eigenvalues --    0.16995   0.17490   0.17717   0.18004   0.18164
 Alpha virt. eigenvalues --    0.18369   0.18993   0.19070   0.19187   0.19707
 Alpha virt. eigenvalues --    0.19932   0.20246   0.20439   0.21011   0.21913
 Alpha virt. eigenvalues --    0.22446   0.22593   0.23099   0.23907   0.25177
 Alpha virt. eigenvalues --    0.25838   0.25933   0.26324   0.27034   0.27906
 Alpha virt. eigenvalues --    0.28433   0.28678   0.29220   0.29618   0.29979
 Alpha virt. eigenvalues --    0.30481   0.30965   0.31761   0.31938   0.32570
 Alpha virt. eigenvalues --    0.32873   0.33347   0.34010   0.34373   0.34839
 Alpha virt. eigenvalues --    0.34939   0.35514   0.36245   0.36559   0.37169
 Alpha virt. eigenvalues --    0.37261   0.37629   0.37694   0.38006   0.38373
 Alpha virt. eigenvalues --    0.38562   0.39563   0.39819   0.40049   0.40651
 Alpha virt. eigenvalues --    0.41231   0.42028   0.42775   0.44580   0.45404
 Alpha virt. eigenvalues --    0.47351   0.47866   0.49588   0.50373   0.51265
 Alpha virt. eigenvalues --    0.52929   0.54029   0.55195   0.55768   0.56022
 Alpha virt. eigenvalues --    0.56811   0.57849   0.58172   0.58708   0.59329
 Alpha virt. eigenvalues --    0.59865   0.60535   0.60727   0.61875   0.62413
 Alpha virt. eigenvalues --    0.62993   0.63178   0.63388   0.63943   0.64703
 Alpha virt. eigenvalues --    0.65411   0.66109   0.66910   0.67325   0.67705
 Alpha virt. eigenvalues --    0.68251   0.69072   0.69859   0.70421   0.70693
 Alpha virt. eigenvalues --    0.71211   0.72039   0.72860   0.73446   0.73561
 Alpha virt. eigenvalues --    0.74219   0.75037   0.75653   0.75961   0.76781
 Alpha virt. eigenvalues --    0.77202   0.77681   0.78442   0.79385   0.80276
 Alpha virt. eigenvalues --    0.81539   0.82981   0.83511   0.85191   0.85684
 Alpha virt. eigenvalues --    0.86148   0.87396   0.88389   0.89288   0.89937
 Alpha virt. eigenvalues --    0.90675   0.92213   0.94166   0.94996   0.96726
 Alpha virt. eigenvalues --    0.96983   0.98087   0.99422   1.00578   1.01552
 Alpha virt. eigenvalues --    1.03773   1.04238   1.06269   1.06978   1.07459
 Alpha virt. eigenvalues --    1.08109   1.09229   1.10254   1.10762   1.12228
 Alpha virt. eigenvalues --    1.12824   1.13862   1.14499   1.15645   1.16744
 Alpha virt. eigenvalues --    1.17837   1.18877   1.19560   1.20312   1.20472
 Alpha virt. eigenvalues --    1.21122   1.22601   1.22866   1.24183   1.24749
 Alpha virt. eigenvalues --    1.25425   1.25735   1.27032   1.27891   1.28200
 Alpha virt. eigenvalues --    1.28859   1.30191   1.30401   1.30697   1.31490
 Alpha virt. eigenvalues --    1.31920   1.32307   1.33112   1.33760   1.34538
 Alpha virt. eigenvalues --    1.35172   1.35867   1.37022   1.37689   1.38590
 Alpha virt. eigenvalues --    1.39670   1.40204   1.40413   1.41716   1.42180
 Alpha virt. eigenvalues --    1.42538   1.43611   1.44130   1.44680   1.45788
 Alpha virt. eigenvalues --    1.46774   1.46990   1.47822   1.48255   1.49421
 Alpha virt. eigenvalues --    1.50018   1.50889   1.51227   1.51909   1.52731
 Alpha virt. eigenvalues --    1.53188   1.53847   1.54346   1.55395   1.56076
 Alpha virt. eigenvalues --    1.56866   1.57334   1.58495   1.59289   1.59908
 Alpha virt. eigenvalues --    1.60786   1.61927   1.62361   1.62720   1.63884
 Alpha virt. eigenvalues --    1.64367   1.64832   1.65839   1.66414   1.67455
 Alpha virt. eigenvalues --    1.68925   1.69909   1.70149   1.70618   1.72858
 Alpha virt. eigenvalues --    1.73841   1.74502   1.76681   1.77069   1.79275
 Alpha virt. eigenvalues --    1.80443   1.80773   1.81645   1.82615   1.84237
 Alpha virt. eigenvalues --    1.85576   1.87237   1.90369   1.93169   1.96589
 Alpha virt. eigenvalues --    2.01672   2.07815   2.12991   2.17332   2.21995
 Alpha virt. eigenvalues --    2.23296   2.24664   2.28158   2.32570   2.38147
 Alpha virt. eigenvalues --    2.42312   2.43484   2.47469   2.50322   2.52256
 Alpha virt. eigenvalues --    2.55978   2.76689   2.77011   2.79887   2.80517
 Alpha virt. eigenvalues --    2.87471   2.89801   2.92477   2.93793   2.94458
 Alpha virt. eigenvalues --    2.96970   2.97613   3.01849   3.03334   3.04953
 Alpha virt. eigenvalues --    3.08544   3.09327   3.09575   3.10999   3.13067
 Alpha virt. eigenvalues --    3.13654   3.15861   3.18368   3.19000   3.22178
 Alpha virt. eigenvalues --    3.23792   3.28832   3.32151   3.33453   3.35474
 Alpha virt. eigenvalues --    3.35996   3.37046   3.38978   3.41064   3.42104
 Alpha virt. eigenvalues --    3.43036   3.43736   3.45036   3.46062   3.47155
 Alpha virt. eigenvalues --    3.47736   3.48768   3.50257   3.51212   3.51885
 Alpha virt. eigenvalues --    3.54297   3.54511   3.54881   3.56041   3.56370
 Alpha virt. eigenvalues --    3.57057   3.58018   3.59124   3.60105   3.60317
 Alpha virt. eigenvalues --    3.60959   3.61954   3.63271   3.65381   3.66253
 Alpha virt. eigenvalues --    3.66682   3.67233   3.68039   3.68910   3.69319
 Alpha virt. eigenvalues --    3.70162   3.72772   3.72997   3.74349   3.75166
 Alpha virt. eigenvalues --    3.75640   3.76495   3.77141   3.77606   3.78395
 Alpha virt. eigenvalues --    3.78826   3.79806   3.82545   3.83149   3.84830
 Alpha virt. eigenvalues --    3.86128   3.87939   3.88930   3.90965   3.92213
 Alpha virt. eigenvalues --    3.92634   3.93521   3.95230   3.96054   3.97937
 Alpha virt. eigenvalues --    3.99406   4.03051   4.03588   4.04151   4.05219
 Alpha virt. eigenvalues --    4.05992   4.06746   4.07146   4.07190   4.08899
 Alpha virt. eigenvalues --    4.09870   4.10075   4.10654   4.11642   4.13043
 Alpha virt. eigenvalues --    4.13628   4.14369   4.15391   4.15588   4.16076
 Alpha virt. eigenvalues --    4.17817   4.19487   4.20159   4.20949   4.21508
 Alpha virt. eigenvalues --    4.22448   4.23146   4.24868   4.25714   4.27599
 Alpha virt. eigenvalues --    4.28536   4.29475   4.31507   4.32378   4.33547
 Alpha virt. eigenvalues --    4.34123   4.35777   4.37216   4.38681   4.39389
 Alpha virt. eigenvalues --    4.41630   4.44550   4.46260   4.47132   4.51979
 Alpha virt. eigenvalues --    4.58661   4.61454   4.76503   4.77884   4.84200
 Alpha virt. eigenvalues --    4.88538   4.92321   4.93202   4.99383   5.00860
 Alpha virt. eigenvalues --    5.07124   5.07442   5.08467   5.09228   5.12643
 Alpha virt. eigenvalues --    5.12918   5.14582   5.15750   5.30339   5.33734
 Alpha virt. eigenvalues --    5.40254   5.57155   5.58490   5.64943   5.85758
 Alpha virt. eigenvalues --    5.90192   6.03554   6.98633   7.05693   7.06595
 Alpha virt. eigenvalues --    7.09476   7.10636   7.13057   7.13332   7.15528
 Alpha virt. eigenvalues --    7.25148   7.34468   7.36892   7.50302   7.54729
 Alpha virt. eigenvalues --    7.56218   7.59637  23.95552  23.99426  24.05698
 Alpha virt. eigenvalues --   24.09016  24.11600  24.12558  24.15144  24.15642
 Alpha virt. eigenvalues --   24.18437  24.18960  50.16971  50.20522  50.22774
          Condensed to atoms (all electrons):
               1          2          3          4          5          6
     1  C    5.839223   0.018767   0.014193  -0.000118  -0.032363  -0.018426
     2  C    0.018767   6.236000   0.201082   0.102624   0.020913  -0.002498
     3  C    0.014193   0.201082   5.977112  -0.039368  -0.016975  -0.005145
     4  O   -0.000118   0.102624  -0.039368   8.425730   0.000488   0.000141
     5  O   -0.032363   0.020913  -0.016975   0.000488   8.363938   0.030972
     6  C   -0.018426  -0.002498  -0.005145   0.000141   0.030972   5.396220
     7  O    0.032991  -0.238845  -0.001700  -0.000403  -0.006340   0.010448
     8  C   -0.064588   0.000913  -0.004263   0.000099  -0.031361   0.080802
     9  C    0.016960  -0.226611  -0.245021   0.005282  -0.064243  -0.005333
    10  C    0.240886  -0.110935   0.044890  -0.001796   0.152320  -0.247478
    11  C   -0.003963  -0.193396   0.018169   0.102026   0.001091   0.000661
    12  C   -0.102397  -0.217691  -0.158536   0.001853   0.097361   0.011651
    13  C   -0.316287  -0.032990  -0.072129   0.001267   0.027269   0.141594
    14  H    0.406178  -0.000317  -0.001345  -0.000006  -0.000298   0.009401
    15  H    0.524009  -0.000293   0.001018   0.000001  -0.000461  -0.017077
    16  H   -0.001671   0.377202  -0.013758  -0.032161   0.000014   0.000108
    17  H    0.001418   0.463939   0.006254  -0.070043  -0.000442  -0.000687
    18  H   -0.000083   0.014781   0.467829   0.001014  -0.000236   0.000799
    19  H   -0.000624  -0.000431   0.421141   0.007768   0.000172  -0.000275
    20  H   -0.027129  -0.002062  -0.000222  -0.000037  -0.041577   0.485669
    21  H    0.012539  -0.000763  -0.000674   0.000036  -0.072680   0.452162
    22  H   -0.045945  -0.000862   0.001290  -0.000016  -0.008645  -0.074666
    23  H   -0.042500   0.000564  -0.000195  -0.000005   0.007896  -0.031887
    24  H   -0.006461  -0.041634  -0.077806  -0.000250   0.001657   0.001320
    25  H    0.012674   0.005308   0.026444  -0.002303  -0.000349   0.006000
    26  H   -0.003231  -0.004825  -0.001166   0.000463  -0.040402  -0.009190
    27  H   -0.000046   0.022243  -0.031221  -0.070131  -0.000189  -0.000076
    28  H    0.000402  -0.038782  -0.058490  -0.042212   0.000137  -0.000017
    29  H   -0.007582  -0.065369  -0.005968  -0.008589  -0.014083  -0.010456
    30  H   -0.018008   0.003806  -0.001410   0.000461  -0.009567   0.006504
    31  H   -0.019459  -0.001002  -0.001046  -0.000048   0.005681   0.001874
               7          8          9         10         11         12
     1  C    0.032991  -0.064588   0.016960   0.240886  -0.003963  -0.102397
     2  C   -0.238845   0.000913  -0.226611  -0.110935  -0.193396  -0.217691
     3  C   -0.001700  -0.004263  -0.245021   0.044890   0.018169  -0.158536
     4  O   -0.000403   0.000099   0.005282  -0.001796   0.102026   0.001853
     5  O   -0.006340  -0.031361  -0.064243   0.152320   0.001091   0.097361
     6  C    0.010448   0.080802  -0.005333  -0.247478   0.000661   0.011651
     7  O    8.517312   0.007915  -0.077456   0.075941   0.004637   0.296069
     8  C    0.007915   5.545410   0.010941  -0.051460   0.000584   0.032234
     9  C   -0.077456   0.010941   6.608285   0.073820  -0.118639  -0.816916
    10  C    0.075941  -0.051460   0.073820   7.107002  -0.004853  -0.630148
    11  C    0.004637   0.000584  -0.118639  -0.004853   5.468373   0.174917
    12  C    0.296069   0.032234  -0.816916  -0.630148   0.174917   7.071887
    13  C   -0.151292   0.000780   0.068657  -0.844385  -0.000136   0.195480
    14  H   -0.002606  -0.021239   0.000693   0.005110   0.000018  -0.001799
    15  H    0.001312  -0.056974   0.000964  -0.008464   0.000091  -0.004977
    16  H    0.006054   0.000300   0.018491  -0.004043   0.000341  -0.034653
    17  H    0.003090   0.000052   0.012610   0.001367   0.002050  -0.068083
    18  H    0.001999   0.000939   0.009661  -0.009765  -0.078488  -0.044672
    19  H   -0.001846   0.000525  -0.023925  -0.005477  -0.028580  -0.004026
    20  H    0.003118  -0.039162   0.002132  -0.023495  -0.000108  -0.004101
    21  H   -0.001777  -0.050607   0.002177   0.006448   0.000153  -0.003042
    22  H    0.000414   0.496917  -0.001721   0.019418   0.000386   0.000520
    23  H    0.001247   0.451865  -0.000018  -0.012167  -0.000036   0.001337
    24  H    0.010617  -0.001586   0.493913  -0.015877   0.003247  -0.013111
    25  H   -0.004715  -0.002930   0.422675   0.018475  -0.015877  -0.059150
    26  H   -0.083084  -0.008415  -0.003938   0.469968  -0.000813  -0.000515
    27  H    0.000583  -0.000049  -0.006241   0.000630   0.427416   0.000292
    28  H    0.000099   0.000075   0.024254   0.002836   0.457730   0.004289
    29  H   -0.029611  -0.005357  -0.051365   0.015604   0.016446   0.473590
    30  H   -0.008638  -0.018489   0.041179  -0.016000   0.000651  -0.049606
    31  H   -0.000718   0.007251   0.000400  -0.062089   0.000013   0.000441
              13         14         15         16         17         18
     1  C   -0.316287   0.406178   0.524009  -0.001671   0.001418  -0.000083
     2  C   -0.032990  -0.000317  -0.000293   0.377202   0.463939   0.014781
     3  C   -0.072129  -0.001345   0.001018  -0.013758   0.006254   0.467829
     4  O    0.001267  -0.000006   0.000001  -0.032161  -0.070043   0.001014
     5  O    0.027269  -0.000298  -0.000461   0.000014  -0.000442  -0.000236
     6  C    0.141594   0.009401  -0.017077   0.000108  -0.000687   0.000799
     7  O   -0.151292  -0.002606   0.001312   0.006054   0.003090   0.001999
     8  C    0.000780  -0.021239  -0.056974   0.000300   0.000052   0.000939
     9  C    0.068657   0.000693   0.000964   0.018491   0.012610   0.009661
    10  C   -0.844385   0.005110  -0.008464  -0.004043   0.001367  -0.009765
    11  C   -0.000136   0.000018   0.000091   0.000341   0.002050  -0.078488
    12  C    0.195480  -0.001799  -0.004977  -0.034653  -0.068083  -0.044672
    13  C    6.278686  -0.030238  -0.057507   0.006126  -0.003926   0.003150
    14  H   -0.030238   0.486761  -0.003379   0.000043  -0.000054   0.000021
    15  H   -0.057507  -0.003379   0.447547   0.000012   0.000111  -0.000022
    16  H    0.006126   0.000043   0.000012   0.483671  -0.020860   0.002636
    17  H   -0.003926  -0.000054   0.000111  -0.020860   0.470509  -0.001690
    18  H    0.003150   0.000021  -0.000022   0.002636  -0.001690   0.470046
    19  H    0.002875  -0.000005  -0.000004  -0.002071   0.001872  -0.008708
    20  H    0.016425  -0.000833   0.000677  -0.000156   0.000442  -0.000015
    21  H    0.006481   0.000487  -0.002104   0.000140  -0.000283   0.000058
    22  H   -0.007490  -0.004808   0.003464  -0.000110   0.000136  -0.000330
    23  H    0.004792  -0.006961  -0.005646  -0.000005  -0.000020   0.000058
    24  H    0.021340   0.000660  -0.000123  -0.000503  -0.002555  -0.000136
    25  H   -0.040358  -0.000210   0.000051  -0.000355  -0.000178  -0.000354
    26  H   -0.043008   0.000934  -0.008265   0.000197  -0.001132  -0.000087
    27  H   -0.001066  -0.000006   0.000010  -0.003184   0.002189  -0.005405
    28  H   -0.000190  -0.000006   0.000000   0.010786  -0.002394   0.003219
    29  H    0.000382  -0.000163  -0.000033   0.002359  -0.008806  -0.006674
    30  H    0.441432  -0.004304   0.002347   0.001531  -0.000624   0.000628
    31  H    0.454175  -0.009418  -0.007002  -0.000474   0.000078   0.000001
              19         20         21         22         23         24
     1  C   -0.000624  -0.027129   0.012539  -0.045945  -0.042500  -0.006461
     2  C   -0.000431  -0.002062  -0.000763  -0.000862   0.000564  -0.041634
     3  C    0.421141  -0.000222  -0.000674   0.001290  -0.000195  -0.077806
     4  O    0.007768  -0.000037   0.000036  -0.000016  -0.000005  -0.000250
     5  O    0.000172  -0.041577  -0.072680  -0.008645   0.007896   0.001657
     6  C   -0.000275   0.485669   0.452162  -0.074666  -0.031887   0.001320
     7  O   -0.001846   0.003118  -0.001777   0.000414   0.001247   0.010617
     8  C    0.000525  -0.039162  -0.050607   0.496917   0.451865  -0.001586
     9  C   -0.023925   0.002132   0.002177  -0.001721  -0.000018   0.493913
    10  C   -0.005477  -0.023495   0.006448   0.019418  -0.012167  -0.015877
    11  C   -0.028580  -0.000108   0.000153   0.000386  -0.000036   0.003247
    12  C   -0.004026  -0.004101  -0.003042   0.000520   0.001337  -0.013111
    13  C    0.002875   0.016425   0.006481  -0.007490   0.004792   0.021340
    14  H   -0.000005  -0.000833   0.000487  -0.004808  -0.006961   0.000660
    15  H   -0.000004   0.000677  -0.002104   0.003464  -0.005646  -0.000123
    16  H   -0.002071  -0.000156   0.000140  -0.000110  -0.000005  -0.000503
    17  H    0.001872   0.000442  -0.000283   0.000136  -0.000020  -0.002555
    18  H   -0.008708  -0.000015   0.000058  -0.000330   0.000058  -0.000136
    19  H    0.489488   0.000025   0.000030   0.000045  -0.000001  -0.005620
    20  H    0.000025   0.472382  -0.010916   0.002788   0.000945   0.000227
    21  H    0.000030  -0.010916   0.475799  -0.002488  -0.010374  -0.000008
    22  H    0.000045   0.002788  -0.002488   0.473447  -0.011239   0.000221
    23  H   -0.000001   0.000945  -0.010374  -0.011239   0.468739  -0.000035
    24  H   -0.005620   0.000227  -0.000008   0.000221  -0.000035   0.433209
    25  H   -0.013337  -0.000495  -0.000599  -0.006423   0.000802  -0.021270
    26  H   -0.000266  -0.004434   0.000764   0.000778  -0.002004  -0.000925
    27  H   -0.009874  -0.000018   0.000006   0.000006  -0.000001  -0.000328
    28  H    0.004196   0.000008  -0.000011  -0.000017  -0.000000  -0.008600
    29  H   -0.001781  -0.001177   0.000631   0.000621  -0.000398   0.006327
    30  H    0.000668  -0.000341  -0.000172   0.002366  -0.003685  -0.007172
    31  H   -0.000001   0.000667   0.000890  -0.001796   0.001899   0.001053
              25         26         27         28         29         30
     1  C    0.012674  -0.003231  -0.000046   0.000402  -0.007582  -0.018008
     2  C    0.005308  -0.004825   0.022243  -0.038782  -0.065369   0.003806
     3  C    0.026444  -0.001166  -0.031221  -0.058490  -0.005968  -0.001410
     4  O   -0.002303   0.000463  -0.070131  -0.042212  -0.008589   0.000461
     5  O   -0.000349  -0.040402  -0.000189   0.000137  -0.014083  -0.009567
     6  C    0.006000  -0.009190  -0.000076  -0.000017  -0.010456   0.006504
     7  O   -0.004715  -0.083084   0.000583   0.000099  -0.029611  -0.008638
     8  C   -0.002930  -0.008415  -0.000049   0.000075  -0.005357  -0.018489
     9  C    0.422675  -0.003938  -0.006241   0.024254  -0.051365   0.041179
    10  C    0.018475   0.469968   0.000630   0.002836   0.015604  -0.016000
    11  C   -0.015877  -0.000813   0.427416   0.457730   0.016446   0.000651
    12  C   -0.059150  -0.000515   0.000292   0.004289   0.473590  -0.049606
    13  C   -0.040358  -0.043008  -0.001066  -0.000190   0.000382   0.441432
    14  H   -0.000210   0.000934  -0.000006  -0.000006  -0.000163  -0.004304
    15  H    0.000051  -0.008265   0.000010   0.000000  -0.000033   0.002347
    16  H   -0.000355   0.000197  -0.003184   0.010786   0.002359   0.001531
    17  H   -0.000178  -0.001132   0.002189  -0.002394  -0.008806  -0.000624
    18  H   -0.000354  -0.000087  -0.005405   0.003219  -0.006674   0.000628
    19  H   -0.013337  -0.000266  -0.009874   0.004196  -0.001781   0.000668
    20  H   -0.000495  -0.004434  -0.000018   0.000008  -0.001177  -0.000341
    21  H   -0.000599   0.000764   0.000006  -0.000011   0.000631  -0.000172
    22  H   -0.006423   0.000778   0.000006  -0.000017   0.000621   0.002366
    23  H    0.000802  -0.002004  -0.000001  -0.000000  -0.000398  -0.003685
    24  H   -0.021270  -0.000925  -0.000328  -0.008600   0.006327  -0.007172
    25  H    0.502683   0.001685   0.001615   0.000718  -0.005962  -0.005204
    26  H    0.001685   0.470358  -0.000090   0.000285   0.004027  -0.001453
    27  H    0.001615  -0.000090   0.465954  -0.010067   0.000163  -0.000339
    28  H    0.000718   0.000285  -0.010067   0.490012  -0.001342   0.000943
    29  H   -0.005962   0.004027   0.000163  -0.001342   0.432165  -0.001937
    30  H   -0.005204  -0.001453  -0.000339   0.000943  -0.001937   0.479703
    31  H    0.001260  -0.000509   0.000017  -0.000210  -0.000240  -0.020032
              31
     1  C   -0.019459
     2  C   -0.001002
     3  C   -0.001046
     4  O   -0.000048
     5  O    0.005681
     6  C    0.001874
     7  O   -0.000718
     8  C    0.007251
     9  C    0.000400
    10  C   -0.062089
    11  C    0.000013
    12  C    0.000441
    13  C    0.454175
    14  H   -0.009418
    15  H   -0.007002
    16  H   -0.000474
    17  H    0.000078
    18  H    0.000001
    19  H   -0.000001
    20  H    0.000667
    21  H    0.000890
    22  H   -0.001796
    23  H    0.001899
    24  H    0.001053
    25  H    0.001260
    26  H   -0.000509
    27  H    0.000017
    28  H   -0.000210
    29  H   -0.000240
    30  H   -0.020032
    31  H    0.468448
 Mulliken charges:
               1
     1  C   -0.409357
     2  C   -0.288835
     3  C   -0.442983
     4  O   -0.381767
     5  O   -0.369695
     6  C   -0.213113
     7  O   -0.364817
     8  C   -0.281120
     9  C   -0.171665
    10  C   -0.186283
    11  C   -0.234109
    12  C   -0.148501
    13  C   -0.069908
    14  H    0.177689
    15  H    0.190716
    16  H    0.203993
    17  H    0.215661
    18  H    0.179826
    19  H    0.178047
    20  H    0.170773
    21  H    0.197697
    22  H    0.163738
    23  H    0.187036
    24  H    0.230210
    25  H    0.179681
    26  H    0.268292
    27  H    0.217209
    28  H    0.162351
    29  H    0.274577
    30  H    0.184763
    31  H    0.179895
 Sum of Mulliken charges =  -0.00000
 Mulliken charges with hydrogens summed into heavy atoms:
               1
     1  C   -0.040952
     2  C    0.130819
     3  C   -0.085109
     4  O   -0.381767
     5  O   -0.369695
     6  C    0.155357
     7  O   -0.364817
     8  C    0.069654
     9  C    0.238226
    10  C    0.082009
    11  C    0.145451
    12  C    0.126077
    13  C    0.294751
 Electronic spatial extent (au):  <R**2>=           3147.0694
 Charge=              0.0000 electrons
 Dipole moment (field-independent basis, Debye):
    X=             -3.5234    Y=              2.1126    Z=              1.4926  Tot=              4.3710
 Quadrupole moment (field-independent basis, Debye-Ang):
   XX=            -73.3075   YY=            -78.9465   ZZ=            -80.1123
   XY=              5.8984   XZ=              6.5738   YZ=              0.3141
 Traceless Quadrupole moment (field-independent basis, Debye-Ang):
   XX=              4.1480   YY=             -1.4911   ZZ=             -2.6568
   XY=              5.8984   XZ=              6.5738   YZ=              0.3141
 Octapole moment (field-independent basis, Debye-Ang**2):
  XXX=            -49.3428  YYY=             -2.8118  ZZZ=             -3.6908  XYY=              2.0342
  XXY=             21.4465  XXZ=             12.9016  XZZ=             -6.2037  YZZ=              0.9792
  YYZ=             -3.4924  XYZ=             -1.1619
 Hexadecapole moment (field-independent basis, Debye-Ang**3):
 XXXX=          -3239.5988 YYYY=           -495.1985 ZZZZ=           -406.4959 XXXY=             90.0751
 XXXZ=            103.5677 YYYX=             -0.5114 YYYZ=              7.5909 ZZZX=             13.9600
 ZZZY=             -6.0068 XXYY=           -610.7506 XXZZ=           -606.2732 YYZZ=           -146.5448
 XXYZ=            -15.3001 YYXZ=              2.8590 ZZXY=             -3.5013
 N-N= 8.886879190978D+02 E-N=-3.219529865382D+03  KE= 6.153565198027D+02
 D1PCM: PCM CHGder 1st derivatives, ID1Alg=3 FixD1E=F DoIter=F DoCFld=F I1PDM=0.
 Calling FoFJK, ICntrl=      2127 FMM=F ISym2X=0 I1Cent= 0 IOpClX= 0 NMat=1 NMatS=1 NMatT=0.
 ***** Axes restored to original set *****
 -------------------------------------------------------------------
 Center     Atomic                   Forces (Hartrees/Bohr)
 Number     Number              X              Y              Z
 -------------------------------------------------------------------
      1        6           0.003067633    0.001327691   -0.002485303
      2        6          -0.003314099    0.004864972    0.000540483
      3        6          -0.000163531   -0.002435788    0.001898720
      4        8           0.006413810   -0.003592201   -0.009584062
      5        8           0.010047908    0.005883965   -0.007260800
      6        6          -0.002996928    0.001322205    0.005967846
      7        8           0.005158276   -0.010205197    0.004275936
      8        6           0.000743401   -0.003389810    0.000368220
      9        6           0.003230214   -0.001314966   -0.003077245
     10        6          -0.004918031    0.006494872    0.007102451
     11        6          -0.006398748    0.003440357    0.001081804
     12        6           0.000108470    0.003662294    0.004974740
     13        6          -0.003205309   -0.001208813   -0.002104396
     14        1          -0.001032842    0.001261233    0.002102572
     15        1          -0.001084069   -0.003011357   -0.001120013
     16        1          -0.000556248   -0.000979000    0.006155396
     17        1          -0.001235838   -0.003793619   -0.002890876
     18        1          -0.000291190    0.000376319   -0.003296082
     19        1           0.000562566    0.002248541    0.001751281
     20        1          -0.002968095   -0.004814029   -0.000790778
     21        1           0.000037142    0.002981259   -0.003573501
     22        1           0.002022641    0.002717736    0.000609618
     23        1          -0.002641259    0.000129883   -0.000811252
     24        1           0.000474727   -0.001998891    0.003586708
     25        1          -0.003831194    0.001944674   -0.001028419
     26        1          -0.004478350   -0.006384829   -0.001504246
     27        1           0.003606165    0.001917800   -0.001907992
     28        1           0.000204348   -0.001013801    0.005631723
     29        1          -0.000072333    0.002013974   -0.006554552
     30        1           0.003050139    0.003900101   -0.000091002
     31        1           0.000460624   -0.002345576    0.002033022
 -------------------------------------------------------------------
 Cartesian Forces:  Max     0.010205197 RMS     0.003680589

 GradGradGradGradGradGradGradGradGradGradGradGradGradGradGradGradGradGrad
 Berny optimization.
 FormGI is forming the generalized inverse of G from B-inverse, IUseBI=4.
 Internal  Forces:  Max     0.015618662 RMS     0.002304535
 Search for a local minimum.
 Step number   1 out of a maximum of  186
 All quantities printed in internal units (Hartrees-Bohrs-Radians)
 Mixed Optimization -- RFO/linear search
 Second derivative matrix not updated -- first step.
 ITU=  0
     Eigenvalues ---    0.00614   0.00631   0.00737   0.00746   0.01451
     Eigenvalues ---    0.01459   0.01486   0.02700   0.02758   0.03135
     Eigenvalues ---    0.03174   0.04187   0.04345   0.04573   0.04757
     Eigenvalues ---    0.04771   0.04964   0.04999   0.05144   0.05152
     Eigenvalues ---    0.05175   0.05679   0.05733   0.06150   0.06153
     Eigenvalues ---    0.06255   0.06392   0.06856   0.07586   0.07833
     Eigenvalues ---    0.07908   0.07915   0.07950   0.08021   0.08150
     Eigenvalues ---    0.08681   0.09150   0.09339   0.10862   0.11481
     Eigenvalues ---    0.11617   0.11699   0.11731   0.12335   0.12492
     Eigenvalues ---    0.14472   0.14522   0.16498   0.16542   0.17597
     Eigenvalues ---    0.19373   0.21574   0.21790   0.25000   0.28525
     Eigenvalues ---    0.28542   0.28666   0.28702   0.28895   0.29102
     Eigenvalues ---    0.30219   0.30352   0.35016   0.35069   0.35073
     Eigenvalues ---    0.35102   0.35130   0.35135   0.35141   0.35247
     Eigenvalues ---    0.35291   0.35318   0.35329   0.35331   0.35364
     Eigenvalues ---    0.35527   0.35828   0.35852   0.35880   0.35905
     Eigenvalues ---    0.40920   0.41479   0.42416   0.42825   0.43920
     Eigenvalues ---    0.450691000.000001000.000001000.000001000.00000
     Eigenvalues --- 1000.000001000.000001000.000001000.000001000.00000
     Eigenvalues --- 1000.000001000.000001000.000001000.000001000.00000
     Eigenvalues --- 1000.000001000.000001000.000001000.000001000.00000
     Eigenvalues --- 1000.000001000.000001000.000001000.000001000.00000
     Eigenvalues --- 1000.000001000.000001000.000001000.000001000.00000
     Eigenvalues --- 1000.000001000.000001000.000001000.000001000.00000
     Eigenvalues --- 1000.000001000.000001000.000001000.000001000.00000
     Eigenvalues --- 1000.000001000.000001000.000001000.000001000.00000
     Eigenvalues --- 1000.000001000.000001000.000001000.000001000.00000
     Eigenvalues --- 1000.000001000.000001000.000001000.000001000.00000
     Eigenvalues --- 1000.000001000.000001000.000001000.000001000.00000
     Eigenvalues --- 1000.000001000.000001000.000001000.000001000.00000
     Eigenvalues --- 1000.000001000.000001000.000001000.000001000.00000
     Eigenvalues --- 1000.000001000.000001000.000001000.000001000.00000
     Eigenvalues --- 1000.000001000.000001000.000001000.000001000.00000
     Eigenvalues --- 1000.000001000.000001000.000001000.000001000.00000
     Eigenvalues --- 1000.000001000.000001000.000001000.000001000.00000
     Eigenvalues --- 1000.000001000.000001000.000001000.000001000.00000
     Eigenvalues --- 1000.000001000.000001000.000001000.000001000.00000
 RFO step:  Lambda=-3.73124607D-03 EMin= 6.14488191D-03
 Linear search not attempted -- first point.
 Iteration  1 RMS(Cart)=  0.08106702 RMS(Int)=  0.00116305
 Iteration  2 RMS(Cart)=  0.00338199 RMS(Int)=  0.00003667
 Iteration  3 RMS(Cart)=  0.00000235 RMS(Int)=  0.00003665
 Iteration  4 RMS(Cart)=  0.00000000 RMS(Int)=  0.00003665
 Iteration  1 RMS(Cart)=  0.00004099 RMS(Int)=  0.00000938
 Iteration  2 RMS(Cart)=  0.00002190 RMS(Int)=  0.00001048
 Iteration  3 RMS(Cart)=  0.00001171 RMS(Int)=  0.00001181
 Iteration  4 RMS(Cart)=  0.00000626 RMS(Int)=  0.00001267
 Iteration  5 RMS(Cart)=  0.00000334 RMS(Int)=  0.00001316
 Iteration  6 RMS(Cart)=  0.00000179 RMS(Int)=  0.00001343
 Iteration  7 RMS(Cart)=  0.00000095 RMS(Int)=  0.00001358
 Variable       Old X    -DE/DX   Delta X   Delta X   Delta X     New X
                                 (Linear)    (Quad)   (Total)
    R1        2.88977  -0.00074   0.00000  -0.00423  -0.00427   2.88551
    R2        2.89319  -0.00117   0.00000  -0.00441  -0.00443   2.88876
    R3        2.05087   0.00266   0.00000   0.00743   0.00743   2.05831
    R4        2.05650   0.00328   0.00000   0.00928   0.00928   2.06577
    R5        2.66506   0.00596   0.00000   0.01411   0.01413   2.67920
    R6        2.88013  -0.00084   0.00000  -0.00272  -0.00271   2.87742
    R7        2.05510   0.00603   0.00000   0.01701   0.01701   2.07211
    R8        2.04314   0.00487   0.00000   0.01344   0.01344   2.05658
    R9        2.89478  -0.00092   0.00000  -0.00408  -0.00410   2.89068
   R10        2.87155  -0.00064   0.00000  -0.00207  -0.00208   2.86947
   R11        2.05456   0.00324   0.00000   0.00913   0.00913   2.06368
   R12        2.05206   0.00291   0.00000   0.00815   0.00815   2.06020
   R13        2.67667   0.00661   0.00000   0.01551   0.01554   2.69221
   R14        2.68474   0.00537   0.00000   0.01293   0.01295   2.69770
   R15        2.64508   0.00765   0.00000   0.01775   0.01779   2.66287
   R16        2.87228  -0.00070   0.00000  -0.00292  -0.00294   2.86934
   R17        2.05447   0.00562   0.00000   0.01583   0.01583   2.07029
   R18        2.04230   0.00465   0.00000   0.01281   0.01281   2.05511
   R19        2.65196   0.00505   0.00000   0.01111   0.01111   2.66307
   R20        2.67886   0.00301   0.00000   0.00697   0.00697   2.68583
   R21        2.05465   0.00334   0.00000   0.00939   0.00939   2.06404
   R22        2.05276   0.00276   0.00000   0.00775   0.00775   2.06051
   R23        2.88300  -0.00201   0.00000  -0.00705  -0.00708   2.87593
   R24        2.05563   0.00396   0.00000   0.01118   0.01118   2.06681
   R25        2.04827   0.00429   0.00000   0.01196   0.01196   2.06023
   R26        2.87302  -0.00135   0.00000  -0.00363  -0.00360   2.86943
   R27        2.05143   0.00784   0.00000   0.02196   0.02196   2.07339
   R28        2.04351   0.00450   0.00000   0.01243   0.01243   2.05594
   R29        2.05556   0.00563   0.00000   0.01590   0.01590   2.07145
   R30        2.04270   0.00675   0.00000   0.01863   0.01863   2.06133
   R31        2.05162   0.00468   0.00000   0.01311   0.01311   2.06473
   R32        2.05141   0.00311   0.00000   0.00870   0.00870   2.06011
    A1        1.92070   0.00171   0.00000  -0.00286  -0.00294   1.91775
    A2        1.93237  -0.00050   0.00000   0.00045   0.00046   1.93283
    A3        1.90913  -0.00058   0.00000  -0.00060  -0.00057   1.90856
    A4        1.92296  -0.00041   0.00000   0.00042   0.00047   1.92342
    A5        1.91079  -0.00081   0.00000  -0.00217  -0.00218   1.90861
    A6        1.86706   0.00053   0.00000   0.00493   0.00491   1.87197
    A7        1.93324   0.00088   0.00000   0.00395   0.00400   1.93723
    A8        1.91596   0.00103   0.00000   0.00732   0.00731   1.92327
    A9        1.86677  -0.00022   0.00000   0.00379   0.00378   1.87054
   A10        1.92034  -0.00193   0.00000  -0.01360  -0.01364   1.90670
   A11        1.92915  -0.00048   0.00000  -0.00494  -0.00497   1.92418
   A12        1.89738   0.00078   0.00000   0.00413   0.00406   1.90144
   A13        1.93122  -0.00044   0.00000  -0.00680  -0.00684   1.92438
   A14        1.91945   0.00063   0.00000   0.00158   0.00158   1.92103
   A15        1.92614  -0.00043   0.00000   0.00027   0.00027   1.92641
   A16        1.90325  -0.00035   0.00000  -0.00133  -0.00134   1.90191
   A17        1.90895   0.00046   0.00000   0.00180   0.00183   1.91079
   A18        1.87379   0.00015   0.00000   0.00482   0.00481   1.87859
   A19        1.97786  -0.00487   0.00000  -0.02552  -0.02545   1.95241
   A20        1.97727  -0.00504   0.00000  -0.02463  -0.02454   1.95272
   A21        1.93875   0.00092   0.00000   0.00364   0.00360   1.94235
   A22        1.89982   0.00072   0.00000   0.00380   0.00382   1.90364
   A23        1.84772  -0.00070   0.00000  -0.00001   0.00000   1.84772
   A24        1.93172  -0.00126   0.00000  -0.00738  -0.00736   1.92436
   A25        1.95110  -0.00017   0.00000  -0.00255  -0.00256   1.94854
   A26        1.89192   0.00054   0.00000   0.00303   0.00301   1.89493
   A27        2.14081  -0.01562   0.00000  -0.06156  -0.06156   2.07926
   A28        1.92236   0.00030   0.00000  -0.00405  -0.00411   1.91825
   A29        1.91910   0.00048   0.00000   0.00149   0.00149   1.92059
   A30        1.93768  -0.00065   0.00000  -0.00030  -0.00030   1.93738
   A31        1.90427  -0.00049   0.00000  -0.00225  -0.00226   1.90201
   A32        1.90329   0.00005   0.00000  -0.00000   0.00003   1.90332
   A33        1.87629   0.00032   0.00000   0.00529   0.00528   1.88157
   A34        1.91461   0.00164   0.00000  -0.00237  -0.00243   1.91217
   A35        1.91517  -0.00017   0.00000   0.00320   0.00320   1.91837
   A36        1.92628  -0.00001   0.00000   0.00671   0.00670   1.93298
   A37        1.89692  -0.00121   0.00000  -0.00692  -0.00692   1.89000
   A38        1.93287  -0.00091   0.00000  -0.00687  -0.00683   1.92604
   A39        1.87740   0.00060   0.00000   0.00627   0.00620   1.88360
   A40        1.92294  -0.00220   0.00000  -0.01882  -0.01894   1.90400
   A41        1.93460   0.00151   0.00000  -0.00024  -0.00044   1.93416
   A42        1.89452   0.00025   0.00000   0.01034   0.01043   1.90496
   A43        1.94756  -0.00063   0.00000  -0.01074  -0.01091   1.93665
   A44        1.84619   0.00144   0.00000   0.01828   0.01839   1.86458
   A45        1.91532  -0.00036   0.00000   0.00266   0.00264   1.91796
   A46        1.93378   0.00145   0.00000   0.00769   0.00768   1.94145
   A47        1.94630  -0.00044   0.00000  -0.00391  -0.00392   1.94238
   A48        1.93160  -0.00125   0.00000  -0.00794  -0.00794   1.92366
   A49        1.85560  -0.00096   0.00000  -0.00271  -0.00269   1.85291
   A50        1.90214   0.00061   0.00000   0.00430   0.00434   1.90648
   A51        1.89213   0.00063   0.00000   0.00292   0.00289   1.89503
   A52        1.83109   0.00096   0.00000   0.00606   0.00605   1.83714
   A53        1.92076   0.00058   0.00000   0.00043   0.00038   1.92114
   A54        1.89203  -0.00024   0.00000   0.00244   0.00244   1.89447
   A55        1.97969  -0.00218   0.00000  -0.01368  -0.01366   1.96603
   A56        1.91759   0.00081   0.00000   0.00980   0.00973   1.92732
   A57        1.91923   0.00017   0.00000  -0.00396  -0.00394   1.91529
   A58        1.91974  -0.00056   0.00000  -0.00463  -0.00467   1.91507
   A59        1.92400   0.00104   0.00000   0.00585   0.00581   1.92981
   A60        1.93691   0.00001   0.00000   0.00419   0.00418   1.94109
   A61        1.90041  -0.00083   0.00000  -0.01039  -0.01035   1.89005
   A62        1.89878   0.00009   0.00000  -0.00185  -0.00184   1.89695
   A63        1.88316   0.00024   0.00000   0.00665   0.00660   1.88976
    D1        0.90271  -0.00020   0.00000   0.00944   0.00939   0.91210
    D2       -1.19643  -0.00008   0.00000   0.01386   0.01384  -1.18259
[...]
 0000628,-0.00001365,0.00026571,-0.00019413,0.00018731,0.00078050,-0.00
 061699,0.00023945,-0.00040952,-0.00051519,0.00044827,-0.00053415,0.000
 12842,0.00009619,-0.00002564,-0.00000168,-0.00001062,-0.00000781,0.000
 00451,-0.00001254,0.00001337,0.00000707,0.00000125,-0.00000267,0.00000
 475,-0.00000476,-0.02433394,0.01787135,-0.00430611,0.03937340,-0.02882
 509,0.05794060,0.00136744,0.00002595,-0.00013199,0.00020707,-0.0010585
 0,0.00040203,0.00015278,-0.00041085,-0.00036114,-0.00089980,0.00006371
 ,0.00009203,0.00297849,-0.00148346,0.00145714,0.00178830,0.00185490,-0
 .00032745,-0.03932588,-0.02208167,-0.00798128,-0.00011799,-0.00008210,
 0.00023974,-0.00119704,-0.00049857,0.00068448,-0.09484827,-0.08794353,
 -0.03214280,0.00015551,0.00012548,0.00017778,0.00067107,0.00224079,-0.
 00642577,0.00702290,0.00978582,0.00518530,0.00018047,-0.00013181,-0.00
 002970,0.00009108,-0.00021418,0.00008446,-0.00002896,0.00000260,-0.000
 04164,-0.00005480,0.00008992,0.00002061,-0.00002585,-0.00001617,0.0000
 3233,-0.00018325,-0.00012066,0.00005031,0.00049096,-0.00034909,0.00014
 336,0.00024520,0.00016043,0.00014926,-0.00008845,-0.00009821,-0.000099
 60,0.00001987,-0.00001097,-0.00003259,0.00001094,0.00002410,-0.0000161
 4,0.00001110,-0.00002784,-0.00004828,0.12168473,-0.00041545,0.00010785
 ,0.00028549,0.00001359,0.00017062,-0.00009168,-0.00004784,0.00015488,0
 .00007237,0.00009605,-0.00004100,-0.00001322,-0.00789192,-0.03135633,0
 .01122648,-0.00374760,0.00095589,-0.00115634,0.00644469,0.01187689,0.0
 0149258,0.00043996,0.00002565,0.00023876,0.00039147,0.00014947,-0.0001
 7567,-0.09261807,-0.22228854,-0.06770662,-0.00003118,-0.00002683,-0.00
 000838,0.00134128,0.00065327,0.00113457,-0.00674903,-0.00903261,-0.006
 05024,0.00017339,0.00013849,0.00002279,0.00041832,-0.00005599,0.000124
 48,-0.00000294,0.00000440,0.00000103,0.00000302,-0.00002607,-0.0000004
 5,-0.00000232,-0.00000144,-0.00000430,0.00004387,0.00002286,-0.0000117
 8,0.00115497,0.00024030,0.00017206,0.00042284,0.00029445,0.00025006,-0
 .00012455,-0.00003488,-0.00005397,0.00012007,-0.00009206,-0.00008299,-
 0.00000600,-0.00001421,-0.00003587,-0.00003334,0.00009526,-0.00000888,
 0.09952720,0.24749248,-0.00113193,0.00033828,0.00024648,0.00005331,-0.
 00016290,0.00008770,0.00002490,-0.00007805,-0.00007810,-0.00014603,0.0
 0000687,0.00000736,0.00942997,0.03645191,-0.00115703,0.00462439,0.0006
 6629,0.00162831,-0.00673023,-0.00037838,0.00524819,-0.00045341,-0.0000
 2880,-0.00023190,-0.00018542,-0.00021694,0.00008695,-0.03485716,-0.070
 89803,-0.07932630,0.00002797,0.00000292,0.00003412,0.00110857,0.000379
 08,-0.00159893,-0.01095427,-0.02654860,-0.00867410,0.00029749,0.000331
 31,0.00003217,0.00051191,0.00033040,0.00029367,0.00000329,0.00000210,-
 0.00001231,-0.00001159,0.00001098,0.00000219,-0.00000807,-0.00000579,0
 .00001081,-0.00004137,-0.00002366,0.00001132,-0.00024812,-0.00112457,-
 0.00005300,0.00001836,-0.00015398,-0.00005521,-0.00003833,-0.00003347,
 -0.00005808,-0.00010225,-0.00003232,0.00023793,0.00001606,0.00000261,0
 .00003038,0.00001953,0.00001274,-0.00002582,0.03650333,0.06275401,0.08
 622661,0.00000151,-0.00001436,0.00001857,0.00202078,0.00056729,-0.0014
 7928,-0.01993665,-0.00974866,0.01012740,-0.00330176,-0.00575850,-0.000
 27915,-0.00017413,0.00000163,-0.00010470,0.00006365,-0.00003284,0.0000
 1801,-0.00040292,-0.00029149,0.00002732,-0.00000952,-0.00000135,-0.000
 00135,-0.00245012,0.00443283,-0.00143169,0.00027901,0.00001252,0.00009
 395,-0.24158036,-0.09028077,0.08434164,0.00068405,0.00069830,0.0003178
 4,-0.00004903,0.00004897,0.00000883,-0.00001138,0.00000360,0.00000120,
 -0.00001096,-0.00000030,-0.00000407,-0.00006480,-0.00001194,0.00016981
 ,-0.00024182,-0.00013601,0.00017498,0.00123945,-0.00059918,-0.00041542
 ,0.00053278,0.00021112,0.00014219,-0.00001874,-0.00000214,-0.00000415,
 -0.00000768,0.00000512,-0.00000621,0.00000206,0.00000120,0.00000023,-0
 .00000539,0.00000400,0.00000100,0.00016239,-0.00001350,0.00012011,-0.0
 0130536,-0.00090223,0.00041630,-0.00004673,-0.00000171,-0.00001265,0.2
 5934759,-0.00000062,0.00002179,0.00001600,0.00155822,-0.00281380,-0.00
 477046,0.01850410,0.01101524,-0.00826982,-0.03027158,-0.02310643,0.008
 20459,0.00003664,0.00005255,0.00003526,-0.00000656,0.00001714,0.000000
 24,-0.00042996,0.00044876,0.00003527,-0.00000081,-0.00000344,-0.000001
 36,0.00320760,-0.00308284,0.00123214,-0.00000213,-0.00009551,0.0000786
 5,-0.08372583,-0.08776071,0.03858812,0.00030138,-0.00121847,-0.0000937
 9,-0.00003540,-0.00002859,-0.00004743,-0.00000519,0.00000162,-0.000001
 22,0.00000702,-0.00000071,0.00000285,0.00014252,0.00005919,0.00009210,
 -0.00156923,-0.00077773,0.00024551,-0.00096601,0.00069985,0.00006846,-
 0.00116402,0.00051177,-0.00010683,0.00000684,0.00000128,0.00000145,-0.
 00000165,0.00000060,-0.00000045,-0.00000095,0.00000087,-0.00000030,0.0
 0000033,0.00000036,0.00000027,-0.00017148,-0.00007084,-0.00005143,0.00
 130566,0.00069117,-0.00026155,-0.00001176,0.00000256,0.00000021,0.0995
 0419,0.10702052,-0.00000061,0.00000023,0.00001297,-0.00018980,-0.00213
 006,-0.00172052,-0.00489387,-0.00091419,0.00151427,-0.01962647,-0.0139
 1397,0.00676866,-0.00002374,0.00003011,-0.00001884,0.00001074,-0.00000
 033,0.00000311,-0.00029670,0.00013895,0.00004950,-0.00000270,-0.000001
 48,-0.00000079,-0.00040368,-0.00006561,0.00091898,0.00004640,-0.000029
 44,0.00006303,0.09186913,0.04640444,-0.09340991,0.00030148,-0.00036543
 ,-0.00005943,-0.00003931,0.00000949,-0.00000899,-0.00000519,0.00000148
 ,-0.00000045,-0.00000117,-0.00000042,-0.00000076,-0.00015606,-0.000151
 02,0.00046393,-0.00058611,-0.00047934,0.00039669,0.00010129,-0.0007577
 7,0.00062859,0.00025428,-0.00004229,0.00013724,-0.00000121,-0.00000019
 ,-0.00000006,-0.00000260,0.00000108,-0.00000147,0.00000037,0.00000069,
 -0.00000026,-0.00000081,0.00000108,0.00000042,-0.00026808,-0.00019939,
 0.00024316,0.00006152,0.00011647,0.00021945,-0.00001611,0.00000114,-0.
 00000309,-0.09110388,-0.03897169,0.09299101,-0.00000145,0.00000131,0.0
 0000369,0.00039506,0.00052794,-0.00237713,-0.00409384,0.00851108,-0.02
 523748,0.00120916,-0.00310247,-0.00584744,0.00000558,0.00001045,-0.000
 00032,0.00000520,0.00000192,0.00000211,-0.00012248,-0.00009708,0.00002
 837,0.00000042,-0.00000035,-0.00000055,0.00151021,-0.00026478,-0.00102
 291,0.00003011,-0.00001230,0.00002284,-0.05916870,0.00739663,-0.028396
 05,-0.00018263,0.00011193,0.00007919,-0.00000898,0.00000175,-0.0000038
 8,-0.00000173,0.00000049,0.00000027,0.00000028,-0.00000026,-0.00000016
 ,0.00016414,0.00020733,0.00012537,0.00000342,0.00001820,0.00006839,-0.
 00346225,0.00319719,-0.00072776,0.00090259,-0.00038110,0.00051908,-0.0
 0000021,-0.00000046,-0.00000032,-0.00000066,-0.00000014,0.00000054,0.0
 0000030,-0.00000007,-0.00000069,-0.00000061,0.00000003,0.00000021,-0.0
 0000348,-0.00013137,0.00034567,0.00019414,0.00003331,0.00027749,-0.000
 00700,0.00000057,-0.00000180,0.00532194,-0.00620424,0.02500051,0.05727
 429,0.00000047,0.00000653,0.00000772,0.00303640,0.00318965,-0.00386083
 ,0.00317824,-0.00539772,0.02155854,-0.00873142,-0.00633489,-0.03892663
 ,-0.00000261,0.00000304,-0.00000678,0.00000169,-0.00000088,-0.00000051
 ,-0.00026753,0.00019192,0.00005488,-0.00000117,-0.00000162,-0.00000063
 ,-0.00113043,0.00049199,-0.00024066,0.00000268,-0.00002530,0.00005579,
 0.00686083,-0.06676673,0.06937840,-0.00011351,-0.00052269,0.00020882,-
 0.00001718,-0.00000341,-0.00001319,-0.00000305,0.00000109,-0.00000082,
 0.00000063,-0.00000007,0.00000025,0.00059693,0.00034342,0.00121136,0.0
 0014541,-0.00001682,0.00015835,0.00434930,-0.00179593,0.00021090,-0.00
 063839,0.00066442,-0.00029874,-0.00000014,0.00000045,-0.00000011,-0.00
 000122,0.00000102,-0.00000081,-0.00000047,0.00000059,0.00000089,-0.000
 00017,0.00000053,-0.00000014,0.00016138,0.00035181,-0.00039034,-0.0000
 9183,-0.00007476,-0.00026323,-0.00000339,-0.00000129,-0.00000013,0.002
 43971,-0.00171381,0.01133356,-0.00978548,0.07748087,0.00000083,0.00000
 474,0.00001833,0.00234907,0.00212763,0.00097050,0.00030915,0.00255507,
 -0.00297232,-0.00496923,-0.01246241,-0.02433557,-0.00007897,0.00002898
 ,-0.00003621,0.00003278,-0.00000686,0.00000884,-0.00056001,-0.00007394
 ,-0.00001883,-0.00000582,-0.00000328,-0.00000147,0.00021333,-0.0005827
 3,0.00055332,0.00016414,-0.00007147,0.00008317,-0.03135391,0.06506850,
 -0.27573805,0.00028803,-0.00027488,0.00017523,-0.00004118,0.00001423,-
 0.00001816,-0.00000958,0.00000316,0.00000045,-0.00000206,-0.00000095,-
 0.00000100,-0.00103825,-0.00048133,0.00049376,-0.00006815,-0.00028300,
 0.00045772,-0.00023226,0.00045654,0.00114010,-0.00045761,0.00050345,0.
 00020246,-0.00000639,-0.00000089,-0.00000107,-0.00000485,0.00000289,-0
 .00000290,0.00000082,0.00000136,0.00000006,-0.00000286,0.00000253,0.00
 000087,-0.00045791,-0.00028885,0.00001783,-0.00007452,0.00001682,0.000
 19127,-0.00004000,0.00000285,-0.00000712,-0.00106561,0.00392193,-0.009
 18317,0.03706991,-0.06024166,0.30812924,0.00001478,0.00009189,0.000179
 80,-0.00575978,0.00588208,-0.02744622,0.00027579,0.00016756,-0.0002734
 9,0.00233192,-0.00009287,0.00056005,-0.00445371,0.00090766,-0.00039862
 ,0.00007755,-0.00021636,0.00015338,-0.00638850,-0.01395008,0.03133027,
 -0.00003317,-0.00000062,-0.00000932,0.00140060,0.00123660,-0.00090887,
 0.00363374,-0.00031833,0.00152077,-0.00002072,0.00004004,0.00004222,-0
 .05430506,0.00882962,-0.04579997,-0.00064144,0.00032282,-0.00021204,-0
 .00009297,0.00002744,-0.00000957,-0.00000410,-0.00001183,-0.00000730,-
 0.00412750,0.00256431,-0.00059771,0.00132587,-0.00059473,0.00071597,0.
 00003160,-0.00010151,-0.00009412,0.00005171,0.00008372,-0.00009330,-0.
 00001990,0.00002419,0.00000653,-0.00000718,0.00002411,-0.00003272,0.00
 000777,0.00000559,-0.00000499,-0.00000627,0.00003361,-0.00002186,0.000
 57701,-0.00041167,-0.00002910,0.00008191,-0.00051924,0.00021982,0.0000
 9256,-0.00005624,-0.00003268,-0.00002340,-0.00002544,-0.00002329,0.000
 03835,0.00001178,0.00004266,0.06589512,0.00001167,0.00009126,0.0001691
 8,0.00534871,-0.00471047,0.01959576,0.00087260,0.00133545,-0.00012627,
 -0.00134571,0.00106060,-0.00126405,0.00056622,0.00075973,-0.00086703,0
 .00029746,0.00004459,-0.00007790,-0.00672576,-0.00880189,0.02316071,-0
 .00001390,-0.00003230,-0.00000496,-0.00446512,0.00349456,-0.02934207,0
 .00320637,-0.00063039,0.00070750,0.00007106,-0.00035437,-0.00014978,0.
 00538123,-0.05568302,0.03575202,-0.00045934,0.00010620,-0.00025055,-0.
 00008194,0.00002360,-0.00000204,-0.00000639,-0.00000814,-0.00000413,0.
 00281426,-0.00128560,0.00080250,-0.00085986,0.00081253,0.00004760,-0.0
 0004703,-0.00011950,0.00041550,0.00018953,-0.00009029,0.00026260,-0.00
 002239,-0.00002679,0.00000652,-0.00007894,0.00001220,-0.00001880,0.000
 00190,0.00000843,-0.00000168,-0.00001313,0.00001552,-0.00000854,-0.000
 82779,-0.00460971,-0.00332745,0.00040467,0.00120423,0.00089680,-0.0001
 5318,-0.00015002,0.00002892,-0.00008206,0.00008461,-0.00001044,-0.0000
 4001,-0.00007730,0.00006870,-0.00394052,0.06749320,0.00003487,-0.00005
 407,-0.00017852,-0.00087581,0.00065434,-0.00313927,0.00010527,0.000203
 38,-0.00002668,-0.00057036,-0.00096267,0.00088743,-0.00323775,-0.00027
 546,0.00083844,0.00007831,-0.00049611,0.00071762,0.00955989,0.00880751
 ,-0.00972321,-0.00019451,0.00005284,-0.00008949,-0.00359368,0.00127183
 ,-0.01633513,-0.00315270,0.00214799,-0.00158397,0.00002304,-0.00006162
 ,0.00015042,-0.03976974,0.03728950,-0.29937968,0.00037901,-0.00027467,
 0.00020176,0.00006742,-0.00002657,0.00001367,0.00000989,-0.00000046,0.
 00000777,0.00027802,0.00038777,0.00085999,-0.00020043,0.00022061,0.000
 75173,-0.00037842,-0.00006945,0.00034869,-0.00012030,-0.00022477,0.000
 30491,-0.00013593,0.00001873,-0.00003275,0.00009737,0.00002589,-0.0000
 3463,0.00000660,-0.00000097,0.00000288,-0.00003494,0.00003240,0.000064
 55,-0.00030508,-0.00256113,-0.00065881,0.00023243,0.00031075,0.0007755
 3,0.00032701,-0.00008696,-0.00001354,-0.00005182,0.00003691,-0.0000039
 4,0.00007371,0.00006286,-0.00012608,0.04135538,-0.04640314,0.32532813,
 -0.01804448,-0.02558072,-0.00897810,-0.00003846,0.00000775,-0.00003780
 ,-0.00014669,0.00010662,0.00012879,0.00006070,0.00002158,0.00000074,0.
 00014984,-0.00059739,-0.00170500,-0.00033042,0.00017144,-0.00006549,0.
 00232996,-0.00061579,-0.00120168,0.00144627,-0.00093958,0.00077760,-0.
 00152421,-0.00063910,0.00069781,0.00570592,0.01396793,0.00532311,-0.00
 004324,-0.00003364,0.00000417,-0.00004708,-0.00015496,0.00014256,-0.11
 491724,-0.11064568,-0.03960873,0.00145746,-0.00001558,0.00054715,-0.00
 550755,0.00208974,-0.00161396,0.00000679,0.00000060,-0.00000524,0.0000
 2117,-0.00000664,0.00000150,-0.00000682,-0.00000507,0.00000155,0.00003
 035,0.00001415,-0.00001070,-0.00003704,0.00001424,0.00001578,0.0000639
 7,-0.00004594,-0.00008323,0.00030942,0.00051215,-0.00023149,0.00011179
 ,0.00028012,0.00029620,-0.00004195,-0.00012480,0.00000254,-0.00078045,
 -0.00025646,0.00034058,-0.00061380,0.00090560,0.00273573,-0.00000689,0
 .00001163,-0.00000504,-0.00000032,0.00000165,0.00000010,0.00001298,-0.
 00000484,-0.00002266,0.12981821,0.00478992,0.00782856,0.00326418,0.000
 01806,0.00005173,0.00000461,-0.00015064,0.00030825,0.00005379,0.000043
 86,0.00002867,0.00001149,0.00014791,0.00209879,0.00084522,0.00031401,0
 .00005757,0.00011649,0.00042068,0.00157595,0.00101950,0.00000928,0.000
 84383,-0.00024725,-0.00062065,-0.00064491,0.00048074,-0.00784128,-0.01
 400128,-0.00377041,-0.00007398,-0.00013367,0.00003036,0.00020284,-0.00
 033201,-0.00019121,-0.10920519,-0.22092466,-0.06088128,-0.00073241,0.0
 0051308,-0.00007730,0.00211091,0.00052940,0.00069765,0.00000015,-0.000
 00117,-0.00000170,-0.00000795,0.00001492,0.00000355,-0.00002879,-0.000
 01671,0.00003006,0.00000948,-0.00000839,-0.00001494,-0.00001134,-0.000
 19627,0.00004396,-0.00003972,0.00000689,-0.00000218,-0.00001550,-0.000
 00812,-0.00035286,-0.00003664,0.00013664,-0.00014527,0.00018577,-0.000
 13994,0.00006719,-0.00071962,0.00021260,0.00009518,0.00133211,0.000216
 70,-0.00245045,-0.00004307,0.00003525,-0.00000469,0.00000079,0.0000048
 5,-0.00000309,0.00001104,0.00002300,-0.00000791,0.11980745,0.23800002,
 -0.00177164,-0.00305769,-0.00186085,0.00004535,0.00007868,0.00001012,-
 0.00001898,0.00015976,0.00000598,0.00002936,-0.00000044,-0.00000584,-0
 .00012885,0.00072098,0.00318633,0.00002043,0.00002508,0.00000879,-0.00
 073941,0.00269506,0.00211657,-0.00021992,-0.00056456,-0.00003401,0.000
 56663,-0.00008846,-0.00001181,-0.01587587,-0.02651958,-0.01171361,-0.0
 0002685,-0.00007149,0.00002281,0.00025253,-0.00027227,-0.00015668,-0.0
 3767410,-0.05834330,-0.06972499,0.00009191,0.00039325,0.00028976,-0.00
 061858,-0.00005011,0.00073520,-0.00000594,0.00000366,0.00000077,-0.000
 01786,0.00000747,-0.00000118,-0.00001927,-0.00001175,0.00001737,-0.000
 00250,-0.00001220,-0.00000468,0.00004948,0.00000513,0.00005502,0.00000
 732,0.00001348,-0.00001142,-0.00013485,0.00000430,-0.00004672,0.000031
 00,0.00002633,0.00003546,-0.00000862,-0.00003289,0.00002442,0.00029500
 ,0.00039850,-0.00027634,0.00242619,-0.00179414,-0.00405646,-0.00002253
 ,0.00001643,-0.00000072,-0.00000132,0.00000438,-0.00000351,-0.00000223
 ,0.00000027,-0.00002118,0.04127691,0.06815454,0.07367645,-0.00091957,0
 .02213852,-0.02461259,0.00002006,0.00002658,-0.00000156,-0.00003820,0.
 00003911,-0.00002437,0.00001515,0.00000361,-0.00000008,-0.00009503,0.0
 0040209,0.00546735,-0.00117080,0.00039500,0.00016811,0.00070884,-0.000
 38956,-0.00014773,-0.00675313,0.00063190,-0.00010720,0.00007917,-0.000
 08437,0.00012196,-0.00117568,-0.01053839,0.00727747,-0.00001046,-0.000
 02283,0.00001222,0.00016347,-0.00016639,-0.00006881,-0.04637670,0.0095
 0171,-0.01001034,0.00141263,-0.00034985,0.00074220,0.00152954,-0.00067
 608,0.00027743,-0.00000597,0.00000238,-0.00000517,-0.00000545,0.000006
 94,-0.00000217,-0.00000013,-0.00000081,0.00000152,-0.00000182,-0.00000
 392,-0.00000160,0.00014865,-0.00012769,-0.00000412,0.00025322,-0.00009
 480,-0.00005214,0.00010556,0.00011413,0.00009988,-0.00013217,0.0011332
 3,-0.00173918,0.00002086,0.00001990,-0.00003912,-0.00011032,0.00008788
 ,-0.00000692,0.00026736,0.00023130,-0.00041951,-0.00000758,0.00000675,
 0.00000072,-0.00000088,0.00000091,-0.00000167,0.00003445,0.00000224,0.
 00001591,0.00056181,-0.00987749,0.01219721,0.05148308,-0.00062122,-0.0
 0513386,0.00422815,0.00001596,-0.00002532,0.00002826,-0.00003806,0.000
 06598,-0.00001798,-0.00002698,0.00000076,-0.00000813,0.00168678,0.0012
 4304,-0.00350370,0.00043824,-0.00034152,0.00000357,-0.00093723,0.00053
 372,-0.00006663,0.00226483,0.00097190,-0.00019168,0.00001553,-0.000130
 37,0.00012686,-0.00064505,0.00748938,-0.00859108,-0.00001363,-0.000024
 52,0.00002004,-0.00001437,0.00006399,-0.00007411,0.00934097,-0.1786126
 5,0.13505755,-0.00016920,-0.00006959,-0.00017691,0.00021419,0.00067699
 ,-0.00023150,-0.00000348,0.00000187,-0.00000321,-0.00000345,0.00000248
 ,0.00000065,-0.00000275,-0.00000189,0.00000351,-0.00000136,-0.00000459
 ,-0.00000131,-0.00004097,0.00002257,0.00002793,-0.00012089,0.00000906,
 0.00006303,0.00000846,0.00025240,-0.00031697,-0.00004000,-0.00017079,0
 .00078335,0.00001912,-0.00002210,-0.00000148,-0.00009411,0.00008109,-0
 .00002630,-0.00053704,0.00051925,0.00081747,-0.00001035,0.00000776,-0.
 00000096,-0.00000083,0.00000106,-0.00000404,-0.00002462,0.00001011,-0.
 00001734,0.00175351,-0.01607958,0.01811157,-0.01241201,0.18866338,-0.0
 0081398,0.00195544,-0.00298184,0.00001097,0.00002753,0.00002079,-0.000
 01792,-0.00000658,0.00000006,0.00000987,-0.00000516,-0.00000919,0.0021
 6317,-0.00073111,-0.00838108,0.00180281,-0.00044978,0.00098333,-0.0011
 5048,-0.00053518,0.00118014,-0.00102660,-0.00029817,0.00133416,-0.0000
 0388,0.00001278,0.00002051,-0.00322484,0.02168958,-0.01676534,-0.00000
 401,0.00000619,-0.00000563,0.00002532,0.00014855,0.00038392,-0.0090456
 2,0.13123305,-0.18768128,-0.00037197,-0.00012640,0.00038314,0.00003518
 ,-0.00005641,0.00015323,0.00001016,-0.00000453,0.00000541,-0.00000093,
 -0.00000455,-0.00000173,0.00000307,0.00000274,-0.00000113,0.00000478,0
 .00000464,-0.00000038,-0.00022006,-0.00002725,-0.00006607,-0.00020229,
 0.00007512,-0.00006186,0.00007977,0.00017267,-0.00009869,0.00016951,0.
 00026165,-0.00009727,0.00002307,0.00001495,-0.00002979,0.00001298,0.00
 000122,0.00001322,-0.00028088,-0.00049717,0.00116679,0.00000313,-0.000
 00008,0.00000140,0.00000048,-0.00000145,0.00000229,-0.00012946,-0.0000
 5572,0.00009337,0.00127631,-0.00676797,0.00774497,0.01086233,-0.146038
 61,0.20269454\\-0.00001030,0.00001319,0.00001300,-0.00002030,-0.000013
 69,0.00000927,-0.00002051,0.00000575,-0.00001061,0.00001688,0.00002692
 ,0.00000424,0.00018652,0.00167958,0.00147537,0.00004091,-0.00001435,0.
 00000006,0.00004787,0.00249018,0.00355322,-0.00000503,0.00001411,0.000
 00413,0.00000550,0.00002959,0.00000843,-0.00027110,-0.00288761,-0.0029
 8940,0.00000930,-0.00003227,-0.00001668,0.00000700,-0.00130476,-0.0020
 4713,0.00000790,-0.00000284,0.00000404,-0.00000370,-0.00000129,-0.0000
 0994,0.00000166,0.00000343,0.00000378,0.00000035,0.00000066,-0.0000067
 7,0.00000426,0.00000639,0.00001475,0.00000248,-0.00000572,0.00000596,0
 .00000614,-0.00000442,-0.00000617,-0.00000543,0.00000406,-0.00000097,-
 0.00000493,-0.00000996,0.00000443,-0.00000490,-0.00000505,-0.00000326,
 0.00000825,-0.00000184,-0.00000964,-0.00000347,0.00000244,-0.00000922,
 0.00000171,-0.00001228,0.00000119,0.00001048,0.00001294,0.00000702,-0.
 00000701,-0.00000621,0.00000671,-0.00000154,0.00001133,-0.00000189,-0.
 00000150,-0.00000282,0.00000600,-0.00000360,-0.00000431,-0.00000786,0.
 00000608,0.00000886,-0.00000207\\\@


 I do not feel obliged to believe that the same God who
 has endowed us with sense, reason, and intellect has
 intended us to forgo their use.
                   --Galileo Galilei
 Job cpu time:       0 days 12 hours 54 minutes 27.7 seconds.
 Elapsed time:       0 days  1 hours  4 minutes 49.1 seconds.
 File lengths (MBytes):  RWF=    720 Int=      0 D2E=      0 Chk=     34 Scr=      1
 Normal termination of Gaussian 16 at Sun Mar 10 08:11:03 2019.
