 Entering Gaussian System, Link 0=g16
 Initial command:
 /sw/Projects/G16/g16/l1.exe "/nvme/pbs/tmpdir/pbs.74289[4].flm1/Gau-1128.inp" -scrdir="/nvme/pbs/tmpdir/pbs.74289[4].flm1/"
 Entering Link 1 = /sw/Projects/G16/g16/l1.exe PID=      1129.
  
 Copyright (c) 1988-2017, Gaussian, Inc.  All Rights Reserved.
  
 This is part of the Gaussian(R) 16 program.  It is based on
 the Gaussian(R) 09 system (copyright 2009, Gaussian, Inc.),
 the Gaussian(R) 03 system (copyright 2003, Gaussian, Inc.),
 the Gaussian(R) 98 system (copyright 1998, Gaussian, Inc.),
 the Gaussian(R) 94 system (copyright 1995, Gaussian, Inc.),
 the Gaussian 92(TM) system (copyright 1992, Gaussian, Inc.),
 the Gaussian 90(TM) system (copyright 1990, Gaussian, Inc.),
 the Gaussian 88(TM) system (copyright 1988, Gaussian, Inc.),
 the Gaussian 86(TM) system (copyright 1986, Carnegie Mellon
 University), and the Gaussian 82(TM) system (copyright 1983,
 Carnegie Mellon University). Gaussian is a federally registered
 trademark of Gaussian, Inc.
  
 This software contains proprietary and confidential information,
 including trade secrets, belonging to Gaussian, Inc.
  
 This software is provided under written license and may be
 used, copied, transmitted, or stored only in accord with that
 written license.
  
 The following legend is applicable only to US Government
 contracts under FAR:
  
                    RESTRICTED RIGHTS LEGEND
  
 Use, reproduction and disclosure by the US Government is
 subject to restrictions as set forth in subparagraphs (a)
 and (c) of the Commercial Computer Software - Restricted
 Rights clause in FAR 52.227-19.
  
 Gaussian, Inc.
 340 Quinnipiac St., Bldg. 40, Wallingford CT 06492
  
  
 ---------------------------------------------------------------
 Warning -- This program may not be used in any manner that
 competes with the business of Gaussian, Inc. or will provide
 assistance to any competitor of Gaussian, Inc.  The licensee
 of this program is prohibited from giving any competitor of
 Gaussian, Inc. access to this program.  By using this program,
 the user acknowledges that Gaussian, Inc. is engaged in the
 business of creating and licensing software in the field of
 computational chemistry and represents and warrants to the
 licensee that it is not a competitor of Gaussian, Inc. and that
 it will not use this program in any manner prohibited above.
 ---------------------------------------------------------------
  

 Cite this work as:
 Gaussian 16, Revision B.01,
 M. J. Frisch, G. W. Trucks, H. B. Schlegel, G. E. Scuseria, 
 M. A. Robb, J. R. Cheeseman, G. Scalmani, V. Barone, 
 G. A. Petersson, H. Nakatsuji, X. Li, M. Caricato, A. V. Marenich, 
 J. Bloino, B. G. Janesko, R. Gomperts, B. Mennucci, H. P. Hratchian, 
 J. V. Ortiz, A. F. Izmaylov, J. L. Sonnenberg, D. Williams-Young, 
 F. Ding, F. Lipparini, F. Egidi, J. Goings, B. Peng, A. Petrone, 
 T. Henderson, D. Ranasinghe, V. G. Zakrzewski, J. Gao, N. Rega, 
 G. Zheng, W. Liang, M. Hada, M. Ehara, K. Toyota, R. Fukuda, 
 J. Hasegawa, M. Ishida, T. Nakajima, Y. Honda, O. Kitao, H. Nakai, 
 T. Vreven, K. Throssell, J. A. Montgomery, Jr., J. E. Peralta, 
 F. Ogliaro, M. J. Bearpark, J. J. Heyd, E. N. Brothers, K. N. Kudin, 
 V. N. Staroverov, T. A. Keith, R. Kobayashi, J. Normand, 
 K. Raghavachari, A. P. Rendell, J. C. Burant, S. S. Iyengar, 
 J. Tomasi, M. Cossi, J. M. Millam, M. Klene, C. Adamo, R. Cammi, 
 J. W. Ochterski, R. L. Martin, K. Morokuma, O. Farkas, 
 J. B. Foresman, and D. J. Fox, Gaussian, Inc., Wallingford CT, 2016.
 
 ******************************************
 Gaussian 16:  ES64L-G16RevB.01 20-Dec-2017
                10-Mar-2019 
 ******************************************
 %mem=20gb
 %nproc=12
 Will use up to   12 processors via shared memory.
 %chk=4c1_b1_4e_4c1_PHI.inp_extract_4.chk
 ----------------------------------------------------------------------
 #M062X/6-311++G(2d,2p) opt=ModRedundant freq=noraman SCRF=(SMD,solvent
 =water)
 ----------------------------------------------------------------------
 1/18=120,19=15,26=3,38=1/1,3;
 2/9=110,12=2,17=6,18=5,40=1/2;
 3/5=4,6=6,7=1212,11=2,25=1,30=1,70=32201,71=1,72=1,74=-55/1,2,3;
 4//1;
 5/5=2,38=5,53=1/2;
 6/7=2,8=2,9=2,10=2,28=1/1;
 7//1,2,3,16;
 1/18=20,19=15,26=3/3(2);
 2/9=110/2;
 99//99;
 2/9=110/2;
 3/5=4,6=6,7=1212,11=2,25=1,30=1,70=32205,71=1,72=1,74=-55/1,2,3;
 4/5=5,16=3,69=1/1;
 5/5=2,38=5,53=1/2;
 7//1,2,3,16;
 1/18=20,19=15,26=3/3(-5);
 2/9=110/2;
 6/7=2,8=2,9=2,10=2,19=2,28=1/1;
 99/9=1/99;
 -------------------------------
 4c1_b1_4e_4c1_PHI.inp_extract_4
 -------------------------------
 Symbolic Z-matrix:
 Charge =  0 Multiplicity = 1
 C                    -3.70492  -0.64996   0.40095 
 C                     2.23868  -1.21019  -0.49684 
 C                     2.90776   1.37035   0.5521 
 O                     3.43578  -0.54263  -0.83071 
 O                    -1.36821   0.75399  -0.46047 
 C                    -2.63751   1.172    -0.94035 
 O                    -0.00438  -0.98034   0.17571 
 C                    -3.73375   0.84076   0.05951 
 C                     1.55419   0.74457   0.89994 
 C                    -1.29265  -0.62748  -0.23893 
 C                     3.92121   0.29201   0.20578 
 C                     1.12429  -0.21148  -0.20644 
 C                    -2.29144  -1.0705    0.81188 
 H                    -4.40641  -0.87412   1.198 
 H                    -4.01629  -1.22596  -0.46798 
 H                     2.40215  -1.84688   0.36974 
 H                     1.97937  -1.83421  -1.34107 
 H                     2.79998   2.04219  -0.29591 
 H                     3.27886   1.95816   1.38639 
 H                    -2.82991   0.68849  -1.89512 
 H                    -2.55547   2.2365   -1.10786 
 H                    -3.58282   1.43041   0.96043 
 H                    -4.69493   1.12443  -0.35956 
 H                     1.63893   0.18059   1.82642 
 H                     0.80483   1.51256   1.05313 
 H                    -1.49584  -1.12301  -1.18667 
 H                     4.84632   0.71903  -0.1565 
 H                     4.14346  -0.31942   1.07752 
 H                     0.91097   0.3366   -1.11427 
 H                    -2.01859  -0.60721   1.75636 
 H                    -2.22528  -2.14671   0.93517 
 
 The following ModRedundant input section has been read:
 D      12       7      10       5 F                                           
 

 GradGradGradGradGradGradGradGradGradGradGradGradGradGradGradGradGradGrad
 Berny optimization.
 Initialization pass.
                           ----------------------------
                           !    Initial Parameters    !
                           ! (Angstroms and Degrees)  !
 --------------------------                            --------------------------
 ! Name  Definition              Value          Derivative Info.                !
 --------------------------------------------------------------------------------
 ! R1    R(1,8)                  1.5296         estimate D2E/DX2                !
 ! R2    R(1,13)                 1.5309         estimate D2E/DX2                !
 ! R3    R(1,14)                 1.0852         estimate D2E/DX2                !
 ! R4    R(1,15)                 1.088          estimate D2E/DX2                !
 ! R5    R(2,4)                  1.4107         estimate D2E/DX2                !
 ! R6    R(2,12)                 1.5243         estimate D2E/DX2                !
 ! R7    R(2,16)                 1.0877         estimate D2E/DX2                !
 ! R8    R(2,17)                 1.0814         estimate D2E/DX2                !
 ! R9    R(3,9)                  1.5313         estimate D2E/DX2                !
 ! R10   R(3,11)                 1.5198         estimate D2E/DX2                !
 ! R11   R(3,18)                 1.0872         estimate D2E/DX2                !
 ! R12   R(3,19)                 1.0859         estimate D2E/DX2                !
 ! R13   R(4,11)                 1.4165         estimate D2E/DX2                !
 ! R14   R(5,6)                  1.4199         estimate D2E/DX2                !
 ! R15   R(5,10)                 1.4012         estimate D2E/DX2                !
 ! R16   R(6,8)                  1.5203         estimate D2E/DX2                !
 ! R17   R(6,20)                 1.0874         estimate D2E/DX2                !
 ! R18   R(6,21)                 1.0807         estimate D2E/DX2                !
 ! R19   R(7,10)                 1.3986         estimate D2E/DX2                !
 ! R20   R(7,12)                 1.4181         estimate D2E/DX2                !
 ! R21   R(8,22)                 1.0873         estimate D2E/DX2                !
 ! R22   R(8,23)                 1.0863         estimate D2E/DX2                !
 ! R23   R(9,12)                 1.5241         estimate D2E/DX2                !
 ! R24   R(9,24)                 1.0879         estimate D2E/DX2                !
 ! R25   R(9,25)                 1.0839         estimate D2E/DX2                !
 ! R26   R(10,13)                1.5159         estimate D2E/DX2                !
 ! R27   R(10,26)                1.0886         estimate D2E/DX2                !
 ! R28   R(11,27)                1.0814         estimate D2E/DX2                !
 ! R29   R(11,28)                1.0877         estimate D2E/DX2                !
 ! R30   R(12,29)                1.0817         estimate D2E/DX2                !
 ! R31   R(13,30)                1.0868         estimate D2E/DX2                !
 ! R32   R(13,31)                1.0853         estimate D2E/DX2                !
 ! A1    A(8,1,13)             110.1839         estimate D2E/DX2                !
 ! A2    A(8,1,14)             110.6762         estimate D2E/DX2                !
 ! A3    A(8,1,15)             109.4075         estimate D2E/DX2                !
 ! A4    A(13,1,14)            110.0562         estimate D2E/DX2                !
 ! A5    A(13,1,15)            109.462          estimate D2E/DX2                !
 ! A6    A(14,1,15)            106.9925         estimate D2E/DX2                !
 ! A7    A(4,2,12)             110.819          estimate D2E/DX2                !
 ! A8    A(4,2,16)             109.756          estimate D2E/DX2                !
 ! A9    A(4,2,17)             106.9649         estimate D2E/DX2                !
 ! A10   A(12,2,16)            109.9751         estimate D2E/DX2                !
 ! A11   A(12,2,17)            110.5792         estimate D2E/DX2                !
 ! A12   A(16,2,17)            108.6776         estimate D2E/DX2                !
 ! A13   A(9,3,11)             110.5633         estimate D2E/DX2                !
 ! A14   A(9,3,18)             110.004          estimate D2E/DX2                !
 ! A15   A(9,3,19)             110.4116         estimate D2E/DX2                !
 ! A16   A(11,3,18)            109.0751         estimate D2E/DX2                !
 ! A17   A(11,3,19)            109.3444         estimate D2E/DX2                !
 ! A18   A(18,3,19)            107.3744         estimate D2E/DX2                !
 ! A19   A(2,4,11)             113.3557         estimate D2E/DX2                !
 ! A20   A(6,5,10)             113.0727         estimate D2E/DX2                !
 ! A21   A(5,6,8)              110.9886         estimate D2E/DX2                !
 ! A22   A(5,6,20)             108.9065         estimate D2E/DX2                !
 ! A23   A(5,6,21)             105.932          estimate D2E/DX2                !
 ! A24   A(8,6,20)             110.6715         estimate D2E/DX2                !
 ! A25   A(8,6,21)             111.7952         estimate D2E/DX2                !
 ! A26   A(20,6,21)            108.3805         estimate D2E/DX2                !
 ! A27   A(10,7,12)            121.0928         estimate D2E/DX2                !
 ! A28   A(1,8,6)              110.2165         estimate D2E/DX2                !
 ! A29   A(1,8,22)             109.9355         estimate D2E/DX2                !
 ! A30   A(1,8,23)             110.9344         estimate D2E/DX2                !
 ! A31   A(6,8,22)             109.0695         estimate D2E/DX2                !
 ! A32   A(6,8,23)             109.113          estimate D2E/DX2                !
 ! A33   A(22,8,23)            107.5103         estimate D2E/DX2                !
 ! A34   A(3,9,12)             109.9247         estimate D2E/DX2                !
 ! A35   A(3,9,24)             109.6609         estimate D2E/DX2                !
 ! A36   A(3,9,25)             110.7122         estimate D2E/DX2                !
 ! A37   A(12,9,24)            108.3594         estimate D2E/DX2                !
 ! A38   A(12,9,25)            110.6122         estimate D2E/DX2                !
 ! A39   A(24,9,25)            107.506          estimate D2E/DX2                !
 ! A40   A(5,10,7)             110.2            estimate D2E/DX2                !
 ! A41   A(5,10,13)            111.2355         estimate D2E/DX2                !
 ! A42   A(5,10,26)            107.5229         estimate D2E/DX2                !
 ! A43   A(7,10,13)            109.1263         estimate D2E/DX2                !
 ! A44   A(7,10,26)            108.3722         estimate D2E/DX2                !
 ! A45   A(13,10,26)           110.3331         estimate D2E/DX2                !
 ! A46   A(3,11,4)             110.8721         estimate D2E/DX2                !
 ! A47   A(3,11,27)            111.5066         estimate D2E/DX2                !
 ! A48   A(3,11,28)            110.6375         estimate D2E/DX2                !
 ! A49   A(4,11,27)            106.3023         estimate D2E/DX2                !
 ! A50   A(4,11,28)            108.9796         estimate D2E/DX2                !
 ! A51   A(27,11,28)           108.4002         estimate D2E/DX2                !
 ! A52   A(2,12,7)             106.1385         estimate D2E/DX2                !
 ! A53   A(2,12,9)             110.0635         estimate D2E/DX2                !
 ! A54   A(2,12,29)            108.4364         estimate D2E/DX2                !
 ! A55   A(7,12,9)             111.6521         estimate D2E/DX2                !
 ! A56   A(7,12,29)            110.1157         estimate D2E/DX2                !
 ! A57   A(9,12,29)            110.3062         estimate D2E/DX2                !
 ! A58   A(1,13,10)            109.9977         estimate D2E/DX2                !
 ! A59   A(1,13,30)            110.364          estimate D2E/DX2                !
 ! A60   A(1,13,31)            111.0499         estimate D2E/DX2                !
 ! A61   A(10,13,30)           108.2047         estimate D2E/DX2                !
 ! A62   A(10,13,31)           109.1707         estimate D2E/DX2                !
 ! A63   A(30,13,31)           107.9811         estimate D2E/DX2                !
 ! D1    D(13,1,8,6)            51.4724         estimate D2E/DX2                !
 ! D2    D(13,1,8,22)          -68.7874         estimate D2E/DX2                !
 ! D3    D(13,1,8,23)          172.4342         estimate D2E/DX2                !
 ! D4    D(14,1,8,6)           173.4283         estimate D2E/DX2                !
 ! D5    D(14,1,8,22)           53.1685         estimate D2E/DX2                !
 ! D6    D(14,1,8,23)          -65.6099         estimate D2E/DX2                !
 ! D7    D(15,1,8,6)           -68.9171         estimate D2E/DX2                !
 ! D8    D(15,1,8,22)          170.8231         estimate D2E/DX2                !
 ! D9    D(15,1,8,23)           52.0447         estimate D2E/DX2                !
 ! D10   D(8,1,13,10)          -51.8256         estimate D2E/DX2                !
 ! D11   D(8,1,13,30)           67.4955         estimate D2E/DX2                !
 ! D12   D(8,1,13,31)         -172.7897         estimate D2E/DX2                !
 ! D13   D(14,1,13,10)        -174.1478         estimate D2E/DX2                !
 ! D14   D(14,1,13,30)         -54.8267         estimate D2E/DX2                !
 ! D15   D(14,1,13,31)          64.888          estimate D2E/DX2                !
 ! D16   D(15,1,13,10)          68.5312         estimate D2E/DX2                !
 ! D17   D(15,1,13,30)        -172.1477         estimate D2E/DX2                !
 ! D18   D(15,1,13,31)         -52.433          estimate D2E/DX2                !
 ! D19   D(12,2,4,11)           61.0165         estimate D2E/DX2                !
 ! D20   D(16,2,4,11)          -60.6448         estimate D2E/DX2                !
 ! D21   D(17,2,4,11)         -178.3755         estimate D2E/DX2                !
 ! D22   D(4,2,12,7)          -177.3365         estimate D2E/DX2                !
 ! D23   D(4,2,12,9)           -56.3654         estimate D2E/DX2                !
 ! D24   D(4,2,12,29)           64.3784         estimate D2E/DX2                !
 ! D25   D(16,2,12,7)          -55.8038         estimate D2E/DX2                !
 ! D26   D(16,2,12,9)           65.1673         estimate D2E/DX2                !
 ! D27   D(16,2,12,29)        -174.0889         estimate D2E/DX2                !
 ! D28   D(17,2,12,7)           64.2252         estimate D2E/DX2                !
 ! D29   D(17,2,12,9)         -174.8036         estimate D2E/DX2                !
 ! D30   D(17,2,12,29)         -54.0599         estimate D2E/DX2                !
 ! D31   D(11,3,9,12)          -51.9865         estimate D2E/DX2                !
 ! D32   D(11,3,9,24)           67.0445         estimate D2E/DX2                !
 ! D33   D(11,3,9,25)         -174.4924         estimate D2E/DX2                !
 ! D34   D(18,3,9,12)           68.5461         estimate D2E/DX2                !
 ! D35   D(18,3,9,24)         -172.4229         estimate D2E/DX2                !
 ! D36   D(18,3,9,25)          -53.9599         estimate D2E/DX2                !
 ! D37   D(19,3,9,12)         -173.1238         estimate D2E/DX2                !
 ! D38   D(19,3,9,24)          -54.0929         estimate D2E/DX2                !
 ! D39   D(19,3,9,25)           64.3702         estimate D2E/DX2                !
 ! D40   D(9,3,11,4)            54.932          estimate D2E/DX2                !
 ! D41   D(9,3,11,27)          173.1711         estimate D2E/DX2                !
 ! D42   D(9,3,11,28)          -66.1022         estimate D2E/DX2                !
 ! D43   D(18,3,11,4)          -66.1535         estimate D2E/DX2                !
 ! D44   D(18,3,11,27)          52.0857         estimate D2E/DX2                !
 ! D45   D(18,3,11,28)         172.8124         estimate D2E/DX2                !
 ! D46   D(19,3,11,4)          176.7002         estimate D2E/DX2                !
 ! D47   D(19,3,11,27)         -65.0607         estimate D2E/DX2                !
 ! D48   D(19,3,11,28)          55.6661         estimate D2E/DX2                !
 ! D49   D(2,4,11,3)           -60.2799         estimate D2E/DX2                !
 ! D50   D(2,4,11,27)          178.3671         estimate D2E/DX2                !
 ! D51   D(2,4,11,28)           61.7279         estimate D2E/DX2                !
 ! D52   D(10,5,6,8)            60.7053         estimate D2E/DX2                !
 ! D53   D(10,5,6,20)          -61.3714         estimate D2E/DX2                !
 ! D54   D(10,5,6,21)         -177.756          estimate D2E/DX2                !
 ! D55   D(6,5,10,7)           177.4424         estimate D2E/DX2                !
 ! D56   D(6,5,10,13)          -61.3908         estimate D2E/DX2                !
 ! D57   D(6,5,10,26)           59.5146         estimate D2E/DX2                !
 ! D58   D(5,6,8,1)            -54.9645         estimate D2E/DX2                !
 ! D59   D(5,6,8,22)            65.8156         estimate D2E/DX2                !
 ! D60   D(5,6,8,23)          -177.0094         estimate D2E/DX2                !
 ! D61   D(20,6,8,1)            66.0783         estimate D2E/DX2                !
 ! D62   D(20,6,8,22)         -173.1417         estimate D2E/DX2                !
 ! D63   D(20,6,8,23)          -55.9666         estimate D2E/DX2                !
 ! D64   D(21,6,8,1)          -173.0016         estimate D2E/DX2                !
 ! D65   D(21,6,8,22)          -52.2215         estimate D2E/DX2                !
 ! D66   D(21,6,8,23)           64.9536         estimate D2E/DX2                !
 ! D67   D(12,7,10,5)          -27.5457         Frozen                          !
 ! D68   D(12,7,10,13)        -149.9632         estimate D2E/DX2                !
 ! D69   D(12,7,10,26)          89.8574         estimate D2E/DX2                !
 ! D70   D(10,7,12,2)         -140.9333         estimate D2E/DX2                !
 ! D71   D(10,7,12,9)           99.125          estimate D2E/DX2                !
 ! D72   D(10,7,12,29)         -23.7657         estimate D2E/DX2                !
 ! D73   D(3,9,12,2)            52.4123         estimate D2E/DX2                !
 ! D74   D(3,9,12,7)           170.0172         estimate D2E/DX2                !
 ! D75   D(3,9,12,29)          -67.2009         estimate D2E/DX2                !
 ! D76   D(24,9,12,2)          -67.4136         estimate D2E/DX2                !
 ! D77   D(24,9,12,7)           50.1913         estimate D2E/DX2                !
 ! D78   D(24,9,12,29)         172.9733         estimate D2E/DX2                !
 ! D79   D(25,9,12,2)          174.9774         estimate D2E/DX2                !
 ! D80   D(25,9,12,7)          -67.4177         estimate D2E/DX2                !
 ! D81   D(25,9,12,29)          55.3642         estimate D2E/DX2                !
 ! D82   D(5,10,13,1)           56.2254         estimate D2E/DX2                !
 ! D83   D(5,10,13,30)         -64.4057         estimate D2E/DX2                !
 ! D84   D(5,10,13,31)         178.3113         estimate D2E/DX2                !
 ! D85   D(7,10,13,1)          178.0187         estimate D2E/DX2                !
 ! D86   D(7,10,13,30)          57.3877         estimate D2E/DX2                !
 ! D87   D(7,10,13,31)         -59.8954         estimate D2E/DX2                !
 ! D88   D(26,10,13,1)         -63.0157         estimate D2E/DX2                !
 ! D89   D(26,10,13,30)        176.3533         estimate D2E/DX2                !
 ! D90   D(26,10,13,31)         59.0703         estimate D2E/DX2                !
 --------------------------------------------------------------------------------
 Trust Radius=3.00D-01 FncErr=1.00D-07 GrdErr=1.00D-06 EigMax=2.50D+02 EigMin=1.00D-04
 Number of steps in this run=    186 maximum allowed number of steps=    186.
 GradGradGradGradGradGradGradGradGradGradGradGradGradGradGradGradGradGrad

                          Input orientation:                          
 ---------------------------------------------------------------------
 Center     Atomic      Atomic             Coordinates (Angstroms)
 Number     Number       Type             X           Y           Z
 ---------------------------------------------------------------------
      1          6           0       -3.704924   -0.649962    0.400947
      2          6           0        2.238677   -1.210186   -0.496837
      3          6           0        2.907755    1.370354    0.552097
      4          8           0        3.435780   -0.542633   -0.830709
      5          8           0       -1.368209    0.753986   -0.460470
      6          6           0       -2.637509    1.171995   -0.940353
      7          8           0       -0.004376   -0.980342    0.175707
      8          6           0       -3.733748    0.840758    0.059506
      9          6           0        1.554192    0.744570    0.899944
     10          6           0       -1.292648   -0.627481   -0.238931
     11          6           0        3.921206    0.292005    0.205776
     12          6           0        1.124289   -0.211475   -0.206440
     13          6           0       -2.291438   -1.070497    0.811883
     14          1           0       -4.406405   -0.874119    1.198001
     15          1           0       -4.016289   -1.225959   -0.467977
     16          1           0        2.402148   -1.846877    0.369737
     17          1           0        1.979365   -1.834214   -1.341072
     18          1           0        2.799979    2.042190   -0.295906
     19          1           0        3.278856    1.958161    1.386390
     20          1           0       -2.829914    0.688486   -1.895120
     21          1           0       -2.555469    2.236498   -1.107857
     22          1           0       -3.582820    1.430410    0.960432
     23          1           0       -4.694928    1.124427   -0.359557
     24          1           0        1.638932    0.180589    1.826420
     25          1           0        0.804834    1.512557    1.053127
     26          1           0       -1.495839   -1.123014   -1.186669
     27          1           0        4.846321    0.719033   -0.156499
     28          1           0        4.143459   -0.319418    1.077523
     29          1           0        0.910972    0.336601   -1.114273
     30          1           0       -2.018586   -0.607211    1.756356
     31          1           0       -2.225283   -2.146712    0.935169
 ---------------------------------------------------------------------
                    Distance matrix (angstroms):
                    1          2          3          4          5
     1  C    0.000000
     2  C    6.037074   0.000000
     3  C    6.916072   2.864806   0.000000
     4  O    7.246941   1.410728   2.418777   0.000000
     5  O    2.858906   4.107179   4.437237   4.989650   0.000000
     6  C    2.501597   5.445060   5.746017   6.311641   1.419909
     7  O    3.722088   2.352962   3.761376   3.610974   2.296226
     8  C    1.529594   6.339223   6.680769   7.355840   2.423567
     9  C    5.463700   2.498117   1.531253   2.862241   3.223545
    10  C    2.495801   3.588359   4.718099   4.766071   1.401157
    11  C    7.686563   2.362445   1.519822   1.416531   5.351189
    12  C    4.886971   1.524341   2.501662   2.417099   2.684994
    13  C    1.530902   4.717436   5.749509   5.981453   2.408313
    14  H    1.085181   6.866042   7.678007   8.107121   3.825165
    15  H    1.088003   6.255052   7.464836   7.492119   3.306443
    16  H    6.223336   1.087680   3.261820   2.051955   4.655032
    17  H    6.062031   1.081382   3.836047   2.012411   4.322093
    18  H    7.074394   3.306567   1.087239   2.715063   4.365815
    19  H    7.519746   3.829744   1.085946   3.345762   5.143553
    20  H    2.798037   5.590238   6.274923   6.473604   2.049169
    21  H    3.453895   5.936060   5.775160   6.610253   2.006624
    22  H    2.157749   6.556387   6.503684   7.507452   2.716802
    23  H    2.169546   7.317386   7.661095   8.313212   3.348801
    24  H    5.592726   2.773350   2.156236   3.288168   3.821197
    25  H    5.043783   3.445522   2.166456   3.833343   2.754727
    26  H    2.761224   3.798694   5.350872   4.978395   2.016627
    27  H    8.678058   3.261522   2.164340   2.008976   6.222058
    28  H    7.884423   2.626837   2.158325   2.047433   5.822036
    29  H    4.957388   2.129924   2.798674   2.688516   2.407558
    30  H    2.163954   4.854353   5.443330   6.037150   2.681448
    31  H    2.171403   4.780655   6.234146   6.143210   3.331131
                    6          7          8          9         10
     6  C    0.000000
     7  O    3.579320   0.000000
     8  C    1.520255   4.151882   0.000000
     9  C    4.597798   2.434949   5.355175   0.000000
    10  C    2.353457   1.398599   2.864221   3.359175   0.000000
    11  C    6.716006   4.126738   7.675992   2.507876   5.312955
    12  C    4.074769   1.418125   4.977795   1.524114   2.452693
    13  C    2.866857   2.375605   2.509826   4.253363   1.515934
    14  H    3.447917   4.520423   2.165512   6.183665   3.438181
    15  H    2.806128   4.070639   2.151601   6.065019   2.798010
    16  H    6.018976   2.565129   6.705881   2.777723   3.938137
    17  H    5.523893   2.639118   6.461947   3.442826   3.657457
    18  H    5.544261   4.150003   6.652770   2.160060   4.886715
    19  H    6.405870   4.569482   7.223976   2.164232   5.497805
    20  H    1.087373   3.880332   2.158857   5.199607   2.614941
    21  H    1.080720   4.301589   2.167756   4.811073   3.248403
    22  H    2.138545   4.385519   1.087261   5.182946   3.304281
    23  H    2.138354   5.168930   1.086255   6.386089   3.828739
    24  H    5.189014   2.602513   5.694164   1.087940   3.675978
    25  H    3.992452   2.763916   4.694393   1.083885   3.263220
    26  H    2.575102   2.025064   3.227629   4.140593   1.088599
    27  H    7.538389   5.150485   8.583651   3.457577   6.285446
    28  H    7.230329   4.295885   8.027002   2.804979   5.601715
    29  H    3.649637   2.058215   4.817194   2.153425   2.559613
    30  H    3.289510   2.587416   2.813840   3.914779   2.123339
    31  H    3.834231   2.620998   3.459368   4.758696   2.134568
                   11         12         13         14         15
    11  C    0.000000
    12  C    2.871613   0.000000
    13  C    6.389110   3.666346   0.000000
    14  H    8.467199   5.744574   2.158874   0.000000
    15  H    8.109376   5.246248   2.153444   1.746844   0.000000
    16  H    2.628543   2.153937   4.777867   6.927386   6.502587
    17  H    3.268684   2.156809   4.843370   6.938785   6.089346
    18  H    2.138219   2.809795   6.069476   7.916349   7.561211
    19  H    2.140687   3.447693   6.366396   8.192712   8.172909
    20  H    7.081566   4.392868   3.272895   3.807158   2.666331
    21  H    6.888687   4.510626   3.832927   4.291723   3.812093
    22  H    7.627311   5.119986   2.818558   2.458777   3.047055
    23  H    8.674693   5.972551   3.459296   2.550180   2.448800
    24  H    2.801370   2.133329   4.247624   6.168745   6.262919
    25  H    3.452467   2.158899   4.039464   5.733605   5.749474
    26  H    5.769364   2.942248   2.151731   3.770941   2.622934
    27  H    1.081404   3.836908   7.422115   9.486081   9.078869
    28  H    1.087740   3.282621   6.484025   8.568686   8.354153
    29  H    3.287252   1.081690   3.993173   5.923424   5.209337
    30  H    6.204355   3.726505   1.086789   2.466714   3.053084
    31  H    6.652720   4.033367   1.085272   2.538871   2.454446
                   16         17         18         19         20
    16  H    0.000000
    17  H    1.762320   0.000000
    18  H    3.965626   4.097839   0.000000
    19  H    4.034912   4.848694   1.751144   0.000000
    20  H    6.239561   5.458951   6.007137   7.049642   0.000000
    21  H    6.590539   6.098344   5.420133   6.351227   1.758250
    22  H    6.849042   6.847817   6.533971   6.895111   3.044913
    23  H    7.728454   7.366350   7.551157   8.205161   2.454847
    24  H    2.610564   3.769394   3.052516   2.458198   5.837671
    25  H    3.782093   4.279321   2.465969   2.535826   4.752120
    26  H    4.259188   3.550590   5.409808   6.237947   2.358642
    27  H    3.582569   4.017676   2.440839   2.524459   7.870725
    28  H    2.422036   3.581552   3.044411   2.455668   7.647248
    29  H    3.032073   2.430090   2.673407   3.806527   3.837678
    30  H    4.796079   5.204153   5.869384   5.897533   3.958581
    31  H    4.671481   4.791450   6.657004   6.881070   4.051477
                   21         22         23         24         25
    21  H    0.000000
    22  H    2.446027   0.000000
    23  H    2.524666   1.752935   0.000000
    24  H    5.516316   5.438629   6.766617   0.000000
    25  H    4.060244   4.389402   5.691547   1.751525   0.000000
    26  H    3.523542   3.935163   3.996158   4.539259   4.154036
    27  H    7.615397   8.532527   9.552016   3.809099   4.292609
    28  H    7.495614   7.922815   9.070114   2.661486   3.808299
    29  H    3.952956   5.069022   5.711075   3.033470   2.468149
    30  H    4.071688   2.689279   3.826025   3.742055   3.599951
    31  H    4.847217   3.826140   4.298350   4.598132   4.752449
                   26         27         28         29         30
    26  H    0.000000
    27  H    6.684114   0.000000
    28  H    6.129765   1.759320   0.000000
    29  H    2.815751   4.068238   3.960215   0.000000
    30  H    3.033268   7.248785   6.206000   4.208753   0.000000
    31  H    2.466220   7.707906   6.627227   4.494792   1.757024
                   31
    31  H    0.000000
 Stoichiometry    C10H18O3
 Framework group  C1[X(C10H18O3)]
 Deg. of freedom    87
 Full point group                 C1      NOp   1
 Largest Abelian subgroup         C1      NOp   1
 Largest concise Abelian subgroup C1      NOp   1
                         Standard orientation:                         
 ---------------------------------------------------------------------
 Center     Atomic      Atomic             Coordinates (Angstroms)
 Number     Number       Type             X           Y           Z
 ---------------------------------------------------------------------
      1          6           0       -3.704924   -0.649962    0.400947
      2          6           0        2.238677   -1.210186   -0.496837
      3          6           0        2.907755    1.370354    0.552097
      4          8           0        3.435780   -0.542633   -0.830709
      5          8           0       -1.368209    0.753986   -0.460470
      6          6           0       -2.637509    1.171995   -0.940353
      7          8           0       -0.004376   -0.980342    0.175707
      8          6           0       -3.733748    0.840758    0.059506
      9          6           0        1.554192    0.744570    0.899944
     10          6           0       -1.292648   -0.627481   -0.238931
     11          6           0        3.921206    0.292005    0.205776
     12          6           0        1.124289   -0.211475   -0.206440
     13          6           0       -2.291438   -1.070497    0.811883
     14          1           0       -4.406405   -0.874119    1.198001
     15          1           0       -4.016289   -1.225959   -0.467977
     16          1           0        2.402148   -1.846877    0.369737
     17          1           0        1.979365   -1.834214   -1.341072
     18          1           0        2.799979    2.042190   -0.295906
     19          1           0        3.278856    1.958161    1.386390
     20          1           0       -2.829914    0.688486   -1.895120
     21          1           0       -2.555469    2.236498   -1.107857
     22          1           0       -3.582820    1.430410    0.960432
     23          1           0       -4.694928    1.124427   -0.359557
     24          1           0        1.638932    0.180589    1.826420
     25          1           0        0.804834    1.512557    1.053127
     26          1           0       -1.495839   -1.123014   -1.186669
     27          1           0        4.846321    0.719033   -0.156499
     28          1           0        4.143459   -0.319418    1.077523
     29          1           0        0.910972    0.336601   -1.114273
     30          1           0       -2.018586   -0.607211    1.756356
     31          1           0       -2.225283   -2.146712    0.935169
 ---------------------------------------------------------------------
 Rotational constants (GHZ):           2.1179749           0.3728530           0.3510764
 Standard basis: 6-311++G(2d,2p) (5D, 7F)
 There are   557 symmetry adapted cartesian basis functions of A   symmetry.
 There are   531 symmetry adapted basis functions of A   symmetry.
   531 basis functions,   762 primitive gaussians,   557 cartesian basis functions
    51 alpha electrons       51 beta electrons
       nuclear repulsion energy       883.0590440102 Hartrees.
 NAtoms=   31 NActive=   31 NUniq=   31 SFac= 1.00D+00 NAtFMM=   60 NAOKFM=F Big=F
 Integral buffers will be    131072 words long.
 Raffenetti 2 integral format.
 Two-electron integral symmetry is turned on.
 ------------------------------------------------------------------------------
 Polarizable Continuum Model (PCM)
 =================================
 Model                : PCM.
 Atomic radii         : SMD-Coulomb.
 Polarization charges : Total charges.
 Charge compensation  : None.
 Solution method      : On-the-fly selection.
 Cavity type          : VdW (van der Waals Surface) (Alpha=1.000).
 Cavity algorithm     : GePol (No added spheres)
                        Default sphere list used, NSphG=   31.
                        Lebedev-Laikov grids with approx.  5.0 points / Ang**2.
                        Smoothing algorithm: York/Karplus (Gamma=1.0000).
                        Polarization charges: spherical gaussians, with
                                              point-specific exponents (IZeta= 3).
                        Self-potential: point-specific (ISelfS= 7).
                        Self-field    : sphere-specific E.n sum rule (ISelfD= 2).
 1st derivatives      : Analytical E(r).r(x)/FMM algorithm (CHGder, D1EAlg=3).
                        Cavity 1st derivative terms included.
 Solvent              : Water, Eps=  78.355300 Eps(inf)=   1.777849
 ------------------------------------------------------------------------------
 ------------------------------------------------------------------------------
 Atomic radii for non-electrostatic terms: SMD-CDS.
 ------------------------------------------------------------------------------
 Nuclear repulsion after PCM non-electrostatic terms =      883.0655564229 Hartrees.
 One-electron integrals computed using PRISM.
 NBasis=   531 RedAO= T EigKep=  6.14D-06  NBF=   531
 NBsUse=   531 1.00D-06 EigRej= -1.00D+00 NBFU=   531
 ExpMin= 3.60D-02 ExpMax= 8.59D+03 ExpMxC= 1.30D+03 IAcc=3 IRadAn=         5 AccDes= 0.00D+00
 Harris functional with IExCor= 1009 and IRadAn=       5 diagonalized for initial guess.
 HarFok:  IExCor= 1009 AccDes= 0.00D+00 IRadAn=         5 IDoV= 1 UseB2=F ITyADJ=14
 ICtDFT=  3500011 ScaDFX=  1.000000  1.000000  1.000000  1.000000
 FoFCou: FMM=F IPFlag=           0 FMFlag=      100000 FMFlg1=           0
         NFxFlg=           0 DoJE=T BraDBF=F KetDBF=T FulRan=T
         wScrn=  0.000000 ICntrl=       500 IOpCl=  0 I1Cent=   200000004 NGrid=           0
         NMat0=    1 NMatS0=      1 NMatT0=    0 NMatD0=    1 NMtDS0=    0 NMtDT0=    0
 Petite list used in FoFCou.
 Requested convergence on RMS density matrix=1.00D-08 within 128 cycles.
 Requested convergence on MAX density matrix=1.00D-06.
 Requested convergence on             energy=1.00D-06.
 No special actions if energy rises.
 Inv3:  Mode=1 IEnd=    12301875.
 Iteration    1 A*A^-1 deviation from unit magnitude is 9.55D-15 for    226.
 Iteration    1 A*A^-1 deviation from orthogonality  is 3.63D-15 for    226    206.
 Iteration    1 A^-1*A deviation from unit magnitude is 8.10D-15 for    156.
 Iteration    1 A^-1*A deviation from orthogonality  is 8.94D-14 for   1453   1386.
 Error on total polarization charges =  0.06259
 SCF Done:  E(RM062X) =  -617.499622791     A.U. after   12 cycles
            NFock= 12  Conv=0.50D-08     -V/T= 2.0035
 SMD-CDS (non-electrostatic) energy       (kcal/mol) =       4.09
 (included in total energy above)

 **********************************************************************

            Population analysis using the SCF Density.

 **********************************************************************

 Orbital symmetries:
       Occupied  (A) (A) (A) (A) (A) (A) (A) (A) (A) (A) (A) (A)
                 (A) (A) (A) (A) (A) (A) (A) (A) (A) (A) (A) (A)
                 (A) (A) (A) (A) (A) (A) (A) (A) (A) (A) (A) (A)
                 (A) (A) (A) (A) (A) (A) (A) (A) (A) (A) (A) (A)
                 (A) (A) (A)
       Virtual   (A) (A) (A) (A) (A) (A) (A) (A) (A) (A) (A) (A)
                 (A) (A) (A) (A) (A) (A) (A) (A) (A) (A) (A) (A)
                 (A) (A) (A) (A) (A) (A) (A) (A) (A) (A) (A) (A)
                 (A) (A) (A) (A) (A) (A) (A) (A) (A) (A) (A) (A)
                 (A) (A) (A) (A) (A) (A) (A) (A) (A) (A) (A) (A)
                 (A) (A) (A) (A) (A) (A) (A) (A) (A) (A) (A) (A)
                 (A) (A) (A) (A) (A) (A) (A) (A) (A) (A) (A) (A)
                 (A) (A) (A) (A) (A) (A) (A) (A) (A) (A) (A) (A)
                 (A) (A) (A) (A) (A) (A) (A) (A) (A) (A) (A) (A)
                 (A) (A) (A) (A) (A) (A) (A) (A) (A) (A) (A) (A)
                 (A) (A) (A) (A) (A) (A) (A) (A) (A) (A) (A) (A)
                 (A) (A) (A) (A) (A) (A) (A) (A) (A) (A) (A) (A)
                 (A) (A) (A) (A) (A) (A) (A) (A) (A) (A) (A) (A)
                 (A) (A) (A) (A) (A) (A) (A) (A) (A) (A) (A) (A)
                 (A) (A) (A) (A) (A) (A) (A) (A) (A) (A) (A) (A)
                 (A) (A) (A) (A) (A) (A) (A) (A) (A) (A) (A) (A)
                 (A) (A) (A) (A) (A) (A) (A) (A) (A) (A) (A) (A)
                 (A) (A) (A) (A) (A) (A) (A) (A) (A) (A) (A) (A)
                 (A) (A) (A) (A) (A) (A) (A) (A) (A) (A) (A) (A)
                 (A) (A) (A) (A) (A) (A) (A) (A) (A) (A) (A) (A)
                 (A) (A) (A) (A) (A) (A) (A) (A) (A) (A) (A) (A)
                 (A) (A) (A) (A) (A) (A) (A) (A) (A) (A) (A) (A)
                 (A) (A) (A) (A) (A) (A) (A) (A) (A) (A) (A) (A)
                 (A) (A) (A) (A) (A) (A) (A) (A) (A) (A) (A) (A)
                 (A) (A) (A) (A) (A) (A) (A) (A) (A) (A) (A) (A)
                 (A) (A) (A) (A) (A) (A) (A) (A) (A) (A) (A) (A)
                 (A) (A) (A) (A) (A) (A) (A) (A) (A) (A) (A) (A)
                 (A) (A) (A) (A) (A) (A) (A) (A) (A) (A) (A) (A)
                 (A) (A) (A) (A) (A) (A) (A) (A) (A) (A) (A) (A)
                 (A) (A) (A) (A) (A) (A) (A) (A) (A) (A) (A) (A)
                 (A) (A) (A) (A) (A) (A) (A) (A) (A) (A) (A) (A)
                 (A) (A) (A) (A) (A) (A) (A) (A) (A) (A) (A) (A)
                 (A) (A) (A) (A) (A) (A) (A) (A) (A) (A) (A) (A)
                 (A) (A) (A) (A) (A) (A) (A) (A) (A) (A) (A) (A)
                 (A) (A) (A) (A) (A) (A) (A) (A) (A) (A) (A) (A)
                 (A) (A) (A) (A) (A) (A) (A) (A) (A) (A) (A) (A)
                 (A) (A) (A) (A) (A) (A) (A) (A) (A) (A) (A) (A)
                 (A) (A) (A) (A) (A) (A) (A) (A) (A) (A) (A) (A)
                 (A) (A) (A) (A) (A) (A) (A) (A) (A) (A) (A) (A)
                 (A) (A) (A) (A) (A) (A) (A) (A) (A) (A) (A) (A)
 The electronic state is 1-A.
 Alpha  occ. eigenvalues --  -19.63093 -19.63084 -19.62868 -10.63279 -10.58151
 Alpha  occ. eigenvalues --  -10.57482 -10.57242 -10.57161 -10.52457 -10.52322
 Alpha  occ. eigenvalues --  -10.52245 -10.52178 -10.52167  -1.20386  -1.16682
 Alpha  occ. eigenvalues --   -1.13969  -0.90586  -0.89272  -0.87121  -0.83779
 Alpha  occ. eigenvalues --   -0.74835  -0.73662  -0.72690  -0.69449  -0.65528
 Alpha  occ. eigenvalues --   -0.64803  -0.60272  -0.58094  -0.57033  -0.55192
 Alpha  occ. eigenvalues --   -0.54594  -0.52525  -0.51750  -0.50811  -0.50256
 Alpha  occ. eigenvalues --   -0.47992  -0.46329  -0.45694  -0.45490  -0.44421
 Alpha  occ. eigenvalues --   -0.43114  -0.40689  -0.40171  -0.39796  -0.39341
 Alpha  occ. eigenvalues --   -0.38991  -0.37554  -0.36874  -0.35187  -0.32486
 Alpha  occ. eigenvalues --   -0.30880
 Alpha virt. eigenvalues --    0.00477   0.01297   0.01336   0.01446   0.02610
 Alpha virt. eigenvalues --    0.02901   0.03026   0.03943   0.04096   0.04730
 Alpha virt. eigenvalues --    0.04956   0.05212   0.05894   0.06116   0.07193
 Alpha virt. eigenvalues --    0.07469   0.07942   0.08345   0.09068   0.09899
 Alpha virt. eigenvalues --    0.10347   0.10943   0.11546   0.11873   0.12278
 Alpha virt. eigenvalues --    0.12759   0.12953   0.13413   0.13897   0.14019
 Alpha virt. eigenvalues --    0.14041   0.14223   0.14925   0.15367   0.15534
 Alpha virt. eigenvalues --    0.15678   0.16047   0.16222   0.16259   0.16903
 Alpha virt. eigenvalues --    0.17094   0.17416   0.17621   0.17746   0.18111
 Alpha virt. eigenvalues --    0.18524   0.18858   0.19134   0.19357   0.19559
 Alpha virt. eigenvalues --    0.19621   0.20083   0.20594   0.20748   0.22047
 Alpha virt. eigenvalues --    0.22098   0.22896   0.23593   0.23922   0.24735
 Alpha virt. eigenvalues --    0.25399   0.25669   0.26611   0.27064   0.27695
 Alpha virt. eigenvalues --    0.28179   0.28716   0.29103   0.29349   0.29741
 Alpha virt. eigenvalues --    0.30424   0.30792   0.31367   0.31823   0.32300
 Alpha virt. eigenvalues --    0.32608   0.33593   0.34102   0.34475   0.34857
 Alpha virt. eigenvalues --    0.35039   0.35644   0.36270   0.36427   0.36671
 Alpha virt. eigenvalues --    0.37210   0.37372   0.37883   0.38293   0.38386
 Alpha virt. eigenvalues --    0.38832   0.39244   0.39357   0.39986   0.40188
 Alpha virt. eigenvalues --    0.41404   0.42345   0.43275   0.44371   0.44944
 Alpha virt. eigenvalues --    0.46876   0.48348   0.49613   0.50489   0.50802
 Alpha virt. eigenvalues --    0.52665   0.53374   0.54459   0.54712   0.55235
 Alpha virt. eigenvalues --    0.56742   0.57540   0.58219   0.59018   0.59482
 Alpha virt. eigenvalues --    0.59679   0.61129   0.61206   0.61736   0.62330
 Alpha virt. eigenvalues --    0.62796   0.63302   0.63579   0.63852   0.64554
 Alpha virt. eigenvalues --    0.64739   0.64866   0.65843   0.66749   0.67558
 Alpha virt. eigenvalues --    0.68095   0.68439   0.70431   0.70691   0.70991
 Alpha virt. eigenvalues --    0.71444   0.71665   0.72395   0.72607   0.73014
 Alpha virt. eigenvalues --    0.73852   0.74612   0.75397   0.76048   0.76571
 Alpha virt. eigenvalues --    0.76787   0.77197   0.78412   0.78867   0.79474
 Alpha virt. eigenvalues --    0.82445   0.82597   0.83110   0.85349   0.86021
 Alpha virt. eigenvalues --    0.86495   0.88186   0.89071   0.89581   0.89878
 Alpha virt. eigenvalues --    0.91289   0.92104   0.92957   0.94154   0.96886
 Alpha virt. eigenvalues --    0.97123   0.97584   0.99662   1.01706   1.02276
 Alpha virt. eigenvalues --    1.03243   1.03870   1.05760   1.06995   1.07844
 Alpha virt. eigenvalues --    1.08867   1.09504   1.10371   1.11436   1.12184
 Alpha virt. eigenvalues --    1.13198   1.13566   1.14956   1.15707   1.16112
 Alpha virt. eigenvalues --    1.17561   1.18453   1.18896   1.19421   1.20321
 Alpha virt. eigenvalues --    1.21132   1.22251   1.22486   1.23564   1.24505
 Alpha virt. eigenvalues --    1.24815   1.25515   1.26796   1.27301   1.27530
 Alpha virt. eigenvalues --    1.28698   1.29832   1.30229   1.30553   1.31440
 Alpha virt. eigenvalues --    1.31832   1.32640   1.32983   1.33587   1.34003
 Alpha virt. eigenvalues --    1.34633   1.35733   1.36134   1.37742   1.38263
 Alpha virt. eigenvalues --    1.38451   1.39539   1.40393   1.41361   1.42104
 Alpha virt. eigenvalues --    1.42684   1.43180   1.43487   1.44711   1.45447
 Alpha virt. eigenvalues --    1.45877   1.46546   1.47079   1.48075   1.49203
 Alpha virt. eigenvalues --    1.49521   1.50415   1.50816   1.51767   1.52707
 Alpha virt. eigenvalues --    1.53006   1.53558   1.54421   1.55389   1.55634
 Alpha virt. eigenvalues --    1.56721   1.57366   1.58184   1.58653   1.59232
 Alpha virt. eigenvalues --    1.60221   1.61058   1.61498   1.61837   1.63174
 Alpha virt. eigenvalues --    1.63754   1.64814   1.66006   1.66625   1.67353
 Alpha virt. eigenvalues --    1.68486   1.69662   1.69820   1.71291   1.72426
 Alpha virt. eigenvalues --    1.72935   1.75494   1.76788   1.77949   1.78683
 Alpha virt. eigenvalues --    1.78844   1.79835   1.81462   1.82124   1.84158
 Alpha virt. eigenvalues --    1.85277   1.87568   1.90212   1.93457   1.96987
 Alpha virt. eigenvalues --    1.99366   2.09603   2.11686   2.15869   2.21951
 Alpha virt. eigenvalues --    2.23950   2.26609   2.28721   2.33993   2.35109
 Alpha virt. eigenvalues --    2.40103   2.43217   2.45608   2.50403   2.52083
 Alpha virt. eigenvalues --    2.57493   2.76115   2.77145   2.79200   2.81088
 Alpha virt. eigenvalues --    2.88027   2.90450   2.92949   2.93705   2.94515
 Alpha virt. eigenvalues --    2.97873   2.98340   3.01122   3.02869   3.03385
 Alpha virt. eigenvalues --    3.07541   3.08102   3.08969   3.10566   3.12463
 Alpha virt. eigenvalues --    3.13116   3.14853   3.16026   3.19221   3.22491
 Alpha virt. eigenvalues --    3.24574   3.30765   3.32067   3.33197   3.35627
 Alpha virt. eigenvalues --    3.36101   3.37327   3.39086   3.39853   3.42348
 Alpha virt. eigenvalues --    3.43630   3.43976   3.44659   3.45836   3.46386
 Alpha virt. eigenvalues --    3.48013   3.48917   3.50264   3.51501   3.53001
 Alpha virt. eigenvalues --    3.53690   3.54870   3.55281   3.55798   3.56365
 Alpha virt. eigenvalues --    3.57371   3.57535   3.58738   3.59685   3.60158
 Alpha virt. eigenvalues --    3.60821   3.61386   3.63467   3.64117   3.64948
 Alpha virt. eigenvalues --    3.65946   3.66384   3.67981   3.69607   3.69875
 Alpha virt. eigenvalues --    3.70537   3.71785   3.72266   3.73488   3.73793
 Alpha virt. eigenvalues --    3.75753   3.76150   3.76744   3.77423   3.78694
 Alpha virt. eigenvalues --    3.78957   3.79770   3.80603   3.83066   3.85489
 Alpha virt. eigenvalues --    3.86791   3.87721   3.89215   3.90101   3.91480
 Alpha virt. eigenvalues --    3.91989   3.93990   3.95416   3.97366   3.98699
 Alpha virt. eigenvalues --    3.99680   4.02198   4.03914   4.03998   4.04571
 Alpha virt. eigenvalues --    4.05393   4.06444   4.06827   4.07578   4.08191
 Alpha virt. eigenvalues --    4.08447   4.09498   4.09749   4.11169   4.12522
 Alpha virt. eigenvalues --    4.12665   4.14160   4.14608   4.14760   4.16215
 Alpha virt. eigenvalues --    4.16539   4.18427   4.19723   4.19994   4.21818
 Alpha virt. eigenvalues --    4.22709   4.23567   4.23881   4.26009   4.27140
 Alpha virt. eigenvalues --    4.28422   4.28961   4.29657   4.31849   4.33593
 Alpha virt. eigenvalues --    4.34644   4.34724   4.36360   4.37408   4.38980
 Alpha virt. eigenvalues --    4.40021   4.43456   4.45898   4.47913   4.52872
 Alpha virt. eigenvalues --    4.58824   4.60840   4.77095   4.77782   4.83414
 Alpha virt. eigenvalues --    4.88652   4.91846   4.93808   5.00084   5.00671
 Alpha virt. eigenvalues --    5.07112   5.07353   5.08330   5.09167   5.12402
 Alpha virt. eigenvalues --    5.12915   5.14397   5.15485   5.29772   5.33912
 Alpha virt. eigenvalues --    5.38611   5.56876   5.58817   5.64979   5.85886
 Alpha virt. eigenvalues --    5.90326   6.05272   7.01613   7.05210   7.06049
 Alpha virt. eigenvalues --    7.06374   7.10126   7.12737   7.14160   7.16768
 Alpha virt. eigenvalues --    7.23694   7.35987   7.38585   7.47918   7.53982
 Alpha virt. eigenvalues --    7.56601   7.61400  23.95343  23.98241  24.05999
 Alpha virt. eigenvalues --   24.09629  24.11742  24.12941  24.14909  24.15748
 Alpha virt. eigenvalues --   24.17158  24.19237  50.17436  50.19165  50.22896
          Condensed to atoms (all electrons):
               1          2          3          4          5          6
     1  C    5.684524   0.011680   0.002432  -0.000204   0.011153  -0.046464
     2  C    0.011680   6.403037   0.155337   0.098006   0.025013   0.012243
     3  C    0.002432   0.155337   5.709509  -0.031821  -0.015226   0.001219
     4  O   -0.000204   0.098006  -0.031821   8.412696   0.000478   0.000141
     5  O    0.011153   0.025013  -0.015226   0.000478   8.383409   0.008655
     6  C   -0.046464   0.012243   0.001219   0.000141   0.008655   5.459909
     7  O    0.022324  -0.234815   0.003144   0.000549  -0.007073  -0.010185
     8  C   -0.000811  -0.011707   0.003513   0.000190  -0.083377   0.037169
     9  C    0.005077  -0.394696  -0.034489  -0.004466  -0.044095  -0.040533
    10  C    0.181092  -0.175873  -0.113730  -0.000396   0.221474  -0.155462
    11  C   -0.002303  -0.171403   0.081729   0.092418  -0.000183   0.001871
    12  C   -0.088629  -0.203557  -0.135733   0.027850   0.017837   0.050589
    13  C   -0.142417   0.079484   0.025191   0.000788  -0.021442   0.104081
    14  H    0.405362   0.000474   0.000031  -0.000006  -0.001307   0.008484
    15  H    0.522388  -0.000565   0.000227   0.000007   0.001474  -0.019317
    16  H   -0.001582   0.378138  -0.008848  -0.032650   0.001041  -0.000025
    17  H    0.001576   0.470577   0.010678  -0.071261  -0.000465  -0.001439
    18  H    0.000290   0.010505   0.488598   0.001313   0.000513  -0.000092
    19  H   -0.000372  -0.002650   0.432260   0.007462  -0.000271  -0.000447
    20  H   -0.017514   0.000551   0.000532  -0.000034  -0.028542   0.474280
    21  H    0.009941   0.000434  -0.001056  -0.000022  -0.070623   0.451035
    22  H   -0.027294   0.000164   0.000577   0.000018  -0.001946  -0.072966
    23  H   -0.049240  -0.000095   0.000061  -0.000008   0.006261  -0.034903
    24  H   -0.000697  -0.035796  -0.084403   0.000126   0.000892  -0.000474
    25  H    0.004067   0.002187   0.013912  -0.003124   0.000497  -0.001392
    26  H   -0.004277  -0.011784  -0.005279   0.000926  -0.047554   0.004046
    27  H   -0.000110   0.022334  -0.043983  -0.068779  -0.000066   0.000084
    28  H    0.000279  -0.043858  -0.045580  -0.043112   0.000133  -0.000134
    29  H   -0.008454  -0.084167  -0.025928  -0.010059  -0.012097  -0.003193
    30  H   -0.007568   0.005919  -0.001718   0.000021  -0.003729   0.001747
    31  H   -0.026034  -0.000322   0.000245   0.000046   0.004091   0.000637
               7          8          9         10         11         12
     1  C    0.022324  -0.000811   0.005077   0.181092  -0.002303  -0.088629
     2  C   -0.234815  -0.011707  -0.394696  -0.175873  -0.171403  -0.203557
     3  C    0.003144   0.003513  -0.034489  -0.113730   0.081729  -0.135733
     4  O    0.000549   0.000190  -0.004466  -0.000396   0.092418   0.027850
     5  O   -0.007073  -0.083377  -0.044095   0.221474  -0.000183   0.017837
     6  C   -0.010185   0.037169  -0.040533  -0.155462   0.001871   0.050589
     7  O    8.463656   0.021325  -0.095071   0.191053   0.012235   0.278182
     8  C    0.021325   5.548802   0.039003   0.096670   0.000141  -0.042988
     9  C   -0.095071   0.039003   6.728669   0.190737  -0.134852  -0.943771
    10  C    0.191053   0.096670   0.190737   6.636479  -0.013035  -0.468786
    11  C    0.012235   0.000141  -0.134852  -0.013035   5.410421   0.153122
    12  C    0.278182  -0.042988  -0.943771  -0.468786   0.153122   7.166685
    13  C   -0.232362  -0.111546  -0.017319  -0.766547   0.003568   0.040315
    14  H   -0.003788  -0.023284   0.000638   0.012528  -0.000051  -0.003183
    15  H    0.001543  -0.050362   0.001106  -0.025013   0.000059  -0.001886
    16  H    0.007114   0.000439   0.018535   0.001212  -0.000865  -0.034925
    17  H    0.002682  -0.000114   0.016275  -0.005203   0.004742  -0.074600
    18  H    0.000559   0.000496  -0.004706   0.002134  -0.081500  -0.044286
    19  H   -0.002041   0.000102  -0.033823  -0.003232  -0.035755  -0.001866
    20  H    0.004536  -0.043181   0.003175  -0.051493  -0.000012   0.002560
    21  H   -0.002045  -0.050116  -0.000268   0.002500   0.000172   0.001399
    22  H    0.003232   0.491955  -0.000785  -0.013789   0.000211   0.004911
    23  H    0.000429   0.453764  -0.000093   0.001901  -0.000027  -0.000872
    24  H   -0.001177  -0.001231   0.517429   0.024690  -0.007442  -0.035028
    25  H   -0.008241  -0.000467   0.431468   0.011049  -0.009165  -0.049862
    26  H   -0.059149   0.000697   0.002545   0.531989  -0.000570   0.006356
    27  H    0.000529  -0.000035   0.004152  -0.001757   0.434083  -0.002486
    28  H    0.000571   0.000151   0.004259   0.002384   0.461529   0.016988
    29  H   -0.020110  -0.005498   0.000754   0.026489   0.013079   0.468299
    30  H    0.005058  -0.013361  -0.004843  -0.065487  -0.000398   0.004116
    31  H   -0.004088   0.004433   0.006439  -0.055651   0.000065  -0.007600
              13         14         15         16         17         18
     1  C   -0.142417   0.405362   0.522388  -0.001582   0.001576   0.000290
     2  C    0.079484   0.000474  -0.000565   0.378138   0.470577   0.010505
     3  C    0.025191   0.000031   0.000227  -0.008848   0.010678   0.488598
     4  O    0.000788  -0.000006   0.000007  -0.032650  -0.071261   0.001313
     5  O   -0.021442  -0.001307   0.001474   0.001041  -0.000465   0.000513
     6  C    0.104081   0.008484  -0.019317  -0.000025  -0.001439  -0.000092
     7  O   -0.232362  -0.003788   0.001543   0.007114   0.002682   0.000559
     8  C   -0.111546  -0.023284  -0.050362   0.000439  -0.000114   0.000496
     9  C   -0.017319   0.000638   0.001106   0.018535   0.016275  -0.004706
    10  C   -0.766547   0.012528  -0.025013   0.001212  -0.005203   0.002134
    11  C    0.003568  -0.000051   0.000059  -0.000865   0.004742  -0.081500
    12  C    0.040315  -0.003183  -0.001886  -0.034925  -0.074600  -0.044286
    13  C    6.401812  -0.034541  -0.043681   0.004379  -0.001813  -0.000275
    14  H   -0.034541   0.474355  -0.000588   0.000009  -0.000056   0.000009
    15  H   -0.043681  -0.000588   0.444670   0.000030   0.000213  -0.000002
    16  H    0.004379   0.000009   0.000030   0.481384  -0.018961   0.002829
    17  H   -0.001813  -0.000056   0.000213  -0.018961   0.472615  -0.001768
    18  H   -0.000275   0.000009  -0.000002   0.002829  -0.001768   0.469194
    19  H    0.001600   0.000008   0.000001  -0.002157   0.002113  -0.008758
    20  H    0.024180  -0.001143   0.002286  -0.000049   0.000453  -0.000040
    21  H    0.007984   0.000522  -0.002147   0.000021  -0.000178  -0.000225
    22  H   -0.004959  -0.004055   0.003587   0.000014   0.000134  -0.000027
    23  H    0.004453  -0.007315  -0.005745  -0.000026  -0.000063  -0.000005
    24  H   -0.008265   0.000065  -0.000087  -0.001932  -0.002741   0.000197
    25  H   -0.004405  -0.000018   0.000131  -0.001115   0.000036   0.000647
    26  H   -0.122680  -0.002388  -0.005868   0.000683  -0.003737   0.000288
    27  H    0.000099  -0.000002   0.000001  -0.002781   0.002186  -0.004258
    28  H   -0.000103   0.000002   0.000005   0.010129  -0.002855   0.002782
    29  H   -0.020052  -0.000183  -0.000330  -0.001900  -0.007091  -0.007433
    30  H    0.460823  -0.004730   0.002308   0.000197  -0.000109   0.000235
    31  H    0.456687  -0.008177  -0.006587  -0.000475   0.000180  -0.000036
              19         20         21         22         23         24
     1  C   -0.000372  -0.017514   0.009941  -0.027294  -0.049240  -0.000697
     2  C   -0.002650   0.000551   0.000434   0.000164  -0.000095  -0.035796
     3  C    0.432260   0.000532  -0.001056   0.000577   0.000061  -0.084403
     4  O    0.007462  -0.000034  -0.000022   0.000018  -0.000008   0.000126
     5  O   -0.000271  -0.028542  -0.070623  -0.001946   0.006261   0.000892
     6  C   -0.000447   0.474280   0.451035  -0.072966  -0.034903  -0.000474
     7  O   -0.002041   0.004536  -0.002045   0.003232   0.000429  -0.001177
     8  C    0.000102  -0.043181  -0.050116   0.491955   0.453764  -0.001231
     9  C   -0.033823   0.003175  -0.000268  -0.000785  -0.000093   0.517429
    10  C   -0.003232  -0.051493   0.002500  -0.013789   0.001901   0.024690
    11  C   -0.035755  -0.000012   0.000172   0.000211  -0.000027  -0.007442
    12  C   -0.001866   0.002560   0.001399   0.004911  -0.000872  -0.035028
    13  C    0.001600   0.024180   0.007984  -0.004959   0.004453  -0.008265
    14  H    0.000008  -0.001143   0.000522  -0.004055  -0.007315   0.000065
    15  H    0.000001   0.002286  -0.002147   0.003587  -0.005745  -0.000087
    16  H   -0.002157  -0.000049   0.000021   0.000014  -0.000026  -0.001932
    17  H    0.002113   0.000453  -0.000178   0.000134  -0.000063  -0.002741
    18  H   -0.008758  -0.000040  -0.000225  -0.000027  -0.000005   0.000197
    19  H    0.487607   0.000069   0.000043  -0.000004  -0.000013  -0.003255
    20  H    0.000069   0.470270  -0.007436   0.002962   0.001643   0.000047
    21  H    0.000043  -0.007436   0.471323  -0.001856  -0.010251   0.000044
    22  H   -0.000004   0.002962  -0.001856   0.473893  -0.011748  -0.000288
    23  H   -0.000013   0.001643  -0.010251  -0.011748   0.473936   0.000028
    24  H   -0.003255   0.000047   0.000044  -0.000288   0.000028   0.440630
    25  H   -0.011462  -0.000382  -0.001627  -0.000945   0.000135  -0.014723
    26  H   -0.000324  -0.008121  -0.000257   0.000032  -0.000887  -0.000389
    27  H   -0.009154  -0.000014   0.000024  -0.000004   0.000001  -0.000937
    28  H    0.003760  -0.000005  -0.000028   0.000009   0.000000  -0.006334
    29  H   -0.000328   0.000468   0.000829  -0.000325   0.000234   0.006981
    30  H   -0.000180   0.000090  -0.000388   0.001324  -0.003339  -0.000763
    31  H    0.000071   0.000282   0.001010  -0.001763   0.001975   0.000549
              25         26         27         28         29         30
     1  C    0.004067  -0.004277  -0.000110   0.000279  -0.008454  -0.007568
     2  C    0.002187  -0.011784   0.022334  -0.043858  -0.084167   0.005919
     3  C    0.013912  -0.005279  -0.043983  -0.045580  -0.025928  -0.001718
     4  O   -0.003124   0.000926  -0.068779  -0.043112  -0.010059   0.000021
     5  O    0.000497  -0.047554  -0.000066   0.000133  -0.012097  -0.003729
     6  C   -0.001392   0.004046   0.000084  -0.000134  -0.003193   0.001747
     7  O   -0.008241  -0.059149   0.000529   0.000571  -0.020110   0.005058
     8  C   -0.000467   0.000697  -0.000035   0.000151  -0.005498  -0.013361
     9  C    0.431468   0.002545   0.004152   0.004259   0.000754  -0.004843
    10  C    0.011049   0.531989  -0.001757   0.002384   0.026489  -0.065487
    11  C   -0.009165  -0.000570   0.434083   0.461529   0.013079  -0.000398
    12  C   -0.049862   0.006356  -0.002486   0.016988   0.468299   0.004116
    13  C   -0.004405  -0.122680   0.000099  -0.000103  -0.020052   0.460823
    14  H   -0.000018  -0.002388  -0.000002   0.000002  -0.000183  -0.004730
    15  H    0.000131  -0.005868   0.000001   0.000005  -0.000330   0.002308
    16  H   -0.001115   0.000683  -0.002781   0.010129  -0.001900   0.000197
    17  H    0.000036  -0.003737   0.002186  -0.002855  -0.007091  -0.000109
    18  H    0.000647   0.000288  -0.004258   0.002782  -0.007433   0.000235
    19  H   -0.011462  -0.000324  -0.009154   0.003760  -0.000328  -0.000180
    20  H   -0.000382  -0.008121  -0.000014  -0.000005   0.000468   0.000090
    21  H   -0.001627  -0.000257   0.000024  -0.000028   0.000829  -0.000388
    22  H   -0.000945   0.000032  -0.000004   0.000009  -0.000325   0.001324
    23  H    0.000135  -0.000887   0.000001   0.000000   0.000234  -0.003339
    24  H   -0.014723  -0.000389  -0.000937  -0.006334   0.006981  -0.000763
    25  H    0.471224  -0.000373   0.000935   0.000347  -0.002282   0.001477
    26  H   -0.000373   0.469823  -0.000127   0.000316   0.003470  -0.000192
    27  H    0.000935  -0.000127   0.463086  -0.007500   0.000206  -0.000055
    28  H    0.000347   0.000316  -0.007500   0.486891  -0.001406   0.000241
    29  H   -0.002282   0.003470   0.000206  -0.001406   0.417962  -0.001934
    30  H    0.001477  -0.000192  -0.000055   0.000241  -0.001934   0.463230
    31  H   -0.000744   0.000153   0.000022  -0.000151   0.000317  -0.018229
              31
     1  C   -0.026034
     2  C   -0.000322
     3  C    0.000245
     4  O    0.000046
     5  O    0.004091
     6  C    0.000637
     7  O   -0.004088
     8  C    0.004433
     9  C    0.006439
    10  C   -0.055651
    11  C    0.000065
    12  C   -0.007600
    13  C    0.456687
    14  H   -0.008177
    15  H   -0.006587
    16  H   -0.000475
    17  H    0.000180
    18  H   -0.000036
    19  H    0.000071
    20  H    0.000282
    21  H    0.001010
    22  H   -0.001763
    23  H    0.001975
    24  H    0.000549
    25  H   -0.000744
    26  H    0.000153
    27  H    0.000022
    28  H   -0.000151
    29  H    0.000317
    30  H   -0.018229
    31  H    0.464698
 Mulliken charges:
               1
     1  C   -0.438217
     2  C   -0.304798
     3  C   -0.381402
     4  O   -0.377092
     5  O   -0.344925
     6  C   -0.229163
     7  O   -0.338577
     8  C   -0.260769
     9  C   -0.216453
    10  C   -0.218928
    11  C   -0.211884
    12  C   -0.099152
    13  C   -0.083039
    14  H    0.192328
    15  H    0.182142
    16  H    0.202137
    17  H    0.207995
    18  H    0.172826
    19  H    0.180998
    20  H    0.169584
    21  H    0.201240
    22  H    0.159732
    23  H    0.179809
    24  H    0.214285
    25  H    0.172215
    26  H    0.252632
    27  H    0.214309
    28  H    0.160289
    29  H    0.273683
    30  H    0.180236
    31  H    0.187957
 Sum of Mulliken charges =  -0.00000
 Mulliken charges with hydrogens summed into heavy atoms:
               1
     1  C   -0.063747
     2  C    0.105335
     3  C   -0.027578
     4  O   -0.377092
     5  O   -0.344925
     6  C    0.141662
     7  O   -0.338577
     8  C    0.078772
     9  C    0.170047
    10  C    0.033704
    11  C    0.162713
    12  C    0.174532
    13  C    0.285154
 Electronic spatial extent (au):  <R**2>=           3284.2620
 Charge=              0.0000 electrons
 Dipole moment (field-independent basis, Debye):
    X=             -3.1564    Y=              1.1043    Z=              0.6606  Tot=              3.4086
 Quadrupole moment (field-independent basis, Debye-Ang):
   XX=            -71.4990   YY=            -79.1125   ZZ=            -79.7906
   XY=              3.6891   XZ=              8.9382   YZ=              0.1822
 Traceless Quadrupole moment (field-independent basis, Debye-Ang):
   XX=              5.3017   YY=             -2.3118   ZZ=             -2.9899
   XY=              3.6891   XZ=              8.9382   YZ=              0.1822
 Octapole moment (field-independent basis, Debye-Ang**2):
  XXX=            -37.7004  YYY=              1.9807  ZZZ=             -2.5100  XYY=             -0.6552
  XXY=             20.8352  XXZ=             22.5630  XZZ=             -7.7991  YZZ=              0.1914
  YYZ=             -3.9079  XYZ=              0.2654
 Hexadecapole moment (field-independent basis, Debye-Ang**3):
 XXXX=          -3419.9896 YYYY=           -533.7585 ZZZZ=           -316.2832 XXXY=             53.3441
 XXXZ=            109.8497 YYYX=            -15.3081 YYYZ=             -1.6687 ZZZX=              9.3676
 ZZZY=              3.0255 XXYY=           -657.5043 XXZZ=           -647.5819 YYZZ=           -138.1052
 XXYZ=            -23.7582 YYXZ=              5.0120 ZZXY=             -0.8152
 N-N= 8.830655564229D+02 E-N=-3.208374114709D+03  KE= 6.153645740217D+02
 D1PCM: PCM CHGder 1st derivatives, ID1Alg=3 FixD1E=F DoIter=F DoCFld=F I1PDM=0.
 Calling FoFJK, ICntrl=      2127 FMM=F ISym2X=0 I1Cent= 0 IOpClX= 0 NMat=1 NMatS=1 NMatT=0.
 ***** Axes restored to original set *****
 -------------------------------------------------------------------
 Center     Atomic                   Forces (Hartrees/Bohr)
 Number     Number              X              Y              Z
 -------------------------------------------------------------------
      1        6           0.003286973    0.002659262   -0.000330759
      2        6          -0.002687793    0.004779242    0.002193094
      3        6          -0.000421621   -0.003010207    0.000989155
      4        8           0.005650315   -0.001069353   -0.010721410
      5        8           0.008856760    0.010547003    0.005862489
      6        6          -0.004315712   -0.003119451    0.004131979
      7        8           0.001891109   -0.004706292    0.014854878
      8        6           0.001246926   -0.002686294   -0.001692007
      9        6           0.003016136   -0.000515055   -0.003736481
     10        6          -0.004795609   -0.003471555   -0.003583624
     11        6          -0.005865819    0.003648766    0.002609114
     12        6           0.002258650   -0.001259872   -0.000348251
     13        6          -0.002013905    0.000276350   -0.002982440
     14        1          -0.001549984   -0.000517328    0.002069240
     15        1          -0.000326849   -0.001442848   -0.003022839
     16        1          -0.000320159   -0.002771012    0.005599371
     17        1          -0.001835860   -0.002552862   -0.003722621
     18        1          -0.000407078    0.001404803   -0.002993101
     19        1           0.000920322    0.001508002    0.002278920
     20        1          -0.001737976   -0.003050493   -0.004490629
     21        1           0.000145566    0.004587335   -0.000611666
     22        1           0.001247229    0.001594180    0.002685990
     23        1          -0.002411984    0.000587623   -0.001214040
     24        1           0.000578411   -0.002913224    0.002542812
     25        1          -0.003186707    0.002353568   -0.000174904
     26        1          -0.003026735   -0.003227218   -0.006860286
     27        1           0.003709744    0.001999796   -0.001589144
     28        1           0.000397192   -0.002720132    0.005035928
     29        1          -0.000408647    0.003711266   -0.005476124
     30        1           0.001648618    0.002579322    0.002626487
     31        1           0.000458488   -0.003203321    0.000070869
 -------------------------------------------------------------------
 Cartesian Forces:  Max     0.014854878 RMS     0.003708699

 GradGradGradGradGradGradGradGradGradGradGradGradGradGradGradGradGradGrad
 Berny optimization.
 FormGI is forming the generalized inverse of G from B-inverse, IUseBI=4.
 Internal  Forces:  Max     0.012280370 RMS     0.002249586
 Search for a local minimum.
 Step number   1 out of a maximum of  186
 All quantities printed in internal units (Hartrees-Bohrs-Radians)
 Mixed Optimization -- RFO/linear search
 Second derivative matrix not updated -- first step.
 ITU=  0
     Eigenvalues ---    0.00613   0.00639   0.00737   0.00763   0.01447
     Eigenvalues ---    0.01452   0.01502   0.02716   0.02776   0.03137
     Eigenvalues ---    0.03162   0.04179   0.04355   0.04713   0.04780
     Eigenvalues ---    0.04786   0.04991   0.05022   0.05149   0.05167
     Eigenvalues ---    0.05174   0.05687   0.05744   0.06152   0.06192
     Eigenvalues ---    0.06289   0.06393   0.06823   0.07625   0.07873
     Eigenvalues ---    0.07927   0.07935   0.07959   0.08008   0.08144
     Eigenvalues ---    0.08674   0.09080   0.09344   0.10872   0.11451
     Eigenvalues ---    0.11621   0.11705   0.11724   0.12316   0.12497
     Eigenvalues ---    0.14416   0.14538   0.16414   0.16532   0.17561
     Eigenvalues ---    0.19248   0.21518   0.21766   0.25000   0.28548
     Eigenvalues ---    0.28563   0.28685   0.28736   0.28960   0.29227
     Eigenvalues ---    0.30195   0.30570   0.34975   0.35044   0.35052
     Eigenvalues ---    0.35075   0.35082   0.35118   0.35131   0.35134
     Eigenvalues ---    0.35186   0.35249   0.35285   0.35365   0.35376
     Eigenvalues ---    0.35529   0.35791   0.35825   0.35828   0.35908
     Eigenvalues ---    0.41029   0.41465   0.42355   0.42744   0.43690
     Eigenvalues ---    0.458531000.000001000.000001000.000001000.00000
     Eigenvalues --- 1000.000001000.000001000.000001000.000001000.00000
     Eigenvalues --- 1000.000001000.000001000.000001000.000001000.00000
     Eigenvalues --- 1000.000001000.000001000.000001000.000001000.00000
     Eigenvalues --- 1000.000001000.000001000.000001000.000001000.00000
     Eigenvalues --- 1000.000001000.000001000.000001000.000001000.00000
     Eigenvalues --- 1000.000001000.000001000.000001000.000001000.00000
     Eigenvalues --- 1000.000001000.000001000.000001000.000001000.00000
     Eigenvalues --- 1000.000001000.000001000.000001000.000001000.00000
     Eigenvalues --- 1000.000001000.000001000.000001000.000001000.00000
     Eigenvalues --- 1000.000001000.000001000.000001000.000001000.00000
     Eigenvalues --- 1000.000001000.000001000.000001000.000001000.00000
     Eigenvalues --- 1000.000001000.000001000.000001000.000001000.00000
     Eigenvalues --- 1000.000001000.000001000.000001000.000001000.00000
     Eigenvalues --- 1000.000001000.000001000.000001000.000001000.00000
     Eigenvalues --- 1000.000001000.000001000.000001000.000001000.00000
     Eigenvalues --- 1000.000001000.000001000.000001000.000001000.00000
     Eigenvalues --- 1000.000001000.000001000.000001000.000001000.00000
     Eigenvalues --- 1000.000001000.000001000.000001000.000001000.00000
     Eigenvalues --- 1000.000001000.000001000.000001000.000001000.00000
 RFO step:  Lambda=-3.18925607D-03 EMin= 6.12739741D-03
 Linear search not attempted -- first point.
 Iteration  1 RMS(Cart)=  0.05379132 RMS(Int)=  0.00064935
 Iteration  2 RMS(Cart)=  0.00168293 RMS(Int)=  0.00002398
 Iteration  3 RMS(Cart)=  0.00000067 RMS(Int)=  0.00002398
 Iteration  1 RMS(Cart)=  0.00001722 RMS(Int)=  0.00000398
 Iteration  2 RMS(Cart)=  0.00000915 RMS(Int)=  0.00000445
 Iteration  3 RMS(Cart)=  0.00000486 RMS(Int)=  0.00000501
 Iteration  4 RMS(Cart)=  0.00000258 RMS(Int)=  0.00000537
 Iteration  5 RMS(Cart)=  0.00000137 RMS(Int)=  0.00000557
 Iteration  6 RMS(Cart)=  0.00000073 RMS(Int)=  0.00000568
 Variable       Old X    -DE/DX   Delta X   Delta X   Delta X     New X
                                 (Linear)    (Quad)   (Total)
    R1        2.89051  -0.00096   0.00000  -0.00371  -0.00374   2.88677
    R2        2.89299  -0.00117   0.00000  -0.00439  -0.00442   2.88857
    R3        2.05069   0.00263   0.00000   0.00736   0.00736   2.05805
    R4        2.05603   0.00327   0.00000   0.00926   0.00926   2.06529
    R5        2.66589   0.00616   0.00000   0.01457   0.01460   2.68049
    R6        2.88059  -0.00062   0.00000  -0.00181  -0.00180   2.87879
    R7        2.05542   0.00604   0.00000   0.01705   0.01705   2.07247
    R8        2.04352   0.00482   0.00000   0.01333   0.01333   2.05685
    R9        2.89365  -0.00096   0.00000  -0.00417  -0.00420   2.88945
   R10        2.87205  -0.00073   0.00000  -0.00254  -0.00255   2.86950
   R11        2.05458   0.00324   0.00000   0.00914   0.00914   2.06372
   R12        2.05214   0.00288   0.00000   0.00810   0.00810   2.06024
   R13        2.67686   0.00633   0.00000   0.01501   0.01504   2.69189
   R14        2.68324   0.00550   0.00000   0.01310   0.01314   2.69638
   R15        2.64780   0.00834   0.00000   0.01862   0.01865   2.66645
   R16        2.87287  -0.00102   0.00000  -0.00243  -0.00244   2.87043
   R17        2.05484   0.00561   0.00000   0.01582   0.01582   2.07066
   R18        2.04226   0.00463   0.00000   0.01277   0.01277   2.05503
   R19        2.64297   0.00575   0.00000   0.01245   0.01245   2.65542
   R20        2.67987   0.00453   0.00000   0.01051   0.01051   2.69038
   R21        2.05463   0.00326   0.00000   0.00920   0.00920   2.06383
   R22        2.05272   0.00276   0.00000   0.00775   0.00775   2.06047
   R23        2.88016  -0.00207   0.00000  -0.00736  -0.00739   2.87277
   R24        2.05591   0.00372   0.00000   0.01053   0.01053   2.06643
   R25        2.04825   0.00385   0.00000   0.01073   0.01073   2.05897
   R26        2.86470  -0.00118   0.00000  -0.00465  -0.00464   2.86006
   R27        2.05715   0.00801   0.00000   0.02269   0.02269   2.07984
   R28        2.04356   0.00449   0.00000   0.01243   0.01243   2.05599
   R29        2.05553   0.00565   0.00000   0.01596   0.01596   2.07149
   R30        2.04410   0.00656   0.00000   0.01816   0.01816   2.06225
   R31        2.05373   0.00379   0.00000   0.01068   0.01068   2.06442
   R32        2.05087   0.00321   0.00000   0.00900   0.00900   2.05987
    A1        1.92307   0.00160   0.00000  -0.00210  -0.00219   1.92088
    A2        1.93166  -0.00065   0.00000   0.00054   0.00056   1.93223
    A3        1.90952  -0.00036   0.00000  -0.00105  -0.00103   1.90849
    A4        1.92084  -0.00037   0.00000  -0.00081  -0.00078   1.92007
    A5        1.91047  -0.00078   0.00000  -0.00126  -0.00125   1.90923
    A6        1.86737   0.00051   0.00000   0.00485   0.00484   1.87221
    A7        1.93416   0.00108   0.00000   0.00574   0.00578   1.93994
    A8        1.91560   0.00104   0.00000   0.00711   0.00712   1.92272
    A9        1.86689  -0.00037   0.00000   0.00316   0.00316   1.87004
   A10        1.91943  -0.00197   0.00000  -0.01393  -0.01396   1.90546
   A11        1.92997  -0.00050   0.00000  -0.00524  -0.00528   1.92469
   A12        1.89678   0.00079   0.00000   0.00377   0.00369   1.90047
   A13        1.92969  -0.00041   0.00000  -0.00636  -0.00642   1.92328
   A14        1.91993   0.00063   0.00000   0.00181   0.00182   1.92175
   A15        1.92705  -0.00045   0.00000  -0.00019  -0.00018   1.92686
   A16        1.90372  -0.00028   0.00000  -0.00127  -0.00128   1.90244
   A17        1.90842   0.00037   0.00000   0.00148   0.00151   1.90993
   A18        1.87404   0.00016   0.00000   0.00485   0.00484   1.87887
   A19        1.97843  -0.00482   0.00000  -0.02584  -0.02577   1.95266
   A20        1.97349  -0.00479   0.00000  -0.02618  -0.02610   1.94739
   A21        1.93712   0.00091   0.00000   0.00395   0.00397   1.94108
   A22        1.90078   0.00064   0.00000   0.00373   0.00374   1.90451
   A23        1.84886  -0.00063   0.00000  -0.00015  -0.00016   1.84870
   A24        1.93158  -0.00112   0.00000  -0.00806  -0.00807   1.92351
   A25        1.95119  -0.00028   0.00000  -0.00187  -0.00188   1.94932
   A26        1.89160   0.00053   0.00000   0.00293   0.00291   1.89451
   A27        2.11347  -0.01228   0.00000  -0.04850  -0.04850   2.06496
   A28        1.92364   0.00035   0.00000  -0.00373  -0.00380   1.91984
   A29        1.91874   0.00039   0.00000   0.00179   0.00180   1.92054
   A30        1.93617  -0.00060   0.00000  -0.00075  -0.00073   1.93544
   A31        1.90362  -0.00059   0.00000  -0.00197  -0.00196   1.90166
   A32        1.90438   0.00012   0.00000  -0.00032  -0.00030   1.90408
   A33        1.87641   0.00032   0.00000   0.00516   0.00515   1.88155
   A34        1.91855   0.00186   0.00000  -0.00226  -0.00233   1.91622
   A35        1.91394  -0.00039   0.00000   0.00226   0.00226   1.91620
   A36        1.93229  -0.00009   0.00000   0.00517   0.00517   1.93746
   A37        1.89123  -0.00114   0.00000  -0.00619  -0.00618   1.88504
   A38        1.93055  -0.00100   0.00000  -0.00643  -0.00638   1.92417
   A39        1.87633   0.00070   0.00000   0.00747   0.00742   1.88375
   A40        1.92335  -0.00205   0.00000  -0.01747  -0.01744   1.90591
   A41        1.94143   0.00050   0.00000   0.00661   0.00654   1.94797
   A42        1.87663   0.00178   0.00000   0.00173   0.00179   1.87842
   A43        1.90461  -0.00088   0.00000  -0.00276  -0.00279   1.90182
   A44        1.89145   0.00212   0.00000   0.01550   0.01553   1.90698
   A45        1.92568  -0.00141   0.00000  -0.00337  -0.00338   1.92230
   A46        1.93508   0.00138   0.00000   0.00676   0.00675   1.94183
   A47        1.94616  -0.00037   0.00000  -0.00344  -0.00345   1.94271
   A48        1.93099  -0.00126   0.00000  -0.00772  -0.00773   1.92326
   A49        1.85533  -0.00095   0.00000  -0.00270  -0.00269   1.85263
   A50        1.90205   0.00062   0.00000   0.00442   0.00444   1.90650
   A51        1.89194   0.00061   0.00000   0.00305   0.00303   1.89497
   A52        1.85247   0.00054   0.00000   0.00378   0.00379   1.85625
   A53        1.92097   0.00025   0.00000  -0.00106  -0.00111   1.91987
   A54        1.89257  -0.00014   0.00000   0.00113   0.00113   1.89370
   A55        1.94870  -0.00115   0.00000  -0.00525  -0.00523   1.94347
   A56        1.92188   0.00044   0.00000   0.00632   0.00629   1.92817
   A57        1.92521   0.00010   0.00000  -0.00442  -0.00441   1.92080
   A58        1.91982  -0.00023   0.00000  -0.00736  -0.00741   1.91241
   A59        1.92621   0.00066   0.00000   0.00478   0.00473   1.93094
   A60        1.93819  -0.00004   0.00000   0.00377   0.00377   1.94195
   A61        1.88853  -0.00046   0.00000  -0.00749  -0.00747   1.88106
   A62        1.90539  -0.00024   0.00000  -0.00084  -0.00081   1.90458
   A63        1.88463   0.00029   0.00000   0.00705   0.00702   1.89164
    D1        0.89836  -0.00029   0.00000   0.01263   0.01262   0.91098
    D2       -1.20057  -0.00003   0.00000   0.01631   0.01631  -1.18426
    D3        3.00954  -0.00030   0.00000   0.00925   0.00923   3.01878
[...]
 ,-0.01874946,-0.05179945,-0.00003411,-0.00054916,0.00022319,0.00066302
 ,0.00130790,0.00055732,0.02005794,-0.01813216,-0.00394420,-0.00010445,
 0.00004930,-0.00003395,-0.00001218,0.00000869,-0.00000247,-0.00000235,
 0.00000126,-0.00000216,0.00019149,-0.00020742,0.00010767,0.00110810,-0
 .00102022,-0.00018122,-0.00031393,-0.00040871,0.00026252,-0.00029296,0
 .00033435,0.00015383,0.00001533,0.00001455,0.00001911,-0.00000402,-0.0
 0000148,-0.00000177,0.00000101,-0.00000093,-0.00000334,0.00000745,0.00
 000308,-0.00000639,-0.01975180,0.01838260,0.00396770,-0.02316098,0.023
 74191,0.05337718,0.00147355,0.00014471,0.00037559,0.00027408,-0.000277
 20,-0.00007002,0.00002462,-0.00027358,-0.00031573,-0.00031754,0.000027
 39,0.00008469,0.00426374,-0.00281452,-0.00276641,0.00093112,0.00153508
 ,0.00085629,-0.02812098,-0.00465790,-0.03555255,-0.00009344,-0.0002458
 1,0.00008706,-0.00103286,-0.00078851,0.00060098,-0.05770613,-0.0177204
 3,-0.02891905,0.00008942,-0.00002151,0.00006461,0.00396149,0.00258480,
 -0.00365087,0.00464366,0.00730685,0.01987433,0.00009872,-0.00010851,-0
 .00012999,-0.00006179,-0.00018067,-0.00015519,-0.00000235,-0.00000239,
 -0.00000152,-0.00002670,0.00003836,0.00003247,-0.00003791,-0.00002580,
 0.00002405,-0.00014981,-0.00007925,0.00001906,0.00021545,0.00002625,0.
 00010249,0.00015000,0.00001824,0.00022652,-0.00001395,-0.00000853,-0.0
 0010810,0.00003571,0.00007001,-0.00004023,0.00003712,0.00004348,0.0001
 3976,0.00002686,-0.00001295,-0.00001973,0.07328998,0.00045169,-0.00013
 959,-0.00004296,-0.00011145,0.00001783,-0.00001893,-0.00003086,0.00015
 920,0.00012006,0.00002588,-0.00001175,-0.00001626,-0.00308977,-0.04426
 787,-0.02899998,-0.00519360,0.00095211,-0.00332979,0.00901006,0.006825
 81,0.00918515,0.00054986,-0.00016106,0.00048188,0.00045893,0.00026828,
 -0.00016392,-0.01855164,-0.08164722,-0.08115861,-0.00003716,0.00000467
 ,0.00000102,-0.00094538,-0.00038781,0.00160703,0.00000082,0.00698242,0
 .00873457,-0.00000486,-0.00008720,-0.00009088,0.00001208,-0.00006800,-
 0.00019428,-0.00001320,0.00000972,0.00000636,-0.00000199,-0.00001933,-
 0.00000701,0.00001231,0.00000909,-0.00000838,0.00005579,0.00002986,-0.
 00001222,0.00078761,0.00046364,0.00106796,0.00022436,0.00009731,0.0005
 0395,-0.00006454,-0.00000123,-0.00002132,0.00022317,0.00011737,-0.0001
 4057,-0.00000615,-0.00000512,-0.00007262,-0.00004102,0.00009677,0.0000
 2929,0.01710479,0.10987709,-0.00089000,-0.00007363,0.00017489,0.000182
 95,-0.00047788,0.00003962,0.00000413,-0.00010764,-0.00022495,-0.000426
 76,0.00001402,0.00002770,-0.00068898,-0.00188149,0.00734601,0.00074759
 ,0.00107682,0.00142353,-0.01536473,0.00204506,-0.00476919,-0.00002756,
 -0.00009169,0.00006379,-0.00058049,-0.00012416,0.00029089,-0.02996130,
 -0.08388385,-0.24694122,0.00006564,0.00000552,0.00007727,0.00117021,0.
 00070052,-0.00090099,-0.00341538,-0.00959032,-0.02137375,0.00026312,0.
 00020764,0.00032340,0.00045676,-0.00006356,0.00055754,-0.00000778,0.00
 001208,-0.00002880,-0.00001927,-0.00000349,0.00000595,-0.00001651,-0.0
 0001629,0.00001578,-0.00009407,-0.00005678,0.00001701,0.00081031,-0.00
 053435,-0.00008209,0.00031297,-0.00003211,0.00032410,-0.00009213,0.000
 00401,-0.00015997,0.00002167,-0.00012891,0.00001600,0.00002010,0.00007
 516,-0.00003880,0.00000727,0.00002021,0.00000565,0.04574891,0.09165766
 ,0.26587957,-0.00000319,-0.00000899,0.00002184,0.00200348,0.00045851,-
 0.00240689,-0.01764197,-0.00846921,0.00809221,-0.01040195,-0.00896484,
 -0.00064136,-0.00018805,0.00006375,-0.00008123,0.00005340,-0.00003666,
 0.00001901,-0.00051924,-0.00016078,-0.00000201,-0.00001139,0.00000136,
 -0.00001013,-0.00142818,0.00427594,0.00033275,0.00026545,-0.00007523,0
 .00013429,-0.24767701,-0.09075899,0.07642831,0.00081412,0.00025637,0.0
 0032352,-0.00004828,0.00001782,-0.00003325,-0.00001154,0.00000201,-0.0
 0000114,-0.00000195,-0.00000041,-0.00000210,-0.00004364,-0.00007892,0.
 00020759,-0.00053127,-0.00029259,0.00019862,0.00093735,-0.00049760,-0.
 00060827,0.00042701,0.00016336,0.00015913,-0.00001390,0.00000100,-0.00
 000869,-0.00000657,0.00000755,-0.00000256,0.00000104,0.00000045,0.0000
 0132,-0.00000663,0.00000082,0.00000313,0.00012567,-0.00008715,0.000095
 42,-0.00114046,-0.00073655,0.00025804,-0.00003437,0.00000405,-0.000029
 25,0.26860561,-0.00000353,-0.00000470,0.00000633,0.00073612,-0.0008702
 5,-0.00434977,0.02191732,0.01164011,-0.00790955,-0.02379912,-0.0151823
 0,0.00284585,0.00007931,0.00001035,0.00005512,-0.00001215,0.00002569,0
 .00000364,-0.00017341,0.00038664,0.00013333,0.00000333,-0.00000251,0.0
 0000130,0.00290593,-0.00387757,-0.00045328,-0.00002817,-0.00002645,0.0
 0007301,-0.08779271,-0.09048218,0.03648453,-0.00003611,-0.00100894,-0.
 00043700,-0.00001944,0.00001050,-0.00001263,-0.00000284,0.00000110,-0.
 00000101,-0.00000024,0.00000016,0.00000015,0.00019442,0.00010716,-0.00
 006132,-0.00132893,-0.00042803,0.00005803,-0.00090324,0.00102512,0.000
 31823,-0.00116493,0.00064827,0.00014704,0.00000761,-0.00000047,0.00000
 457,-0.00000121,-0.00000070,-0.00000039,-0.00000080,0.00000082,0.00000
 017,0.00000131,0.00000072,-0.00000116,-0.00010872,0.00005324,-0.000120
 25,0.00139225,0.00063917,-0.00028608,0.00001141,-0.00000067,0.00000104
 ,0.10241289,0.10290885,-0.00000471,-0.00000731,0.00001134,-0.00058974,
 -0.00187154,-0.00357471,0.00355441,0.00370798,-0.00144556,-0.02901866,
 -0.01803973,0.00581633,0.00001678,0.00003735,0.00001692,0.00000051,0.0
 0001212,0.00000555,-0.00029323,0.00029341,0.00015449,-0.00000042,-0.00
 000117,-0.00000105,0.00074052,-0.00195997,0.00075806,0.00002265,-0.000
 03842,0.00009505,0.08646458,0.04356393,-0.08443782,0.00017823,-0.00074
 294,-0.00038448,-0.00003332,0.00001178,-0.00001987,-0.00000506,0.00000
 176,-0.00000121,-0.00000003,0.00000012,-0.00000051,-0.00008658,-0.0002
 5465,0.00039754,-0.00105356,-0.00065883,0.00031303,-0.00035165,-0.0005
 7994,0.00053837,-0.00014699,0.00008031,0.00012165,0.00000241,-0.000000
 27,0.00000166,-0.00000244,0.00000077,-0.00000088,0.00000002,0.00000073
 ,0.00000036,-0.00000012,0.00000062,0.00000014,-0.00033260,-0.00023431,
 0.00016839,0.00064472,0.00031121,0.00013829,-0.00000091,0.00000023,-0.
 00000496,-0.08144774,-0.03295562,0.08785057,-0.00000280,-0.00000241,0.
 00000630,0.00086306,0.00185767,-0.00240293,-0.00411789,0.01466145,-0.0
 1804502,-0.00219078,-0.00048652,-0.01398331,-0.00000472,0.00001406,0.0
 0000131,0.00000758,0.00000010,0.00000404,-0.00021883,-0.00005346,0.000
 03769,-0.00000072,-0.00000071,-0.00000151,0.00128318,-0.00002536,-0.00
 120630,0.00004694,-0.00003112,0.00003848,-0.06125221,0.02166463,-0.029
 51395,-0.00014946,-0.00001648,0.00013174,-0.00001482,0.00000609,-0.000
 01122,-0.00000269,0.00000060,-0.00000014,0.00000016,-0.00000005,-0.000
 00041,0.00023809,-0.00001532,0.00041892,0.00002753,-0.00004635,0.00010
 968,-0.00236191,0.00323170,0.00062580,0.00074830,-0.00044806,0.0003037
 2,-0.00000034,-0.00000004,-0.00000039,-0.00000125,0.00000023,-0.000000
 19,0.00000004,0.00000078,0.00000019,-0.00000065,0.00000021,0.00000028,
 0.00003114,-0.00016941,0.00025259,0.00017302,-0.00007537,0.00021882,-0
 .00000643,0.00000149,-0.00000687,0.00652183,-0.01429318,0.02176366,0.0
 6035079,-0.00000038,-0.00000121,-0.00000039,0.00216811,0.00305857,-0.0
 0293475,0.00421720,-0.01444985,0.02036017,-0.00919926,0.00806574,-0.02
 676192,0.00001518,-0.00001072,0.00000332,-0.00000658,0.00000392,-0.000
 00467,-0.00001354,0.00017135,0.00011427,0.00000088,-0.00000032,0.00000
 146,-0.00120725,0.00083322,0.00008014,-0.00004389,0.00001916,0.0000315
 4,0.02244545,-0.13012277,0.11863779,-0.00023621,-0.00042128,0.00002146
 ,-0.00000397,0.00000278,-0.00000046,0.00000014,0.00000029,-0.00000062,
 -0.00000019,0.00000009,0.00000002,0.00097021,-0.00006910,0.00099302,0.
 00016386,0.00004105,0.00000770,0.00415626,-0.00253091,-0.00125148,-0.0
 0050491,0.00066714,-0.00016718,0.00000125,-0.00000066,0.00000082,-0.00
 000006,0.00000022,0.00000020,-0.00000003,-0.00000028,-0.00000031,0.000
 00091,0.00000013,-0.00000052,0.00034411,0.00050889,-0.00031527,-0.0001
 1014,0.00004387,-0.00033894,0.00001171,-0.00000387,0.00000223,0.002547
 04,-0.00564398,0.00930235,-0.02570811,0.13995663,-0.00000564,-0.000009
 77,0.00002058,0.00343643,0.00241948,0.00055590,0.00220880,-0.00244345,
 0.00596855,-0.01195510,-0.00116354,-0.03531474,-0.00007890,0.00004633,
 -0.00002199,0.00002655,-0.00000811,0.00001426,-0.00059651,0.00003872,0
 .00001815,-0.00000553,-0.00000144,-0.00000583,-0.00029727,-0.00051694,
 0.00046288,0.00015558,-0.00008911,0.00012927,-0.03283848,0.11483033,-0
 .20945049,0.00025095,-0.00052397,0.00001909,-0.00004745,0.00002224,-0.
 00003162,-0.00001047,0.00000211,-0.00000138,-0.00000083,-0.00000017,-0
 .00000126,-0.00081718,-0.00052804,0.00073351,-0.00003946,-0.00040139,0
 .00034982,0.00148035,-0.00099193,0.00084837,-0.00060556,0.00074343,0.0
 0034462,-0.00000411,0.00000018,-0.00000257,-0.00000502,0.00000428,-0.0
 0000232,0.00000030,0.00000109,0.00000126,-0.00000341,0.00000124,0.0000
 0143,-0.00042190,-0.00005900,-0.00013421,-0.00011033,-0.00001424,0.000
 07952,-0.00002137,0.00000366,-0.00001920,-0.00094165,0.00639330,-0.006
 53562,0.04121694,-0.11783324,0.24206832,0.00000401,-0.00005127,0.00003
 755,-0.00597038,0.01303888,-0.02112948,0.00050849,0.00041452,-0.000274
 01,0.00203174,-0.00042973,0.00023004,-0.00395026,0.00132515,0.00068114
 ,0.00011052,-0.00008188,0.00014299,-0.00438881,-0.02196806,0.02948750,
 -0.00009551,0.00002882,-0.00004862,-0.00020957,0.00394192,-0.00587961,
 0.00292289,-0.00043776,0.00184633,0.00002326,-0.00003025,0.00004483,-0
 .06183207,0.02839273,-0.05425456,-0.00039625,0.00006477,-0.00027241,-0
 .00004009,0.00000661,-0.00000330,-0.00002026,0.00000455,-0.00000855,-0
 .00333174,0.00276884,0.00079346,0.00114980,-0.00076580,0.00047856,-0.0
 0004575,-0.00011841,-0.00001844,0.00003482,0.00001997,-0.00000978,-0.0
 0000228,-0.00001074,-0.00000276,-0.00000248,0.00002689,-0.00000304,0.0
 0000661,0.00000656,-0.00000289,-0.00002803,0.00001935,0.00001618,0.000
 08481,-0.00120504,-0.00105368,0.00017112,-0.00041730,0.00028747,0.0001
 2396,-0.00003479,-0.00065241,-0.00004724,0.00000677,-0.00002174,0.0000
 3507,-0.00000798,0.00002858,0.07306117,-0.00003375,-0.00007344,0.00009
 412,0.00690729,-0.01269473,0.01898899,0.00094058,0.00107124,0.00021521
 ,-0.00119294,0.00187265,-0.00090557,0.00200709,0.00046607,-0.00081328,
 0.00007827,0.00019164,-0.00014242,-0.00612937,-0.01401290,0.01803788,0
 .00008307,-0.00003209,0.00000524,-0.00468338,0.01030467,-0.01995497,0.
 00297016,-0.00090816,0.00087040,-0.00000495,-0.00023622,-0.00027070,0.
 02301828,-0.10504083,0.10217409,-0.00029254,0.00007756,-0.00021448,-0.
 00005467,0.00001481,-0.00000540,-0.00001565,0.00000252,-0.00000793,0.0
 0283125,-0.00198059,-0.00034270,-0.00080386,0.00091074,0.00007674,0.00
 008254,-0.00016142,0.00026828,0.00021592,-0.00009263,0.00011515,-0.000
 00690,0.00000556,-0.00000158,-0.00005493,0.00000557,-0.00002060,-0.000
 00300,0.00000339,0.00000521,0.00001261,0.00001889,-0.00001507,-0.00150
 165,-0.00234568,-0.00368730,0.00049940,0.00084735,0.00086642,-0.000257
 88,-0.00002433,-0.00026141,-0.00004390,0.00007161,0.00002051,-0.000067
 31,-0.00011776,0.00007924,-0.02454288,0.12180916,0.00004279,0.00008415
 ,-0.00009034,0.00182850,-0.00359823,0.00557588,0.00042241,0.00053171,0
 .00019709,-0.00135516,-0.00048663,0.00028763,-0.00239697,-0.00012674,0
 .00106096,0.00018511,-0.00043592,0.00047671,0.00651379,0.00764801,-0.0
 0664322,-0.00020448,0.00007803,-0.00009218,-0.00630620,0.01017733,-0.0
 2125444,-0.00151986,0.00250136,0.00035749,0.00004178,-0.00015390,0.000
 03912,-0.04785723,0.10287371,-0.24301043,0.00014170,-0.00021331,0.0000
 8940,0.00004443,-0.00002318,0.00000985,0.00000658,-0.00000535,0.000001
 42,0.00160381,-0.00084744,0.00077196,-0.00045905,0.00038935,0.00084039
 ,-0.00035823,-0.00017519,0.00042941,-0.00003902,-0.00033156,0.00027481
 ,-0.00003895,-0.00001736,-0.00006169,0.00002957,0.00001937,0.00000058,
 0.00000748,-0.00000151,-0.00000271,-0.00006010,-0.00002593,0.00004509,
 -0.00126843,-0.00292070,-0.00252691,0.00046986,0.00035178,0.00112692,0
 .00091754,-0.00020252,-0.00021465,-0.00006016,0.00006383,0.00002011,0.
 00004121,0.00005482,-0.00009595,0.04969983,-0.11514690,0.26238102,-0.0
 0922912,-0.01303709,-0.02785183,0.00001383,0.00003490,-0.00001091,-0.0
 0001367,-0.00002262,-0.00000920,0.00003863,-0.00000487,-0.00000369,0.0
 0093008,0.00088844,-0.00208632,-0.00038368,0.00015564,-0.00005903,0.00
 276131,0.00012197,0.00017682,0.00140740,-0.00116800,0.00041452,0.00000
 819,0.00007889,0.00000841,0.00237550,0.01049322,0.02240964,0.00000246,
 0.00000297,-0.00000440,0.00002568,-0.00025036,-0.00020765,-0.06214016,
 -0.02789941,-0.05849019,0.00141627,-0.00046795,0.00067035,-0.00530777,
 0.00257349,-0.00185885,-0.00000074,0.00000204,0.,0.00000490,0.00000146
 ,0.00000126,0.00000241,0.00000144,-0.00000147,-0.00000212,0.00000025,0
 .00000138,-0.00004551,0.00002408,0.00000586,0.00009493,0.00001553,-0.0
 0006213,0.00018696,0.00048185,0.00028563,-0.00002231,-0.00003836,0.000
 38853,0.00000666,0.00000168,-0.00002978,0.00003084,-0.00005067,-0.0000
 1166,-0.00256899,-0.00157065,0.00276982,0.00000266,-0.00000145,0.00000
 038,-0.00000049,0.00000003,0.00000063,0.00003728,0.00004527,-0.0000464
 6,0.07076253,0.00185499,0.00311199,0.00854541,0.00000016,0.00002639,-0
 .00001011,-0.00000359,-0.00001795,0.00000189,0.00001941,-0.00000244,0.
 00000092,0.00027755,0.00192871,-0.00001663,0.00016831,-0.00003862,0.00
 016225,0.00105383,0.00006088,-0.00040275,-0.00004621,0.00082359,0.0005
 5586,0.00000510,0.00006742,-0.00003440,0.00160038,0.00213531,0.0099293
 3,-0.00000047,0.00000429,-0.00000598,0.00004053,-0.00010635,-0.0000073
 4,-0.02715637,-0.09484115,-0.09631430,-0.00054006,0.00024055,-0.000285
 75,0.00167828,0.00036755,0.00082356,0.00000093,-0.00000215,0.00000292,
 0.00000152,0.00000080,0.00000087,0.00000054,-0.00000017,0.00000087,0.0
 0000147,0.00000085,-0.00000016,-0.00000154,-0.00012212,-0.00011815,-0.
 00002072,-0.00000476,-0.00000591,0.00012255,0.00014828,-0.00014021,-0.
 00003494,0.00015526,-0.00005173,0.00000647,-0.00000431,-0.00000866,0.0
 0004883,-0.00003539,-0.00001076,-0.00115181,0.00032948,0.00123448,0.00
 000180,-0.00000137,0.00000001,0.00000124,-0.00000096,0.00000108,-0.000
 00032,0.00000507,-0.00001050,0.02931355,0.09680349,-0.00199016,-0.0025
 8787,-0.00598134,-0.00001596,-0.00000648,0.00003002,-0.00000386,0.0000
 1371,0.00001629,0.00000377,0.00000352,-0.00000528,-0.00096627,-0.00016
 515,0.00285700,0.00007672,0.00004483,0.00018924,-0.00131240,0.00049390
 ,0.00268795,0.00033391,-0.00015578,0.00004913,0.00010788,0.00002936,-0
 .00007946,-0.00563716,-0.01141843,-0.02631517,-0.00000725,-0.00000468,
 -0.00000921,-0.00007933,-0.00001311,0.00030080,-0.05622601,-0.09381276
 ,-0.24785715,-0.00013460,0.00021957,0.00062872,-0.00111427,0.00040442,
 0.00064092,0.00000289,-0.00000226,0.00000055,0.00000143,-0.00000514,-0
 .00000197,0.00000090,0.00000032,0.00000055,0.00000580,0.00000271,0.000
 00008,0.00002746,-0.00014784,-0.00002651,0.00000428,0.00002831,-0.0000
 3480,0.00002601,0.00036806,-0.00016063,-0.00002155,0.00013367,0.000145
 29,0.00002096,0.00000299,-0.00002664,0.00003317,0.00000890,-0.00002783
 ,0.00336844,0.00187971,-0.00249303,-0.00000012,0.,-0.00000073,0.000000
 59,-0.00000128,0.00000175,-0.00010872,-0.00001989,-0.00003343,0.062232
 84,0.10347768,0.27164767,-0.00003315,0.03202891,-0.00300448,0.00000808
 ,0.00004673,-0.00000533,-0.00000622,0.00000462,0.00000207,0.00003333,-
 0.00000333,-0.00000256,-0.00271085,-0.00486412,0.00533188,-0.00158247,
 0.00042325,-0.00022347,0.00072650,0.00036090,0.00002182,-0.00636965,0.
 00044657,-0.00200178,0.00000703,-0.00003222,-0.00001209,0.00120531,-0.
 02093645,-0.00211709,-0.00000487,-0.00000978,-0.00000514,0.00032586,-0
 .00004516,-0.00023328,-0.04652392,0.01173999,0.00035408,0.00133194,-0.
 00063186,0.00074430,0.00147775,-0.00075371,0.00013327,-0.00000472,0.00
 000095,0.00000075,0.00000151,0.00000064,-0.00000043,-0.00000005,0.0000
 0052,-0.00000035,0.00000032,0.00000081,0.00000011,0.00021095,-0.000083
 27,-0.00000721,0.00032179,-0.00004142,-0.00001192,0.00002855,-0.000111
 88,0.00016238,0.00001623,0.00197149,-0.00063628,-0.00000361,0.00000539
 ,-0.00000072,-0.00002257,0.00001950,0.00000689,0.00053378,0.00077413,-
 0.00030796,-0.00000077,0.00000149,0.00000063,-0.00000075,0.00000018,0.
 00000106,0.00005519,-0.00000218,-0.00002612,-0.00039395,-0.00724142,0.
 00137060,0.05137340,0.00013608,-0.00677703,0.00031925,-0.00001406,-0.0
 0005623,-0.00000890,-0.00000247,0.00001605,0.00000444,-0.00003808,0.00
 000770,0.00000657,-0.00111291,-0.00093736,0.00289963,-0.00070788,0.000
 44847,-0.00069348,0.00028417,0.00088381,-0.00026839,0.00215885,0.00141
 925,0.00056516,0.00002371,-0.00000291,-0.00001090,0.00226501,-0.010277
 47,-0.00165513,0.00000210,-0.00000268,0.00000869,-0.00017407,0.0002302
 8,-0.00000263,0.01010534,-0.31546596,0.02274614,0.00019528,0.00027819,
 -0.00020998,0.00006782,0.00057899,0.00018757,-0.00000739,0.00000543,-0
 .00000435,0.00000040,0.00000186,0.00000460,-0.00000020,-0.00000025,0.0
 0000089,0.00000059,-0.00000212,-0.00000078,0.00008729,-0.00001646,0.00
 010241,0.00003932,-0.00009073,0.00004757,-0.00002188,0.00016101,-0.000
 08577,-0.00021026,-0.00061870,0.00020267,-0.00000438,-0.00000352,-0.00
 000612,-0.00001396,0.00001686,0.00000022,-0.00029583,0.00058438,0.0002
 7113,-0.00000291,0.00000061,-0.00000049,-0.00000101,0.00000061,-0.0000
 0239,0.00003588,0.00004225,-0.00005058,0.00027473,-0.01103218,0.001229
 01,-0.01306925,0.34060786,-0.00074811,0.00837922,-0.00218906,0.0000070
 2,-0.00001513,0.00001762,-0.00000217,-0.00001108,-0.00000447,-0.000004
 23,0.00000362,-0.00000478,0.00374450,0.00447014,-0.00331250,0.00100531
 ,-0.00079278,0.00065255,-0.00097461,-0.00064829,0.00045422,-0.00158408
 ,-0.00010366,0.00052031,0.00000958,0.00002347,0.00001951,-0.00372994,0
 .02257612,-0.00071839,0.00000299,0.00000459,0.00000194,-0.00003231,-0.
 00004286,0.00002807,0.00086694,0.01941960,-0.05128971,0.00003617,-0.00
 043982,0.00014395,0.00053297,0.00011951,0.00033716,0.00000379,-0.00000
 108,-0.00000161,-0.00000053,-0.00000015,-0.00000048,0.00000062,0.00000
 202,-0.00000110,-0.00000085,0.00000058,0.00000067,-0.00010877,-0.00001
 910,-0.00009456,-0.00012847,0.00003529,-0.00003294,0.00006834,0.000404
 80,0.00005160,-0.00002778,0.00037276,0.00020961,0.00000907,-0.00000310
 ,-0.00000780,0.00002064,-0.00001759,-0.00001441,-0.00077112,-0.0007982
 4,0.00066291,0.00000135,-0.00000138,-0.00000043,0.00000028,-0.00000027
 ,-0.00000011,-0.00003047,-0.00000729,0.00004010,0.00136750,-0.02731379
 ,0.00385722,0.00046637,-0.02559606,0.05067491\\-0.00002447,-0.00000995
 ,0.00001666,-0.00005535,-0.00003745,0.00001822,-0.00002960,0.00001400,
 0.00000199,0.00002380,0.00003216,-0.00001050,0.00115901,-0.00045745,-0
 .00418990,0.00000788,0.00001324,-0.00001606,0.00098807,-0.00379272,-0.
 00718678,-0.00001329,0.00000680,0.00000631,-0.00000051,0.00001726,0.00
 002603,-0.00176621,0.00177198,0.00747880,0.00003060,-0.00001002,0.0000
 1911,-0.00037061,0.00245147,0.00382514,0.00001138,0.00000299,-0.000002
 34,0.00000507,-0.00000065,-0.00002364,-0.00000013,0.00000247,-0.000000
 44,0.00000546,0.00000723,-0.00002722,0.00001428,0.00001151,0.00001923,
 0.00000421,-0.00000713,0.00001713,0.00000557,-0.00000675,-0.00000717,0
 .00000382,0.00001330,0.00001333,-0.00000298,-0.00001871,-0.00000304,-0
 .00000271,-0.00000829,-0.00001101,0.00001560,0.00000557,-0.00000013,-0
 .00000686,0.00000631,-0.00000752,-0.00000533,-0.00002301,0.00000203,0.
 00001568,0.00002301,0.00003024,-0.00001648,-0.00001377,0.00001370,-0.0
 0000467,0.00001277,-0.00001191,0.00000770,-0.00000927,0.00003089,-0.00
 000539,-0.00000856,-0.00002053,0.00000642,0.00001167,-0.00000064\\\@


 MAN IS THE MEASURE OF ALL THINGS.
  -- PROTAGORAS (5TH CENTURY B.C.)
 Job cpu time:       0 days 11 hours 42 minutes  7.7 seconds.
 Elapsed time:       0 days  0 hours 58 minutes 31.4 seconds.
 File lengths (MBytes):  RWF=    722 Int=      0 D2E=      0 Chk=     34 Scr=      1
 Normal termination of Gaussian 16 at Sun Mar 10 07:41:04 2019.
