 Entering Gaussian System, Link 0=g16
 Initial command:
 /sw/Projects/G16/g16/l1.exe "/nvme/pbs/tmpdir/pbs.74289[14].flm1/Gau-19192.inp" -scrdir="/nvme/pbs/tmpdir/pbs.74289[14].flm1/"
 Entering Link 1 = /sw/Projects/G16/g16/l1.exe PID=     19193.
  
 Copyright (c) 1988-2017, Gaussian, Inc.  All Rights Reserved.
  
 This is part of the Gaussian(R) 16 program.  It is based on
 the Gaussian(R) 09 system (copyright 2009, Gaussian, Inc.),
 the Gaussian(R) 03 system (copyright 2003, Gaussian, Inc.),
 the Gaussian(R) 98 system (copyright 1998, Gaussian, Inc.),
 the Gaussian(R) 94 system (copyright 1995, Gaussian, Inc.),
 the Gaussian 92(TM) system (copyright 1992, Gaussian, Inc.),
 the Gaussian 90(TM) system (copyright 1990, Gaussian, Inc.),
 the Gaussian 88(TM) system (copyright 1988, Gaussian, Inc.),
 the Gaussian 86(TM) system (copyright 1986, Carnegie Mellon
 University), and the Gaussian 82(TM) system (copyright 1983,
 Carnegie Mellon University). Gaussian is a federally registered
 trademark of Gaussian, Inc.
  
 This software contains proprietary and confidential information,
 including trade secrets, belonging to Gaussian, Inc.
  
 This software is provided under written license and may be
 used, copied, transmitted, or stored only in accord with that
 written license.
  
 The following legend is applicable only to US Government
 contracts under FAR:
  
                    RESTRICTED RIGHTS LEGEND
  
 Use, reproduction and disclosure by the US Government is
 subject to restrictions as set forth in subparagraphs (a)
 and (c) of the Commercial Computer Software - Restricted
 Rights clause in FAR 52.227-19.
  
 Gaussian, Inc.
 340 Quinnipiac St., Bldg. 40, Wallingford CT 06492
  
  
 ---------------------------------------------------------------
 Warning -- This program may not be used in any manner that
 competes with the business of Gaussian, Inc. or will provide
 assistance to any competitor of Gaussian, Inc.  The licensee
 of this program is prohibited from giving any competitor of
 Gaussian, Inc. access to this program.  By using this program,
 the user acknowledges that Gaussian, Inc. is engaged in the
 business of creating and licensing software in the field of
 computational chemistry and represents and warrants to the
 licensee that it is not a competitor of Gaussian, Inc. and that
 it will not use this program in any manner prohibited above.
 ---------------------------------------------------------------
  

 Cite this work as:
 Gaussian 16, Revision B.01,
 M. J. Frisch, G. W. Trucks, H. B. Schlegel, G. E. Scuseria, 
 M. A. Robb, J. R. Cheeseman, G. Scalmani, V. Barone, 
 G. A. Petersson, H. Nakatsuji, X. Li, M. Caricato, A. V. Marenich, 
 J. Bloino, B. G. Janesko, R. Gomperts, B. Mennucci, H. P. Hratchian, 
 J. V. Ortiz, A. F. Izmaylov, J. L. Sonnenberg, D. Williams-Young, 
 F. Ding, F. Lipparini, F. Egidi, J. Goings, B. Peng, A. Petrone, 
 T. Henderson, D. Ranasinghe, V. G. Zakrzewski, J. Gao, N. Rega, 
 G. Zheng, W. Liang, M. Hada, M. Ehara, K. Toyota, R. Fukuda, 
 J. Hasegawa, M. Ishida, T. Nakajima, Y. Honda, O. Kitao, H. Nakai, 
 T. Vreven, K. Throssell, J. A. Montgomery, Jr., J. E. Peralta, 
 F. Ogliaro, M. J. Bearpark, J. J. Heyd, E. N. Brothers, K. N. Kudin, 
 V. N. Staroverov, T. A. Keith, R. Kobayashi, J. Normand, 
 K. Raghavachari, A. P. Rendell, J. C. Burant, S. S. Iyengar, 
 J. Tomasi, M. Cossi, J. M. Millam, M. Klene, C. Adamo, R. Cammi, 
 J. W. Ochterski, R. L. Martin, K. Morokuma, O. Farkas, 
 J. B. Foresman, and D. J. Fox, Gaussian, Inc., Wallingford CT, 2016.
 
 ******************************************
 Gaussian 16:  ES64L-G16RevB.01 20-Dec-2017
                10-Mar-2019 
 ******************************************
 %mem=20gb
 %nproc=12
 Will use up to   12 processors via shared memory.
 %chk=4c1_b1_4e_4c1_PHI.inp_extract_14.chk
 ----------------------------------------------------------------------
 #M062X/6-311++G(2d,2p) opt=ModRedundant freq=noraman SCRF=(SMD,solvent
 =water)
 ----------------------------------------------------------------------
 1/18=120,19=15,26=3,38=1/1,3;
 2/9=110,12=2,17=6,18=5,40=1/2;
 3/5=4,6=6,7=1212,11=2,25=1,30=1,70=32201,71=1,72=1,74=-55/1,2,3;
 4//1;
 5/5=2,38=5,53=1/2;
 6/7=2,8=2,9=2,10=2,28=1/1;
 7//1,2,3,16;
 1/18=20,19=15,26=3/3(2);
 2/9=110/2;
 99//99;
 2/9=110/2;
 3/5=4,6=6,7=1212,11=2,25=1,30=1,70=32205,71=1,72=1,74=-55/1,2,3;
 4/5=5,16=3,69=1/1;
 5/5=2,38=5,53=1/2;
 7//1,2,3,16;
 1/18=20,19=15,26=3/3(-5);
 2/9=110/2;
 6/7=2,8=2,9=2,10=2,19=2,28=1/1;
 99/9=1/99;
 --------------------------------
 4c1_b1_4e_4c1_PHI.inp_extract_14
 --------------------------------
 Symbolic Z-matrix:
 Charge =  0 Multiplicity = 1
 C                    -3.01367   1.40997  -0.37182 
 C                     2.00947  -1.29481  -0.27212 
 C                     3.19424   1.28759   0.11654 
 O                     3.1859   -0.89014  -0.9369 
 O                    -2.08181  -1.20701   0.22127 
 C                    -3.47746  -0.95853   0.2769 
 O                     0.00045  -0.59623   0.73089 
 C                    -3.8637    0.17278  -0.66194 
 C                     1.87398   0.95129   0.8148 
 C                    -1.29928  -0.09914   0.6029 
 C                     3.97278   0.01762  -0.18616 
 C                     1.11253  -0.09562   0.00965 
 C                    -1.52402   1.04712  -0.37125 
 H                    -3.20058   2.18364  -1.10934 
 H                    -3.2878    1.82128   0.59733 
 H                     2.26555  -1.79481   0.65903 
 H                     1.50775  -2.0012   -0.91894 
 H                     2.99974   1.81567  -0.81372 
 H                     3.79806   1.94012   0.74005 
 H                    -3.75307  -0.71799   1.30106 
 H                    -3.95832  -1.88764   0.00505 
 H                    -3.70897  -0.1483   -1.68912 
 H                    -4.92104   0.39163  -0.54345 
 H                     2.07512   0.54451   1.80345 
 H                     1.2695    1.84272   0.94561 
 H                    -1.61523   0.20417   1.59605 
 H                     4.85073   0.22374  -0.78289 
 H                     4.28922  -0.46678   0.73489 
 H                     0.79811   0.31935  -0.9368 
 H                    -1.22905   0.74299  -1.36992 
 H                    -0.92517   1.90438  -0.0854 
 
 The following ModRedundant input section has been read:
 D      12       7      10       5 F                                           
 

 GradGradGradGradGradGradGradGradGradGradGradGradGradGradGradGradGradGrad
 Berny optimization.
 Initialization pass.
                           ----------------------------
                           !    Initial Parameters    !
                           ! (Angstroms and Degrees)  !
 --------------------------                            --------------------------
 ! Name  Definition              Value          Derivative Info.                !
 --------------------------------------------------------------------------------
 ! R1    R(1,8)                  1.5288         estimate D2E/DX2                !
 ! R2    R(1,13)                 1.5332         estimate D2E/DX2                !
 ! R3    R(1,14)                 1.0851         estimate D2E/DX2                !
 ! R4    R(1,15)                 1.0879         estimate D2E/DX2                !
 ! R5    R(2,4)                  1.4106         estimate D2E/DX2                !
 ! R6    R(2,12)                 1.5238         estimate D2E/DX2                !
 ! R7    R(2,16)                 1.0875         estimate D2E/DX2                !
 ! R8    R(2,17)                 1.0812         estimate D2E/DX2                !
 ! R9    R(3,9)                  1.5309         estimate D2E/DX2                !
 ! R10   R(3,11)                 1.5201         estimate D2E/DX2                !
 ! R11   R(3,18)                 1.0872         estimate D2E/DX2                !
 ! R12   R(3,19)                 1.0859         estimate D2E/DX2                !
 ! R13   R(4,11)                 1.4166         estimate D2E/DX2                !
 ! R14   R(5,6)                  1.4187         estimate D2E/DX2                !
 ! R15   R(5,10)                 1.409          estimate D2E/DX2                !
 ! R16   R(6,8)                  1.52           estimate D2E/DX2                !
 ! R17   R(6,20)                 1.0875         estimate D2E/DX2                !
 ! R18   R(6,21)                 1.0809         estimate D2E/DX2                !
 ! R19   R(7,10)                 1.3974         estimate D2E/DX2                !
 ! R20   R(7,12)                 1.4169         estimate D2E/DX2                !
 ! R21   R(8,22)                 1.0873         estimate D2E/DX2                !
 ! R22   R(8,23)                 1.0862         estimate D2E/DX2                !
 ! R23   R(9,12)                 1.5245         estimate D2E/DX2                !
 ! R24   R(9,24)                 1.0878         estimate D2E/DX2                !
 ! R25   R(9,25)                 1.085          estimate D2E/DX2                !
 ! R26   R(10,13)                1.521          estimate D2E/DX2                !
 ! R27   R(10,26)                1.0854         estimate D2E/DX2                !
 ! R28   R(11,27)                1.0814         estimate D2E/DX2                !
 ! R29   R(11,28)                1.0877         estimate D2E/DX2                !
 ! R30   R(12,29)                1.0802         estimate D2E/DX2                !
 ! R31   R(13,30)                1.0848         estimate D2E/DX2                !
 ! R32   R(13,31)                1.0841         estimate D2E/DX2                !
 ! A1    A(8,1,13)             110.4116         estimate D2E/DX2                !
 ! A2    A(8,1,14)             110.6236         estimate D2E/DX2                !
 ! A3    A(8,1,15)             109.5665         estimate D2E/DX2                !
 ! A4    A(13,1,14)            109.6543         estimate D2E/DX2                !
 ! A5    A(13,1,15)            109.5092         estimate D2E/DX2                !
 ! A6    A(14,1,15)            107.0085         estimate D2E/DX2                !
 ! A7    A(4,2,12)             110.6277         estimate D2E/DX2                !
 ! A8    A(4,2,16)             109.8193         estimate D2E/DX2                !
 ! A9    A(4,2,17)             107.0067         estimate D2E/DX2                !
 ! A10   A(12,2,16)            110.0054         estimate D2E/DX2                !
 ! A11   A(12,2,17)            110.5868         estimate D2E/DX2                !
 ! A12   A(16,2,17)            108.7306         estimate D2E/DX2                !
 ! A13   A(9,3,11)             110.4262         estimate D2E/DX2                !
 ! A14   A(9,3,18)             110.0396         estimate D2E/DX2                !
 ! A15   A(9,3,19)             110.466          estimate D2E/DX2                !
 ! A16   A(11,3,18)            109.0895         estimate D2E/DX2                !
 ! A17   A(11,3,19)            109.3651         estimate D2E/DX2                !
 ! A18   A(18,3,19)            107.3909         estimate D2E/DX2                !
 ! A19   A(2,4,11)             113.4119         estimate D2E/DX2                !
 ! A20   A(6,5,10)             113.4545         estimate D2E/DX2                !
 ! A21   A(5,6,8)              110.8618         estimate D2E/DX2                !
 ! A22   A(5,6,20)             108.9641         estimate D2E/DX2                !
 ! A23   A(5,6,21)             106.0953         estimate D2E/DX2                !
 ! A24   A(8,6,20)             110.6492         estimate D2E/DX2                !
 ! A25   A(8,6,21)             111.7996         estimate D2E/DX2                !
 ! A26   A(20,6,21)            108.3137         estimate D2E/DX2                !
 ! A27   A(10,7,12)            123.8978         estimate D2E/DX2                !
 ! A28   A(1,8,6)              110.1084         estimate D2E/DX2                !
 ! A29   A(1,8,22)             109.8238         estimate D2E/DX2                !
 ! A30   A(1,8,23)             110.9445         estimate D2E/DX2                !
 ! A31   A(6,8,22)             109.1209         estimate D2E/DX2                !
 ! A32   A(6,8,23)             109.2644         estimate D2E/DX2                !
 ! A33   A(22,8,23)            107.5229         estimate D2E/DX2                !
 ! A34   A(3,9,12)             109.9202         estimate D2E/DX2                !
 ! A35   A(3,9,24)             109.7067         estimate D2E/DX2                !
 ! A36   A(3,9,25)             110.7924         estimate D2E/DX2                !
 ! A37   A(12,9,24)            108.3941         estimate D2E/DX2                !
 ! A38   A(12,9,25)            110.4645         estimate D2E/DX2                !
 ! A39   A(24,9,25)            107.4979         estimate D2E/DX2                !
 ! A40   A(5,10,7)             105.1689         estimate D2E/DX2                !
 ! A41   A(5,10,13)            109.6954         estimate D2E/DX2                !
 ! A42   A(5,10,26)            107.8113         estimate D2E/DX2                !
 ! A43   A(7,10,13)            117.6564         estimate D2E/DX2                !
 ! A44   A(7,10,26)            106.6385         estimate D2E/DX2                !
 ! A45   A(13,10,26)           109.4152         estimate D2E/DX2                !
 ! A46   A(3,11,4)             110.8791         estimate D2E/DX2                !
 ! A47   A(3,11,27)            111.4981         estimate D2E/DX2                !
 ! A48   A(3,11,28)            110.6371         estimate D2E/DX2                !
 ! A49   A(4,11,27)            106.3007         estimate D2E/DX2                !
 ! A50   A(4,11,28)            108.9643         estimate D2E/DX2                !
 ! A51   A(27,11,28)           108.4191         estimate D2E/DX2                !
 ! A52   A(2,12,7)             106.1451         estimate D2E/DX2                !
 ! A53   A(2,12,9)             110.1264         estimate D2E/DX2                !
 ! A54   A(2,12,29)            108.158          estimate D2E/DX2                !
 ! A55   A(7,12,9)             111.4586         estimate D2E/DX2                !
 ! A56   A(7,12,29)            110.6885         estimate D2E/DX2                !
 ! A57   A(9,12,29)            110.14           estimate D2E/DX2                !
 ! A58   A(1,13,10)            108.7931         estimate D2E/DX2                !
 ! A59   A(1,13,30)            109.2804         estimate D2E/DX2                !
 ! A60   A(1,13,31)            110.4671         estimate D2E/DX2                !
 ! A61   A(10,13,30)           109.764          estimate D2E/DX2                !
 ! A62   A(10,13,31)           110.2093         estimate D2E/DX2                !
 ! A63   A(30,13,31)           108.3142         estimate D2E/DX2                !
 ! D1    D(13,1,8,6)            51.8905         estimate D2E/DX2                !
 ! D2    D(13,1,8,22)          -68.2935         estimate D2E/DX2                !
 ! D3    D(13,1,8,23)          172.9771         estimate D2E/DX2                !
 ! D4    D(14,1,8,6)           173.4579         estimate D2E/DX2                !
 ! D5    D(14,1,8,22)           53.2738         estimate D2E/DX2                !
 ! D6    D(14,1,8,23)          -65.4556         estimate D2E/DX2                !
 ! D7    D(15,1,8,6)           -68.8022         estimate D2E/DX2                !
 ! D8    D(15,1,8,22)          171.0138         estimate D2E/DX2                !
 ! D9    D(15,1,8,23)           52.2844         estimate D2E/DX2                !
 ! D10   D(8,1,13,10)          -54.2381         estimate D2E/DX2                !
 ! D11   D(8,1,13,30)           65.5934         estimate D2E/DX2                !
 ! D12   D(8,1,13,31)         -175.3359         estimate D2E/DX2                !
 ! D13   D(14,1,13,10)        -176.3775         estimate D2E/DX2                !
 ! D14   D(14,1,13,30)         -56.546          estimate D2E/DX2                !
 ! D15   D(14,1,13,31)          62.5247         estimate D2E/DX2                !
 ! D16   D(15,1,13,10)          66.4888         estimate D2E/DX2                !
 ! D17   D(15,1,13,30)        -173.6797         estimate D2E/DX2                !
 ! D18   D(15,1,13,31)         -54.609          estimate D2E/DX2                !
 ! D19   D(12,2,4,11)           61.0817         estimate D2E/DX2                !
 ! D20   D(16,2,4,11)          -60.5345         estimate D2E/DX2                !
 ! D21   D(17,2,4,11)         -178.3858         estimate D2E/DX2                !
 ! D22   D(4,2,12,7)          -177.208          estimate D2E/DX2                !
 ! D23   D(4,2,12,9)           -56.4305         estimate D2E/DX2                !
 ! D24   D(4,2,12,29)           63.9751         estimate D2E/DX2                !
 ! D25   D(16,2,12,7)          -55.7017         estimate D2E/DX2                !
 ! D26   D(16,2,12,9)           65.0758         estimate D2E/DX2                !
 ! D27   D(16,2,12,29)        -174.5185         estimate D2E/DX2                !
 ! D28   D(17,2,12,7)           64.4177         estimate D2E/DX2                !
 ! D29   D(17,2,12,9)         -174.8048         estimate D2E/DX2                !
 ! D30   D(17,2,12,29)         -54.3992         estimate D2E/DX2                !
 ! D31   D(11,3,9,12)          -52.0357         estimate D2E/DX2                !
 ! D32   D(11,3,9,24)           67.063          estimate D2E/DX2                !
 ! D33   D(11,3,9,25)         -174.4061         estimate D2E/DX2                !
 ! D34   D(18,3,9,12)           68.4497         estimate D2E/DX2                !
 ! D35   D(18,3,9,24)         -172.4515         estimate D2E/DX2                !
 ! D36   D(18,3,9,25)          -53.9206         estimate D2E/DX2                !
 ! D37   D(19,3,9,12)         -173.1444         estimate D2E/DX2                !
 ! D38   D(19,3,9,24)          -54.0456         estimate D2E/DX2                !
 ! D39   D(19,3,9,25)           64.4853         estimate D2E/DX2                !
 ! D40   D(9,3,11,4)            54.9804         estimate D2E/DX2                !
 ! D41   D(9,3,11,27)          173.2166         estimate D2E/DX2                !
 ! D42   D(9,3,11,28)          -66.0387         estimate D2E/DX2                !
 ! D43   D(18,3,11,4)          -66.0721         estimate D2E/DX2                !
 ! D44   D(18,3,11,27)          52.1641         estimate D2E/DX2                !
 ! D45   D(18,3,11,28)         172.9087         estimate D2E/DX2                !
 ! D46   D(19,3,11,4)          176.7416         estimate D2E/DX2                !
 ! D47   D(19,3,11,27)         -65.0222         estimate D2E/DX2                !
 ! D48   D(19,3,11,28)          55.7224         estimate D2E/DX2                !
 ! D49   D(2,4,11,3)           -60.4438         estimate D2E/DX2                !
 ! D50   D(2,4,11,27)          178.2105         estimate D2E/DX2                !
 ! D51   D(2,4,11,28)           61.5578         estimate D2E/DX2                !
 ! D52   D(10,5,6,8)            60.7761         estimate D2E/DX2                !
 ! D53   D(10,5,6,20)          -61.2294         estimate D2E/DX2                !
 ! D54   D(10,5,6,21)         -177.6502         estimate D2E/DX2                !
 ! D55   D(6,5,10,7)           169.1394         estimate D2E/DX2                !
 ! D56   D(6,5,10,13)          -63.4261         estimate D2E/DX2                !
 ! D57   D(6,5,10,26)           55.642          estimate D2E/DX2                !
 ! D58   D(5,6,8,1)            -53.6395         estimate D2E/DX2                !
 ! D59   D(5,6,8,22)            66.9682         estimate D2E/DX2                !
 ! D60   D(5,6,8,23)          -175.7262         estimate D2E/DX2                !
 ! D61   D(20,6,8,1)            67.376          estimate D2E/DX2                !
 ! D62   D(20,6,8,22)         -172.0163         estimate D2E/DX2                !
 ! D63   D(20,6,8,23)          -54.7107         estimate D2E/DX2                !
 ! D64   D(21,6,8,1)          -171.8013         estimate D2E/DX2                !
 ! D65   D(21,6,8,22)          -51.1936         estimate D2E/DX2                !
 ! D66   D(21,6,8,23)           66.112          estimate D2E/DX2                !
 ! D67   D(12,7,10,5)          122.4544         Frozen                          !
 ! D68   D(12,7,10,13)           0.0222         estimate D2E/DX2                !
 ! D69   D(12,7,10,26)        -123.228          estimate D2E/DX2                !
 ! D70   D(10,7,12,2)         -145.2879         estimate D2E/DX2                !
 ! D71   D(10,7,12,9)           94.7987         estimate D2E/DX2                !
 ! D72   D(10,7,12,29)         -28.151          estimate D2E/DX2                !
 ! D73   D(3,9,12,2)            52.587          estimate D2E/DX2                !
 ! D74   D(3,9,12,7)           170.1202         estimate D2E/DX2                !
 ! D75   D(3,9,12,29)          -66.6171         estimate D2E/DX2                !
 ! D76   D(24,9,12,2)          -67.3129         estimate D2E/DX2                !
 ! D77   D(24,9,12,7)           50.2203         estimate D2E/DX2                !
 ! D78   D(24,9,12,29)         173.483          estimate D2E/DX2                !
 ! D79   D(25,9,12,2)          175.1514         estimate D2E/DX2                !
 ! D80   D(25,9,12,7)          -67.3154         estimate D2E/DX2                !
 ! D81   D(25,9,12,29)          55.9473         estimate D2E/DX2                !
 ! D82   D(5,10,13,1)           58.7647         estimate D2E/DX2                !
 ! D83   D(5,10,13,30)         -60.766          estimate D2E/DX2                !
 ! D84   D(5,10,13,31)        -179.9796         estimate D2E/DX2                !
 ! D85   D(7,10,13,1)          178.8547         estimate D2E/DX2                !
 ! D86   D(7,10,13,30)          59.3241         estimate D2E/DX2                !
 ! D87   D(7,10,13,31)         -59.8896         estimate D2E/DX2                !
 ! D88   D(26,10,13,1)         -59.3114         estimate D2E/DX2                !
 ! D89   D(26,10,13,30)       -178.842          estimate D2E/DX2                !
 ! D90   D(26,10,13,31)         61.9443         estimate D2E/DX2                !
 --------------------------------------------------------------------------------
 Trust Radius=3.00D-01 FncErr=1.00D-07 GrdErr=1.00D-06 EigMax=2.50D+02 EigMin=1.00D-04
 Number of steps in this run=    186 maximum allowed number of steps=    186.
 GradGradGradGradGradGradGradGradGradGradGradGradGradGradGradGradGradGrad

                          Input orientation:                          
 ---------------------------------------------------------------------
 Center     Atomic      Atomic             Coordinates (Angstroms)
 Number     Number       Type             X           Y           Z
 ---------------------------------------------------------------------
      1          6           0       -3.013670    1.409966   -0.371817
      2          6           0        2.009472   -1.294813   -0.272116
      3          6           0        3.194239    1.287586    0.116535
      4          8           0        3.185896   -0.890144   -0.936901
      5          8           0       -2.081813   -1.207005    0.221270
      6          6           0       -3.477458   -0.958531    0.276898
      7          8           0        0.000451   -0.596230    0.730887
      8          6           0       -3.863703    0.172778   -0.661941
      9          6           0        1.873976    0.951291    0.814796
     10          6           0       -1.299284   -0.099143    0.602903
     11          6           0        3.972783    0.017619   -0.186161
     12          6           0        1.112527   -0.095617    0.009653
     13          6           0       -1.524023    1.047122   -0.371249
     14          1           0       -3.200579    2.183639   -1.109341
     15          1           0       -3.287796    1.821278    0.597333
     16          1           0        2.265547   -1.794806    0.659028
     17          1           0        1.507754   -2.001200   -0.918944
     18          1           0        2.999744    1.815672   -0.813716
     19          1           0        3.798063    1.940117    0.740051
     20          1           0       -3.753068   -0.717994    1.301062
     21          1           0       -3.958321   -1.887637    0.005047
     22          1           0       -3.708967   -0.148302   -1.689118
     23          1           0       -4.921036    0.391632   -0.543453
     24          1           0        2.075118    0.544509    1.803453
     25          1           0        1.269497    1.842721    0.945614
     26          1           0       -1.615226    0.204174    1.596047
     27          1           0        4.850734    0.223740   -0.782885
     28          1           0        4.289219   -0.466778    0.734892
     29          1           0        0.798114    0.319354   -0.936802
     30          1           0       -1.229048    0.742986   -1.369922
     31          1           0       -0.925171    1.904382   -0.085403
 ---------------------------------------------------------------------
                    Distance matrix (angstroms):
                    1          2          3          4          5
     1  C    0.000000
     2  C    5.705938   0.000000
     3  C    6.228290   2.867666   0.000000
     4  O    6.636599   1.410556   2.419154   0.000000
     5  O    2.840536   4.121863   5.837009   5.402825   0.000000
     6  C    2.499142   5.524573   7.041470   6.773350   1.418682
     7  O    3.784931   2.351637   3.758520   3.607626   2.229031
     8  C    1.528843   6.066298   7.187723   7.134581   2.420536
     9  C    5.050497   2.498944   1.530933   2.860150   4.545193
    10  C    2.483266   3.625348   4.727718   4.807652   1.409026
    11  C    7.126263   2.363145   1.520057   1.416628   6.190625
    12  C    4.408832   1.523803   2.501639   2.413731   3.388772
    13  C    1.533201   4.240292   4.749500   5.124090   2.396518
    14  H    1.085102   6.320222   6.572624   7.089777   3.810332
    15  H    1.087922   6.207013   6.521715   7.184314   3.281207
    16  H    6.261257   1.087473   3.264645   2.052424   4.408705
    17  H    5.690226   1.081245   3.838302   2.012692   3.849133
    18  H    6.043262   3.308940   1.087230   2.715008   6.002499
    19  H    6.922212   3.832533   1.085897   3.346236   6.689279
    20  H    2.805966   6.001206   7.327382   7.292965   2.048945
    21  H    3.450881   6.003567   7.826467   7.274757   2.007808
    22  H    2.155671   6.001910   7.278490   6.975335   2.723612
    23  H    2.168988   7.137903   8.191215   8.217061   3.346883
    24  H    5.601480   2.774059   2.156453   3.286578   4.780291
    25  H    4.502046   3.445947   2.167990   3.832101   4.588767
    26  H    2.698531   4.344586   5.147202   5.537520   2.024634
    27  H    7.963979   3.261849   2.164417   2.009016   7.149515
    28  H    7.620968   2.626205   2.158504   2.047304   6.434422
    29  H    4.004790   2.124790   2.790772   2.676637   3.459029
    30  H    2.150803   3.980680   4.698043   4.727193   2.657361
    31  H    2.165250   4.345324   4.170222   5.043342   3.333556
                    6          7          8          9         10
     6  C    0.000000
     7  O    3.526077   0.000000
     8  C    1.520021   4.178879   0.000000
     9  C    5.707416   2.431452   5.975600   0.000000
    10  C    2.364163   1.397421   2.872284   3.349312   0.000000
    11  C    7.528173   4.122767   7.852449   2.505723   5.332068
    12  C    4.678034   1.416864   5.028513   1.524492   2.483705
    13  C    2.873786   2.497865   2.514574   3.600317   1.520988
    14  H    3.445512   4.621764   2.164131   5.565258   3.428964
    15  H    2.804637   4.083473   2.152903   5.239089   2.764458
    16  H    5.816140   2.563671   6.571457   2.778244   3.947967
    17  H    5.231590   2.639668   5.800412   3.443425   3.716625
    18  H    7.130202   4.147147   7.058969   2.160222   4.914770
    19  H    7.845373   4.566727   7.986972   2.164596   5.491843
    20  H    1.087534   3.798530   2.158494   5.889532   2.625159
    21  H    1.080912   4.226873   2.167749   6.536887   3.259850
    22  H    2.138992   4.451612   1.087257   6.216747   3.326011
    23  H    2.140055   5.178885   1.086227   6.951996   3.830415
    24  H    5.951521   2.599217   6.440958   1.087829   3.638983
    25  H    5.552277   2.757729   5.632289   1.084968   3.238352
    26  H    2.561239   1.999890   3.186714   3.652816   1.085429
    27  H    8.478189   5.146756   8.715425   3.455865   6.312478
    28  H    7.795694   4.290723   8.296404   2.801911   5.602137
    29  H    4.624562   2.062946   4.672213   2.150562   2.635320
    30  H    3.265352   2.778231   2.787074   3.800676   2.146195
    31  H    3.852493   2.788578   3.459164   3.090949   2.151241
                   11         12         13         14         15
    11  C    0.000000
    12  C    2.869186   0.000000
    13  C    5.595445   2.898678   0.000000
    14  H    7.549902   5.005001   2.155758   0.000000
    15  H    7.522171   4.835566   2.156006   1.746897   0.000000
    16  H    2.629426   2.153691   4.847563   6.988110   6.627178
    17  H    3.269399   2.156326   4.334041   6.302184   6.317257
    18  H    2.138603   2.809368   4.609871   6.218263   6.443931
    19  H    2.141120   3.448159   5.509721   7.242965   7.088292
    20  H    7.902008   5.072387   3.298621   3.812448   2.675746
    21  H    8.158981   5.378183   3.831477   4.288510   3.815293
    22  H    7.829157   5.112280   2.817765   2.456125   3.047046
    23  H    8.908847   6.078423   3.463960   2.547840   2.452092
    24  H    2.799519   2.134025   4.235064   6.245326   5.643200
    25  H    3.452487   2.158198   3.189179   4.931597   4.570632
    26  H    5.868297   3.169725   2.142226   3.708200   2.531787
    27  H    1.081371   3.834618   6.440880   8.292853   8.407901
    28  H    1.087709   3.279498   6.108128   8.156162   7.916140
    29  H    3.276130   1.080201   2.498363   4.415300   4.615626
    30  H    5.383911   2.844197   1.084830   2.455671   3.044873
    31  H    5.249760   2.856789   1.084079   2.510760   2.460697
                   16         17         18         19         20
    16  H    0.000000
    17  H    1.762624   0.000000
    18  H    3.967817   4.099466   0.000000
    19  H    4.037923   4.850954   1.751283   0.000000
    20  H    6.147801   5.852460   7.516131   8.024953   0.000000
    21  H    6.258821   5.544784   7.924616   8.680635   1.757796
    22  H    6.627185   5.589327   7.044879   8.161976   3.044285
    23  H    7.607460   6.869933   8.052309   8.948065   2.449011
    24  H    2.611200   3.770143   3.052927   2.459082   5.984485
    25  H    3.782307   4.278910   2.467738   2.538777   5.648873
    26  H    4.464787   4.576228   5.449939   5.748906   2.346866
    27  H    3.582853   4.018008   2.441590   2.524559   8.902534
    28  H    2.421706   3.581365   3.044751   2.456502   8.066104
    29  H    3.028152   2.426701   2.664825   3.799790   5.176619
    30  H    4.771710   3.901797   4.398034   5.581841   3.954655
    31  H    4.941543   4.676268   3.992902   4.794955   4.098310
                   21         22         23         24         25
    21  H    0.000000
    22  H    2.440832   0.000000
    23  H    2.534312   1.753051   0.000000
    24  H    6.749221   6.792178   7.380888   0.000000
    25  H    6.490787   5.974202   6.530366   1.752218   0.000000
    26  H    3.520944   3.911560   3.942205   3.711803   3.380758
    27  H    9.092755   8.615576   9.776145   3.807372   4.293491
    28  H    8.400799   8.363506   9.338085   2.658339   3.807481
    29  H    5.327435   4.593306   5.733116   3.031572   2.467051
    30  H    4.032325   2.654483   3.799642   4.585544   3.579644
    31  H    4.856705   3.812471   4.297111   3.797205   2.425565
                   26         27         28         29         30
    26  H    0.000000
    27  H    6.889727   0.000000
    28  H    6.004518   1.759478   0.000000
    29  H    3.500400   4.056669   3.949731   0.000000
    30  H    3.039149   6.130088   6.028685   2.115761   0.000000
    31  H    2.488806   6.055751   5.786635   2.491366   1.758173
                   31
    31  H    0.000000
 Stoichiometry    C10H18O3
 Framework group  C1[X(C10H18O3)]
 Deg. of freedom    87
 Full point group                 C1      NOp   1
 Largest Abelian subgroup         C1      NOp   1
 Largest concise Abelian subgroup C1      NOp   1
                         Standard orientation:                         
 ---------------------------------------------------------------------
 Center     Atomic      Atomic             Coordinates (Angstroms)
 Number     Number       Type             X           Y           Z
 ---------------------------------------------------------------------
      1          6           0       -3.013670    1.409966   -0.371817
      2          6           0        2.009472   -1.294813   -0.272116
      3          6           0        3.194239    1.287586    0.116535
      4          8           0        3.185896   -0.890144   -0.936901
      5          8           0       -2.081813   -1.207005    0.221270
      6          6           0       -3.477458   -0.958531    0.276898
      7          8           0        0.000451   -0.596230    0.730887
      8          6           0       -3.863703    0.172778   -0.661941
      9          6           0        1.873976    0.951291    0.814796
     10          6           0       -1.299284   -0.099143    0.602903
     11          6           0        3.972783    0.017619   -0.186161
     12          6           0        1.112527   -0.095617    0.009653
     13          6           0       -1.524023    1.047122   -0.371249
     14          1           0       -3.200579    2.183639   -1.109341
     15          1           0       -3.287796    1.821278    0.597333
     16          1           0        2.265547   -1.794806    0.659028
     17          1           0        1.507754   -2.001200   -0.918944
     18          1           0        2.999744    1.815672   -0.813716
     19          1           0        3.798063    1.940117    0.740051
     20          1           0       -3.753068   -0.717994    1.301062
     21          1           0       -3.958321   -1.887637    0.005047
     22          1           0       -3.708967   -0.148302   -1.689118
     23          1           0       -4.921036    0.391632   -0.543453
     24          1           0        2.075118    0.544509    1.803453
     25          1           0        1.269497    1.842721    0.945614
     26          1           0       -1.615226    0.204174    1.596047
     27          1           0        4.850734    0.223740   -0.782885
     28          1           0        4.289219   -0.466778    0.734892
     29          1           0        0.798114    0.319354   -0.936802
     30          1           0       -1.229048    0.742986   -1.369922
     31          1           0       -0.925171    1.904382   -0.085403
 ---------------------------------------------------------------------
 Rotational constants (GHZ):           2.0852066           0.3686117           0.3412744
 Standard basis: 6-311++G(2d,2p) (5D, 7F)
 There are   557 symmetry adapted cartesian basis functions of A   symmetry.
 There are   531 symmetry adapted basis functions of A   symmetry.
   531 basis functions,   762 primitive gaussians,   557 cartesian basis functions
    51 alpha electrons       51 beta electrons
       nuclear repulsion energy       879.5404598206 Hartrees.
 NAtoms=   31 NActive=   31 NUniq=   31 SFac= 1.00D+00 NAtFMM=   60 NAOKFM=F Big=F
 Integral buffers will be    131072 words long.
 Raffenetti 2 integral format.
 Two-electron integral symmetry is turned on.
 ------------------------------------------------------------------------------
 Polarizable Continuum Model (PCM)
 =================================
 Model                : PCM.
 Atomic radii         : SMD-Coulomb.
 Polarization charges : Total charges.
 Charge compensation  : None.
 Solution method      : On-the-fly selection.
 Cavity type          : VdW (van der Waals Surface) (Alpha=1.000).
 Cavity algorithm     : GePol (No added spheres)
                        Default sphere list used, NSphG=   31.
                        Lebedev-Laikov grids with approx.  5.0 points / Ang**2.
                        Smoothing algorithm: York/Karplus (Gamma=1.0000).
                        Polarization charges: spherical gaussians, with
                                              point-specific exponents (IZeta= 3).
                        Self-potential: point-specific (ISelfS= 7).
                        Self-field    : sphere-specific E.n sum rule (ISelfD= 2).
 1st derivatives      : Analytical E(r).r(x)/FMM algorithm (CHGder, D1EAlg=3).
                        Cavity 1st derivative terms included.
 Solvent              : Water, Eps=  78.355300 Eps(inf)=   1.777849
 ------------------------------------------------------------------------------
 ------------------------------------------------------------------------------
 Atomic radii for non-electrostatic terms: SMD-CDS.
 ------------------------------------------------------------------------------
 Nuclear repulsion after PCM non-electrostatic terms =      879.5468417734 Hartrees.
 One-electron integrals computed using PRISM.
 NBasis=   531 RedAO= T EigKep=  5.67D-06  NBF=   531
 NBsUse=   531 1.00D-06 EigRej= -1.00D+00 NBFU=   531
 ExpMin= 3.60D-02 ExpMax= 8.59D+03 ExpMxC= 1.30D+03 IAcc=3 IRadAn=         5 AccDes= 0.00D+00
 Harris functional with IExCor= 1009 and IRadAn=       5 diagonalized for initial guess.
 HarFok:  IExCor= 1009 AccDes= 0.00D+00 IRadAn=         5 IDoV= 1 UseB2=F ITyADJ=14
 ICtDFT=  3500011 ScaDFX=  1.000000  1.000000  1.000000  1.000000
 FoFCou: FMM=F IPFlag=           0 FMFlag=      100000 FMFlg1=           0
         NFxFlg=           0 DoJE=T BraDBF=F KetDBF=T FulRan=T
         wScrn=  0.000000 ICntrl=       500 IOpCl=  0 I1Cent=   200000004 NGrid=           0
         NMat0=    1 NMatS0=      1 NMatT0=    0 NMatD0=    1 NMtDS0=    0 NMtDT0=    0
 Petite list used in FoFCou.
 Requested convergence on RMS density matrix=1.00D-08 within 128 cycles.
 Requested convergence on MAX density matrix=1.00D-06.
 Requested convergence on             energy=1.00D-06.
 No special actions if energy rises.
 Inv3:  Mode=1 IEnd=    11976012.
 Iteration    1 A*A^-1 deviation from unit magnitude is 6.77D-15 for    204.
 Iteration    1 A*A^-1 deviation from orthogonality  is 3.94D-15 for   1643    219.
 Iteration    1 A^-1*A deviation from unit magnitude is 6.77D-15 for   1997.
 Iteration    1 A^-1*A deviation from orthogonality  is 1.69D-15 for   1907    639.
 Error on total polarization charges =  0.06331
 SCF Done:  E(RM062X) =  -617.498171544     A.U. after   12 cycles
            NFock= 12  Conv=0.62D-08     -V/T= 2.0035
 SMD-CDS (non-electrostatic) energy       (kcal/mol) =       4.00
 (included in total energy above)

 **********************************************************************

            Population analysis using the SCF Density.

 **********************************************************************

 Orbital symmetries:
       Occupied  (A) (A) (A) (A) (A) (A) (A) (A) (A) (A) (A) (A)
                 (A) (A) (A) (A) (A) (A) (A) (A) (A) (A) (A) (A)
                 (A) (A) (A) (A) (A) (A) (A) (A) (A) (A) (A) (A)
                 (A) (A) (A) (A) (A) (A) (A) (A) (A) (A) (A) (A)
                 (A) (A) (A)
       Virtual   (A) (A) (A) (A) (A) (A) (A) (A) (A) (A) (A) (A)
                 (A) (A) (A) (A) (A) (A) (A) (A) (A) (A) (A) (A)
                 (A) (A) (A) (A) (A) (A) (A) (A) (A) (A) (A) (A)
                 (A) (A) (A) (A) (A) (A) (A) (A) (A) (A) (A) (A)
                 (A) (A) (A) (A) (A) (A) (A) (A) (A) (A) (A) (A)
                 (A) (A) (A) (A) (A) (A) (A) (A) (A) (A) (A) (A)
                 (A) (A) (A) (A) (A) (A) (A) (A) (A) (A) (A) (A)
                 (A) (A) (A) (A) (A) (A) (A) (A) (A) (A) (A) (A)
                 (A) (A) (A) (A) (A) (A) (A) (A) (A) (A) (A) (A)
                 (A) (A) (A) (A) (A) (A) (A) (A) (A) (A) (A) (A)
                 (A) (A) (A) (A) (A) (A) (A) (A) (A) (A) (A) (A)
                 (A) (A) (A) (A) (A) (A) (A) (A) (A) (A) (A) (A)
                 (A) (A) (A) (A) (A) (A) (A) (A) (A) (A) (A) (A)
                 (A) (A) (A) (A) (A) (A) (A) (A) (A) (A) (A) (A)
                 (A) (A) (A) (A) (A) (A) (A) (A) (A) (A) (A) (A)
                 (A) (A) (A) (A) (A) (A) (A) (A) (A) (A) (A) (A)
                 (A) (A) (A) (A) (A) (A) (A) (A) (A) (A) (A) (A)
                 (A) (A) (A) (A) (A) (A) (A) (A) (A) (A) (A) (A)
                 (A) (A) (A) (A) (A) (A) (A) (A) (A) (A) (A) (A)
                 (A) (A) (A) (A) (A) (A) (A) (A) (A) (A) (A) (A)
                 (A) (A) (A) (A) (A) (A) (A) (A) (A) (A) (A) (A)
                 (A) (A) (A) (A) (A) (A) (A) (A) (A) (A) (A) (A)
                 (A) (A) (A) (A) (A) (A) (A) (A) (A) (A) (A) (A)
                 (A) (A) (A) (A) (A) (A) (A) (A) (A) (A) (A) (A)
                 (A) (A) (A) (A) (A) (A) (A) (A) (A) (A) (A) (A)
                 (A) (A) (A) (A) (A) (A) (A) (A) (A) (A) (A) (A)
                 (A) (A) (A) (A) (A) (A) (A) (A) (A) (A) (A) (A)
                 (A) (A) (A) (A) (A) (A) (A) (A) (A) (A) (A) (A)
                 (A) (A) (A) (A) (A) (A) (A) (A) (A) (A) (A) (A)
                 (A) (A) (A) (A) (A) (A) (A) (A) (A) (A) (A) (A)
                 (A) (A) (A) (A) (A) (A) (A) (A) (A) (A) (A) (A)
                 (A) (A) (A) (A) (A) (A) (A) (A) (A) (A) (A) (A)
                 (A) (A) (A) (A) (A) (A) (A) (A) (A) (A) (A) (A)
                 (A) (A) (A) (A) (A) (A) (A) (A) (A) (A) (A) (A)
                 (A) (A) (A) (A) (A) (A) (A) (A) (A) (A) (A) (A)
                 (A) (A) (A) (A) (A) (A) (A) (A) (A) (A) (A) (A)
                 (A) (A) (A) (A) (A) (A) (A) (A) (A) (A) (A) (A)
                 (A) (A) (A) (A) (A) (A) (A) (A) (A) (A) (A) (A)
                 (A) (A) (A) (A) (A) (A) (A) (A) (A) (A) (A) (A)
                 (A) (A) (A) (A) (A) (A) (A) (A) (A) (A) (A) (A)
 The electronic state is 1-A.
 Alpha  occ. eigenvalues --  -19.63250 -19.62917 -19.62801 -10.63427 -10.58325
 Alpha  occ. eigenvalues --  -10.57321 -10.57293 -10.57197 -10.52550 -10.52502
 Alpha  occ. eigenvalues --  -10.52378 -10.52267 -10.52126  -1.20155  -1.16733
 Alpha  occ. eigenvalues --   -1.13939  -0.90062  -0.89717  -0.87154  -0.84015
 Alpha  occ. eigenvalues --   -0.74962  -0.73919  -0.72770  -0.69364  -0.66216
 Alpha  occ. eigenvalues --   -0.64078  -0.60341  -0.57658  -0.57044  -0.55639
 Alpha  occ. eigenvalues --   -0.53813  -0.53154  -0.51883  -0.50500  -0.50077
 Alpha  occ. eigenvalues --   -0.49226  -0.46870  -0.45460  -0.45404  -0.44062
 Alpha  occ. eigenvalues --   -0.43207  -0.41272  -0.40264  -0.39551  -0.39120
 Alpha  occ. eigenvalues --   -0.38489  -0.37446  -0.37130  -0.34845  -0.32504
 Alpha  occ. eigenvalues --   -0.31453
 Alpha virt. eigenvalues --    0.00475   0.01281   0.01346   0.01613   0.02587
 Alpha virt. eigenvalues --    0.02899   0.03032   0.04141   0.04227   0.04746
 Alpha virt. eigenvalues --    0.04985   0.05143   0.06052   0.06176   0.07335
 Alpha virt. eigenvalues --    0.07641   0.08130   0.08378   0.09038   0.10039
 Alpha virt. eigenvalues --    0.10686   0.11081   0.11288   0.11985   0.12195
 Alpha virt. eigenvalues --    0.12606   0.13213   0.13464   0.13665   0.13879
 Alpha virt. eigenvalues --    0.14325   0.14547   0.14916   0.15174   0.15439
 Alpha virt. eigenvalues --    0.15641   0.15771   0.15954   0.16201   0.16522
 Alpha virt. eigenvalues --    0.16797   0.17331   0.17858   0.18023   0.18310
 Alpha virt. eigenvalues --    0.18436   0.18951   0.19225   0.19514   0.19923
 Alpha virt. eigenvalues --    0.20551   0.20981   0.21687   0.22133   0.22267
 Alpha virt. eigenvalues --    0.22652   0.22956   0.23380   0.24024   0.24677
 Alpha virt. eigenvalues --    0.25383   0.26269   0.26515   0.27082   0.28009
 Alpha virt. eigenvalues --    0.28209   0.28635   0.29093   0.29688   0.29760
 Alpha virt. eigenvalues --    0.30367   0.30791   0.31603   0.31719   0.32415
 Alpha virt. eigenvalues --    0.32667   0.32968   0.33381   0.34150   0.34731
 Alpha virt. eigenvalues --    0.35135   0.35382   0.35536   0.35929   0.36431
 Alpha virt. eigenvalues --    0.36869   0.36962   0.37261   0.38505   0.38856
 Alpha virt. eigenvalues --    0.39006   0.39686   0.39878   0.40135   0.40753
 Alpha virt. eigenvalues --    0.42040   0.43243   0.43555   0.44411   0.45191
 Alpha virt. eigenvalues --    0.46246   0.48325   0.49903   0.50849   0.51882
 Alpha virt. eigenvalues --    0.52068   0.52933   0.53450   0.54608   0.55810
 Alpha virt. eigenvalues --    0.56499   0.57382   0.58010   0.59145   0.59919
 Alpha virt. eigenvalues --    0.60255   0.60725   0.61400   0.61808   0.61846
 Alpha virt. eigenvalues --    0.62252   0.62764   0.63788   0.64348   0.64506
 Alpha virt. eigenvalues --    0.64851   0.66101   0.66387   0.66572   0.68190
 Alpha virt. eigenvalues --    0.68522   0.68840   0.69066   0.70570   0.71124
 Alpha virt. eigenvalues --    0.71680   0.72429   0.72577   0.72820   0.73867
 Alpha virt. eigenvalues --    0.74347   0.75008   0.75487   0.75973   0.76531
 Alpha virt. eigenvalues --    0.76917   0.77471   0.77891   0.78548   0.79637
 Alpha virt. eigenvalues --    0.80706   0.82146   0.83731   0.85157   0.85529
 Alpha virt. eigenvalues --    0.86902   0.88033   0.89635   0.89766   0.90516
 Alpha virt. eigenvalues --    0.91034   0.92258   0.92989   0.94173   0.95883
 Alpha virt. eigenvalues --    0.96130   0.97003   1.00170   1.00373   1.02689
 Alpha virt. eigenvalues --    1.03549   1.04441   1.05912   1.06324   1.07258
 Alpha virt. eigenvalues --    1.08225   1.08639   1.10449   1.11239   1.12276
 Alpha virt. eigenvalues --    1.12990   1.13322   1.14388   1.15320   1.17112
 Alpha virt. eigenvalues --    1.17984   1.18341   1.18736   1.19790   1.20416
 Alpha virt. eigenvalues --    1.21137   1.21859   1.22456   1.22749   1.24298
 Alpha virt. eigenvalues --    1.25441   1.25906   1.26312   1.27110   1.28305
 Alpha virt. eigenvalues --    1.28584   1.29394   1.29874   1.31089   1.31506
 Alpha virt. eigenvalues --    1.31931   1.32739   1.33587   1.33631   1.34248
 Alpha virt. eigenvalues --    1.35117   1.35296   1.37045   1.37770   1.38177
 Alpha virt. eigenvalues --    1.38833   1.39917   1.40349   1.41389   1.41752
 Alpha virt. eigenvalues --    1.43039   1.43726   1.44098   1.44512   1.45799
 Alpha virt. eigenvalues --    1.46349   1.46540   1.47127   1.48791   1.48951
 Alpha virt. eigenvalues --    1.49170   1.50008   1.50664   1.51406   1.52316
 Alpha virt. eigenvalues --    1.53257   1.54034   1.55044   1.56073   1.56344
 Alpha virt. eigenvalues --    1.57346   1.57784   1.58466   1.59003   1.59429
 Alpha virt. eigenvalues --    1.60460   1.60939   1.61405   1.61862   1.62600
 Alpha virt. eigenvalues --    1.63553   1.64505   1.65274   1.66287   1.67694
 Alpha virt. eigenvalues --    1.67952   1.69282   1.70277   1.71363   1.73152
 Alpha virt. eigenvalues --    1.73959   1.75558   1.76119   1.77225   1.78804
 Alpha virt. eigenvalues --    1.78970   1.80549   1.80960   1.82023   1.83012
 Alpha virt. eigenvalues --    1.85136   1.87753   1.89341   1.93730   1.97021
 Alpha virt. eigenvalues --    1.98910   2.08767   2.12902   2.15996   2.19887
 Alpha virt. eigenvalues --    2.25301   2.26922   2.28097   2.35841   2.37832
 Alpha virt. eigenvalues --    2.40670   2.43638   2.46912   2.49637   2.51662
 Alpha virt. eigenvalues --    2.56432   2.75959   2.76872   2.78463   2.81869
 Alpha virt. eigenvalues --    2.86041   2.89744   2.92512   2.94068   2.94371
 Alpha virt. eigenvalues --    2.96618   2.98891   3.00484   3.03483   3.05816
 Alpha virt. eigenvalues --    3.07729   3.08229   3.08766   3.09909   3.11965
 Alpha virt. eigenvalues --    3.14103   3.16039   3.18160   3.19086   3.22618
 Alpha virt. eigenvalues --    3.25474   3.31221   3.32434   3.33020   3.35797
 Alpha virt. eigenvalues --    3.36337   3.37233   3.39293   3.41010   3.41721
 Alpha virt. eigenvalues --    3.43249   3.43817   3.45412   3.46033   3.46754
 Alpha virt. eigenvalues --    3.47542   3.48721   3.49696   3.50833   3.51945
 Alpha virt. eigenvalues --    3.52870   3.53618   3.55653   3.56004   3.56562
 Alpha virt. eigenvalues --    3.57315   3.57845   3.58657   3.60513   3.60875
 Alpha virt. eigenvalues --    3.61118   3.62241   3.63282   3.64565   3.66255
 Alpha virt. eigenvalues --    3.66720   3.67883   3.69079   3.70032   3.70607
 Alpha virt. eigenvalues --    3.71189   3.71983   3.72174   3.73597   3.74786
 Alpha virt. eigenvalues --    3.75925   3.76412   3.76659   3.77516   3.78490
 Alpha virt. eigenvalues --    3.78988   3.80108   3.83176   3.84461   3.85129
 Alpha virt. eigenvalues --    3.85718   3.87120   3.89256   3.90846   3.91982
 Alpha virt. eigenvalues --    3.92418   3.93955   3.95988   3.97165   3.98612
 Alpha virt. eigenvalues --    3.99335   4.02634   4.04281   4.04586   4.05446
 Alpha virt. eigenvalues --    4.05833   4.06404   4.07306   4.07527   4.08005
 Alpha virt. eigenvalues --    4.09186   4.09269   4.10253   4.10523   4.12311
 Alpha virt. eigenvalues --    4.12579   4.14597   4.14766   4.15551   4.16922
 Alpha virt. eigenvalues --    4.17299   4.18628   4.19672   4.20498   4.20887
 Alpha virt. eigenvalues --    4.22269   4.23816   4.24432   4.26586   4.28557
 Alpha virt. eigenvalues --    4.29874   4.30233   4.31471   4.31625   4.32631
 Alpha virt. eigenvalues --    4.33468   4.35478   4.37256   4.39475   4.41633
 Alpha virt. eigenvalues --    4.43701   4.45409   4.47547   4.50050   4.56833
 Alpha virt. eigenvalues --    4.60089   4.61907   4.76832   4.77620   4.83508
 Alpha virt. eigenvalues --    4.88560   4.92306   4.93974   4.99740   5.01271
 Alpha virt. eigenvalues --    5.06886   5.07649   5.08145   5.09209   5.12350
 Alpha virt. eigenvalues --    5.13071   5.14589   5.15385   5.30543   5.32993
 Alpha virt. eigenvalues --    5.36799   5.53980   5.58847   5.64304   5.86988
 Alpha virt. eigenvalues --    5.88406   6.00941   6.99511   7.05570   7.06746
 Alpha virt. eigenvalues --    7.08750   7.09425   7.12730   7.14398   7.16115
 Alpha virt. eigenvalues --    7.27569   7.36025   7.41364   7.44781   7.53552
 Alpha virt. eigenvalues --    7.54908   7.58232  23.95472  23.98331  24.06132
 Alpha virt. eigenvalues --   24.09079  24.12373  24.13801  24.14947  24.15199
 Alpha virt. eigenvalues --   24.16931  24.19757  50.17612  50.19876  50.21455
          Condensed to atoms (all electrons):
               1          2          3          4          5          6
     1  C    6.749388  -0.030605   0.033213  -0.000257  -0.038840  -0.189123
     2  C   -0.030605   6.054183   0.082433   0.115949  -0.003047  -0.003825
     3  C    0.033213   0.082433   5.745364  -0.003241  -0.001686  -0.010130
     4  O   -0.000257   0.115949  -0.003241   8.370679  -0.000009  -0.000143
     5  O   -0.038840  -0.003047  -0.001686  -0.000009   8.388859   0.023062
     6  C   -0.189123  -0.003825  -0.010130  -0.000143   0.023062   5.530862
     7  O    0.053819  -0.214387  -0.005604   0.001214   0.003068   0.007217
     8  C    0.105012  -0.004215   0.004861   0.000189  -0.035228   0.032745
     9  C   -0.036151  -0.066690  -0.077033  -0.038987   0.001967  -0.007408
    10  C    0.247230  -0.032788  -0.077557  -0.003787   0.295083  -0.200886
    11  C    0.001860  -0.208464   0.047335   0.086538   0.000485  -0.000411
    12  C   -0.171312  -0.090070  -0.138106   0.070894  -0.026458   0.012995
    13  C   -0.963661  -0.089469   0.047610   0.007831  -0.055491   0.159477
    14  H    0.415158  -0.000551  -0.001020   0.000032  -0.000813   0.013122
    15  H    0.505653  -0.001496   0.000877  -0.000018   0.001301  -0.019762
    16  H    0.002717   0.364651   0.019356  -0.040373   0.001516   0.000234
    17  H   -0.004814   0.434267  -0.002878  -0.066215  -0.003061  -0.001075
    18  H    0.001363   0.014347   0.521982   0.001895   0.000117   0.000350
    19  H   -0.000804  -0.004151   0.417325   0.007920  -0.000085  -0.000173
    20  H   -0.001140  -0.001113   0.000107  -0.000003  -0.035810   0.479974
    21  H   -0.006530   0.000554  -0.000422   0.000001  -0.065559   0.437527
    22  H    0.000045  -0.000979   0.000301  -0.000004  -0.007415  -0.090474
    23  H   -0.051734   0.000061  -0.000051  -0.000002   0.006985  -0.033114
    24  H    0.001036  -0.007155  -0.075799   0.000851  -0.000576   0.001236
    25  H   -0.001050  -0.003001   0.014119  -0.005918   0.001858  -0.000387
    26  H   -0.039741   0.015731  -0.007405   0.000024  -0.053145   0.012996
    27  H    0.000357   0.020488  -0.053489  -0.066819   0.000031  -0.000100
    28  H   -0.000284  -0.037023  -0.025223  -0.045474   0.000033   0.000185
    29  H   -0.034188  -0.055436  -0.053543  -0.034946   0.000333  -0.009084
    30  H    0.034719   0.014312   0.006676   0.001693  -0.011110   0.022923
    31  H   -0.039662  -0.003104  -0.014245   0.000928   0.004523   0.002897
               7          8          9         10         11         12
     1  C    0.053819   0.105012  -0.036151   0.247230   0.001860  -0.171312
     2  C   -0.214387  -0.004215  -0.066690  -0.032788  -0.208464  -0.090070
     3  C   -0.005604   0.004861  -0.077033  -0.077557   0.047335  -0.138106
     4  O    0.001214   0.000189  -0.038987  -0.003787   0.086538   0.070894
     5  O    0.003068  -0.035228   0.001967   0.295083   0.000485  -0.026458
     6  C    0.007217   0.032745  -0.007408  -0.200886  -0.000411   0.012995
     7  O    8.411875  -0.005943  -0.155245   0.163582   0.013189   0.283134
     8  C   -0.005943   5.512497   0.002005   0.046719  -0.000012   0.019536
     9  C   -0.155245   0.002005   6.726095   0.037731  -0.162760  -1.050863
    10  C    0.163582   0.046719   0.037731   5.895882   0.000736  -0.284469
    11  C    0.013189  -0.000012  -0.162760   0.000736   5.474098   0.213016
    12  C    0.283134   0.019536  -1.050863  -0.284469   0.213016   6.938814
    13  C   -0.057544  -0.099951   0.125974  -0.368643  -0.002135   0.071111
    14  H   -0.001801  -0.013278   0.003950  -0.000007  -0.000135  -0.004431
    15  H    0.001920  -0.059316   0.004008  -0.016531   0.000051  -0.005898
    16  H    0.008241   0.000095  -0.006194   0.014230  -0.013372  -0.013912
    17  H    0.004643   0.000947   0.036596  -0.012381   0.008805  -0.059272
    18  H    0.000942   0.000041  -0.014459   0.000752  -0.099355  -0.048854
    19  H   -0.001939   0.000119  -0.012246  -0.004935  -0.030417  -0.010587
    20  H    0.003548  -0.062423   0.000514  -0.025856   0.000096  -0.003673
    21  H   -0.003323  -0.037634  -0.000177   0.005454  -0.000050   0.002566
    22  H    0.002637   0.485755   0.000229   0.006830   0.000151  -0.001654
    23  H    0.000190   0.452281  -0.001117  -0.005527   0.000008   0.002133
    24  H    0.003206  -0.000608   0.516220  -0.003306  -0.009727  -0.057440
    25  H   -0.007951   0.002572   0.470827   0.025446  -0.024288  -0.109975
    26  H   -0.073816  -0.009250  -0.003777   0.446897  -0.001734   0.017584
    27  H    0.000986   0.000047   0.010046  -0.002277   0.442216  -0.008421
    28  H   -0.000283  -0.000054  -0.014928   0.003534   0.446339   0.027461
    29  H   -0.015918  -0.006038   0.008274  -0.064231   0.040038   0.435584
    30  H   -0.003601  -0.015898   0.005007  -0.056064  -0.006992  -0.043514
    31  H    0.001464  -0.016557  -0.063284  -0.055252   0.010874   0.104435
              13         14         15         16         17         18
     1  C   -0.963661   0.415158   0.505653   0.002717  -0.004814   0.001363
     2  C   -0.089469  -0.000551  -0.001496   0.364651   0.434267   0.014347
     3  C    0.047610  -0.001020   0.000877   0.019356  -0.002878   0.521982
     4  O    0.007831   0.000032  -0.000018  -0.040373  -0.066215   0.001895
     5  O   -0.055491  -0.000813   0.001301   0.001516  -0.003061   0.000117
     6  C    0.159477   0.013122  -0.019762   0.000234  -0.001075   0.000350
     7  O   -0.057544  -0.001801   0.001920   0.008241   0.004643   0.000942
     8  C   -0.099951  -0.013278  -0.059316   0.000095   0.000947   0.000041
     9  C    0.125974   0.003950   0.004008  -0.006194   0.036596  -0.014459
    10  C   -0.368643  -0.000007  -0.016531   0.014230  -0.012381   0.000752
    11  C   -0.002135  -0.000135   0.000051  -0.013372   0.008805  -0.099355
    12  C    0.071111  -0.004431  -0.005898  -0.013912  -0.059272  -0.048854
    13  C    6.623243  -0.034458  -0.037239   0.006346   0.000201   0.004596
    14  H   -0.034458   0.489662  -0.009422   0.000011  -0.000060   0.000023
    15  H   -0.037239  -0.009422   0.458146  -0.000071   0.000095  -0.000029
    16  H    0.006346   0.000011  -0.000071   0.477082  -0.016505   0.004142
    17  H    0.000201  -0.000060   0.000095  -0.016505   0.472126  -0.002225
    18  H    0.004596   0.000023  -0.000029   0.004142  -0.002225   0.473499
    19  H    0.001053   0.000029   0.000029  -0.002273   0.002233  -0.010580
    20  H    0.015725  -0.000801   0.001124   0.000047   0.000007  -0.000032
    21  H    0.012696   0.000975  -0.002587  -0.000043   0.000080   0.000028
    22  H   -0.018610  -0.004897   0.005110  -0.000112   0.000050  -0.000105
    23  H    0.001925  -0.006390  -0.005890  -0.000011   0.000030  -0.000006
    24  H   -0.001785   0.000059   0.000081   0.001412  -0.002940   0.001228
    25  H    0.003873   0.000115   0.000149  -0.003140  -0.000088   0.004013
    26  H   -0.011536   0.001912  -0.010937  -0.000725  -0.000470   0.000268
    27  H    0.000709  -0.000001   0.000005  -0.002685   0.002158  -0.005800
    28  H   -0.000171  -0.000001  -0.000010   0.009692  -0.002422   0.004483
    29  H    0.035580   0.001802   0.002183  -0.018073   0.005211  -0.022426
    30  H    0.430306  -0.006045  -0.000818   0.002275  -0.003419   0.004141
    31  H    0.440766  -0.014563  -0.005417  -0.000899   0.000754  -0.003857
              19         20         21         22         23         24
     1  C   -0.000804  -0.001140  -0.006530   0.000045  -0.051734   0.001036
     2  C   -0.004151  -0.001113   0.000554  -0.000979   0.000061  -0.007155
     3  C    0.417325   0.000107  -0.000422   0.000301  -0.000051  -0.075799
     4  O    0.007920  -0.000003   0.000001  -0.000004  -0.000002   0.000851
     5  O   -0.000085  -0.035810  -0.065559  -0.007415   0.006985  -0.000576
     6  C   -0.000173   0.479974   0.437527  -0.090474  -0.033114   0.001236
     7  O   -0.001939   0.003548  -0.003323   0.002637   0.000190   0.003206
     8  C    0.000119  -0.062423  -0.037634   0.485755   0.452281  -0.000608
     9  C   -0.012246   0.000514  -0.000177   0.000229  -0.001117   0.516220
    10  C   -0.004935  -0.025856   0.005454   0.006830  -0.005527  -0.003306
    11  C   -0.030417   0.000096  -0.000050   0.000151   0.000008  -0.009727
    12  C   -0.010587  -0.003673   0.002566  -0.001654   0.002133  -0.057440
    13  C    0.001053   0.015725   0.012696  -0.018610   0.001925  -0.001785
    14  H    0.000029  -0.000801   0.000975  -0.004897  -0.006390   0.000059
    15  H    0.000029   0.001124  -0.002587   0.005110  -0.005890   0.000081
    16  H   -0.002273   0.000047  -0.000043  -0.000112  -0.000011   0.001412
    17  H    0.002233   0.000007   0.000080   0.000050   0.000030  -0.002940
    18  H   -0.010580  -0.000032   0.000028  -0.000105  -0.000006   0.001228
    19  H    0.489143   0.000003  -0.000009   0.000014  -0.000002  -0.005033
    20  H    0.000003   0.473440  -0.003963   0.002724   0.003473   0.000105
    21  H   -0.000009  -0.003963   0.467505  -0.003169  -0.011210  -0.000039
    22  H    0.000014   0.002724  -0.003169   0.471992  -0.009190   0.000056
    23  H   -0.000002   0.003473  -0.011210  -0.009190   0.476717   0.000029
    24  H   -0.005033   0.000105  -0.000039   0.000056   0.000029   0.426021
    25  H   -0.010696  -0.000053   0.000113  -0.000191  -0.000203  -0.002156
    26  H    0.000190  -0.003716  -0.000680  -0.000762  -0.001297   0.001611
    27  H   -0.009050   0.000011  -0.000011   0.000019   0.000001  -0.001044
    28  H    0.003192  -0.000021   0.000020  -0.000025  -0.000002  -0.004672
    29  H    0.001559   0.001248  -0.001391   0.004271  -0.000318   0.003904
    30  H   -0.000370  -0.001582   0.000479  -0.006187  -0.002565   0.000198
    31  H   -0.000648   0.000322   0.000912  -0.000823   0.003130  -0.000090
              25         26         27         28         29         30
     1  C   -0.001050  -0.039741   0.000357  -0.000284  -0.034188   0.034719
     2  C   -0.003001   0.015731   0.020488  -0.037023  -0.055436   0.014312
     3  C    0.014119  -0.007405  -0.053489  -0.025223  -0.053543   0.006676
     4  O   -0.005918   0.000024  -0.066819  -0.045474  -0.034946   0.001693
     5  O    0.001858  -0.053145   0.000031   0.000033   0.000333  -0.011110
     6  C   -0.000387   0.012996  -0.000100   0.000185  -0.009084   0.022923
     7  O   -0.007951  -0.073816   0.000986  -0.000283  -0.015918  -0.003601
     8  C    0.002572  -0.009250   0.000047  -0.000054  -0.006038  -0.015898
     9  C    0.470827  -0.003777   0.010046  -0.014928   0.008274   0.005007
    10  C    0.025446   0.446897  -0.002277   0.003534  -0.064231  -0.056064
    11  C   -0.024288  -0.001734   0.442216   0.446339   0.040038  -0.006992
    12  C   -0.109975   0.017584  -0.008421   0.027461   0.435584  -0.043514
    13  C    0.003873  -0.011536   0.000709  -0.000171   0.035580   0.430306
    14  H    0.000115   0.001912  -0.000001  -0.000001   0.001802  -0.006045
    15  H    0.000149  -0.010937   0.000005  -0.000010   0.002183  -0.000818
    16  H   -0.003140  -0.000725  -0.002685   0.009692  -0.018073   0.002275
    17  H   -0.000088  -0.000470   0.002158  -0.002422   0.005211  -0.003419
    18  H    0.004013   0.000268  -0.005800   0.004483  -0.022426   0.004141
    19  H   -0.010696   0.000190  -0.009050   0.003192   0.001559  -0.000370
    20  H   -0.000053  -0.003716   0.000011  -0.000021   0.001248  -0.001582
    21  H    0.000113  -0.000680  -0.000011   0.000020  -0.001391   0.000479
    22  H   -0.000191  -0.000762   0.000019  -0.000025   0.004271  -0.006187
    23  H   -0.000203  -0.001297   0.000001  -0.000002  -0.000318  -0.002565
    24  H   -0.002156   0.001611  -0.001044  -0.004672   0.003904   0.000198
    25  H    0.475631  -0.003176   0.000470   0.000693  -0.005198   0.003275
    26  H   -0.003176   0.461426  -0.000136  -0.000023  -0.002003  -0.004728
    27  H    0.000470  -0.000136   0.461559  -0.007862   0.004022  -0.000700
    28  H    0.000693  -0.000023  -0.007862   0.487754  -0.008162   0.000803
    29  H   -0.005198  -0.002003   0.004022  -0.008162   0.515162  -0.027480
    30  H    0.003275  -0.004728  -0.000700   0.000803  -0.027480   0.460004
    31  H   -0.012841   0.001896   0.000371  -0.000247  -0.001170  -0.026522
              31
     1  C   -0.039662
     2  C   -0.003104
     3  C   -0.014245
     4  O    0.000928
     5  O    0.004523
     6  C    0.002897
     7  O    0.001464
     8  C   -0.016557
     9  C   -0.063284
    10  C   -0.055252
    11  C    0.010874
    12  C    0.104435
    13  C    0.440766
    14  H   -0.014563
    15  H   -0.005417
    16  H   -0.000899
    17  H    0.000754
    18  H   -0.003857
    19  H   -0.000648
    20  H    0.000322
    21  H    0.000912
    22  H   -0.000823
    23  H    0.003130
    24  H   -0.000090
    25  H   -0.012841
    26  H    0.001896
    27  H    0.000371
    28  H   -0.000247
    29  H   -0.001170
    30  H   -0.026522
    31  H    0.517219
 Mulliken charges:
               1
     1  C   -0.541675
     2  C   -0.259405
     3  C   -0.394128
     4  O   -0.360442
     5  O   -0.390890
     6  C   -0.171707
     7  O   -0.417520
     8  C   -0.299015
     9  C   -0.238124
    10  C    0.024389
    11  C   -0.225986
    12  C   -0.070354
    13  C   -0.248327
    14  H    0.171825
    15  H    0.194708
    16  H    0.206340
    17  H    0.209622
    18  H    0.169517
    19  H    0.181193
    20  H    0.157720
    21  H    0.207885
    22  H    0.164412
    23  H    0.181664
    24  H    0.215114
    25  H    0.187158
    26  H    0.268523
    27  H    0.214898
    28  H    0.162697
    29  H    0.300433
    30  H    0.230784
    31  H    0.168691
 Sum of Mulliken charges =  -0.00000
 Mulliken charges with hydrogens summed into heavy atoms:
               1
     1  C   -0.175141
     2  C    0.156557
     3  C   -0.043418
     4  O   -0.360442
     5  O   -0.390890
     6  C    0.193898
     7  O   -0.417520
     8  C    0.047060
     9  C    0.164148
    10  C    0.292912
    11  C    0.151609
    12  C    0.230079
    13  C    0.151148
 Electronic spatial extent (au):  <R**2>=           3338.6470
 Charge=              0.0000 electrons
 Dipole moment (field-independent basis, Debye):
    X=             -1.6918    Y=              4.6442    Z=              0.8083  Tot=              5.0084
 Quadrupole moment (field-independent basis, Debye-Ang):
   XX=            -67.6960   YY=            -82.4301   ZZ=            -81.8621
   XY=              2.2099   XZ=              5.4861   YZ=             -0.3284
 Traceless Quadrupole moment (field-independent basis, Debye-Ang):
   XX=              9.6334   YY=             -5.1007   ZZ=             -4.5327
   XY=              2.2099   XZ=              5.4861   YZ=             -0.3284
 Octapole moment (field-independent basis, Debye-Ang**2):
  XXX=            -26.9248  YYY=             -0.3730  ZZZ=              2.5433  XYY=              1.1110
  XXY=             16.9620  XXZ=             22.9317  XZZ=             -8.4265  YZZ=              2.0658
  YYZ=             -0.8092  XYZ=             -6.8152
 Hexadecapole moment (field-independent basis, Debye-Ang**3):
 XXXX=          -3299.2694 YYYY=           -579.2154 ZZZZ=           -280.8228 XXXY=             98.6371
 XXXZ=             40.7189 YYYX=              1.6913 YYYZ=              4.0884 ZZZX=              0.4211
 ZZZY=             -2.2952 XXYY=           -697.2837 XXZZ=           -656.6314 YYZZ=           -144.0434
 XXYZ=            -26.2346 YYXZ=             10.0062 ZZXY=              6.5903
 N-N= 8.795468417734D+02 E-N=-3.201044700567D+03  KE= 6.153551686306D+02
 D1PCM: PCM CHGder 1st derivatives, ID1Alg=3 FixD1E=F DoIter=F DoCFld=F I1PDM=0.
 Calling FoFJK, ICntrl=      2127 FMM=F ISym2X=0 I1Cent= 0 IOpClX= 0 NMat=1 NMatS=1 NMatT=0.
 ***** Axes restored to original set *****
 -------------------------------------------------------------------
 Center     Atomic                   Forces (Hartrees/Bohr)
 Number     Number              X              Y              Z
 -------------------------------------------------------------------
      1        6           0.001153806   -0.003861784   -0.000594867
      2        6          -0.001487947    0.005479202    0.001657092
      3        6          -0.000633304   -0.002620429    0.001629869
      4        8           0.003135997   -0.003676508   -0.011116065
      5        8           0.003570527   -0.012277326   -0.004114563
      6        6          -0.000676748    0.006088822   -0.002973038
      7        8           0.003187404   -0.008834430    0.006240166
      8        6           0.001703526    0.000939758    0.002745721
      9        6           0.002063351   -0.001585827   -0.004031470
     10        6          -0.001140758    0.010475021   -0.006715368
     11        6          -0.004684317    0.004849453    0.002817618
     12        6           0.001705552    0.001822921    0.002927033
     13        6          -0.002058017   -0.000891224    0.003128456
     14        1          -0.000418832    0.001850518   -0.001964379
     15        1          -0.000492240    0.000529137    0.003354301
     16        1           0.000470904   -0.001696258    0.006009395
     17        1          -0.002908490   -0.002856811   -0.002795564
     18        1          -0.000819679    0.000924030   -0.003099685
     19        1           0.001567145    0.001683603    0.001751331
     20        1          -0.001648171    0.002198126    0.004994865
     21        1          -0.002177907   -0.003815704   -0.001292912
     22        1           0.001163451   -0.001233743   -0.002892341
     23        1          -0.002658147    0.000657248    0.000477047
     24        1           0.000726139   -0.002483040    0.002916773
     25        1          -0.002705909    0.002693248   -0.000078779
     26        1          -0.003415635    0.002951935    0.006746049
     27        1           0.003531290    0.001098285   -0.002582547
     28        1           0.001046229   -0.001861328    0.005335526
     29        1          -0.001309061    0.002937668   -0.006309718
     30        1           0.001275605   -0.002383789   -0.003611553
     31        1           0.002934234    0.002899230    0.001441606
 -------------------------------------------------------------------
 Cartesian Forces:  Max     0.012277326 RMS     0.003665144

 GradGradGradGradGradGradGradGradGradGradGradGradGradGradGradGradGradGrad
 Berny optimization.
 FormGI is forming the generalized inverse of G from B-inverse, IUseBI=4.
 Internal  Forces:  Max     0.015352217 RMS     0.002320470
 Search for a local minimum.
 Step number   1 out of a maximum of  186
 All quantities printed in internal units (Hartrees-Bohrs-Radians)
 Mixed Optimization -- RFO/linear search
 Second derivative matrix not updated -- first step.
 ITU=  0
     Eigenvalues ---    0.00610   0.00640   0.00739   0.00748   0.01450
     Eigenvalues ---    0.01469   0.01487   0.02706   0.02782   0.03104
     Eigenvalues ---    0.03163   0.04228   0.04369   0.04488   0.04768
     Eigenvalues ---    0.04793   0.04982   0.05001   0.05150   0.05157
     Eigenvalues ---    0.05183   0.05562   0.05747   0.05914   0.06155
     Eigenvalues ---    0.06221   0.06401   0.06808   0.07571   0.07691
     Eigenvalues ---    0.07873   0.07943   0.07960   0.07987   0.08130
     Eigenvalues ---    0.08681   0.09338   0.09641   0.10855   0.11459
     Eigenvalues ---    0.11603   0.11704   0.11710   0.12331   0.12490
     Eigenvalues ---    0.14407   0.14534   0.16515   0.16603   0.17560
     Eigenvalues ---    0.19379   0.21561   0.21765   0.25000   0.28439
     Eigenvalues ---    0.28569   0.28585   0.28708   0.28886   0.29194
     Eigenvalues ---    0.30201   0.30318   0.35054   0.35065   0.35079
     Eigenvalues ---    0.35099   0.35106   0.35132   0.35135   0.35252
     Eigenvalues ---    0.35291   0.35346   0.35385   0.35401   0.35417
     Eigenvalues ---    0.35506   0.35829   0.35844   0.35884   0.35970
     Eigenvalues ---    0.41196   0.41446   0.42381   0.42481   0.42936
     Eigenvalues ---    0.460511000.000001000.000001000.000001000.00000
     Eigenvalues --- 1000.000001000.000001000.000001000.000001000.00000
     Eigenvalues --- 1000.000001000.000001000.000001000.000001000.00000
     Eigenvalues --- 1000.000001000.000001000.000001000.000001000.00000
     Eigenvalues --- 1000.000001000.000001000.000001000.000001000.00000
     Eigenvalues --- 1000.000001000.000001000.000001000.000001000.00000
     Eigenvalues --- 1000.000001000.000001000.000001000.000001000.00000
     Eigenvalues --- 1000.000001000.000001000.000001000.000001000.00000
     Eigenvalues --- 1000.000001000.000001000.000001000.000001000.00000
     Eigenvalues --- 1000.000001000.000001000.000001000.000001000.00000
     Eigenvalues --- 1000.000001000.000001000.000001000.000001000.00000
     Eigenvalues --- 1000.000001000.000001000.000001000.000001000.00000
     Eigenvalues --- 1000.000001000.000001000.000001000.000001000.00000
     Eigenvalues --- 1000.000001000.000001000.000001000.000001000.00000
     Eigenvalues --- 1000.000001000.000001000.000001000.000001000.00000
     Eigenvalues --- 1000.000001000.000001000.000001000.000001000.00000
     Eigenvalues --- 1000.000001000.000001000.000001000.000001000.00000
     Eigenvalues --- 1000.000001000.000001000.000001000.000001000.00000
     Eigenvalues --- 1000.000001000.000001000.000001000.000001000.00000
     Eigenvalues --- 1000.000001000.000001000.000001000.000001000.00000
 RFO step:  Lambda=-3.61555691D-03 EMin= 6.10370917D-03
 Linear search not attempted -- first point.
 Iteration  1 RMS(Cart)=  0.07272159 RMS(Int)=  0.00103703
 Iteration  2 RMS(Cart)=  0.00266631 RMS(Int)=  0.00002658
 Iteration  3 RMS(Cart)=  0.00000128 RMS(Int)=  0.00002657
 Iteration  4 RMS(Cart)=  0.00000000 RMS(Int)=  0.00002657
 Iteration  1 RMS(Cart)=  0.00000006 RMS(Int)=  0.00000001
 Variable       Old X    -DE/DX   Delta X   Delta X   Delta X     New X
                                 (Linear)    (Quad)   (Total)
    R1        2.88910  -0.00080   0.00000  -0.00344  -0.00347   2.88562
    R2        2.89733  -0.00095   0.00000  -0.00425  -0.00429   2.89304
    R3        2.05055   0.00273   0.00000   0.00763   0.00763   2.05817
    R4        2.05587   0.00331   0.00000   0.00935   0.00935   2.06523
    R5        2.66557   0.00614   0.00000   0.01444   0.01446   2.68003
    R6        2.87957  -0.00064   0.00000  -0.00191  -0.00190   2.87767
    R7        2.05503   0.00604   0.00000   0.01702   0.01702   2.07205
    R8        2.04326   0.00489   0.00000   0.01350   0.01350   2.05676
    R9        2.89304  -0.00096   0.00000  -0.00409  -0.00412   2.88893
   R10        2.87249  -0.00072   0.00000  -0.00246  -0.00246   2.87003
   R11        2.05457   0.00325   0.00000   0.00915   0.00915   2.06372
   R12        2.05205   0.00289   0.00000   0.00810   0.00810   2.06015
   R13        2.67704   0.00626   0.00000   0.01486   0.01489   2.69193
   R14        2.68092   0.00553   0.00000   0.01359   0.01362   2.69454
   R15        2.66267   0.00785   0.00000   0.01813   0.01816   2.68083
   R16        2.87242  -0.00037   0.00000  -0.00136  -0.00136   2.87106
   R17        2.05514   0.00561   0.00000   0.01582   0.01582   2.07096
   R18        2.04263   0.00457   0.00000   0.01262   0.01262   2.05524
   R19        2.64074   0.00427   0.00000   0.00920   0.00920   2.64995
   R20        2.67749   0.00396   0.00000   0.00914   0.00914   2.68662
   R21        2.05462   0.00326   0.00000   0.00919   0.00919   2.06381
   R22        2.05267   0.00277   0.00000   0.00778   0.00778   2.06046
   R23        2.88087  -0.00202   0.00000  -0.00722  -0.00725   2.87362
   R24        2.05570   0.00371   0.00000   0.01048   0.01048   2.06618
   R25        2.05029   0.00371   0.00000   0.01038   0.01038   2.06067
   R26        2.87425  -0.00243   0.00000  -0.00764  -0.00764   2.86661
   R27        2.05116   0.00799   0.00000   0.02238   0.02238   2.07355
   R28        2.04350   0.00450   0.00000   0.01244   0.01244   2.05593
   R29        2.05547   0.00565   0.00000   0.01595   0.01595   2.07142
   R30        2.04128   0.00704   0.00000   0.01937   0.01937   2.06066
   R31        2.05003   0.00434   0.00000   0.01213   0.01213   2.06216
   R32        2.04861   0.00429   0.00000   0.01197   0.01197   2.06058
    A1        1.92705   0.00210   0.00000  -0.00255  -0.00264   1.92441
    A2        1.93075  -0.00045   0.00000   0.00100   0.00104   1.93178
    A3        1.91230  -0.00086   0.00000  -0.00143  -0.00143   1.91086
    A4        1.91383  -0.00053   0.00000   0.00087   0.00090   1.91473
    A5        1.91130  -0.00095   0.00000  -0.00295  -0.00294   1.90836
    A6        1.86765   0.00062   0.00000   0.00524   0.00523   1.87288
    A7        1.93082   0.00110   0.00000   0.00573   0.00578   1.93659
    A8        1.91671   0.00106   0.00000   0.00730   0.00732   1.92403
    A9        1.86762  -0.00038   0.00000   0.00319   0.00319   1.87081
   A10        1.91996  -0.00199   0.00000  -0.01398  -0.01402   1.90594
   A11        1.93010  -0.00052   0.00000  -0.00539  -0.00543   1.92468
   A12        1.89771   0.00080   0.00000   0.00374   0.00365   1.90136
   A13        1.92730  -0.00043   0.00000  -0.00623  -0.00628   1.92102
   A14        1.92055   0.00064   0.00000   0.00201   0.00202   1.92257
   A15        1.92799  -0.00044   0.00000  -0.00021  -0.00020   1.92779
   A16        1.90397  -0.00028   0.00000  -0.00134  -0.00135   1.90262
   A17        1.90878   0.00035   0.00000   0.00119   0.00121   1.90999
   A18        1.87432   0.00016   0.00000   0.00488   0.00487   1.87920
   A19        1.97941  -0.00480   0.00000  -0.02584  -0.02577   1.95364
   A20        1.98016  -0.00531   0.00000  -0.02950  -0.02940   1.95076
   A21        1.93490   0.00066   0.00000   0.00453   0.00456   1.93947
   A22        1.90178   0.00086   0.00000   0.00410   0.00411   1.90590
   A23        1.85171  -0.00067   0.00000  -0.00062  -0.00063   1.85108
   A24        1.93119  -0.00115   0.00000  -0.00808  -0.00811   1.92308
   A25        1.95127  -0.00015   0.00000  -0.00218  -0.00218   1.94909
   A26        1.89043   0.00050   0.00000   0.00274   0.00272   1.89315
   A27        2.16243  -0.01535   0.00000  -0.06053  -0.06053   2.10189
   A28        1.92175   0.00009   0.00000  -0.00287  -0.00295   1.91881
   A29        1.91679   0.00056   0.00000   0.00169   0.00171   1.91850
   A30        1.93635  -0.00067   0.00000  -0.00164  -0.00163   1.93472
   A31        1.90452  -0.00038   0.00000  -0.00159  -0.00157   1.90295
   A32        1.90702   0.00013   0.00000  -0.00026  -0.00024   1.90679
   A33        1.87663   0.00027   0.00000   0.00482   0.00481   1.88143
   A34        1.91847   0.00189   0.00000  -0.00210  -0.00218   1.91629
   A35        1.91474  -0.00041   0.00000   0.00217   0.00217   1.91691
   A36        1.93369  -0.00014   0.00000   0.00452   0.00452   1.93821
   A37        1.89183  -0.00114   0.00000  -0.00601  -0.00600   1.88583
   A38        1.92797  -0.00097   0.00000  -0.00594  -0.00590   1.92207
   A39        1.87619   0.00071   0.00000   0.00737   0.00733   1.88352
   A40        1.83554   0.00036   0.00000   0.00147   0.00148   1.83703
   A41        1.91455   0.00189   0.00000   0.00982   0.00980   1.92435
   A42        1.88166   0.00015   0.00000   0.00254   0.00251   1.88417
   A43        2.05349  -0.00410   0.00000  -0.02425  -0.02426   2.02923
   A44        1.86119   0.00230   0.00000   0.01471   0.01465   1.87584
   A45        1.90966  -0.00031   0.00000  -0.00235  -0.00234   1.90732
   A46        1.93520   0.00138   0.00000   0.00677   0.00676   1.94196
   A47        1.94601  -0.00038   0.00000  -0.00351  -0.00352   1.94249
   A48        1.93098  -0.00127   0.00000  -0.00781  -0.00782   1.92316
   A49        1.85530  -0.00094   0.00000  -0.00268  -0.00267   1.85263
   A50        1.90179   0.00062   0.00000   0.00441   0.00443   1.90622
   A51        1.89227   0.00063   0.00000   0.00321   0.00318   1.89545
   A52        1.85258   0.00049   0.00000   0.00356   0.00357   1.85615
   A53        1.92207   0.00020   0.00000  -0.00101  -0.00106   1.92101
   A54        1.88771  -0.00011   0.00000   0.00126   0.00126   1.88898
   A55        1.94532  -0.00098   0.00000  -0.00385  -0.00384   1.94148
   A56        1.93188   0.00031   0.00000   0.00440   0.00437   1.93625
   A57        1.92231   0.00012   0.00000  -0.00394  -0.00392   1.91838
   A58        1.89880  -0.00087   0.00000  -0.00637  -0.00641   1.89239
   A59        1.90730   0.00126   0.00000   0.00569   0.00565   1.91295
   A60        1.92801   0.00011   0.00000   0.00717   0.00715   1.93516
   A61        1.91574  -0.00065   0.00000  -0.00776  -0.00775   1.90799
   A62        1.92352   0.00009   0.00000  -0.00341  -0.00336   1.92015
   A63        1.89044   0.00008   0.00000   0.00472   0.00465   1.89509
    D1        0.90566  -0.00023   0.00000   0.01003   0.01002   0.91568
    D2       -1.19195  -0.00017   0.00000   0.01273   0.01273  -1.17922
    D3        3.01902  -0.00044   0.00000   0.00671   0.00670   3.02572
    D4        3.02741   0.00021   0.00000   0.01008   0.01008   3.03749
    D5        0.92980   0.00027   0.00000   0.01278   0.01278   0.94259
    D6       -1.14242  -0.00000   0.00000   0.00677   0.00675  -1.13566
    D7       -1.20082   0.00016   0.00000   0.01623   0.01624  -1.18459
[...]
 44,-0.01567467,-0.00362537,-0.00027278,-0.00017734,-0.00010937,-0.0000
 0094,-0.00000373,-0.00000069,0.00001026,-0.00000663,-0.00001005,0.0002
 3614,-0.00026578,0.00010880,0.00064326,-0.00086623,-0.00002398,-0.0006
 8859,-0.00035368,0.00050689,-0.00056810,0.00033935,0.00039857,0.000001
 21,0.00000058,-0.00000220,-0.00000301,0.00000218,-0.00000452,-0.000000
 06,-0.00000037,0.00000008,0.00001080,0.00001310,0.00000196,-0.01691013
 ,0.02269221,0.00433975,-0.01820028,0.02764274,0.05314197,0.00035864,0.
 00003884,-0.00104696,-0.00042819,-0.00158146,0.00062824,0.00000956,-0.
 00009292,-0.00022869,-0.00137576,0.00037372,0.00034716,-0.00078420,-0.
 01441089,-0.02010248,0.00336397,-0.00251307,-0.00272452,-0.03376160,0.
 01258963,0.02717895,-0.00026393,0.00023070,0.00013558,0.00000234,-0.00
 011784,0.00018329,-0.06424419,0.01635326,0.06587133,0.00022372,0.00015
 768,0.00021509,0.00137679,0.00673619,0.00007531,0.00301479,0.00122265,
 -0.00143513,0.00006587,-0.00012284,-0.00009616,0.00025316,0.00013042,-
 0.00014119,-0.00003571,0.00006815,-0.00008257,0.00005006,-0.00003401,0
 .00003502,-0.00000691,-0.00000543,0.00002312,-0.00010843,-0.00005311,0
 .00003846,-0.00003623,0.00007287,0.00064233,0.00011284,0.00000095,0.00
 004439,-0.00005385,-0.00001861,0.00013352,-0.00000972,0.00010900,-0.00
 002679,-0.00002331,-0.00001351,-0.00007656,0.00001353,-0.00013371,-0.0
 0008623,0.09202301,-0.00117390,0.00081195,0.00024727,0.00015186,0.0005
 1626,-0.00031479,-0.00001325,0.00002942,0.00006420,0.00041499,-0.00013
 040,-0.00008906,-0.00776134,-0.02163368,-0.03585740,0.00426005,-0.0004
 9911,-0.00109634,0.01348359,0.00149521,-0.00926382,-0.00048489,-0.0000
 6519,0.00021624,0.00002982,-0.00001999,-0.00010853,0.01642887,-0.06427
 766,-0.04472578,-0.00006875,-0.00006313,-0.00006645,-0.00058371,-0.002
 27163,-0.00017862,-0.00543115,0.00649160,0.02502471,-0.00005224,-0.000
 05096,-0.00022380,0.00013105,-0.00014750,-0.00038211,-0.00000329,0.000
 00045,0.00002925,-0.00000900,-0.00000171,-0.00000879,0.00000348,0.0000
 0394,-0.00000625,0.00002523,0.00000945,-0.00000916,-0.00058315,0.00042
 225,0.00083036,-0.00026211,0.00008822,0.00044313,0.00004563,-0.0000328
 7,-0.00005178,-0.00001279,0.00025484,-0.00008739,-0.00001147,0.0000018
 4,0.00000634,-0.00001048,0.00001255,0.00003088,-0.01964463,0.08176013,
 0.00070518,-0.00087499,0.00033497,-0.00008338,0.00005745,0.00011091,0.
 00003899,0.00008286,0.00004750,0.00001299,0.00002538,-0.00000922,-0.00
 481800,-0.01376780,-0.01013343,0.00144051,-0.00003363,0.00040564,0.001
 57348,0.00089892,0.00906767,-0.00030780,-0.00001582,0.00006078,0.00020
 423,-0.00011007,-0.00028206,0.06738242,-0.05003709,-0.26425691,-0.0000
 3731,-0.00001995,-0.00002358,-0.00097627,-0.00021309,0.00106986,0.0067
 3147,-0.00316130,-0.02030661,-0.00008002,0.00016599,0.00036111,-0.0006
 4134,0.00017741,0.00039008,0.00002287,-0.00002424,-0.00000897,-0.00000
 307,-0.00002289,0.00000123,0.00000497,0.00000153,-0.00000359,0.0000302
 3,0.00001016,-0.00000989,-0.00103921,0.00017607,0.00002187,-0.00039247
 ,0.00011356,0.00036476,0.00014599,-0.00000985,-0.00010247,-0.00009248,
 -0.00002172,-0.00006327,0.00000073,-0.00003260,-0.00001912,-0.00004457
 ,-0.00004060,-0.00003640,-0.06929265,0.06323872,0.28418103,0.00001252,
 -0.00000705,-0.00001269,0.00105673,-0.00091456,-0.00378541,-0.01274772
 ,-0.00269318,0.01012740,-0.01979609,-0.01088120,0.00715399,-0.00010841
 ,-0.00003096,-0.00001467,0.00002880,-0.00001612,-0.00001111,-0.0005541
 4,0.00006047,0.00016466,-0.00001161,0.00000812,0.00000703,-0.00042908,
 0.00338149,-0.00003325,0.00029517,-0.00002454,0.00009923,-0.22334130,-
 0.04211809,0.11895567,0.00084092,-0.00009216,0.00000943,-0.00005238,0.
 00002819,-0.00000142,-0.00001065,0.00000598,-0.00000236,-0.00000458,0.
 00000193,0.00000217,0.00000967,-0.00006490,0.00029359,-0.00085393,-0.0
 0027132,0.00051102,0.00057902,-0.00068839,-0.00047047,0.00030383,0.000
 24228,0.00010006,-0.00000314,0.00000194,0.00000173,-0.00000948,-0.0000
 0093,-0.00000064,0.00000059,-0.00000080,-0.00000187,-0.00000582,-0.000
 00138,-0.00000289,0.00004971,-0.00010878,0.00012493,-0.00085323,-0.000
 37591,0.00048156,-0.00006341,0.00001547,0.00000155,0.24656663,0.000002
 06,0.00002035,0.00000715,-0.00077236,-0.00197718,-0.00411207,0.0235090
 4,0.00767070,-0.01595156,-0.02669315,-0.01139798,0.01172865,0.00003103
 ,0.00000725,0.00000257,0.00000097,0.00000069,0.00000274,-0.00005687,0.
 00047360,0.00008823,0.00000800,-0.00000572,-0.00000182,0.00252981,-0.0
 0516811,-0.00005970,-0.00007783,0.00001834,0.00007747,-0.03863287,-0.0
 5933527,0.02909786,-0.00037639,-0.00118812,-0.00027160,0.00000367,-0.0
 0004307,-0.00000096,-0.00000008,-0.00000079,-0.00000004,0.00000033,-0.
 00000047,-0.00000102,0.00017988,0.00003651,-0.00007503,-0.00138409,-0.
 00023494,0.00042920,-0.00085299,0.00122712,0.00050969,-0.00109769,0.00
 082785,0.00024087,0.00000050,-0.00000024,-0.00000056,0.00000114,0.0000
 0032,-0.00000082,-0.00000005,0.00000010,0.00000054,0.00000243,0.000002
 58,0.00000085,-0.00019497,0.00002982,-0.00006779,0.00171982,0.00043992
 ,-0.00071795,-0.00002380,0.00000660,-0.00000126,0.05258089,0.07008640,
 0.00000185,0.00000880,0.00000050,-0.00175251,-0.00187805,-0.00159586,0
 .00250853,0.00222907,-0.00234997,-0.02126881,-0.00843862,0.01144704,0.
 00000531,-0.00000164,-0.00000214,0.00000204,-0.00000143,0.00000050,-0.
 00009493,0.00026438,0.00010291,0.00000257,-0.00000262,-0.00000099,0.00
 035827,-0.00179449,0.00099436,-0.00002587,0.00002033,0.00006288,0.1293
 7099,0.03549409,-0.14085190,-0.00010980,-0.00061511,-0.00022919,-0.000
 01143,-0.00001441,-0.00000176,-0.00000112,-0.00000011,-0.00000014,0.00
 000050,-0.00000045,-0.00000040,-0.00006210,-0.00016041,0.00040695,-0.0
 0064757,-0.00033827,0.00046420,-0.00027796,-0.00049895,0.00072409,0.00
 000703,-0.00006353,0.00007290,0.00000044,0.00000006,-0.00000017,0.0000
 0009,0.00000007,-0.00000025,0.00000013,0.00000024,0.00000024,0.0000008
 5,0.00000111,0.,-0.00029877,-0.00014828,0.00026761,0.00065636,0.000228
 26,-0.00002096,-0.00002270,0.00000645,-0.00000469,-0.12968583,-0.02901
 573,0.14352331,0.00000378,0.00000288,-0.00000239,0.00145679,0.00194442
 ,-0.00350497,-0.00456839,0.00996496,-0.01509573,-0.01053837,-0.0028903
 3,-0.02219827,-0.00003604,-0.00000900,-0.00000343,0.00000853,-0.000006
 45,-0.00000435,-0.00032513,0.00004193,0.00012039,-0.00000108,0.0000012
 9,0.00000162,0.00079602,-0.00031942,-0.00123752,0.00008769,-0.00002072
 ,0.00005518,-0.07131125,0.02959792,-0.05073560,-0.00009145,-0.00012117
 ,0.00018032,-0.00000564,-0.00000375,-0.00000104,-0.00000274,0.00000112
 ,-0.00000041,-0.00000160,0.00000049,0.00000069,0.00028436,0.00000721,0
 .00061324,0.00005790,-0.00009834,0.00019131,-0.00105391,0.00294617,0.0
 0042034,0.00059950,-0.00026332,0.00026475,-0.00000146,0.00000074,0.000
 00059,-0.00000330,-0.00000022,-0.00000015,0.00000025,-0.00000017,-0.00
 000006,-0.00000141,0.00000023,-0.00000091,0.00002765,-0.00005460,0.000
 17654,0.00017065,-0.00005970,0.00017170,-0.00002869,0.00000816,0.00000
 182,0.00915896,-0.01044070,0.02135247,0.07527398,-0.00000066,0.0000023
 2,-0.00000032,0.00235117,0.00228259,-0.00339920,0.00806737,-0.01323051
 ,0.02486803,-0.01566243,0.00432271,-0.02811455,0.00001441,0.00000009,0
 .00000100,0.00000104,0.00000024,0.00000226,-0.00004784,0.00020009,0.00
 008250,0.00000033,-0.00000024,-0.00000050,-0.00122608,0.00098309,0.000
 47962,-0.00001581,0.00002123,0.00004832,0.03049160,-0.09845433,0.09907
 116,-0.00020656,-0.00045699,0.00012277,0.00000020,-0.00000505,-0.00000
 170,-0.00000091,0.00000037,-0.00000051,0.00000053,-0.00000040,-0.00000
 018,0.00098248,-0.00000922,0.00084817,0.00014302,-0.00002690,0.0000076
 2,0.00393460,-0.00397168,-0.00143197,-0.00065219,0.00094577,-0.0001646
 2,0.00000028,-0.00000013,-0.00000081,0.00000057,0.00000014,-0.00000042
 ,0.00000023,0.,-0.00000001,0.00000026,-0.00000010,0.00000020,0.0002433
 2,0.00040935,-0.00049751,-0.00022572,0.00001473,-0.00031574,-0.0000130
 5,0.00000566,-0.00000097,0.00201763,-0.00162759,0.00467866,-0.03017095
 ,0.10867686,0.00000786,0.00000262,-0.00000555,0.00290200,0.00114148,0.
 00056381,0.00283635,-0.00173540,0.00513764,-0.01493162,-0.00536109,-0.
 02316349,-0.00007114,-0.00001555,-0.00000420,0.00001961,-0.00001141,-0
 .00000807,-0.00051020,0.00010453,0.00008373,-0.00000523,0.00000345,0.0
 0000335,-0.00018908,-0.00047690,0.00079438,0.00017734,-0.00003438,0.00
 007349,-0.05467461,0.09594363,-0.23161271,0.00024324,-0.00044383,0.000
 01827,-0.00004066,0.00000264,-0.00000086,-0.00000660,0.00000325,-0.000
 00160,-0.00000334,0.00000098,0.00000168,-0.00094562,-0.00028303,0.0007
 1698,-0.00004042,-0.00031845,0.00040567,0.00115140,-0.00109095,0.00089
 935,-0.00048356,0.00082020,0.00028962,-0.00000243,0.00000134,0.0000015
 1,-0.00000686,-0.00000037,-0.00000090,0.00000060,-0.00000051,-0.000000
 49,-0.00000310,-0.00000015,-0.00000159,-0.00049508,-0.00007626,0.00000
 368,-0.00010822,0.00002676,0.00011729,-0.00004673,0.00001331,0.0000057
 5,-0.00399340,0.00803438,-0.01302845,0.06919608,-0.09633071,0.25883813
 ,-0.00001419,-0.00030703,0.00018103,-0.00697567,0.00826714,-0.01795683
 ,0.00069286,0.00048043,-0.00041574,0.00149728,-0.00044362,-0.00006404,
 -0.00004960,0.00001163,-0.00014639,-0.00000414,-0.00001214,0.00001226,
 -0.00052080,-0.01591828,0.03283947,-0.00005083,-0.00001135,0.00002901,
 -0.00348786,0.00511766,-0.01277398,0.00353783,-0.00097420,0.00088985,0
 .00000881,-0.00009060,0.00002585,-0.07862028,0.03212267,-0.08128118,-0
 .00345538,0.00144047,-0.00042283,0.00004478,-0.00001473,0.00000290,0.0
 0001707,-0.00001295,0.00005831,-0.00211466,0.00281162,0.00088924,0.000
 98087,-0.00065205,0.00053062,-0.00010947,-0.00013659,0.00014721,0.0000
 6342,-0.00004708,0.00005145,-0.00000449,-0.00000227,-0.00000603,-0.000
 00952,0.00000163,-0.00000119,-0.00000129,-0.00000025,-0.00000161,0.000
 00064,0.00000578,-0.00001308,-0.00090505,-0.00223651,-0.00145524,0.000
 43832,-0.00023365,0.00057128,-0.00029734,0.00036989,-0.00021085,-0.000
 06192,0.00003535,-0.00000884,0.00003934,-0.00001902,0.00001941,0.09327
 167,0.00013753,0.00011222,-0.00035850,0.01092460,-0.01231436,0.0236338
 5,0.00105454,0.00094121,-0.00010852,-0.00169269,0.00188718,-0.00086565
 ,-0.00029660,-0.00015799,-0.00005500,0.00013489,-0.00005749,-0.0000407
 2,-0.00250925,-0.00605177,0.01409850,-0.00001608,0.00003151,0.00001266
 ,-0.00890362,0.00840236,-0.02257839,0.00222746,-0.00008567,-0.00012147
 ,-0.00008703,-0.00028984,-0.00020499,0.02681800,-0.08058429,0.07881656
 ,0.00189055,-0.00026125,-0.00008038,-0.00008202,0.00002387,0.00000120,
 0.00004567,-0.00001985,-0.00000996,0.00313847,-0.00309853,-0.00049834,
 -0.00087493,0.00127243,0.00014304,0.00006889,-0.00012688,0.00036199,0.
 00020804,-0.00015440,0.00015295,-0.00000441,0.00000448,0.00000118,-0.0
 0003478,0.00000130,-0.00000393,-0.00000129,0.00000032,-0.00000494,-0.0
 0001108,0.00000479,-0.00000743,-0.00276446,-0.00293063,-0.00290102,0.0
 0090030,0.00097798,0.00069540,-0.00016409,0.00004156,0.00002139,-0.000
 03053,0.00008998,0.00001912,-0.00006328,-0.00007908,0.00008198,-0.0314
 8461,0.09274655,-0.00001899,-0.00023162,0.00067293,0.00199945,-0.00250
 661,0.00564736,0.00014300,0.00020610,0.00013639,-0.00125493,-0.0005111
 8,0.00082936,0.00072499,-0.00010321,0.00008159,-0.00010015,0.00012794,
 -0.00005835,0.00718084,0.00964602,-0.01793446,-0.00005007,0.00007268,0
 .00002291,-0.00743192,0.00507116,-0.01533867,-0.00372010,0.00191285,-0
 .00024788,-0.00000288,-0.00009718,0.00006331,-0.07410230,0.07873253,-0
 .25453307,-0.00152741,0.00003244,-0.00043576,0.00004810,0.00000240,-0.
 00002463,-0.00024028,0.00006623,0.00006244,0.00165349,-0.00107891,0.00
 049156,-0.00028058,0.00045980,0.00070829,-0.00028598,-0.00001128,0.000
 44192,-0.00006095,-0.00023424,0.00030891,0.00003373,-0.00000419,0.0000
 0548,0.00004419,-0.00001879,0.00001298,0.00000397,-0.00001099,-0.00000
 160,-0.00003449,-0.00006238,-0.00000694,-0.00144263,-0.00216267,-0.000
 81436,0.00055611,0.00034681,0.00072617,0.00032895,-0.00025613,0.000092
 31,-0.00002059,0.00005329,0.00001655,0.00003595,0.00005187,-0.00013039
 ,0.07891753,-0.09004750,0.27850433,-0.01042353,0.00964866,0.02986436,0
 .00007973,0.00000741,-0.00007526,0.00001012,0.00001106,-0.00000391,0.0
 0002569,-0.00001013,-0.00000914,0.00021319,-0.00010296,0.00100359,-0.0
 0041752,0.00008198,-0.00002810,0.00041184,-0.00035949,0.00063876,0.001
 69391,0.00031700,0.00075447,-0.00004732,-0.00012177,-0.00023220,-0.000
 13521,-0.00244226,-0.00505093,0.00000285,-0.00000247,0.00000452,-0.001
 15847,-0.00009496,-0.00002222,-0.06103025,0.01678388,0.06038740,0.0015
 3777,-0.00029170,-0.00046205,-0.00581784,0.00148232,0.00006596,-0.0000
 1558,0.00002622,-0.00000269,0.00000730,0.00001493,0.00000678,-0.000001
 36,0.00000102,0.00000849,0.00000273,0.00000139,-0.00000401,-0.00002462
 ,-0.00000930,-0.00007186,0.00003831,-0.00007642,0.00004584,-0.00002257
 ,-0.00031771,-0.00038984,0.00019900,0.00017410,-0.00030000,-0.00008082
 ,0.00001995,-0.00003503,-0.00008011,0.00006351,0.00004659,0.00058759,0
 .00101964,-0.00038808,-0.00000090,0.00000128,0.00000188,0.00000124,-0.
 00000154,-0.00000019,-0.00376941,0.00117350,-0.00131428,0.07369590,0.0
 0356461,-0.00408560,-0.00958562,-0.00008731,0.00012202,0.00011407,-0.0
 0003552,0.00003027,0.00000992,0.00007254,-0.00002960,-0.00000500,0.000
 97172,0.00255976,-0.00087068,0.00011188,-0.00003076,0.00008421,-0.0005
 9924,0.00079979,-0.00174833,-0.00091143,0.00028165,0.00053250,-0.00006
 165,-0.00016866,-0.00002829,-0.00817641,0.00666479,0.02659899,-0.00004
 191,-0.00001354,-0.00001539,0.00101233,0.00020361,-0.00087714,0.016296
 10,-0.07164068,-0.07247034,-0.00044717,0.00012803,-0.00007741,0.002338
 64,0.00043470,0.00034323,0.00002986,-0.00006320,0.00001301,-0.00000945
 ,-0.00002054,-0.00001790,-0.00000293,-0.00000304,0.00000422,0.00001672
 ,0.00000266,-0.00000080,0.00002651,-0.00004264,-0.00010445,-0.00001784
 ,0.00003019,-0.00004732,-0.00003138,0.00037866,0.00016656,-0.00000200,
 -0.00002705,0.00018622,-0.00002428,0.00005832,0.00004585,-0.00002438,0
 .00009775,0.00004507,0.00046660,-0.00353975,0.00307727,0.00000481,0.00
 000298,0.00000404,0.00000269,-0.00000101,0.00000471,0.00174411,-0.0000
 5187,0.00086017,-0.02323226,0.07387680,0.00005031,-0.00003289,0.000977
 16,-0.00011862,-0.00007010,0.00048291,-0.00003635,0.00000353,0.0000077
 4,0.00001998,0.00005081,-0.00000481,-0.00035948,-0.00103057,0.00295287
 ,-0.00019400,0.00003902,0.00022064,-0.00033487,-0.00000207,0.00094016,
 -0.00010825,0.00030761,0.00031511,-0.00002016,-0.00024212,0.00020202,0
 .00613884,-0.00738067,-0.02372688,-0.00004828,-0.00000854,-0.00002559,
 0.00091623,0.00014940,-0.00070457,0.06025917,-0.06952814,-0.27490713,0
 .00037472,-0.00012760,0.00053419,-0.00052947,-0.00000591,0.00106109,0.
 00013952,-0.00014453,-0.00002408,-0.00001381,-0.00001943,-0.00002206,-
 0.00000004,-0.00000640,-0.00000176,0.00001475,0.00000785,-0.00000144,-
 0.00011807,-0.00012106,-0.00014917,0.00003358,0.00000888,-0.00000991,0
 .00026426,0.00034816,-0.00005448,0.00007845,0.00009188,0.00016425,0.00
 007136,0.00010869,0.00009885,-0.00000379,0.00007725,-0.00000196,-0.000
 40804,0.00374051,-0.00160355,0.00000774,0.00000172,0.00000171,0.000001
 15,-0.00000312,0.00000698,-0.00013329,-0.00013628,0.00105635,-0.067428
 15,0.07556100,0.29845718,-0.01835346,-0.02461779,-0.00828936,-0.000126
 59,0.00003485,-0.00001655,0.00001451,0.00001406,-0.00000223,0.00006408
 ,-0.00000121,-0.00002282,0.00156500,0.00201547,-0.00083763,-0.00019283
 ,0.00059251,-0.00041816,0.00057265,-0.00063040,0.00010164,-0.00547149,
 0.00391538,0.00084626,-0.00047256,0.00022420,-0.00022117,0.00104960,0.
 00380153,0.00230274,-0.00002415,0.00002729,0.00000442,-0.00032840,0.00
 027346,0.00023155,-0.13489689,-0.12174103,-0.04250184,0.00155197,0.000
 11024,-0.00025029,0.00140560,-0.00008299,0.00040979,0.00001658,-0.0000
 0075,0.00002288,0.00001867,-0.00003117,-0.00000939,0.00003176,-0.00002
 431,0.00001968,0.00001955,0.00000833,-0.00000407,0.00007358,-0.0000233
 8,0.00011300,0.00013608,-0.00014292,0.00005396,0.00013950,0.00005720,-
 0.00014306,-0.00112675,-0.00167980,-0.00025304,0.00000378,-0.00000167,
 -0.00000117,-0.00299580,0.00017570,-0.00145726,0.00006560,-0.00028159,
 0.00011008,0.00000523,-0.00000234,-0.00000106,0.00000383,-0.00000631,0
 .00000421,-0.00014098,0.00029832,0.00021823,0.00451833,0.00704604,0.00
 148464,0.15287400,0.00664256,0.00991967,0.00330154,0.00007542,0.000089
 86,-0.00018552,-0.00001264,0.00020491,-0.00012394,-0.00001095,-0.00001
 419,0.00001381,-0.00235834,-0.00679666,0.00428903,0.00196834,-0.000364
 32,-0.00010947,0.00033470,0.00131921,-0.00009807,0.00252950,0.00007916
 ,-0.00011376,-0.00004970,-0.00021168,-0.00024295,-0.01457519,-0.015965
 56,-0.01127466,-0.00005965,-0.00007360,0.00007097,0.00038052,-0.000867
 47,-0.00004502,-0.12047575,-0.20868754,-0.05495068,-0.00079644,0.00054
 253,0.00004579,-0.00066249,0.00035508,-0.00001700,-0.00006473,0.000060
 75,0.00002877,-0.00001520,0.00003354,0.00001276,0.00001517,-0.00001872
 ,0.00003590,-0.00002971,-0.00001449,0.00000447,-0.00022990,0.00006534,
 0.00002643,-0.00027472,0.00007934,-0.00005529,-0.00001680,-0.00003129,
 0.00001749,0.00056507,0.00047691,0.00003469,-0.00016467,0.00012552,-0.
 00004071,-0.00017694,0.00073562,0.00006800,0.00039229,0.00078165,0.000
 34118,-0.00002841,0.00003837,0.00001745,0.00000193,-0.00000199,-0.0000
 0630,0.00018854,-0.00027381,-0.00030538,-0.00376489,-0.00595404,-0.001
 63687,0.13067308,0.22436791,0.00130768,0.00072038,-0.00085360,-0.00003
 679,-0.00004114,-0.00008340,-0.00001150,0.00002342,-0.00002190,-0.0000
 1625,0.00002167,-0.00000103,0.00097561,0.00619699,-0.00145776,-0.00118
 981,0.00007797,-0.00003075,0.00027426,-0.00122736,0.00033366,-0.000339
 57,0.00005040,0.00095386,-0.00033861,0.00005376,0.00007118,0.01364483,
 0.01319274,0.00750579,-0.00000228,0.00000181,0.00001398,-0.00029333,0.
 00000929,0.00058928,-0.04358280,-0.05719333,-0.07113428,-0.00005642,-0
 .00023493,-0.00010749,-0.00017581,0.00041204,0.00039087,-0.00001829,0.
 00003541,-0.00000196,0.00000425,-0.00000397,0.00000140,0.00000761,-0.0
 0000080,-0.00000946,-0.00001073,0.00000115,0.00000102,0.00009439,-0.00
 005628,-0.00003763,0.00015331,-0.00008211,0.00000991,0.00019976,0.0003
 8616,0.00017201,-0.00013138,-0.00025125,0.00028320,0.00002241,-0.00002
 143,-0.00002065,-0.00163373,0.00001303,-0.00052048,-0.00006333,-0.0011
 6518,0.00034830,-0.00000520,0.00000270,0.00000111,0.00000067,0.0000006
 4,-0.00000302,-0.00027429,-0.00001678,-0.00035503,-0.01701070,-0.02180
 237,-0.00624181,0.04850603,0.06089737,0.07020467\\-0.00001321,0.000021
 01,-0.00001603,-0.00004210,-0.00000674,0.00001897,-0.00002041,0.000011
 31,0.00000372,0.00000254,-0.00000219,-0.00003601,0.00006642,0.00000381
 ,-0.00017241,-0.00005350,0.00000762,0.00000356,0.00005665,0.00020391,0
 .00026199,-0.00000057,-0.00000404,0.00000014,0.00001896,0.00001717,0.0
 0001776,-0.00008911,-0.00007962,0.00010326,0.00003247,0.00002179,0.000
 02058,0.00000214,-0.00015033,-0.00022664,0.00002288,-0.00000866,0.0000
 1876,-0.00000633,-0.00000076,0.00000986,0.00000251,-0.00000939,-0.0000
 0912,0.00000182,0.00000339,-0.00001301,0.00001336,0.00000709,0.0000101
 8,0.00000146,-0.00000820,0.00001067,0.00000943,-0.00000006,-0.00000805
 ,0.00000536,-0.00000601,-0.00001190,0.00000920,0.00000729,0.00000482,0
 .00000371,0.00000293,0.00001147,-0.00000213,-0.00001411,-0.00000383,-0
 .00000037,0.00000602,-0.00001257,-0.00002547,-0.00001093,-0.00000271,0
 .00000605,-0.00000804,-0.00001354,-0.00000777,-0.00000743,0.00000953,-
 0.00000892,0.00000596,-0.00000908,0.00000229,0.00000113,0.00002024,-0.
 00000711,0.00000342,0.00000895,0.00001975,-0.00000734,0.00000046\\\@


 UNLESS WE CHANGE DIRECTIONS, WE WILL WIND UP WHERE WE ARE HEADED.
     -- CONFUCIUS
 Job cpu time:       0 days 11 hours 19 minutes 51.4 seconds.
 Elapsed time:       0 days  0 hours 56 minutes 40.3 seconds.
 File lengths (MBytes):  RWF=    720 Int=      0 D2E=      0 Chk=     34 Scr=      1
 Normal termination of Gaussian 16 at Sun Mar 10 09:20:54 2019.
