 Entering Gaussian System, Link 0=g16
 Initial command:
 /sw/Projects/G16/g16/l1.exe "/nvme/pbs/tmpdir/pbs.74289[19].flm1/Gau-28942.inp" -scrdir="/nvme/pbs/tmpdir/pbs.74289[19].flm1/"
 Entering Link 1 = /sw/Projects/G16/g16/l1.exe PID=     28943.
  
 Copyright (c) 1988-2017, Gaussian, Inc.  All Rights Reserved.
  
 This is part of the Gaussian(R) 16 program.  It is based on
 the Gaussian(R) 09 system (copyright 2009, Gaussian, Inc.),
 the Gaussian(R) 03 system (copyright 2003, Gaussian, Inc.),
 the Gaussian(R) 98 system (copyright 1998, Gaussian, Inc.),
 the Gaussian(R) 94 system (copyright 1995, Gaussian, Inc.),
 the Gaussian 92(TM) system (copyright 1992, Gaussian, Inc.),
 the Gaussian 90(TM) system (copyright 1990, Gaussian, Inc.),
 the Gaussian 88(TM) system (copyright 1988, Gaussian, Inc.),
 the Gaussian 86(TM) system (copyright 1986, Carnegie Mellon
 University), and the Gaussian 82(TM) system (copyright 1983,
 Carnegie Mellon University). Gaussian is a federally registered
 trademark of Gaussian, Inc.
  
 This software contains proprietary and confidential information,
 including trade secrets, belonging to Gaussian, Inc.
  
 This software is provided under written license and may be
 used, copied, transmitted, or stored only in accord with that
 written license.
  
 The following legend is applicable only to US Government
 contracts under FAR:
  
                    RESTRICTED RIGHTS LEGEND
  
 Use, reproduction and disclosure by the US Government is
 subject to restrictions as set forth in subparagraphs (a)
 and (c) of the Commercial Computer Software - Restricted
 Rights clause in FAR 52.227-19.
  
 Gaussian, Inc.
 340 Quinnipiac St., Bldg. 40, Wallingford CT 06492
  
  
 ---------------------------------------------------------------
 Warning -- This program may not be used in any manner that
 competes with the business of Gaussian, Inc. or will provide
 assistance to any competitor of Gaussian, Inc.  The licensee
 of this program is prohibited from giving any competitor of
 Gaussian, Inc. access to this program.  By using this program,
 the user acknowledges that Gaussian, Inc. is engaged in the
 business of creating and licensing software in the field of
 computational chemistry and represents and warrants to the
 licensee that it is not a competitor of Gaussian, Inc. and that
 it will not use this program in any manner prohibited above.
 ---------------------------------------------------------------
  

 Cite this work as:
 Gaussian 16, Revision B.01,
 M. J. Frisch, G. W. Trucks, H. B. Schlegel, G. E. Scuseria, 
 M. A. Robb, J. R. Cheeseman, G. Scalmani, V. Barone, 
 G. A. Petersson, H. Nakatsuji, X. Li, M. Caricato, A. V. Marenich, 
 J. Bloino, B. G. Janesko, R. Gomperts, B. Mennucci, H. P. Hratchian, 
 J. V. Ortiz, A. F. Izmaylov, J. L. Sonnenberg, D. Williams-Young, 
 F. Ding, F. Lipparini, F. Egidi, J. Goings, B. Peng, A. Petrone, 
 T. Henderson, D. Ranasinghe, V. G. Zakrzewski, J. Gao, N. Rega, 
 G. Zheng, W. Liang, M. Hada, M. Ehara, K. Toyota, R. Fukuda, 
 J. Hasegawa, M. Ishida, T. Nakajima, Y. Honda, O. Kitao, H. Nakai, 
 T. Vreven, K. Throssell, J. A. Montgomery, Jr., J. E. Peralta, 
 F. Ogliaro, M. J. Bearpark, J. J. Heyd, E. N. Brothers, K. N. Kudin, 
 V. N. Staroverov, T. A. Keith, R. Kobayashi, J. Normand, 
 K. Raghavachari, A. P. Rendell, J. C. Burant, S. S. Iyengar, 
 J. Tomasi, M. Cossi, J. M. Millam, M. Klene, C. Adamo, R. Cammi, 
 J. W. Ochterski, R. L. Martin, K. Morokuma, O. Farkas, 
 J. B. Foresman, and D. J. Fox, Gaussian, Inc., Wallingford CT, 2016.
 
 ******************************************
 Gaussian 16:  ES64L-G16RevB.01 20-Dec-2017
                10-Mar-2019 
 ******************************************
 %mem=20gb
 %nproc=12
 Will use up to   12 processors via shared memory.
 %chk=4c1_b1_4e_4c1_PHI.inp_extract_19.chk
 ----------------------------------------------------------------------
 #M062X/6-311++G(2d,2p) opt=ModRedundant freq=noraman SCRF=(SMD,solvent
 =water)
 ----------------------------------------------------------------------
 1/18=120,19=15,26=3,38=1/1,3;
 2/9=110,12=2,17=6,18=5,40=1/2;
 3/5=4,6=6,7=1212,11=2,25=1,30=1,70=32201,71=1,72=1,74=-55/1,2,3;
 4//1;
 5/5=2,38=5,53=1/2;
 6/7=2,8=2,9=2,10=2,28=1/1;
 7//1,2,3,16;
 1/18=20,19=15,26=3/3(2);
 2/9=110/2;
 99//99;
 2/9=110/2;
 3/5=4,6=6,7=1212,11=2,25=1,30=1,70=32205,71=1,72=1,74=-55/1,2,3;
 4/5=5,16=3,69=1/1;
 5/5=2,38=5,53=1/2;
 7//1,2,3,16;
 1/18=20,19=15,26=3/3(-5);
 2/9=110/2;
 6/7=2,8=2,9=2,10=2,19=2,28=1/1;
 99/9=1/99;
 --------------------------------
 4c1_b1_4e_4c1_PHI.inp_extract_19
 --------------------------------
 Symbolic Z-matrix:
 Charge =  0 Multiplicity = 1
 C                    -3.10014  -1.20911  -0.77776 
 C                     1.90517  -0.98198   0.74326 
 C                     3.4114    0.90594  -0.80748 
 O                     3.13881  -1.30542   0.13966 
 O                    -2.13194   1.04811   0.67327 
 C                    -3.43058   1.10611   0.10183 
 O                    -0.01762   0.41723   0.62758 
 C                    -4.04123  -0.28125  -0.00936 
 C                     2.0462    1.31174  -0.24676 
 C                    -1.22153   0.28479  -0.07031 
 C                     4.02195  -0.20236   0.03533 
 C                     1.1712    0.07837  -0.06734 
 C                    -1.69609  -1.15656  -0.16899 
 H                    -3.47216  -2.22847  -0.76652 
 H                    -3.05574  -0.89852  -1.81974 
 H                     2.07342  -0.61996   1.75498 
 H                     1.329    -1.89532   0.79377 
 H                     3.30466   0.55648  -1.83141 
 H                     4.08447   1.75791  -0.8234 
 H                    -3.36448   1.57588  -0.87646 
 H                    -4.01013   1.74862   0.74933 
 H                    -4.21541  -0.67475   0.98909 
 H                    -5.00521  -0.20657  -0.50439 
 H                     2.17371   1.78883   0.72233 
 H                     1.55369   2.02503  -0.90048 
 H                    -1.11586   0.72553  -1.05855 
 H                     4.93087  -0.58306  -0.40992 
 H                     4.25431   0.15996   1.03422 
 H                     0.925    -0.33512  -1.03879 
 H                    -1.70453  -1.57667   0.83345 
 H                    -0.99763  -1.73337  -0.76609 
 
 The following ModRedundant input section has been read:
 D      12       7      10       5 F                                           
 

 GradGradGradGradGradGradGradGradGradGradGradGradGradGradGradGradGradGrad
 Berny optimization.
 Initialization pass.
                           ----------------------------
                           !    Initial Parameters    !
                           ! (Angstroms and Degrees)  !
 --------------------------                            --------------------------
 ! Name  Definition              Value          Derivative Info.                !
 --------------------------------------------------------------------------------
 ! R1    R(1,8)                  1.5287         estimate D2E/DX2                !
 ! R2    R(1,13)                 1.5313         estimate D2E/DX2                !
 ! R3    R(1,14)                 1.0852         estimate D2E/DX2                !
 ! R4    R(1,15)                 1.0882         estimate D2E/DX2                !
 ! R5    R(2,4)                  1.411          estimate D2E/DX2                !
 ! R6    R(2,12)                 1.5232         estimate D2E/DX2                !
 ! R7    R(2,16)                 1.0876         estimate D2E/DX2                !
 ! R8    R(2,17)                 1.0811         estimate D2E/DX2                !
 ! R9    R(3,9)                  1.5306         estimate D2E/DX2                !
 ! R10   R(3,11)                 1.5203         estimate D2E/DX2                !
 ! R11   R(3,18)                 1.0872         estimate D2E/DX2                !
 ! R12   R(3,19)                 1.0859         estimate D2E/DX2                !
 ! R13   R(4,11)                 1.4169         estimate D2E/DX2                !
 ! R14   R(5,6)                  1.42           estimate D2E/DX2                !
 ! R15   R(5,10)                 1.4016         estimate D2E/DX2                !
 ! R16   R(6,8)                  1.5199         estimate D2E/DX2                !
 ! R17   R(6,20)                 1.0873         estimate D2E/DX2                !
 ! R18   R(6,21)                 1.0807         estimate D2E/DX2                !
 ! R19   R(7,10)                 1.3979         estimate D2E/DX2                !
 ! R20   R(7,12)                 1.4181         estimate D2E/DX2                !
 ! R21   R(8,22)                 1.0872         estimate D2E/DX2                !
 ! R22   R(8,23)                 1.0862         estimate D2E/DX2                !
 ! R23   R(9,12)                 1.5228         estimate D2E/DX2                !
 ! R24   R(9,24)                 1.0877         estimate D2E/DX2                !
 ! R25   R(9,25)                 1.0857         estimate D2E/DX2                !
 ! R26   R(10,13)                1.5207         estimate D2E/DX2                !
 ! R27   R(10,26)                1.0872         estimate D2E/DX2                !
 ! R28   R(11,27)                1.0813         estimate D2E/DX2                !
 ! R29   R(11,28)                1.0877         estimate D2E/DX2                !
 ! R30   R(12,29)                1.0841         estimate D2E/DX2                !
 ! R31   R(13,30)                1.0869         estimate D2E/DX2                !
 ! R32   R(13,31)                1.0849         estimate D2E/DX2                !
 ! A1    A(8,1,13)             110.1089         estimate D2E/DX2                !
 ! A2    A(8,1,14)             110.7257         estimate D2E/DX2                !
 ! A3    A(8,1,15)             109.4618         estimate D2E/DX2                !
 ! A4    A(13,1,14)            110.0266         estimate D2E/DX2                !
 ! A5    A(13,1,15)            109.4797         estimate D2E/DX2                !
 ! A6    A(14,1,15)            106.9783         estimate D2E/DX2                !
 ! A7    A(4,2,12)             110.6846         estimate D2E/DX2                !
 ! A8    A(4,2,16)             109.8147         estimate D2E/DX2                !
 ! A9    A(4,2,17)             106.9956         estimate D2E/DX2                !
 ! A10   A(12,2,16)            109.7469         estimate D2E/DX2                !
 ! A11   A(12,2,17)            110.8656         estimate D2E/DX2                !
 ! A12   A(16,2,17)            108.6747         estimate D2E/DX2                !
 ! A13   A(9,3,11)             110.3877         estimate D2E/DX2                !
 ! A14   A(9,3,18)             110.0395         estimate D2E/DX2                !
 ! A15   A(9,3,19)             110.4999         estimate D2E/DX2                !
 ! A16   A(11,3,18)            109.0993         estimate D2E/DX2                !
 ! A17   A(11,3,19)            109.3394         estimate D2E/DX2                !
 ! A18   A(18,3,19)            107.4128         estimate D2E/DX2                !
 ! A19   A(2,4,11)             113.4537         estimate D2E/DX2                !
 ! A20   A(6,5,10)             113.7533         estimate D2E/DX2                !
 ! A21   A(5,6,8)              111.0757         estimate D2E/DX2                !
 ! A22   A(5,6,20)             108.9134         estimate D2E/DX2                !
 ! A23   A(5,6,21)             105.879          estimate D2E/DX2                !
 ! A24   A(8,6,20)             110.6708         estimate D2E/DX2                !
 ! A25   A(8,6,21)             111.7815         estimate D2E/DX2                !
 ! A26   A(20,6,21)            108.3499         estimate D2E/DX2                !
 ! A27   A(10,7,12)            117.0463         estimate D2E/DX2                !
 ! A28   A(1,8,6)              110.0886         estimate D2E/DX2                !
 ! A29   A(1,8,22)             109.9096         estimate D2E/DX2                !
 ! A30   A(1,8,23)             111.0376         estimate D2E/DX2                !
 ! A31   A(6,8,22)             109.1205         estimate D2E/DX2                !
 ! A32   A(6,8,23)             109.0958         estimate D2E/DX2                !
 ! A33   A(22,8,23)            107.5308         estimate D2E/DX2                !
 ! A34   A(3,9,12)             109.9329         estimate D2E/DX2                !
 ! A35   A(3,9,24)             109.7626         estimate D2E/DX2                !
 ! A36   A(3,9,25)             110.9907         estimate D2E/DX2                !
 ! A37   A(12,9,24)            108.5208         estimate D2E/DX2                !
 ! A38   A(12,9,25)            110.0229         estimate D2E/DX2                !
 ! A39   A(24,9,25)            107.5469         estimate D2E/DX2                !
 ! A40   A(5,10,7)             104.0618         estimate D2E/DX2                !
 ! A41   A(5,10,13)            110.3603         estimate D2E/DX2                !
 ! A42   A(5,10,26)            108.9402         estimate D2E/DX2                !
 ! A43   A(7,10,13)            113.0154         estimate D2E/DX2                !
 ! A44   A(7,10,26)            109.3714         estimate D2E/DX2                !
 ! A45   A(13,10,26)           110.8299         estimate D2E/DX2                !
 ! A46   A(3,11,4)             110.9796         estimate D2E/DX2                !
 ! A47   A(3,11,27)            111.4656         estimate D2E/DX2                !
 ! A48   A(3,11,28)            110.6129         estimate D2E/DX2                !
 ! A49   A(4,11,27)            106.2693         estimate D2E/DX2                !
 ! A50   A(4,11,28)            108.9571         estimate D2E/DX2                !
 ! A51   A(27,11,28)           108.4121         estimate D2E/DX2                !
 ! A52   A(2,12,7)             108.0298         estimate D2E/DX2                !
 ! A53   A(2,12,9)             110.4652         estimate D2E/DX2                !
 ! A54   A(2,12,29)            108.711          estimate D2E/DX2                !
 ! A55   A(7,12,9)             110.2358         estimate D2E/DX2                !
 ! A56   A(7,12,29)            109.8686         estimate D2E/DX2                !
 ! A57   A(9,12,29)            109.5008         estimate D2E/DX2                !
 ! A58   A(1,13,10)            110.1499         estimate D2E/DX2                !
 ! A59   A(1,13,30)            110.2596         estimate D2E/DX2                !
 ! A60   A(1,13,31)            110.6865         estimate D2E/DX2                !
 ! A61   A(10,13,30)           107.9945         estimate D2E/DX2                !
 ! A62   A(10,13,31)           109.7993         estimate D2E/DX2                !
 ! A63   A(30,13,31)           107.8831         estimate D2E/DX2                !
 ! D1    D(13,1,8,6)            51.6743         estimate D2E/DX2                !
 ! D2    D(13,1,8,22)          -68.5511         estimate D2E/DX2                !
 ! D3    D(13,1,8,23)          172.597          estimate D2E/DX2                !
 ! D4    D(14,1,8,6)           173.5755         estimate D2E/DX2                !
 ! D5    D(14,1,8,22)           53.3501         estimate D2E/DX2                !
 ! D6    D(14,1,8,23)          -65.5019         estimate D2E/DX2                !
 ! D7    D(15,1,8,6)           -68.7246         estimate D2E/DX2                !
 ! D8    D(15,1,8,22)          171.05           estimate D2E/DX2                !
 ! D9    D(15,1,8,23)           52.1981         estimate D2E/DX2                !
 ! D10   D(8,1,13,10)          -52.6994         estimate D2E/DX2                !
 ! D11   D(8,1,13,30)           66.3922         estimate D2E/DX2                !
 ! D12   D(8,1,13,31)         -174.3159         estimate D2E/DX2                !
 ! D13   D(14,1,13,10)        -175.0143         estimate D2E/DX2                !
 ! D14   D(14,1,13,30)         -55.9228         estimate D2E/DX2                !
 ! D15   D(14,1,13,31)          63.3692         estimate D2E/DX2                !
 ! D16   D(15,1,13,10)          67.6887         estimate D2E/DX2                !
 ! D17   D(15,1,13,30)        -173.2198         estimate D2E/DX2                !
 ! D18   D(15,1,13,31)         -53.9278         estimate D2E/DX2                !
 ! D19   D(12,2,4,11)           60.5956         estimate D2E/DX2                !
 ! D20   D(16,2,4,11)          -60.7309         estimate D2E/DX2                !
 ! D21   D(17,2,4,11)         -178.5068         estimate D2E/DX2                !
 ! D22   D(4,2,12,7)          -176.607          estimate D2E/DX2                !
 ! D23   D(4,2,12,9)           -55.9616         estimate D2E/DX2                !
 ! D24   D(4,2,12,29)           64.2099         estimate D2E/DX2                !
 ! D25   D(16,2,12,7)          -55.2406         estimate D2E/DX2                !
 ! D26   D(16,2,12,9)           65.4049         estimate D2E/DX2                !
 ! D27   D(16,2,12,29)        -174.4236         estimate D2E/DX2                !
 ! D28   D(17,2,12,7)           64.8197         estimate D2E/DX2                !
 ! D29   D(17,2,12,9)         -174.5349         estimate D2E/DX2                !
 ! D30   D(17,2,12,29)         -54.3634         estimate D2E/DX2                !
 ! D31   D(11,3,9,12)          -51.8984         estimate D2E/DX2                !
 ! D32   D(11,3,9,24)           67.3983         estimate D2E/DX2                !
 ! D33   D(11,3,9,25)         -173.8526         estimate D2E/DX2                !
 ! D34   D(18,3,9,12)           68.5745         estimate D2E/DX2                !
 ! D35   D(18,3,9,24)         -172.1289         estimate D2E/DX2                !
 ! D36   D(18,3,9,25)          -53.3797         estimate D2E/DX2                !
 ! D37   D(19,3,9,12)         -172.9717         estimate D2E/DX2                !
 ! D38   D(19,3,9,24)          -53.6751         estimate D2E/DX2                !
 ! D39   D(19,3,9,25)           65.0741         estimate D2E/DX2                !
 ! D40   D(9,3,11,4)            55.061          estimate D2E/DX2                !
 ! D41   D(9,3,11,27)          173.3023         estimate D2E/DX2                !
 ! D42   D(9,3,11,28)          -66.0001         estimate D2E/DX2                !
 ! D43   D(18,3,11,4)          -65.9736         estimate D2E/DX2                !
 ! D44   D(18,3,11,27)          52.2678         estimate D2E/DX2                !
 ! D45   D(18,3,11,28)         172.9653         estimate D2E/DX2                !
 ! D46   D(19,3,11,4)          176.8229         estimate D2E/DX2                !
 ! D47   D(19,3,11,27)         -64.9358         estimate D2E/DX2                !
 ! D48   D(19,3,11,28)          55.7617         estimate D2E/DX2                !
 ! D49   D(2,4,11,3)           -60.3627         estimate D2E/DX2                !
 ! D50   D(2,4,11,27)          178.2929         estimate D2E/DX2                !
 ! D51   D(2,4,11,28)           61.6687         estimate D2E/DX2                !
 ! D52   D(10,5,6,8)            60.5572         estimate D2E/DX2                !
 ! D53   D(10,5,6,20)          -61.5795         estimate D2E/DX2                !
 ! D54   D(10,5,6,21)         -177.9042         estimate D2E/DX2                !
 ! D55   D(6,5,10,7)           177.2413         estimate D2E/DX2                !
 ! D56   D(6,5,10,13)          -61.2338         estimate D2E/DX2                !
 ! D57   D(6,5,10,26)           60.6604         estimate D2E/DX2                !
 ! D58   D(5,6,8,1)            -54.4894         estimate D2E/DX2                !
 ! D59   D(5,6,8,22)            66.2116         estimate D2E/DX2                !
 ! D60   D(5,6,8,23)          -176.5695         estimate D2E/DX2                !
 ! D61   D(20,6,8,1)            66.6202         estimate D2E/DX2                !
 ! D62   D(20,6,8,22)         -172.6788         estimate D2E/DX2                !
 ! D63   D(20,6,8,23)          -55.4599         estimate D2E/DX2                !
 ! D64   D(21,6,8,1)          -172.5083         estimate D2E/DX2                !
 ! D65   D(21,6,8,22)          -51.8074         estimate D2E/DX2                !
 ! D66   D(21,6,8,23)           65.4116         estimate D2E/DX2                !
 ! D67   D(12,7,10,5)         -162.5455         Frozen                          !
 ! D68   D(12,7,10,13)          77.7129         estimate D2E/DX2                !
 ! D69   D(12,7,10,26)         -46.2659         estimate D2E/DX2                !
 ! D70   D(10,7,12,2)         -124.0344         estimate D2E/DX2                !
 ! D71   D(10,7,12,9)          115.177          estimate D2E/DX2                !
 ! D72   D(10,7,12,29)          -5.5878         estimate D2E/DX2                !
 ! D73   D(3,9,12,2)            52.3019         estimate D2E/DX2                !
 ! D74   D(3,9,12,7)           171.6207         estimate D2E/DX2                !
 ! D75   D(3,9,12,29)          -67.3945         estimate D2E/DX2                !
 ! D76   D(24,9,12,2)          -67.7512         estimate D2E/DX2                !
 ! D77   D(24,9,12,7)           51.5676         estimate D2E/DX2                !
 ! D78   D(24,9,12,29)         172.5524         estimate D2E/DX2                !
 ! D79   D(25,9,12,2)          174.83           estimate D2E/DX2                !
 ! D80   D(25,9,12,7)          -65.8512         estimate D2E/DX2                !
 ! D81   D(25,9,12,29)          55.1336         estimate D2E/DX2                !
 ! D82   D(5,10,13,1)           56.495          estimate D2E/DX2                !
 ! D83   D(5,10,13,30)         -63.9696         estimate D2E/DX2                !
 ! D84   D(5,10,13,31)         178.6375         estimate D2E/DX2                !
 ! D85   D(7,10,13,1)          172.5489         estimate D2E/DX2                !
 ! D86   D(7,10,13,30)          52.0843         estimate D2E/DX2                !
 ! D87   D(7,10,13,31)         -65.3086         estimate D2E/DX2                !
 ! D88   D(26,10,13,1)         -64.2764         estimate D2E/DX2                !
 ! D89   D(26,10,13,30)        175.259          estimate D2E/DX2                !
 ! D90   D(26,10,13,31)         57.8661         estimate D2E/DX2                !
 --------------------------------------------------------------------------------
 Trust Radius=3.00D-01 FncErr=1.00D-07 GrdErr=1.00D-06 EigMax=2.50D+02 EigMin=1.00D-04
 Number of steps in this run=    186 maximum allowed number of steps=    186.
 GradGradGradGradGradGradGradGradGradGradGradGradGradGradGradGradGradGrad

                          Input orientation:                          
 ---------------------------------------------------------------------
 Center     Atomic      Atomic             Coordinates (Angstroms)
 Number     Number       Type             X           Y           Z
 ---------------------------------------------------------------------
      1          6           0       -3.100145   -1.209106   -0.777756
      2          6           0        1.905170   -0.981977    0.743259
      3          6           0        3.411403    0.905944   -0.807479
      4          8           0        3.138806   -1.305417    0.139663
      5          8           0       -2.131942    1.048111    0.673267
      6          6           0       -3.430584    1.106106    0.101833
      7          8           0       -0.017619    0.417227    0.627577
      8          6           0       -4.041229   -0.281246   -0.009363
      9          6           0        2.046200    1.311742   -0.246758
     10          6           0       -1.221528    0.284785   -0.070312
     11          6           0        4.021949   -0.202361    0.035325
     12          6           0        1.171200    0.078367   -0.067343
     13          6           0       -1.696090   -1.156557   -0.168986
     14          1           0       -3.472163   -2.228471   -0.766516
     15          1           0       -3.055744   -0.898518   -1.819741
     16          1           0        2.073422   -0.619962    1.754975
     17          1           0        1.329003   -1.895321    0.793767
     18          1           0        3.304660    0.556481   -1.831407
     19          1           0        4.084467    1.757907   -0.823395
     20          1           0       -3.364483    1.575879   -0.876463
     21          1           0       -4.010126    1.748619    0.749330
     22          1           0       -4.215410   -0.674752    0.989085
     23          1           0       -5.005215   -0.206571   -0.504391
     24          1           0        2.173709    1.788833    0.722333
     25          1           0        1.553686    2.025027   -0.900477
     26          1           0       -1.115858    0.725532   -1.058551
     27          1           0        4.930865   -0.583056   -0.409916
     28          1           0        4.254309    0.159964    1.034220
     29          1           0        0.924997   -0.335115   -1.038795
     30          1           0       -1.704525   -1.576670    0.833453
     31          1           0       -0.997632   -1.733367   -0.766087
 ---------------------------------------------------------------------
                    Distance matrix (angstroms):
                    1          2          3          4          5
     1  C    0.000000
     2  C    5.236244   0.000000
     3  C    6.846501   2.870152   0.000000
     4  O    6.306778   1.410957   2.421054   0.000000
     5  O    2.852703   4.519339   5.739468   5.796948   0.000000
     6  C    2.498614   5.765569   6.905049   6.998125   1.419990
     7  O    3.757910   2.380813   3.749189   3.628854   2.206913
     8  C    1.528722   6.034660   7.588685   7.254243   2.424572
     9  C    5.755128   2.502233   1.530640   2.862277   4.286353
    10  C    2.502277   3.470277   4.732156   4.646003   1.401581
    11  C    7.238706   2.364260   1.520337   1.416884   6.311975
    12  C    4.517373   1.523193   2.500239   2.414370   3.521314
    13  C    1.531252   3.719105   5.545094   4.847024   2.399983
    14  H    1.085186   5.722664   7.563710   6.736327   3.821669
    15  H    1.088195   5.584497   6.790048   6.509783   3.295127
    16  H    5.790303   1.087627   3.268754   2.052833   4.651628
    17  H    4.749519   1.081072   3.840243   2.012766   4.544937
    18  H    6.726738   3.309733   1.087174   2.716485   6.005975
    19  H    7.773281   3.835454   1.085868   3.347493   6.433316
    20  H    2.799243   6.077448   6.809273   7.185203   2.049234
    21  H    3.450825   6.515130   7.629734   7.797824   2.006009
    22  H    2.156636   6.133214   7.993405   7.429923   2.721918
    23  H    2.170045   7.064793   8.495235   8.243018   3.349150
    24  H    6.249115   2.783871   2.156781   3.293220   4.369177
    25  H    5.668582   3.444921   2.170739   3.832278   4.124911
    26  H    2.785510   3.910079   4.537805   4.864426   2.033637
    27  H    8.063769   3.262481   2.164242   2.008810   7.329204
    28  H    7.697117   2.628144   2.158433   2.047418   6.457809
    29  H    4.127199   2.134218   2.788539   2.689089   3.766875
    30  H    2.163066   3.659466   5.918509   4.900283   2.664173
    31  H    2.166921   3.356929   5.138800   4.256013   3.330919
                    6          7          8          9         10
     6  C    0.000000
     7  O    3.521263   0.000000
     8  C    1.519868   4.133158   0.000000
     9  C    5.491718   2.413290   6.296885   0.000000
    10  C    2.363076   1.397851   2.876599   3.429843   0.000000
    11  C    7.566819   4.129499   8.063688   2.505127   5.267117
    12  C    4.718187   1.418108   5.225141   1.522836   2.401617
    13  C    2.863818   2.434866   2.508252   4.483668   1.520662
    14  H    3.446036   4.569145   2.165364   6.576898   3.444781
    15  H    2.802047   4.117129   2.151668   5.778352   2.797330
    16  H    6.000523   2.592150   6.373113   2.781934   3.873879
    17  H    5.669304   2.681210   5.664773   3.447074   3.464780
    18  H    7.028728   4.135642   7.614704   2.159920   4.864324
    19  H    7.599795   4.553005   8.417109   2.164742   5.557950
    20  H    1.087253   3.847871   2.158416   5.453603   2.628509
    21  H    1.080715   4.210409   2.167241   6.153222   3.254367
    22  H    2.138837   4.352534   1.087237   6.684402   3.317584
    23  H    2.137777   5.152338   1.086231   7.217624   3.840071
    24  H    5.679722   2.586929   6.591363   1.087663   3.797115
    25  H    5.166429   2.718266   6.116866   1.085677   3.379265
    26  H    2.617114   2.035733   3.266832   3.316815   1.087217
    27  H    8.545700   5.154071   8.986101   3.455166   6.222573
    28  H    7.798853   4.298943   8.372555   2.800579   5.587518
    29  H    4.727498   2.057022   5.072084   2.143958   2.435119
    30  H    3.272894   2.619859   2.801544   4.855689   2.124875
    31  H    3.838639   2.743680   3.456121   4.336739   2.146432
                   11         12         13         14         15
    11  C    0.000000
    12  C    2.866377   0.000000
    13  C    5.800707   3.123575   0.000000
    14  H    7.804472   5.231746   2.158814   0.000000
    15  H    7.349806   4.678916   2.154121   1.746844   0.000000
    16  H    2.632175   2.150003   4.266003   6.300693   6.258157
    17  H    3.270062   2.159133   3.259425   5.059315   5.200966
    18  H    2.138933   2.809300   5.541267   7.403734   6.524714
    19  H    2.141018   3.446679   6.506704   8.543834   7.683223
    20  H    7.651985   4.844547   3.278760   3.807461   2.666033
    21  H    8.296406   5.504801   3.825979   4.290039   3.810289
    22  H    8.305835   5.540649   2.814292   2.459389   3.047031
    23  H    9.043285   6.198411   3.459086   2.550890   2.451402
    24  H    2.802289   2.134082   4.944200   7.087402   6.405558
    25  H    3.453883   2.151719   4.606365   6.585541   5.535251
    26  H    5.334286   2.575257   2.161077   3.789933   2.641989
    27  H    1.081340   3.832743   6.656086   8.570031   8.116221
    28  H    1.087686   3.275005   6.211939   8.285267   7.918482
    29  H    3.280620   1.084114   2.881221   4.795201   4.095558
    30  H    5.942915   3.438077   1.086945   2.471698   3.053706
    31  H    5.308713   2.911092   1.084935   2.523575   2.458248
                   16         17         18         19         20
    16  H    0.000000
    17  H    1.761993   0.000000
    18  H    3.970151   4.099523   0.000000
    19  H    4.043087   4.853233   1.751460   0.000000
    20  H    6.427830   6.071879   6.813851   7.451363   0.000000
    21  H    6.605381   6.464253   7.847770   8.245968   1.757810
    22  H    6.335534   5.680533   8.125427   8.836904   3.044616
    23  H    7.441957   6.682770   8.449689   9.305012   2.451034
    24  H    2.622728   3.780426   3.052758   2.457891   5.768281
    25  H    3.783850   4.276690   2.467624   2.546006   4.938694
    26  H    4.460694   4.034513   4.490753   5.307021   2.410925
    27  H    3.585121   4.017997   2.442074   2.523383   8.584373
    28  H    2.425704   3.583215   3.044811   2.456217   7.981323
    29  H    3.034002   2.440440   2.661949   3.795970   4.698711
    30  H    4.004669   3.050476   6.061662   6.883094   3.951941
    31  H    4.126354   2.805816   4.988790   6.166037   4.070046
                   21         22         23         24         25
    21  H    0.000000
    22  H    2.443839   0.000000
    23  H    2.526813   1.753127   0.000000
    24  H    6.184025   6.852828   7.551387   0.000000
    25  H    5.809842   6.643924   6.939459   1.753205   0.000000
    26  H    3.562573   3.969991   4.037698   3.888883   2.973237
    27  H    9.312458   9.253105   9.943659   3.809167   4.295123
    28  H    8.420563   8.510871   9.393639   2.660711   3.809840
    29  H    5.647546   5.536374   5.955630   3.028532   2.446355
    30  H    4.047273   2.672493   3.815960   5.136113   5.157002
    31  H    4.847250   3.815153   4.296547   4.967765   4.544536
                   26         27         28         29         30
    26  H    0.000000
    27  H    6.220610   0.000000
    28  H    5.791222   1.759357   0.000000
    29  H    2.300098   4.062504   3.953076   0.000000
    30  H    3.037489   6.823609   6.209985   3.458491   0.000000
    31  H    2.479052   6.049558   5.865892   2.392902   1.755785
                   31
    31  H    0.000000
 Stoichiometry    C10H18O3
 Framework group  C1[X(C10H18O3)]
 Deg. of freedom    87
 Full point group                 C1      NOp   1
 Largest Abelian subgroup         C1      NOp   1
 Largest concise Abelian subgroup C1      NOp   1
                         Standard orientation:                         
 ---------------------------------------------------------------------
 Center     Atomic      Atomic             Coordinates (Angstroms)
 Number     Number       Type             X           Y           Z
 ---------------------------------------------------------------------
      1          6           0       -3.100145    1.209106    0.777756
      2          6           0        1.905170    0.981977   -0.743259
      3          6           0        3.411403   -0.905944    0.807479
      4          8           0        3.138806    1.305417   -0.139663
      5          8           0       -2.131942   -1.048111   -0.673267
      6          6           0       -3.430584   -1.106106   -0.101833
      7          8           0       -0.017619   -0.417227   -0.627577
      8          6           0       -4.041229    0.281246    0.009363
      9          6           0        2.046200   -1.311742    0.246758
     10          6           0       -1.221528   -0.284785    0.070312
     11          6           0        4.021949    0.202361   -0.035325
     12          6           0        1.171200   -0.078367    0.067343
     13          6           0       -1.696090    1.156557    0.168986
     14          1           0       -3.472163    2.228471    0.766516
     15          1           0       -3.055744    0.898518    1.819741
     16          1           0        2.073422    0.619962   -1.754975
     17          1           0        1.329003    1.895321   -0.793767
     18          1           0        3.304660   -0.556481    1.831407
     19          1           0        4.084467   -1.757907    0.823395
     20          1           0       -3.364483   -1.575879    0.876463
     21          1           0       -4.010126   -1.748619   -0.749330
     22          1           0       -4.215410    0.674752   -0.989085
     23          1           0       -5.005215    0.206571    0.504391
     24          1           0        2.173709   -1.788833   -0.722333
     25          1           0        1.553686   -2.025027    0.900477
     26          1           0       -1.115858   -0.725532    1.058551
     27          1           0        4.930865    0.583056    0.409916
     28          1           0        4.254309   -0.159964   -1.034220
     29          1           0        0.924997    0.335115    1.038795
     30          1           0       -1.704525    1.576670   -0.833453
     31          1           0       -0.997632    1.733367    0.766087
 ---------------------------------------------------------------------
 Rotational constants (GHZ):           2.1905141           0.3561859           0.3291802
 Standard basis: 6-311++G(2d,2p) (5D, 7F)
 There are   557 symmetry adapted cartesian basis functions of A   symmetry.
 There are   531 symmetry adapted basis functions of A   symmetry.
   531 basis functions,   762 primitive gaussians,   557 cartesian basis functions
    51 alpha electrons       51 beta electrons
       nuclear repulsion energy       875.9746984534 Hartrees.
 NAtoms=   31 NActive=   31 NUniq=   31 SFac= 1.00D+00 NAtFMM=   60 NAOKFM=F Big=F
 Integral buffers will be    131072 words long.
 Raffenetti 2 integral format.
 Two-electron integral symmetry is turned on.
 ------------------------------------------------------------------------------
 Polarizable Continuum Model (PCM)
 =================================
 Model                : PCM.
 Atomic radii         : SMD-Coulomb.
 Polarization charges : Total charges.
 Charge compensation  : None.
 Solution method      : On-the-fly selection.
 Cavity type          : VdW (van der Waals Surface) (Alpha=1.000).
 Cavity algorithm     : GePol (No added spheres)
                        Default sphere list used, NSphG=   31.
                        Lebedev-Laikov grids with approx.  5.0 points / Ang**2.
                        Smoothing algorithm: York/Karplus (Gamma=1.0000).
                        Polarization charges: spherical gaussians, with
                                              point-specific exponents (IZeta= 3).
                        Self-potential: point-specific (ISelfS= 7).
                        Self-field    : sphere-specific E.n sum rule (ISelfD= 2).
 1st derivatives      : Analytical E(r).r(x)/FMM algorithm (CHGder, D1EAlg=3).
                        Cavity 1st derivative terms included.
 Solvent              : Water, Eps=  78.355300 Eps(inf)=   1.777849
 ------------------------------------------------------------------------------
 ------------------------------------------------------------------------------
 Atomic radii for non-electrostatic terms: SMD-CDS.
 ------------------------------------------------------------------------------
 Nuclear repulsion after PCM non-electrostatic terms =      875.9810373681 Hartrees.
 One-electron integrals computed using PRISM.
 NBasis=   531 RedAO= T EigKep=  5.51D-06  NBF=   531
 NBsUse=   531 1.00D-06 EigRej= -1.00D+00 NBFU=   531
 ExpMin= 3.60D-02 ExpMax= 8.59D+03 ExpMxC= 1.30D+03 IAcc=3 IRadAn=         5 AccDes= 0.00D+00
 Harris functional with IExCor= 1009 and IRadAn=       5 diagonalized for initial guess.
 HarFok:  IExCor= 1009 AccDes= 0.00D+00 IRadAn=         5 IDoV= 1 UseB2=F ITyADJ=14
 ICtDFT=  3500011 ScaDFX=  1.000000  1.000000  1.000000  1.000000
 FoFCou: FMM=F IPFlag=           0 FMFlag=      100000 FMFlg1=           0
         NFxFlg=           0 DoJE=T BraDBF=F KetDBF=T FulRan=T
         wScrn=  0.000000 ICntrl=       500 IOpCl=  0 I1Cent=   200000004 NGrid=           0
         NMat0=    1 NMatS0=      1 NMatT0=    0 NMatD0=    1 NMtDS0=    0 NMtDT0=    0
 Petite list used in FoFCou.
 Requested convergence on RMS density matrix=1.00D-08 within 128 cycles.
 Requested convergence on MAX density matrix=1.00D-06.
 Requested convergence on             energy=1.00D-06.
 No special actions if energy rises.
 Inv3:  Mode=1 IEnd=    12120300.
 Iteration    1 A*A^-1 deviation from unit magnitude is 4.88D-15 for   2001.
 Iteration    1 A*A^-1 deviation from orthogonality  is 2.20D-15 for   1774   1254.
 Iteration    1 A^-1*A deviation from unit magnitude is 4.88D-15 for   2001.
 Iteration    1 A^-1*A deviation from orthogonality  is 9.06D-13 for   1911   1907.
 Error on total polarization charges =  0.06398
 SCF Done:  E(RM062X) =  -617.502688290     A.U. after   12 cycles
            NFock= 12  Conv=0.49D-08     -V/T= 2.0035
 SMD-CDS (non-electrostatic) energy       (kcal/mol) =       3.98
 (included in total energy above)

 **********************************************************************

            Population analysis using the SCF Density.

 **********************************************************************

 Orbital symmetries:
       Occupied  (A) (A) (A) (A) (A) (A) (A) (A) (A) (A) (A) (A)
                 (A) (A) (A) (A) (A) (A) (A) (A) (A) (A) (A) (A)
                 (A) (A) (A) (A) (A) (A) (A) (A) (A) (A) (A) (A)
                 (A) (A) (A) (A) (A) (A) (A) (A) (A) (A) (A) (A)
                 (A) (A) (A)
       Virtual   (A) (A) (A) (A) (A) (A) (A) (A) (A) (A) (A) (A)
                 (A) (A) (A) (A) (A) (A) (A) (A) (A) (A) (A) (A)
                 (A) (A) (A) (A) (A) (A) (A) (A) (A) (A) (A) (A)
                 (A) (A) (A) (A) (A) (A) (A) (A) (A) (A) (A) (A)
                 (A) (A) (A) (A) (A) (A) (A) (A) (A) (A) (A) (A)
                 (A) (A) (A) (A) (A) (A) (A) (A) (A) (A) (A) (A)
                 (A) (A) (A) (A) (A) (A) (A) (A) (A) (A) (A) (A)
                 (A) (A) (A) (A) (A) (A) (A) (A) (A) (A) (A) (A)
                 (A) (A) (A) (A) (A) (A) (A) (A) (A) (A) (A) (A)
                 (A) (A) (A) (A) (A) (A) (A) (A) (A) (A) (A) (A)
                 (A) (A) (A) (A) (A) (A) (A) (A) (A) (A) (A) (A)
                 (A) (A) (A) (A) (A) (A) (A) (A) (A) (A) (A) (A)
                 (A) (A) (A) (A) (A) (A) (A) (A) (A) (A) (A) (A)
                 (A) (A) (A) (A) (A) (A) (A) (A) (A) (A) (A) (A)
                 (A) (A) (A) (A) (A) (A) (A) (A) (A) (A) (A) (A)
                 (A) (A) (A) (A) (A) (A) (A) (A) (A) (A) (A) (A)
                 (A) (A) (A) (A) (A) (A) (A) (A) (A) (A) (A) (A)
                 (A) (A) (A) (A) (A) (A) (A) (A) (A) (A) (A) (A)
                 (A) (A) (A) (A) (A) (A) (A) (A) (A) (A) (A) (A)
                 (A) (A) (A) (A) (A) (A) (A) (A) (A) (A) (A) (A)
                 (A) (A) (A) (A) (A) (A) (A) (A) (A) (A) (A) (A)
                 (A) (A) (A) (A) (A) (A) (A) (A) (A) (A) (A) (A)
                 (A) (A) (A) (A) (A) (A) (A) (A) (A) (A) (A) (A)
                 (A) (A) (A) (A) (A) (A) (A) (A) (A) (A) (A) (A)
                 (A) (A) (A) (A) (A) (A) (A) (A) (A) (A) (A) (A)
                 (A) (A) (A) (A) (A) (A) (A) (A) (A) (A) (A) (A)
                 (A) (A) (A) (A) (A) (A) (A) (A) (A) (A) (A) (A)
                 (A) (A) (A) (A) (A) (A) (A) (A) (A) (A) (A) (A)
                 (A) (A) (A) (A) (A) (A) (A) (A) (A) (A) (A) (A)
                 (A) (A) (A) (A) (A) (A) (A) (A) (A) (A) (A) (A)
                 (A) (A) (A) (A) (A) (A) (A) (A) (A) (A) (A) (A)
                 (A) (A) (A) (A) (A) (A) (A) (A) (A) (A) (A) (A)
                 (A) (A) (A) (A) (A) (A) (A) (A) (A) (A) (A) (A)
                 (A) (A) (A) (A) (A) (A) (A) (A) (A) (A) (A) (A)
                 (A) (A) (A) (A) (A) (A) (A) (A) (A) (A) (A) (A)
                 (A) (A) (A) (A) (A) (A) (A) (A) (A) (A) (A) (A)
                 (A) (A) (A) (A) (A) (A) (A) (A) (A) (A) (A) (A)
                 (A) (A) (A) (A) (A) (A) (A) (A) (A) (A) (A) (A)
                 (A) (A) (A) (A) (A) (A) (A) (A) (A) (A) (A) (A)
                 (A) (A) (A) (A) (A) (A) (A) (A) (A) (A) (A) (A)
 The electronic state is 1-A.
 Alpha  occ. eigenvalues --  -19.63302 -19.63152 -19.62930 -10.63373 -10.58401
 Alpha  occ. eigenvalues --  -10.57462 -10.57334 -10.57218 -10.52453 -10.52407
 Alpha  occ. eigenvalues --  -10.52358 -10.52177 -10.52149  -1.20581  -1.16739
 Alpha  occ. eigenvalues --   -1.14231  -0.90125  -0.89618  -0.87038  -0.83945
 Alpha  occ. eigenvalues --   -0.74347  -0.73576  -0.73237  -0.69844  -0.65719
 Alpha  occ. eigenvalues --   -0.64868  -0.60129  -0.58500  -0.56553  -0.55185
 Alpha  occ. eigenvalues --   -0.54540  -0.52508  -0.52217  -0.50954  -0.50093
 Alpha  occ. eigenvalues --   -0.47940  -0.46588  -0.46136  -0.45390  -0.45227
 Alpha  occ. eigenvalues --   -0.42426  -0.41559  -0.40109  -0.39730  -0.39258
 Alpha  occ. eigenvalues --   -0.38727  -0.37643  -0.37146  -0.35395  -0.32610
 Alpha  occ. eigenvalues --   -0.30945
 Alpha virt. eigenvalues --    0.00525   0.01251   0.01387   0.01621   0.02644
 Alpha virt. eigenvalues --    0.02890   0.02988   0.04229   0.04238   0.04669
 Alpha virt. eigenvalues --    0.04992   0.05214   0.05900   0.06131   0.07162
 Alpha virt. eigenvalues --    0.07734   0.07895   0.08788   0.09057   0.10233
 Alpha virt. eigenvalues --    0.10663   0.10963   0.11378   0.11961   0.12484
 Alpha virt. eigenvalues --    0.12599   0.12944   0.13366   0.13590   0.13842
 Alpha virt. eigenvalues --    0.13968   0.14517   0.14602   0.15105   0.15262
 Alpha virt. eigenvalues --    0.15499   0.15932   0.16076   0.16641   0.16730
 Alpha virt. eigenvalues --    0.17153   0.17300   0.17481   0.18033   0.18272
 Alpha virt. eigenvalues --    0.18596   0.18862   0.19159   0.19249   0.19828
 Alpha virt. eigenvalues --    0.20099   0.20515   0.21019   0.21765   0.22046
 Alpha virt. eigenvalues --    0.22426   0.22761   0.23617   0.24142   0.24675
 Alpha virt. eigenvalues --    0.25726   0.26349   0.26749   0.26987   0.27514
 Alpha virt. eigenvalues --    0.28042   0.28777   0.29330   0.29849   0.30324
 Alpha virt. eigenvalues --    0.30531   0.31084   0.31478   0.31997   0.32407
 Alpha virt. eigenvalues --    0.33163   0.33281   0.33831   0.34366   0.34505
 Alpha virt. eigenvalues --    0.34839   0.35058   0.35502   0.35725   0.35996
 Alpha virt. eigenvalues --    0.36519   0.37106   0.37410   0.37572   0.38401
 Alpha virt. eigenvalues --    0.38694   0.39147   0.39556   0.40450   0.40552
 Alpha virt. eigenvalues --    0.40897   0.42595   0.42888   0.43921   0.44798
 Alpha virt. eigenvalues --    0.47301   0.49160   0.49385   0.51269   0.51435
 Alpha virt. eigenvalues --    0.51958   0.53497   0.53732   0.54484   0.55556
 Alpha virt. eigenvalues --    0.56259   0.57048   0.58077   0.58317   0.59411
 Alpha virt. eigenvalues --    0.60107   0.60819   0.61373   0.62188   0.62372
 Alpha virt. eigenvalues --    0.62834   0.63196   0.63624   0.63719   0.63819
 Alpha virt. eigenvalues --    0.64216   0.65696   0.65842   0.66906   0.67305
 Alpha virt. eigenvalues --    0.68081   0.68553   0.69309   0.69741   0.70511
 Alpha virt. eigenvalues --    0.71304   0.71942   0.72919   0.73221   0.73802
 Alpha virt. eigenvalues --    0.73929   0.74356   0.74793   0.76317   0.76428
 Alpha virt. eigenvalues --    0.76874   0.77155   0.77677   0.78635   0.80012
 Alpha virt. eigenvalues --    0.80779   0.82715   0.83898   0.84464   0.86056
 Alpha virt. eigenvalues --    0.86514   0.87671   0.88797   0.89664   0.90696
 Alpha virt. eigenvalues --    0.91003   0.92372   0.93122   0.93720   0.95810
 Alpha virt. eigenvalues --    0.97627   0.98387   0.99488   1.00868   1.02274
 Alpha virt. eigenvalues --    1.03418   1.04393   1.04753   1.05581   1.07097
 Alpha virt. eigenvalues --    1.07743   1.09191   1.10371   1.10926   1.11649
 Alpha virt. eigenvalues --    1.12600   1.14345   1.15332   1.15944   1.16435
 Alpha virt. eigenvalues --    1.17539   1.18526   1.18642   1.19102   1.20394
 Alpha virt. eigenvalues --    1.21008   1.21231   1.22288   1.23722   1.24621
 Alpha virt. eigenvalues --    1.24726   1.24997   1.25384   1.26331   1.27675
 Alpha virt. eigenvalues --    1.28416   1.28764   1.29604   1.30618   1.31123
 Alpha virt. eigenvalues --    1.31630   1.32239   1.33071   1.33626   1.34192
 Alpha virt. eigenvalues --    1.34594   1.35391   1.36050   1.37106   1.37438
 Alpha virt. eigenvalues --    1.38521   1.39403   1.39754   1.41050   1.41358
 Alpha virt. eigenvalues --    1.42053   1.43236   1.43874   1.44373   1.45467
 Alpha virt. eigenvalues --    1.45956   1.46314   1.47805   1.47910   1.48431
 Alpha virt. eigenvalues --    1.49296   1.49825   1.50368   1.51112   1.51942
 Alpha virt. eigenvalues --    1.53283   1.54282   1.54628   1.54871   1.55640
 Alpha virt. eigenvalues --    1.56459   1.57224   1.58163   1.58242   1.58683
 Alpha virt. eigenvalues --    1.59057   1.60237   1.61515   1.61775   1.62044
 Alpha virt. eigenvalues --    1.63197   1.64488   1.65802   1.66247   1.67000
 Alpha virt. eigenvalues --    1.67412   1.68276   1.69042   1.70999   1.72277
 Alpha virt. eigenvalues --    1.73274   1.74999   1.75988   1.76684   1.78245
 Alpha virt. eigenvalues --    1.79280   1.80176   1.82156   1.82694   1.84705
 Alpha virt. eigenvalues --    1.86116   1.89116   1.92446   1.94240   1.98736
 Alpha virt. eigenvalues --    2.00156   2.07721   2.13492   2.15567   2.22316
 Alpha virt. eigenvalues --    2.24400   2.27115   2.30350   2.32833   2.35465
 Alpha virt. eigenvalues --    2.39541   2.43515   2.44471   2.47781   2.51555
 Alpha virt. eigenvalues --    2.57655   2.76301   2.76400   2.80039   2.82109
 Alpha virt. eigenvalues --    2.87219   2.89931   2.90323   2.93338   2.94530
 Alpha virt. eigenvalues --    2.96759   2.97786   3.00848   3.01093   3.04723
 Alpha virt. eigenvalues --    3.06170   3.08530   3.08898   3.09939   3.10239
 Alpha virt. eigenvalues --    3.12558   3.13857   3.18748   3.19840   3.21060
 Alpha virt. eigenvalues --    3.27237   3.30696   3.31980   3.33623   3.35784
 Alpha virt. eigenvalues --    3.36243   3.36917   3.38778   3.40600   3.41239
 Alpha virt. eigenvalues --    3.43126   3.43831   3.44577   3.45624   3.46699
 Alpha virt. eigenvalues --    3.47588   3.49426   3.49889   3.50754   3.52008
 Alpha virt. eigenvalues --    3.52191   3.54490   3.54751   3.55168   3.56292
 Alpha virt. eigenvalues --    3.57362   3.57814   3.59208   3.59986   3.60666
 Alpha virt. eigenvalues --    3.61086   3.61775   3.63888   3.64455   3.65686
 Alpha virt. eigenvalues --    3.67021   3.67808   3.68218   3.68705   3.70844
 Alpha virt. eigenvalues --    3.71212   3.71874   3.72691   3.73077   3.74114
 Alpha virt. eigenvalues --    3.74647   3.75278   3.76560   3.77539   3.78604
 Alpha virt. eigenvalues --    3.79018   3.80698   3.81231   3.83141   3.84381
 Alpha virt. eigenvalues --    3.85922   3.88516   3.89789   3.91781   3.92483
 Alpha virt. eigenvalues --    3.92864   3.93037   3.95042   3.95972   3.97593
 Alpha virt. eigenvalues --    3.99311   4.01915   4.03182   4.03965   4.04605
 Alpha virt. eigenvalues --    4.04972   4.05968   4.06835   4.07225   4.07801
 Alpha virt. eigenvalues --    4.08139   4.08987   4.09816   4.11184   4.11982
 Alpha virt. eigenvalues --    4.13234   4.13999   4.14559   4.15129   4.16676
 Alpha virt. eigenvalues --    4.17672   4.18261   4.19095   4.20803   4.21116
 Alpha virt. eigenvalues --    4.22331   4.22971   4.23128   4.25873   4.28162
 Alpha virt. eigenvalues --    4.29415   4.30325   4.30758   4.32234   4.33745
 Alpha virt. eigenvalues --    4.34486   4.35573   4.36892   4.37252   4.41330
 Alpha virt. eigenvalues --    4.42181   4.45033   4.46448   4.48167   4.50574
 Alpha virt. eigenvalues --    4.58440   4.62284   4.76687   4.77619   4.83461
 Alpha virt. eigenvalues --    4.88722   4.92111   4.93380   4.99084   4.99957
 Alpha virt. eigenvalues --    5.06946   5.07153   5.08209   5.09500   5.12260
 Alpha virt. eigenvalues --    5.12990   5.14646   5.15773   5.30410   5.31958
 Alpha virt. eigenvalues --    5.40573   5.54250   5.58890   5.64927   5.86178
 Alpha virt. eigenvalues --    5.88453   6.00234   7.02552   7.05357   7.05591
 Alpha virt. eigenvalues --    7.09180   7.09988   7.10401   7.12991   7.14709
 Alpha virt. eigenvalues --    7.25955   7.34018   7.37942   7.44394   7.53623
 Alpha virt. eigenvalues --    7.55448   7.65256  23.94383  24.00537  24.06452
 Alpha virt. eigenvalues --   24.07886  24.11206  24.14323  24.14512  24.15898
 Alpha virt. eigenvalues --   24.17768  24.19136  50.17355  50.21065  50.21913
          Condensed to atoms (all electrons):
               1          2          3          4          5          6
     1  C    6.121735  -0.030621  -0.010039  -0.001317  -0.023676  -0.242463
     2  C   -0.030621   6.019276   0.120980   0.155436  -0.005083   0.020293
     3  C   -0.010039   0.120980   5.612152  -0.032234  -0.002479   0.004249
     4  O   -0.001317   0.155436  -0.032234   8.392447   0.000061  -0.000061
     5  O   -0.023676  -0.005083  -0.002479   0.000061   8.406703  -0.004157
     6  C   -0.242463   0.020293   0.004249  -0.000061  -0.004157   5.518197
     7  O    0.042303  -0.182260   0.006320   0.001395   0.065000  -0.022792
     8  C    0.060685  -0.014875   0.000376  -0.000014  -0.033882   0.067655
     9  C   -0.009202  -0.065739  -0.062911  -0.020774   0.019646   0.008280
    10  C    0.156784  -0.023563  -0.043529   0.007304   0.198541  -0.146061
    11  C    0.001265  -0.197135   0.065124   0.080537   0.000253  -0.002738
    12  C    0.031361  -0.257653  -0.010324   0.020261  -0.054951  -0.099774
    13  C   -0.467883   0.066017  -0.022423  -0.003053  -0.001669   0.180028
    14  H    0.385809   0.000609  -0.000482  -0.000003  -0.000224   0.011294
    15  H    0.533062   0.001025   0.000059   0.000023   0.000740  -0.002146
    16  H   -0.001067   0.404118   0.000005  -0.035722   0.001982   0.000900
    17  H   -0.003469   0.423537  -0.000877  -0.074234   0.000177  -0.000386
    18  H   -0.000719   0.013918   0.500958   0.000888   0.000115   0.000825
    19  H    0.000101  -0.009037   0.427027   0.007118   0.000038  -0.000257
    20  H    0.010094   0.000113  -0.000659   0.000002  -0.025993   0.494451
    21  H    0.000136   0.001494   0.000363  -0.000016  -0.077517   0.427811
    22  H    0.014326  -0.001124  -0.000139   0.000002  -0.003686  -0.073177
    23  H   -0.062054  -0.000471   0.000080  -0.000004   0.005367  -0.038917
    24  H    0.001205  -0.021974  -0.051426   0.000485   0.000456  -0.000370
    25  H    0.000259   0.009931  -0.007757  -0.002996  -0.000421   0.001867
    26  H   -0.044113   0.015847   0.007769   0.001215  -0.051317   0.011586
    27  H   -0.000026   0.011664  -0.044003  -0.070114   0.000007  -0.000078
    28  H   -0.000243  -0.030559  -0.038849  -0.041680   0.000026   0.000194
    29  H    0.018199  -0.080254  -0.009233  -0.019819   0.000003  -0.015793
    30  H    0.022960   0.013197   0.000077   0.001694  -0.011593   0.007691
    31  H   -0.038851  -0.004995   0.002251   0.000481   0.010033   0.006236
               7          8          9         10         11         12
     1  C    0.042303   0.060685  -0.009202   0.156784   0.001265   0.031361
     2  C   -0.182260  -0.014875  -0.065739  -0.023563  -0.197135  -0.257653
     3  C    0.006320   0.000376  -0.062911  -0.043529   0.065124  -0.010324
     4  O    0.001395  -0.000014  -0.020774   0.007304   0.080537   0.020261
     5  O    0.065000  -0.033882   0.019646   0.198541   0.000253  -0.054951
     6  C   -0.022792   0.067655   0.008280  -0.146061  -0.002738  -0.099774
     7  O    8.381637   0.001796  -0.219763   0.095409   0.014943   0.353557
     8  C    0.001796   5.531217   0.000646   0.168973   0.000929   0.030049
     9  C   -0.219763   0.000646   7.038576   0.306549  -0.132072  -1.391142
    10  C    0.095409   0.168973   0.306549   6.496487  -0.044722  -0.727253
    11  C    0.014943   0.000929  -0.132072  -0.044722   5.410340   0.175085
    12  C    0.353557   0.030049  -1.391142  -0.727253   0.175085   7.583758
    13  C   -0.120462  -0.164285  -0.110300  -0.596774   0.013270   0.129390
    14  H   -0.001502  -0.013554  -0.000356   0.000265   0.000112  -0.001933
    15  H   -0.000408  -0.075471  -0.000124  -0.016569  -0.000123  -0.004720
    16  H    0.006521   0.000411  -0.013823   0.009439   0.004168  -0.043298
    17  H   -0.001091  -0.000235   0.046682  -0.013352   0.007053  -0.076277
    18  H   -0.000365  -0.000269  -0.032315   0.002234  -0.079459  -0.026443
    19  H   -0.001967   0.000068  -0.029491  -0.000936  -0.034469   0.004962
    20  H    0.002794  -0.069612   0.000270  -0.054126   0.000129  -0.001771
    21  H   -0.002351  -0.043479  -0.000244   0.017265  -0.000117  -0.002108
    22  H    0.001823   0.472963  -0.000037  -0.009913   0.000072   0.000371
    23  H   -0.000025   0.452137  -0.000237   0.005981  -0.000003   0.001062
    24  H   -0.001545  -0.000195   0.501488   0.007058  -0.018944  -0.049907
    25  H   -0.000464  -0.001038   0.412483   0.025898  -0.000575  -0.029718
    26  H   -0.031950   0.003728  -0.031611   0.394093  -0.000255   0.016608
    27  H    0.001036   0.000026   0.004059  -0.003434   0.434768   0.006264
    28  H    0.000151  -0.000021  -0.036156   0.003394   0.469337   0.040126
    29  H   -0.003949   0.007325   0.070466   0.007763   0.012124   0.392877
    30  H    0.004273  -0.019337  -0.009713  -0.097914  -0.000918  -0.013578
    31  H   -0.004971  -0.010759  -0.004771  -0.063268  -0.001786   0.042859
              13         14         15         16         17         18
     1  C   -0.467883   0.385809   0.533062  -0.001067  -0.003469  -0.000719
     2  C    0.066017   0.000609   0.001025   0.404118   0.423537   0.013918
     3  C   -0.022423  -0.000482   0.000059   0.000005  -0.000877   0.500958
     4  O   -0.003053  -0.000003   0.000023  -0.035722  -0.074234   0.000888
     5  O   -0.001669  -0.000224   0.000740   0.001982   0.000177   0.000115
     6  C    0.180028   0.011294  -0.002146   0.000900  -0.000386   0.000825
     7  O   -0.120462  -0.001502  -0.000408   0.006521  -0.001091  -0.000365
     8  C   -0.164285  -0.013554  -0.075471   0.000411  -0.000235  -0.000269
     9  C   -0.110300  -0.000356  -0.000124  -0.013823   0.046682  -0.032315
    10  C   -0.596774   0.000265  -0.016569   0.009439  -0.013352   0.002234
    11  C    0.013270   0.000112  -0.000123   0.004168   0.007053  -0.079459
    12  C    0.129390  -0.001933  -0.004720  -0.043298  -0.076277  -0.026443
    13  C    6.426822  -0.008243  -0.057843  -0.002404   0.030161   0.001442
    14  H   -0.008243   0.483506  -0.005560  -0.000131   0.001080   0.000015
    15  H   -0.057843  -0.005560   0.455017   0.000146  -0.000481   0.000057
    16  H   -0.002404  -0.000131   0.000146   0.480769  -0.017369   0.002917
    17  H    0.030161   0.001080  -0.000481  -0.017369   0.478051  -0.002322
    18  H    0.001442   0.000015   0.000057   0.002917  -0.002322   0.468012
    19  H   -0.000415  -0.000012  -0.000008  -0.001467   0.001922  -0.008311
    20  H    0.026024   0.000020  -0.000578  -0.000056   0.000324  -0.000049
    21  H    0.008330   0.000951  -0.002104   0.000083  -0.000194   0.000023
    22  H   -0.023853  -0.003044   0.002646  -0.000062   0.000281  -0.000013
    23  H    0.008319  -0.008318  -0.004613   0.000029  -0.000131   0.000004
    24  H    0.002160  -0.000004   0.000044  -0.002168  -0.002074   0.002257
    25  H   -0.008590  -0.000064   0.000378  -0.001400  -0.001058   0.000209
    26  H   -0.000102  -0.001277  -0.006754   0.001211   0.000647   0.001055
    27  H    0.000415  -0.000012   0.000003  -0.001419   0.001390  -0.003081
    28  H   -0.000194   0.000012  -0.000004   0.007780  -0.004064   0.002291
    29  H   -0.029668  -0.000194  -0.000521  -0.007337   0.000776  -0.015361
    30  H    0.463306  -0.005829   0.004103   0.002747  -0.013480   0.000223
    31  H    0.445255  -0.010434  -0.005077   0.001375  -0.001598   0.001678
              19         20         21         22         23         24
     1  C    0.000101   0.010094   0.000136   0.014326  -0.062054   0.001205
     2  C   -0.009037   0.000113   0.001494  -0.001124  -0.000471  -0.021974
     3  C    0.427027  -0.000659   0.000363  -0.000139   0.000080  -0.051426
     4  O    0.007118   0.000002  -0.000016   0.000002  -0.000004   0.000485
     5  O    0.000038  -0.025993  -0.077517  -0.003686   0.005367   0.000456
     6  C   -0.000257   0.494451   0.427811  -0.073177  -0.038917  -0.000370
     7  O   -0.001967   0.002794  -0.002351   0.001823  -0.000025  -0.001545
     8  C    0.000068  -0.069612  -0.043479   0.472963   0.452137  -0.000195
     9  C   -0.029491   0.000270  -0.000244  -0.000037  -0.000237   0.501488
    10  C   -0.000936  -0.054126   0.017265  -0.009913   0.005981   0.007058
    11  C   -0.034469   0.000129  -0.000117   0.000072  -0.000003  -0.018944
    12  C    0.004962  -0.001771  -0.002108   0.000371   0.001062  -0.049907
    13  C   -0.000415   0.026024   0.008330  -0.023853   0.008319   0.002160
    14  H   -0.000012   0.000020   0.000951  -0.003044  -0.008318  -0.000004
    15  H   -0.000008  -0.000578  -0.002104   0.002646  -0.004613   0.000044
    16  H   -0.001467  -0.000056   0.000083  -0.000062   0.000029  -0.002168
    17  H    0.001922   0.000324  -0.000194   0.000281  -0.000131  -0.002074
    18  H   -0.008311  -0.000049   0.000023  -0.000013   0.000004   0.002257
    19  H    0.476713   0.000020  -0.000010   0.000008  -0.000001  -0.003781
    20  H    0.000020   0.470848  -0.002353   0.001809   0.002617   0.000093
    21  H   -0.000010  -0.002353   0.463551  -0.001158  -0.011215  -0.000125
    22  H    0.000008   0.001809  -0.001158   0.465078  -0.007132   0.000149
    23  H   -0.000001   0.002617  -0.011215  -0.007132   0.472904  -0.000037
    24  H   -0.003781   0.000093  -0.000125   0.000149  -0.000037   0.441654
    25  H   -0.013789  -0.000074   0.000093  -0.000098   0.000005  -0.013075
    26  H   -0.000177  -0.005338   0.001267  -0.001661   0.001364  -0.001233
    27  H   -0.009205  -0.000001  -0.000001   0.000004  -0.000001  -0.000953
    28  H    0.002867  -0.000019   0.000006  -0.000014   0.000003  -0.003827
    29  H    0.002030   0.001246  -0.000577   0.000617  -0.000391   0.000716
    30  H   -0.000104  -0.000684   0.000035  -0.001613  -0.001126  -0.000233
    31  H   -0.000056   0.000065   0.001092  -0.001126   0.001522   0.000228
              25         26         27         28         29         30
     1  C    0.000259  -0.044113  -0.000026  -0.000243   0.018199   0.022960
     2  C    0.009931   0.015847   0.011664  -0.030559  -0.080254   0.013197
     3  C   -0.007757   0.007769  -0.044003  -0.038849  -0.009233   0.000077
     4  O   -0.002996   0.001215  -0.070114  -0.041680  -0.019819   0.001694
     5  O   -0.000421  -0.051317   0.000007   0.000026   0.000003  -0.011593
     6  C    0.001867   0.011586  -0.000078   0.000194  -0.015793   0.007691
     7  O   -0.000464  -0.031950   0.001036   0.000151  -0.003949   0.004273
     8  C   -0.001038   0.003728   0.000026  -0.000021   0.007325  -0.019337
     9  C    0.412483  -0.031611   0.004059  -0.036156   0.070466  -0.009713
    10  C    0.025898   0.394093  -0.003434   0.003394   0.007763  -0.097914
    11  C   -0.000575  -0.000255   0.434768   0.469337   0.012124  -0.000918
    12  C   -0.029718   0.016608   0.006264   0.040126   0.392877  -0.013578
    13  C   -0.008590  -0.000102   0.000415  -0.000194  -0.029668   0.463306
    14  H   -0.000064  -0.001277  -0.000012   0.000012  -0.000194  -0.005829
    15  H    0.000378  -0.006754   0.000003  -0.000004  -0.000521   0.004103
    16  H   -0.001400   0.001211  -0.001419   0.007780  -0.007337   0.002747
    17  H   -0.001058   0.000647   0.001390  -0.004064   0.000776  -0.013480
    18  H    0.000209   0.001055  -0.003081   0.002291  -0.015361   0.000223
    19  H   -0.013789  -0.000177  -0.009205   0.002867   0.002030  -0.000104
    20  H   -0.000074  -0.005338  -0.000001  -0.000019   0.001246  -0.000684
    21  H    0.000093   0.001267  -0.000001   0.000006  -0.000577   0.000035
    22  H   -0.000098  -0.001661   0.000004  -0.000014   0.000617  -0.001613
    23  H    0.000005   0.001364  -0.000001   0.000003  -0.000391  -0.001126
    24  H   -0.013075  -0.001233  -0.000953  -0.003827   0.000716  -0.000233
    25  H    0.484945  -0.004947   0.000683  -0.000187  -0.007121   0.000280
    26  H   -0.004947   0.458246  -0.000113   0.000381  -0.027095  -0.005019
    27  H    0.000683  -0.000113   0.462478  -0.004453   0.000448   0.000004
    28  H   -0.000187   0.000381  -0.004453   0.477024  -0.003752   0.000112
    29  H   -0.007121  -0.027095   0.000448  -0.003752   0.453786   0.003324
    30  H    0.000280  -0.005019   0.000004   0.000112   0.003324   0.455379
    31  H    0.001186   0.011875  -0.000124   0.000263  -0.023823  -0.017662
              31
     1  C   -0.038851
     2  C   -0.004995
     3  C    0.002251
     4  O    0.000481
     5  O    0.010033
     6  C    0.006236
     7  O   -0.004971
     8  C   -0.010759
     9  C   -0.004771
    10  C   -0.063268
    11  C   -0.001786
    12  C    0.042859
    13  C    0.445255
    14  H   -0.010434
    15  H   -0.005077
    16  H    0.001375
    17  H   -0.001598
    18  H    0.001678
    19  H   -0.000056
    20  H    0.000065
    21  H    0.001092
    22  H   -0.001126
    23  H    0.001522
    24  H    0.000228
    25  H    0.001186
    26  H    0.011875
    27  H   -0.000124
    28  H    0.000263
    29  H   -0.023823
    30  H   -0.017662
    31  H    0.502672
 Mulliken charges:
               1
     1  C   -0.464541
     2  C   -0.352113
     3  C   -0.410424
     4  O   -0.367308
     5  O   -0.412499
     6  C   -0.112386
     7  O   -0.383093
     8  C   -0.351959
     9  C   -0.238364
    10  C   -0.062023
    11  C   -0.176192
    12  C   -0.037739
    13  C   -0.182778
    14  H    0.177502
    15  H    0.185800
    16  H    0.203122
    17  H    0.220613
    18  H    0.169586
    19  H    0.190618
    20  H    0.150395
    21  H    0.221069
    22  H    0.167699
    23  H    0.183281
    24  H    0.213878
    25  H    0.155151
    26  H    0.286069
    27  H    0.213769
    28  H    0.160054
    29  H    0.273187
    30  H    0.219398
    31  H    0.160230
 Sum of Mulliken charges =  -0.00000
 Mulliken charges with hydrogens summed into heavy atoms:
               1
     1  C   -0.101238
     2  C    0.071622
     3  C   -0.050220
     4  O   -0.367308
     5  O   -0.412499
     6  C    0.259078
     7  O   -0.383093
     8  C   -0.000978
     9  C    0.130666
    10  C    0.224046
    11  C    0.197630
    12  C    0.235448
    13  C    0.196849
 Electronic spatial extent (au):  <R**2>=           3430.5908
 Charge=             -0.0000 electrons
 Dipole moment (field-independent basis, Debye):
    X=             -1.1537    Y=             -0.1900    Z=              3.3043  Tot=              3.5051
 Quadrupole moment (field-independent basis, Debye-Ang):
   XX=            -67.0703   YY=            -83.5589   ZZ=            -81.0235
   XY=             -9.1486   XZ=             -3.8707   YZ=             -3.3857
 Traceless Quadrupole moment (field-independent basis, Debye-Ang):
   XX=             10.1472   YY=             -6.3413   ZZ=             -3.8059
   XY=             -9.1486   XZ=             -3.8707   YZ=             -3.3857
 Octapole moment (field-independent basis, Debye-Ang**2):
  XXX=            -18.3941  YYY=             -3.2870  ZZZ=             -0.1070  XYY=            -12.7015
  XXY=            -32.1155  XXZ=              5.7272  XZZ=              5.2617  YZZ=              1.4752
  YYZ=              1.4497  XYZ=              2.8613
 Hexadecapole moment (field-independent basis, Debye-Ang**3):
 XXXX=          -3421.0309 YYYY=           -573.1758 ZZZZ=           -262.4723 XXXY=            -36.2398
 XXXZ=              7.5746 YYYX=            -12.5492 YYYZ=             -3.6879 ZZZX=             -4.1592
 ZZZY=             -2.2868 XXYY=           -740.7199 XXZZ=           -659.7775 YYZZ=           -138.9105
 XXYZ=              1.7058 YYXZ=              0.8070 ZZXY=              4.9172
 N-N= 8.759810373681D+02 E-N=-3.193872147891D+03  KE= 6.153582862980D+02
 D1PCM: PCM CHGder 1st derivatives, ID1Alg=3 FixD1E=F DoIter=F DoCFld=F I1PDM=0.
 Calling FoFJK, ICntrl=      2127 FMM=F ISym2X=0 I1Cent= 0 IOpClX= 0 NMat=1 NMatS=1 NMatT=0.
 ***** Axes restored to original set *****
 -------------------------------------------------------------------
 Center     Atomic                   Forces (Hartrees/Bohr)
 Number     Number              X              Y              Z
 -------------------------------------------------------------------
      1        6           0.000859424    0.002429459    0.002957390
      2        6          -0.000691808    0.005288687   -0.003362982
      3        6          -0.000993598   -0.000501628    0.003026730
      4        8           0.002917531   -0.011131241   -0.004139245
      5        8           0.002357658    0.007048140    0.010918036
      6        6          -0.001045470   -0.006756767   -0.001780049
      7        8           0.001588355    0.003033792    0.012507890
      8        6           0.002507497    0.000647261   -0.002186373
      9        6           0.001985477   -0.003909306   -0.001302267
     10        6          -0.003612584   -0.009885433   -0.004345546
     11        6          -0.004127229    0.005561908   -0.002332651
     12        6           0.002567921    0.002384114    0.000983359
     13        6          -0.002139164    0.002113035   -0.002302975
     14        1          -0.000931784   -0.002543106    0.000143013
     15        1           0.000462993    0.001633506   -0.002904307
     16        1           0.000076296    0.003367839    0.005238316
     17        1          -0.003743059   -0.004079580   -0.000078823
     18        1          -0.000645449   -0.001712282   -0.002792975
     19        1           0.001706892    0.002315486    0.000057659
     20        1           0.000070757    0.001545727   -0.005462407
     21        1          -0.002616445    0.002561818    0.002785860
     22        1           0.000197907   -0.000952586    0.003216800
     23        1          -0.002362262    0.000241002   -0.001451878
     24        1           0.000368871    0.000543767    0.003874931
     25        1          -0.001898467    0.001665301   -0.002073704
     26        1           0.000375863    0.002464066   -0.008071736
     27        1           0.003690884   -0.001507267   -0.002094203
     28        1           0.000699329    0.002766841    0.004979505
     29        1          -0.000819946   -0.002876250   -0.005771641
     30        1          -0.000016246   -0.000298761    0.004030892
     31        1           0.003209857   -0.001457544   -0.002266616
 -------------------------------------------------------------------
 Cartesian Forces:  Max     0.012507890 RMS     0.003677231

 GradGradGradGradGradGradGradGradGradGradGradGradGradGradGradGradGradGrad
 Berny optimization.
 FormGI is forming the generalized inverse of G from B-inverse, IUseBI=4.
 Internal  Forces:  Max     0.011950962 RMS     0.002169909
 Search for a local minimum.
 Step number   1 out of a maximum of  186
 All quantities printed in internal units (Hartrees-Bohrs-Radians)
 Mixed Optimization -- RFO/linear search
 Second derivative matrix not updated -- first step.
 ITU=  0
     Eigenvalues ---    0.00616   0.00647   0.00743   0.00744   0.01447
     Eigenvalues ---    0.01452   0.01484   0.02724   0.02785   0.03112
     Eigenvalues ---    0.03163   0.04167   0.04362   0.04768   0.04784
     Eigenvalues ---    0.04805   0.04968   0.05029   0.05134   0.05150
     Eigenvalues ---    0.05175   0.05631   0.05748   0.05907   0.06162
     Eigenvalues ---    0.06219   0.06400   0.06820   0.07648   0.07883
     Eigenvalues ---    0.07921   0.07931   0.07945   0.07980   0.08105
     Eigenvalues ---    0.08787   0.09393   0.09488   0.10872   0.11456
     Eigenvalues ---    0.11606   0.11711   0.11731   0.12320   0.12500
     Eigenvalues ---    0.14414   0.14614   0.16440   0.16590   0.17588
     Eigenvalues ---    0.19154   0.21352   0.21770   0.25000   0.28492
     Eigenvalues ---    0.28612   0.28667   0.28737   0.28920   0.29340
     Eigenvalues ---    0.30208   0.30341   0.35022   0.35081   0.35084
     Eigenvalues ---    0.35088   0.35132   0.35134   0.35136   0.35141
     Eigenvalues ---    0.35168   0.35252   0.35295   0.35317   0.35375
     Eigenvalues ---    0.35405   0.35502   0.35833   0.35865   0.35908
     Eigenvalues ---    0.41017   0.41412   0.42333   0.42747   0.43627
     Eigenvalues ---    0.459791000.000001000.000001000.000001000.00000
     Eigenvalues --- 1000.000001000.000001000.000001000.000001000.00000
     Eigenvalues --- 1000.000001000.000001000.000001000.000001000.00000
     Eigenvalues --- 1000.000001000.000001000.000001000.000001000.00000
     Eigenvalues --- 1000.000001000.000001000.000001000.000001000.00000
     Eigenvalues --- 1000.000001000.000001000.000001000.000001000.00000
     Eigenvalues --- 1000.000001000.000001000.000001000.000001000.00000
     Eigenvalues --- 1000.000001000.000001000.000001000.000001000.00000
     Eigenvalues --- 1000.000001000.000001000.000001000.000001000.00000
     Eigenvalues --- 1000.000001000.000001000.000001000.000001000.00000
     Eigenvalues --- 1000.000001000.000001000.000001000.000001000.00000
     Eigenvalues --- 1000.000001000.000001000.000001000.000001000.00000
     Eigenvalues --- 1000.000001000.000001000.000001000.000001000.00000
     Eigenvalues --- 1000.000001000.000001000.000001000.000001000.00000
     Eigenvalues --- 1000.000001000.000001000.000001000.000001000.00000
     Eigenvalues --- 1000.000001000.000001000.000001000.000001000.00000
     Eigenvalues --- 1000.000001000.000001000.000001000.000001000.00000
     Eigenvalues --- 1000.000001000.000001000.000001000.000001000.00000
     Eigenvalues --- 1000.000001000.000001000.000001000.000001000.00000
     Eigenvalues --- 1000.000001000.000001000.000001000.000001000.00000
 RFO step:  Lambda=-3.06748760D-03 EMin= 6.15911385D-03
 Linear search not attempted -- first point.
 Iteration  1 RMS(Cart)=  0.04478786 RMS(Int)=  0.00055957
 Iteration  2 RMS(Cart)=  0.00134273 RMS(Int)=  0.00002820
 Iteration  3 RMS(Cart)=  0.00000035 RMS(Int)=  0.00002820
 Iteration  1 RMS(Cart)=  0.00000155 RMS(Int)=  0.00000034
 Iteration  2 RMS(Cart)=  0.00000084 RMS(Int)=  0.00000038
 Variable       Old X    -DE/DX   Delta X   Delta X   Delta X     New X
                                 (Linear)    (Quad)   (Total)
    R1        2.88887  -0.00085   0.00000  -0.00375  -0.00379   2.88508
    R2        2.89365  -0.00104   0.00000  -0.00437  -0.00441   2.88924
    R3        2.05070   0.00271   0.00000   0.00759   0.00759   2.05830
    R4        2.05639   0.00327   0.00000   0.00925   0.00925   2.06564
    R5        2.66632   0.00615   0.00000   0.01437   0.01440   2.68072
    R6        2.87842  -0.00097   0.00000  -0.00296  -0.00296   2.87546
    R7        2.05532   0.00600   0.00000   0.01696   0.01696   2.07227
    R8        2.04293   0.00544   0.00000   0.01504   0.01504   2.05797
    R9        2.89249  -0.00096   0.00000  -0.00392  -0.00395   2.88854
   R10        2.87302  -0.00066   0.00000  -0.00230  -0.00230   2.87072
   R11        2.05446   0.00324   0.00000   0.00915   0.00915   2.06361
   R12        2.05199   0.00288   0.00000   0.00808   0.00808   2.06007
   R13        2.67752   0.00615   0.00000   0.01470   0.01473   2.69225
   R14        2.68339   0.00543   0.00000   0.01329   0.01334   2.69673
   R15        2.64860   0.00698   0.00000   0.01587   0.01591   2.66451
   R16        2.87213  -0.00041   0.00000  -0.00148  -0.00148   2.87065
   R17        2.05461   0.00558   0.00000   0.01575   0.01575   2.07036
   R18        2.04225   0.00460   0.00000   0.01269   0.01269   2.05495
   R19        2.64156   0.00578   0.00000   0.01248   0.01248   2.65404
   R20        2.67984   0.00419   0.00000   0.00973   0.00973   2.68957
   R21        2.05458   0.00327   0.00000   0.00922   0.00922   2.06380
   R22        2.05268   0.00277   0.00000   0.00780   0.00780   2.06048
   R23        2.87774  -0.00172   0.00000  -0.00630  -0.00633   2.87141
   R24        2.05539   0.00374   0.00000   0.01056   0.01056   2.06595
   R25        2.05163   0.00320   0.00000   0.00899   0.00899   2.06062
   R26        2.87363  -0.00176   0.00000  -0.00551  -0.00550   2.86813
   R27        2.05454   0.00837   0.00000   0.02362   0.02362   2.07816
   R28        2.04344   0.00450   0.00000   0.01244   0.01244   2.05588
   R29        2.05543   0.00564   0.00000   0.01594   0.01594   2.07137
   R30        2.04868   0.00646   0.00000   0.01803   0.01803   2.06670
   R31        2.05403   0.00383   0.00000   0.01080   0.01080   2.06483
   R32        2.05023   0.00409   0.00000   0.01146   0.01146   2.06168
    A1        1.92176   0.00176   0.00000  -0.00408  -0.00418   1.91758
    A2        1.93253  -0.00034   0.00000   0.00123   0.00128   1.93380
    A3        1.91047  -0.00080   0.00000  -0.00130  -0.00129   1.90918
    A4        1.92033  -0.00044   0.00000   0.00114   0.00117   1.92150
    A5        1.91078  -0.00077   0.00000  -0.00175  -0.00173   1.90905
    A6        1.86712   0.00053   0.00000   0.00495   0.00494   1.87206
    A7        1.93181   0.00118   0.00000   0.00638   0.00642   1.93823
    A8        1.91663   0.00113   0.00000   0.00805   0.00807   1.92470
    A9        1.86742  -0.00030   0.00000   0.00427   0.00428   1.87171
   A10        1.91544  -0.00194   0.00000  -0.01340  -0.01345   1.90199
   A11        1.93497  -0.00086   0.00000  -0.00846  -0.00851   1.92646
   A12        1.89673   0.00086   0.00000   0.00377   0.00366   1.90039
   A13        1.92663  -0.00038   0.00000  -0.00545  -0.00551   1.92112
   A14        1.92055   0.00064   0.00000   0.00165   0.00166   1.92221
   A15        1.92859  -0.00048   0.00000  -0.00055  -0.00054   1.92804
   A16        1.90414  -0.00027   0.00000  -0.00162  -0.00162   1.90252
   A17        1.90833   0.00034   0.00000   0.00128   0.00131   1.90964
   A18        1.87471   0.00018   0.00000   0.00496   0.00495   1.87965
   A19        1.98014  -0.00483   0.00000  -0.02712  -0.02704   1.95310
   A20        1.98537  -0.00533   0.00000  -0.02963  -0.02953   1.95584
   A21        1.93864   0.00116   0.00000   0.00617   0.00622   1.94486
   A22        1.90090   0.00075   0.00000   0.00390   0.00391   1.90480
   A23        1.84794  -0.00091   0.00000  -0.00137  -0.00138   1.84655
   A24        1.93157  -0.00136   0.00000  -0.00839  -0.00841   1.92316
   A25        1.95096  -0.00014   0.00000  -0.00247  -0.00248   1.94847
   A26        1.89106   0.00056   0.00000   0.00262   0.00260   1.89366
   A27        2.04284  -0.01195   0.00000  -0.04722  -0.04722   1.99562
   A28        1.92141  -0.00001   0.00000  -0.00322  -0.00330   1.91811
   A29        1.91828   0.00063   0.00000   0.00193   0.00195   1.92024
   A30        1.93797  -0.00066   0.00000  -0.00153  -0.00152   1.93645
   A31        1.90451  -0.00035   0.00000  -0.00148  -0.00146   1.90305
   A32        1.90408   0.00014   0.00000  -0.00059  -0.00057   1.90351
   A33        1.87677   0.00026   0.00000   0.00504   0.00503   1.88180
   A34        1.91869   0.00176   0.00000  -0.00326  -0.00333   1.91536
   A35        1.91572  -0.00044   0.00000   0.00176   0.00175   1.91747
   A36        1.93715  -0.00017   0.00000   0.00389   0.00390   1.94105
   A37        1.89405  -0.00114   0.00000  -0.00657  -0.00656   1.88748
   A38        1.92026  -0.00074   0.00000  -0.00319  -0.00315   1.91711
   A39        1.87705   0.00067   0.00000   0.00736   0.00732   1.88437
   A40        1.81622  -0.00084   0.00000  -0.00149  -0.00144   1.81478
   A41        1.92615   0.00204   0.00000   0.01225   0.01228   1.93843
   A42        1.90136   0.00033   0.00000   0.00433   0.00434   1.90570
   A43        1.97249  -0.00161   0.00000  -0.01074  -0.01078   1.96171
   A44        1.90889   0.00117   0.00000   0.00473   0.00466   1.91355
   A45        1.93435  -0.00100   0.00000  -0.00806  -0.00809   1.92626
   A46        1.93696   0.00136   0.00000   0.00679   0.00679   1.94375
   A47        1.94544  -0.00035   0.00000  -0.00337  -0.00337   1.94207
   A48        1.93056  -0.00128   0.00000  -0.00792  -0.00793   1.92263
   A49        1.85475  -0.00095   0.00000  -0.00264  -0.00263   1.85212
   A50        1.90166   0.00063   0.00000   0.00437   0.00440   1.90606
   A51        1.89215   0.00062   0.00000   0.00312   0.00310   1.89525
   A52        1.88548  -0.00020   0.00000  -0.00227  -0.00225   1.88323
   A53        1.92798   0.00021   0.00000  -0.00126  -0.00131   1.92667
   A54        1.89737  -0.00045   0.00000  -0.00470  -0.00469   1.89268
   A55        1.92398  -0.00025   0.00000   0.00252   0.00253   1.92650
   A56        1.91757   0.00021   0.00000   0.00347   0.00345   1.92102
   A57        1.91115   0.00048   0.00000   0.00212   0.00213   1.91327
   A58        1.92248  -0.00059   0.00000  -0.00617  -0.00620   1.91628
   A59        1.92439   0.00108   0.00000   0.00550   0.00546   1.92986
   A60        1.93184   0.00006   0.00000   0.00608   0.00605   1.93789
   A61        1.88486  -0.00066   0.00000  -0.00698  -0.00697   1.87789
   A62        1.91636  -0.00012   0.00000  -0.00547  -0.00544   1.91092
   A63        1.88292   0.00023   0.00000   0.00695   0.00689   1.88980
    D1        0.90189  -0.00017   0.00000   0.01261   0.01261   0.91450
    D2       -1.19644  -0.00014   0.00000   0.01525   0.01526  -1.18118
    D3        3.01239  -0.00044   0.00000   0.00872   0.00871   3.02110
    D4        3.02946   0.00023   0.00000   0.01213   0.01212   3.04158
    D5        0.93113   0.00027   0.00000   0.01477   0.01477   0.94590
    D6       -1.14322  -0.00004   0.00000   0.00824   0.00822  -1.13500
    D7       -1.19947   0.00019   0.00000   0.01813   0.01814  -1.18133
[...]
 ,-0.00148129,-0.00070565,-0.00000406,-0.00000145,0.00000705,0.00000299
 ,0.00000009,0.00000041,0.00000017,0.00000012,0.00000067,0.00019644,-0.
 00030516,0.00031873,-0.00018215,0.00020423,0.00015956,-0.00082989,0.00
 012077,0.00073404,-0.00076486,0.00041653,0.00024760,0.00000077,0.00000
 095,0.00000281,0.00000329,-0.00000039,0.00000054,0.00000020,-0.0000004
 5,-0.00000057,0.00000139,-0.00000092,-0.00000022,-0.01118001,0.0219515
 9,-0.01479735,0.06141750,-0.11625629,0.13193147,0.00062442,0.00049403,
 0.00061595,-0.00004035,-0.00001243,0.00027179,0.00000072,-0.00005872,0
 .00001141,-0.00034243,0.00024488,0.00006729,-0.01261371,0.00210631,0.0
 2894193,0.00343057,0.00012113,0.00381352,-0.01473892,0.00783801,-0.035
 71661,-0.00033992,-0.00004973,-0.00038750,-0.00004051,-0.00005594,-0.0
 0018467,-0.05189347,-0.01080813,0.02221373,0.00009489,0.00007803,0.000
 01229,0.00288802,-0.00080758,-0.00508318,0.00320674,-0.00395727,0.0075
 2547,0.00012135,0.00005508,-0.00000305,-0.00003831,-0.00008363,-0.0000
 9127,-0.00013719,0.00006701,0.00020404,0.00002901,0.00002404,-0.000017
 54,-0.00001282,0.00001414,0.00001115,-0.00002326,-0.00000097,0.0000160
 0,0.00046095,0.00001117,-0.00093791,-0.00004542,0.00007572,-0.00013841
 ,0.00000863,0.00005947,-0.00004056,-0.00006994,-0.00013184,-0.00002736
 ,0.00001149,-0.00004015,0.00005511,0.00010985,-0.00008838,0.00008495,0
 .06984445,0.00112140,0.00072116,0.00068265,-0.00007072,-0.00008455,-0.
 00002495,0.00006517,0.00005005,0.00005661,-0.00004107,0.00005052,0.000
 00758,0.01146851,0.00507444,-0.02552007,-0.00241734,0.00050088,-0.0020
 4801,-0.00130351,0.00592627,-0.00900023,0.00027907,-0.00011342,0.00015
 688,0.00034288,-0.00014020,-0.00011606,-0.01078565,-0.09022580,0.08794
 696,0.00003064,0.00001519,-0.00000449,0.00070417,0.00081637,0.00035356
 ,-0.00415740,-0.01182952,0.03015051,-0.00001796,0.00003817,-0.00047794
 ,-0.00030433,0.00018976,-0.00060711,-0.00002295,0.00003214,-0.00000044
 ,-0.00002308,0.00000920,0.00001126,-0.00000209,0.00000196,-0.00000616,
 0.00001899,-0.00000914,-0.00001191,-0.00047274,-0.00019111,0.00073394,
 -0.00009729,-0.00006931,0.00007869,0.00002924,-0.00003911,0.00003412,-
 0.00004961,0.00020039,0.00007919,0.00000331,-0.00002651,-0.00000110,0.
 00009462,-0.00009287,0.00005545,0.00642791,0.09386745,0.00037648,0.000
 11213,0.00037938,-0.00003224,0.00003298,0.00063414,-0.00011006,-0.0002
 0905,-0.00008452,-0.00034795,0.00025278,-0.00002052,0.01421109,-0.0046
 4896,-0.02159610,-0.00241582,0.00022336,0.00034478,-0.01359457,0.00334
 875,-0.02050179,0.00027833,-0.00025682,0.00013601,-0.00046683,0.000335
 56,0.00058562,0.01876087,0.08401488,-0.25039173,0.00006119,0.00004855,
 0.00002562,0.00335951,-0.00181808,-0.00065497,-0.00056217,0.00058761,-
 0.00048562,0.00019838,0.00005559,0.00014765,0.00033797,-0.00004939,0.0
 0007724,0.00014001,-0.00019744,0.00004127,0.00000671,0.00000434,0.0000
 0265,-0.00000434,0.00000353,0.00001283,-0.00008447,0.00001928,0.000025
 65,0.00094383,0.00007587,0.00057055,0.00024663,-0.00019645,0.00049025,
 -0.00008415,0.00007846,-0.00015188,0.00009395,0.00011017,0.00000568,0.
 00006109,0.00008779,-0.00003329,-0.00009610,0.00003216,-0.00007750,-0.
 02090196,-0.08244544,0.28831313,0.00000387,-0.00000179,0.00001759,0.00
 030700,-0.00431263,-0.00242344,-0.00698022,0.00493424,0.00421986,-0.02
 788882,0.00186766,0.01264619,-0.00013211,0.00002389,-0.00001178,0.0000
 2719,0.00000560,0.00002830,-0.00051873,0.00030701,-0.00003934,-0.00000
 989,-0.00000201,-0.00001295,0.00068919,0.00141069,-0.00138564,0.000291
 74,0.00004222,0.00013712,-0.22628857,0.08230073,0.09316186,0.00062316,
 -0.00048368,0.00032780,-0.00002831,-0.00001481,-0.00004484,-0.00000926
 ,-0.00000438,-0.00000356,-0.00000260,0.00000077,-0.00000380,0.00005017
 ,0.00014889,0.00025077,-0.00118644,0.00040785,0.00051320,0.00025600,-0
 .00056721,0.00006897,0.00015186,0.00039418,-0.00016222,-0.00000299,0.0
 0000025,-0.00000421,-0.00001004,0.00000164,-0.00000251,0.00000025,-0.0
 0000041,0.00000167,-0.00000612,-0.00000014,0.00000170,-0.00003480,0.00
 001178,0.00015200,-0.00046647,0.00010617,0.00033923,-0.00001994,-0.000
 00410,-0.00001714,0.25405001,-0.00000096,0.00001864,0.00000608,-0.0025
 0534,-0.00369174,-0.00109613,0.02170308,-0.00857963,-0.01311127,-0.031
 30036,0.00687969,0.01475982,-0.00000324,0.00000339,-0.00000228,-0.0000
 0557,-0.00000318,0.00000188,0.00010303,0.00048493,-0.00017544,-0.00000
 470,-0.00000256,-0.00000345,0.00075425,-0.00381645,0.00440388,-0.00001
 798,0.00006406,-0.00005588,0.09259082,-0.09034148,-0.05006768,-0.00074
 650,-0.00102423,0.00047762,0.00001937,-0.00001508,-0.00000430,0.000002
 77,0.00000030,0.00000122,-0.00000127,0.00000004,-0.00000101,0.00007219
 ,0.00005225,0.00019132,-0.00129662,0.00035844,0.00045989,-0.00069702,0
 .00125886,0.00013556,-0.00068938,0.00064006,-0.00027943,0.00000108,0.0
 0000028,0.00000021,0.00000006,0.00000020,0.00000017,0.00000011,0.00000
 002,-0.00000013,-0.00000141,0.00000113,0.00000122,-0.00033584,0.000085
 03,0.00005844,0.00186855,-0.00036789,-0.00054433,-0.00001117,-0.000008
 51,0.00000326,-0.08492215,0.09926514,0.00000176,-0.00000722,-0.0000000
 9,-0.00064736,0.00067355,0.00080003,-0.01562971,0.00701946,0.00792067,
 -0.00067803,0.00117751,0.00122719,-0.00002289,0.00000441,-0.00000278,0
 .00000458,0.00000214,0.00000349,-0.00012923,-0.00003988,0.00005754,-0.
 00000056,0.00000067,-0.00000085,-0.00080696,0.00255964,-0.00125549,0.0
 0004357,-0.00000641,0.00003457,0.09945079,-0.04616860,-0.10617650,0.00
 032581,0.00017454,-0.00015441,-0.00001408,0.00000055,-0.00000371,-0.00
 000234,-0.00000038,-0.00000091,0.00000006,-0.00000009,0.00000006,-0.00
 018361,0.00017979,0.00038022,0.00028801,-0.00006287,0.00022904,0.00012
 384,-0.00087152,0.00101086,0.00061550,-0.00059895,0.00039253,-0.000000
 56,-0.00000025,-0.00000030,-0.00000168,0.00000039,-0.00000037,0.000000
 35,-0.00000029,0.00000015,-0.00000039,-0.00000072,0.00000004,-0.000122
 11,0.00009419,0.00026599,-0.00076616,0.00036998,0.00037327,-0.00000124
 ,-0.00000068,-0.00000281,-0.10580352,0.04688926,0.10632276,0.00000172,
 -0.00000338,0.00000390,0.00241627,-0.00151498,-0.00442834,-0.00113281,
 -0.00085877,-0.01136756,-0.01499858,-0.01800127,-0.02167575,-0.0000510
 2,0.00000937,-0.00000651,0.00000664,0.00000155,0.00000947,-0.00030589,
 0.00022536,0.00001702,-0.00000216,-0.00000028,-0.00000353,0.00039376,-
 0.00088228,-0.00059622,0.00010552,0.00002748,0.00006318,-0.06094690,-0
 .00389136,-0.03870492,-0.00018842,-0.00001056,0.00030799,-0.00000572,-
 0.00000187,-0.00001025,-0.00000326,-0.00000095,-0.00000131,-0.00000010
 ,0.,-0.00000026,0.00042440,0.00038469,0.00070635,0.00007133,0.00004461
 ,0.00023045,0.00035053,0.00146315,-0.00121392,0.00041027,0.00006924,0.
 00023882,-0.00000110,-0.00000028,-0.00000119,-0.00000425,0.00000068,-0
 .00000088,-0.00000014,-0.00000014,0.00000070,-0.00000178,-0.00000055,0
 .00000028,0.00003896,0.00008052,0.00006838,0.00009994,0.00000754,0.000
 12380,-0.00000493,-0.00000032,-0.00000711,0.00720294,0.00538508,0.0240
 0332,0.06610421,0.00000078,-0.00000247,0.00000665,0.00376111,-0.000101
 79,-0.00198669,0.00600533,0.00577453,0.02718606,-0.01963820,-0.0177753
 6,-0.02599260,-0.00005891,0.00000961,-0.00000750,0.00000958,0.00000163
 ,0.00001313,-0.00027446,0.00026799,-0.00006359,-0.00000289,-0.00000019
 ,-0.00000454,-0.00098832,0.00127090,0.00030113,0.00012549,0.00004831,0
 .00004968,-0.00640830,-0.05875337,-0.04863324,-0.00008937,-0.00040317,
 0.00044897,-0.00000563,-0.00000291,-0.00000935,-0.00000309,-0.00000130
 ,-0.00000184,-0.00000064,0.00000014,-0.00000115,-0.00006425,0.00051499
 ,0.00089344,0.00002955,0.00000268,0.00034076,0.00271486,-0.00394771,0.
 00285423,-0.00057226,0.00107565,-0.00093066,-0.00000110,0.00000018,-0.
 00000206,-0.00000451,0.00000054,-0.00000115,-0.00000039,-0.00000013,0.
 00000065,-0.00000230,-0.00000055,0.00000054,-0.00009752,-0.00006238,-0
 .00048367,-0.00024694,-0.00004545,-0.00019711,-0.00001238,-0.00000322,
 -0.00000874,-0.00167145,-0.00134745,-0.01134582,0.01750307,0.07351257,
 0.00000250,-0.00000808,0.00000549,0.00087300,0.00109470,0.00201013,-0.
 00203724,-0.00292235,-0.01713276,-0.00369306,-0.00575522,0.00338635,-0
 .00007196,0.00001340,-0.00000294,0.00001397,0.00000521,0.00001365,-0.0
 0040581,0.00000541,-0.00001810,-0.00000241,0.00000006,-0.00000544,0.00
 048534,-0.00081348,0.00090013,0.00014020,0.00001062,0.00008693,-0.0427
 0105,-0.05086650,-0.28185628,0.00028159,-0.00012969,0.00002827,-0.0000
 1893,0.00000154,-0.00001906,-0.00000544,-0.00000225,-0.00000238,-0.000
 00035,0.00000018,-0.00000066,-0.00129471,0.00018620,0.00009331,-0.0001
 6270,0.00007510,0.00036916,-0.00130573,0.00304457,-0.00048376,0.000146
 57,0.00017903,0.00032093,-0.00000187,-0.00000020,-0.00000182,-0.000005
 94,0.00000105,-0.00000113,-0.00000063,-0.00000033,0.00000152,-0.000002
 61,-0.00000057,0.00000056,-0.00056709,0.00009481,0.00039779,0.00008638
 ,0.00019825,0.00023780,-0.00000925,-0.00000241,-0.00000810,-0.00194497
 ,-0.00204005,-0.01142627,0.05216362,0.05762560,0.30327596,-0.00002053,
 -0.00000765,-0.00005760,-0.00287054,-0.00375663,-0.01301433,0.00097645
 ,-0.00004424,-0.00062886,0.00095469,-0.00043466,0.00010042,-0.00026002
 ,-0.00008258,-0.00046432,0.00003998,-0.00000540,-0.00009831,-0.0049203
 8,0.01179054,0.03377682,-0.00001937,-0.00000086,-0.00000060,-0.0048398
 6,-0.00591325,-0.01910115,0.00056704,0.00084954,0.00526317,0.00003871,
 -0.00006363,0.00011721,-0.06962176,-0.01991448,-0.06947218,-0.00045317
 ,-0.00013014,0.00007206,0.00000879,0.00000059,-0.00000438,-0.00000922,
 -0.00000061,-0.00001343,-0.00089979,0.00226394,-0.00105830,0.00047196,
 0.00000279,0.00065656,-0.00011534,0.00005734,0.00029986,0.00005852,-0.
 00001661,0.00014449,-0.00004632,0.00000137,-0.00002113,0.00000422,-0.0
 0000008,0.00000372,0.00000518,-0.00000257,0.00000046,0.00000044,-0.000
 00770,0.00000431,-0.00229183,-0.00329583,0.00024732,0.00082804,0.00040
 464,0.00071652,-0.00086011,0.00064426,-0.00018252,-0.00006331,0.000043
 83,-0.00004749,0.00001681,-0.00000884,0.00003856,0.08354104,0.00002723
 ,0.00011168,-0.00004778,0.00817139,0.00598135,0.02686705,0.00096126,0.
 00058068,-0.00020638,-0.00196988,0.00116920,-0.00123367,0.00004171,-0.
 00004445,0.00027331,-0.00001038,-0.00001183,0.00000056,0.00307619,-0.0
 0344127,-0.01012861,-0.00000379,0.00001497,0.00001864,-0.00908077,-0.0
 0872540,-0.02476617,-0.00172009,0.00121797,-0.00164732,-0.00014783,-0.
 00022003,0.00003726,-0.01708098,-0.06817706,-0.06303457,0.00000205,-0.
 00000348,0.00049679,0.00004367,0.00000897,0.00001868,0.00000358,-0.000
 00003,0.00000059,0.00278242,-0.00342247,0.00263033,-0.00080935,0.00135
 116,-0.00077208,-0.00012504,0.00031108,0.00041016,0.00012980,-0.000015
 98,0.00036142,0.00001932,-0.00000143,0.00000824,0.00000815,-0.00000246
 ,0.00000038,0.00000141,-0.00000171,-0.00000364,0.00000731,0.00000035,-
 0.00000117,-0.00352556,-0.00318232,-0.00002654,0.00098421,0.00121541,-
 0.00000499,0.00061599,-0.00028128,0.00021764,0.00000826,0.00008086,-0.
 00003878,-0.00003575,-0.00003358,0.00000348,0.01785697,0.07561975,0.00
 000674,0.00020404,0.00013645,-0.00513793,-0.00335759,-0.01633313,-0.00
 044059,-0.00001491,0.00030331,-0.00033349,-0.00035368,0.00196768,-0.00
 017269,0.00008202,0.00075653,0.00007001,-0.00007138,0.00000523,0.00774
 497,-0.00593627,-0.01920484,-0.00006031,-0.00000400,-0.00003247,-0.000
 08616,0.00030370,0.00250163,-0.00396076,-0.00075258,-0.00075122,0.0001
 9210,0.00025026,0.00008381,-0.06066134,-0.06323762,-0.26713895,0.00034
 697,-0.00017404,0.00000287,0.00003030,0.00000299,0.00001079,0.00001314
 ,0.00000114,-0.00000764,-0.00089581,0.00213321,-0.00075075,0.00026524,
 -0.00021637,0.00082760,-0.00025467,0.00015307,-0.00001984,-0.00017255,
 0.00005073,0.00013861,0.00003010,-0.00000664,-0.00001720,0.00002185,0.
 00000484,-0.00000447,0.00000054,-0.00000054,0.00000014,-0.00001316,0.0
 0002225,0.00000905,0.00076493,0.00061941,0.00092561,-0.00012460,-0.000
 31012,0.00051330,0.00020182,0.00000977,0.00124900,-0.00002528,-0.00001
 774,0.00000748,0.00007690,-0.00005657,-0.00017652,0.06256913,0.0703622
 4,0.29480986,-0.00067522,0.00967116,-0.02943538,0.00004089,-0.00007907
 ,0.00003216,-0.00000338,-0.00001470,-0.00000529,0.00004193,0.00002919,
 -0.00001011,0.00065069,0.00100052,-0.00107350,-0.00038777,-0.00002101,
 -0.00017880,0.00109097,0.00071207,0.00079537,0.00177427,-0.00016422,-0
 .00042932,-0.00000452,0.00003745,-0.00010183,-0.00284334,-0.00361985,0
 .00974877,-0.00000015,-0.00001563,-0.00000211,-0.00014393,-0.00014419,
 0.00029087,-0.04668152,0.00045818,0.00362502,0.00145107,-0.00009312,0.
 00083424,-0.00524370,-0.00029430,-0.00248512,0.00001050,0.00001956,-0.
 00001998,0.00004140,0.00014288,0.00009641,0.00000090,0.00000147,0.0000
 0015,-0.00000393,0.00000264,0.00000381,-0.00006729,-0.00002759,0.00008
 913,0.00005515,0.00008240,0.00001761,-0.00006254,-0.00005927,0.0004203
 0,0.00010122,-0.00029502,0.00017247,-0.00002665,-0.00002142,-0.0000084
 9,0.00001294,0.00001073,0.00000543,0.00017622,-0.00208551,-0.00029308,
 0.00000284,0.00000437,-0.00000110,0.00000028,0.00000078,-0.00000056,0.
 00008885,-0.00006198,-0.00008943,0.05080004,-0.00014599,0.00114288,-0.
 00591188,-0.00006830,0.00002092,-0.00001068,0.00001658,0.00001358,0.00
 000031,-0.00005244,-0.00001075,-0.00000300,-0.00023460,0.00331774,-0.0
 0071899,-0.00017665,0.00000959,-0.00010987,0.00157328,0.00295829,-0.00
 094619,0.00037483,-0.00014463,0.00045277,0.00008347,-0.00002976,-0.000
 00849,-0.00154506,-0.01474657,0.03505155,0.00000002,0.00001827,0.00000
 759,0.00018470,0.00021197,-0.00009799,0.00063768,-0.07267862,0.0748221
 9,0.00056432,0.00031818,-0.00012152,-0.00147273,0.00079761,-0.00037321
 ,-0.00001532,-0.00000116,-0.00000598,-0.00009112,-0.00007162,-0.000024
 52,-0.00000053,-0.00000137,0.00000007,0.00000596,-0.00000248,-0.000003
 11,-0.00006524,0.00002964,0.00000234,0.00003516,0.00001233,-0.00000372
 ,0.00010727,-0.00001423,0.00019517,0.00001882,-0.00006388,0.00000659,-
 0.00000770,-0.00000169,0.00000406,0.00000314,-0.00000752,0.00000029,-0
 .00171530,-0.00570141,-0.00038828,-0.00000464,-0.00000504,-0.00000026,
 -0.00000102,-0.00000209,-0.00000204,0.00010905,-0.00001671,-0.00000331
 ,0.00261204,0.07877893,-0.00050445,0.00317016,-0.01254442,0.00009876,0
 .00020321,-0.00000811,-0.00000679,-0.00000680,-0.00000439,-0.00003722,
 -0.00008134,0.00001215,-0.00084606,0.00000460,0.00127022,-0.00003770,-
 0.00009701,0.00016044,0.00093522,-0.00046314,0.00162965,0.00071762,-0.
 00007982,0.00064228,-0.00003979,0.00000696,0.00004874,-0.00020969,-0.0
 0037669,-0.00361049,-0.00001334,0.00002188,0.00000247,-0.00020903,-0.0
 0003427,-0.00004699,0.00398060,0.07802774,-0.28460524,0.00013081,-0.00
 025467,0.00051023,-0.00257286,-0.00031501,0.00014788,0.00003383,0.0000
 0500,-0.00002015,-0.00001381,-0.00003182,-0.00002358,0.00000182,-0.000
 00100,0.00000054,0.00000190,-0.00000027,0.00000163,0.00007917,-0.00001
 655,-0.00014877,0.00000298,0.00006635,-0.00001070,-0.00021232,0.000396
 13,0.00033893,-0.00012354,-0.00010547,0.00024366,0.00001366,0.00001063
 ,-0.00000191,0.00000615,0.00000338,0.00000013,-0.00008330,0.00040702,0
 .00078155,-0.00000435,-0.00000567,0.00000016,0.00000117,-0.00000002,0.
 00000118,-0.00001860,0.00005261,0.00004138,-0.00096540,-0.08541160,0.3
 0880849,-0.01955691,0.01644017,0.01538359,-0.00091578,-0.00010272,-0.0
 0042370,0.00001013,0.00001893,-0.00000079,-0.00000805,-0.00011181,0.00
 000064,0.00133013,-0.00356684,-0.00066549,-0.00052647,-0.00063690,-0.0
 0010074,0.00102468,0.00138428,0.00063322,-0.00467161,-0.00196530,-0.00
 430686,-0.00009341,-0.00005991,-0.00012539,0.00503996,-0.00374932,-0.0
 0561938,-0.00004079,0.00001639,0.00001728,-0.00072452,-0.00061100,-0.0
 0029316,-0.16690311,0.09653241,0.09336566,0.00120329,-0.00041871,0.000
 48602,0.00141585,0.00008014,-0.00007128,-0.00000554,-0.00005347,-0.000
 00439,-0.00101329,-0.00003943,-0.00057190,-0.00000015,-0.00000210,-0.0
 0000062,0.00000855,-0.00000059,-0.00000274,0.00011205,0.00007399,-0.00
 004405,0.00016026,0.00014505,0.00008936,0.00014580,-0.00018579,0.00004
 711,-0.00117397,0.00145361,0.00077341,-0.00001976,-0.00003059,0.000023
 98,0.00001074,0.00002418,0.00000477,0.00021391,0.00062551,0.00012449,-
 0.00000762,-0.00000907,0.00000142,0.00000349,0.00000118,0.00000059,-0.
 00030915,-0.00016954,0.00009403,-0.00019621,-0.00072968,-0.00010545,0.
 18548752,-0.00337587,0.00307244,0.00401738,-0.00043685,-0.00006980,0.0
 0012060,-0.00002476,0.00000357,0.00001419,0.00014926,0.00006296,-0.000
 01605,0.00093007,-0.00995336,-0.00110843,-0.00209102,0.00020626,-0.000
 82489,-0.00001187,0.00198232,0.00102667,-0.00138024,0.00085261,-0.0005
 4017,-0.00009703,0.00003510,0.00014166,0.02400093,-0.01222267,-0.01733
 666,-0.00002303,-0.00005775,-0.00003018,-0.00046245,-0.00054972,-0.000
 44891,0.09442444,-0.12572086,-0.07168370,0.00042608,0.00032388,0.00048
 993,0.00035011,0.00015063,-0.00001260,0.00010523,0.00006674,0.00003066
 ,0.00003582,0.00026389,0.00007127,-0.00000154,-0.00000452,-0.00000160,
 0.00000760,0.00000588,-0.00000304,0.00020315,0.00000642,0.00014767,0.0
 0027118,0.00006342,0.00009616,0.00012222,-0.00014245,-0.00017353,-0.00
 033114,0.00040621,-0.00005183,0.00005568,0.00004886,-0.00001130,0.0000
 1501,0.00002306,-0.00000758,-0.00039930,0.00132201,0.00057396,0.000017
 59,0.00000991,-0.00000334,0.00000140,0.00000341,0.00000397,-0.00033909
 ,-0.00008195,0.00031369,-0.00778853,0.00586959,0.00490549,-0.10435304,
 0.13402391,-0.01043313,0.00921842,0.00708320,-0.00057126,-0.00027108,-
 0.00011652,-0.00002038,0.00000649,0.00001820,0.00022476,0.00010617,-0.
 00001380,0.00036883,-0.00043097,0.00181757,-0.00018334,-0.00021359,-0.
 00022964,-0.00029691,-0.00003602,-0.00013250,-0.00254894,-0.00064256,-
 0.00065984,-0.00004784,0.00005532,0.00013137,-0.00114978,0.00127922,-0
 .00153686,-0.00002024,-0.00007796,-0.00003884,0.00006687,-0.00021845,0
 .00013058,0.09406284,-0.07353602,-0.11861525,0.00080173,-0.00007039,0.
 00025402,0.00071194,0.00026192,0.00073782,0.00005310,0.00005885,0.0000
 2832,-0.00052007,0.00038016,-0.00036142,0.00000185,-0.00000265,-0.0000
 0499,0.00000710,0.00000544,-0.00000583,0.00008225,0.00000963,-0.000018
 84,0.00007578,0.00001765,-0.00000180,-0.00016783,0.00014151,0.00025630
 ,-0.00058575,0.00030476,0.00037721,0.00004398,0.00005056,-0.00000855,0
 .00001071,0.00002575,-0.00000547,-0.00042265,-0.00049720,0.00018585,0.
 00002329,0.00001497,-0.00000153,0.00000237,0.00000548,0.00000605,0.000
 17258,0.00015234,0.00014671,0.01896777,-0.01639827,-0.01361695,-0.0987
 0963,0.08030051,0.12419543\\0.00000023,-0.00000071,0.00000091,0.000002
 30,0.00000050,-0.00000086,-0.00000022,0.00000010,-0.00000020,-0.000001
 18,0.00000017,0.00000054,0.00014606,0.00053219,-0.00042819,-0.00000319
 ,-0.00000284,-0.00000270,-0.00002023,-0.00083366,0.00032153,0.00000083
 ,-0.00000035,0.00000023,-0.00000083,0.00000085,-0.00000036,-0.00015818
 ,-0.00037442,0.00040567,0.00000030,0.00000211,-0.00000035,0.00003619,0
 .00067627,-0.00029781,-0.00000079,-0.00000070,0.00000098,0.00000031,-0
 .00000110,0.00000077,0.00000019,-0.00000105,0.00000035,-0.00000015,0.0
 0000158,0.00000084,0.00000076,0.00000049,0.00000041,-0.00000025,0.0000
 0049,-0.00000041,-0.00000060,0.00000129,-0.00000063,-0.00000028,-0.000
 00105,-0.00000014,0.00000036,-0.00000092,0.00000015,0.00000016,-0.0000
 0084,0.00000046,-0.00000015,-0.00000171,0.00000025,-0.00000036,0.00000
 072,-0.00000032,-0.00000038,0.00000024,-0.00000080,-0.00000120,0.00000
 001,-0.00000092,0.00000004,0.00000102,-0.00000019,0.00000005,0.0000014
 3,-0.00000005,-0.00000042,0.00000033,0.00000006,0.00000039,-0.00000041
 ,0.00000055,0.00000023,-0.00000003,0.00000025\\\@


 IF AT FIRST YOU DON'T SUCCEED, TRY, TRY AGAIN.
 THEN GIVE UP;
 THERE'S NO USE BEING A DAMN FOOL ABOUT IT.

                                 -- W. C. FIELDS
 Job cpu time:       0 days 11 hours 54 minutes 40.4 seconds.
 Elapsed time:       0 days  0 hours 59 minutes 43.1 seconds.
 File lengths (MBytes):  RWF=    722 Int=      0 D2E=      0 Chk=     34 Scr=      1
 Normal termination of Gaussian 16 at Sun Mar 10 10:08:56 2019.
