 Entering Gaussian System, Link 0=g16
 Initial command:
 /sw/Projects/G16/g16/l1.exe "/nvme/pbs/tmpdir/pbs.74289[10].flm1/Gau-30410.inp" -scrdir="/nvme/pbs/tmpdir/pbs.74289[10].flm1/"
 Entering Link 1 = /sw/Projects/G16/g16/l1.exe PID=     30412.
  
 Copyright (c) 1988-2017, Gaussian, Inc.  All Rights Reserved.
  
 This is part of the Gaussian(R) 16 program.  It is based on
 the Gaussian(R) 09 system (copyright 2009, Gaussian, Inc.),
 the Gaussian(R) 03 system (copyright 2003, Gaussian, Inc.),
 the Gaussian(R) 98 system (copyright 1998, Gaussian, Inc.),
 the Gaussian(R) 94 system (copyright 1995, Gaussian, Inc.),
 the Gaussian 92(TM) system (copyright 1992, Gaussian, Inc.),
 the Gaussian 90(TM) system (copyright 1990, Gaussian, Inc.),
 the Gaussian 88(TM) system (copyright 1988, Gaussian, Inc.),
 the Gaussian 86(TM) system (copyright 1986, Carnegie Mellon
 University), and the Gaussian 82(TM) system (copyright 1983,
 Carnegie Mellon University). Gaussian is a federally registered
 trademark of Gaussian, Inc.
  
 This software contains proprietary and confidential information,
 including trade secrets, belonging to Gaussian, Inc.
  
 This software is provided under written license and may be
 used, copied, transmitted, or stored only in accord with that
 written license.
  
 The following legend is applicable only to US Government
 contracts under FAR:
  
                    RESTRICTED RIGHTS LEGEND
  
 Use, reproduction and disclosure by the US Government is
 subject to restrictions as set forth in subparagraphs (a)
 and (c) of the Commercial Computer Software - Restricted
 Rights clause in FAR 52.227-19.
  
 Gaussian, Inc.
 340 Quinnipiac St., Bldg. 40, Wallingford CT 06492
  
  
 ---------------------------------------------------------------
 Warning -- This program may not be used in any manner that
 competes with the business of Gaussian, Inc. or will provide
 assistance to any competitor of Gaussian, Inc.  The licensee
 of this program is prohibited from giving any competitor of
 Gaussian, Inc. access to this program.  By using this program,
 the user acknowledges that Gaussian, Inc. is engaged in the
 business of creating and licensing software in the field of
 computational chemistry and represents and warrants to the
 licensee that it is not a competitor of Gaussian, Inc. and that
 it will not use this program in any manner prohibited above.
 ---------------------------------------------------------------
  

 Cite this work as:
 Gaussian 16, Revision B.01,
 M. J. Frisch, G. W. Trucks, H. B. Schlegel, G. E. Scuseria, 
 M. A. Robb, J. R. Cheeseman, G. Scalmani, V. Barone, 
 G. A. Petersson, H. Nakatsuji, X. Li, M. Caricato, A. V. Marenich, 
 J. Bloino, B. G. Janesko, R. Gomperts, B. Mennucci, H. P. Hratchian, 
 J. V. Ortiz, A. F. Izmaylov, J. L. Sonnenberg, D. Williams-Young, 
 F. Ding, F. Lipparini, F. Egidi, J. Goings, B. Peng, A. Petrone, 
 T. Henderson, D. Ranasinghe, V. G. Zakrzewski, J. Gao, N. Rega, 
 G. Zheng, W. Liang, M. Hada, M. Ehara, K. Toyota, R. Fukuda, 
 J. Hasegawa, M. Ishida, T. Nakajima, Y. Honda, O. Kitao, H. Nakai, 
 T. Vreven, K. Throssell, J. A. Montgomery, Jr., J. E. Peralta, 
 F. Ogliaro, M. J. Bearpark, J. J. Heyd, E. N. Brothers, K. N. Kudin, 
 V. N. Staroverov, T. A. Keith, R. Kobayashi, J. Normand, 
 K. Raghavachari, A. P. Rendell, J. C. Burant, S. S. Iyengar, 
 J. Tomasi, M. Cossi, J. M. Millam, M. Klene, C. Adamo, R. Cammi, 
 J. W. Ochterski, R. L. Martin, K. Morokuma, O. Farkas, 
 J. B. Foresman, and D. J. Fox, Gaussian, Inc., Wallingford CT, 2016.
 
 ******************************************
 Gaussian 16:  ES64L-G16RevB.01 20-Dec-2017
                10-Mar-2019 
 ******************************************
 %mem=20gb
 %nproc=12
 Will use up to   12 processors via shared memory.
 %chk=4c1_b1_4e_4c1_PHI.inp_extract_10.chk
 ----------------------------------------------------------------------
 #M062X/6-311++G(2d,2p) opt=ModRedundant freq=noraman SCRF=(SMD,solvent
 =water)
 ----------------------------------------------------------------------
 1/18=120,19=15,26=3,38=1/1,3;
 2/9=110,12=2,17=6,18=5,40=1/2;
 3/5=4,6=6,7=1212,11=2,25=1,30=1,70=32201,71=1,72=1,74=-55/1,2,3;
 4//1;
 5/5=2,38=5,53=1/2;
 6/7=2,8=2,9=2,10=2,28=1/1;
 7//1,2,3,16;
 1/18=20,19=15,26=3/3(2);
 2/9=110/2;
 99//99;
 2/9=110/2;
 3/5=4,6=6,7=1212,11=2,25=1,30=1,70=32205,71=1,72=1,74=-55/1,2,3;
 4/5=5,16=3,69=1/1;
 5/5=2,38=5,53=1/2;
 7//1,2,3,16;
 1/18=20,19=15,26=3/3(-5);
 2/9=110/2;
 6/7=2,8=2,9=2,10=2,19=2,28=1/1;
 99/9=1/99;
 --------------------------------
 4c1_b1_4e_4c1_PHI.inp_extract_10
 --------------------------------
 Symbolic Z-matrix:
 Charge =  0 Multiplicity = 1
 C                    -3.24584   1.18988  -0.24019 
 C                     1.87212  -1.22969   0.35239 
 C                     3.06614   1.19237  -0.6118 
 O                     2.93653  -1.22318  -0.57378 
 O                    -1.61314  -1.13172   0.08784 
 C                    -2.99097  -1.2954   -0.21148 
 O                     0.01583  -0.01925   1.20666 
 C                    -3.52725  -0.10896  -0.9956 
 C                     1.86362   1.27047   0.33229 
 C                    -1.33119   0.01435   0.85276 
 C                     3.81001  -0.11901  -0.41819 
 C                     1.00977   0.01679   0.19274 
 C                    -1.75987   1.27742   0.12076 
 H                    -3.53479   2.05068  -0.83448 
 H                    -3.84306   1.21603   0.66908 
 H                     2.26557  -1.27826   1.36531 
 H                     1.29407  -2.12312   0.16234 
 H                     2.73349   1.26299  -1.64445 
 H                     3.74454   2.02098  -0.43185 
 H                    -3.54078  -1.41844   0.71874 
 H                    -3.06617  -2.21491  -0.77459 
 H                    -3.04971  -0.08102  -1.97205 
 H                    -4.59322  -0.24219  -1.15667 
 H                     2.2089    1.34039   1.36148 
 H                     1.26839   2.15422   0.12719 
 H                    -1.8628   -0.0598    1.79457 
 H                     4.59134  -0.24357  -1.15538 
 H                     4.26102  -0.16139   0.57072 
 H                     0.54818  -0.00792  -0.78485 
 H                    -1.17186   1.39655  -0.78329 
 H                    -1.56608   2.13253   0.76031 
 
 The following ModRedundant input section has been read:
 D      12       7      10       5 F                                           
 

 GradGradGradGradGradGradGradGradGradGradGradGradGradGradGradGradGradGrad
 Berny optimization.
 Initialization pass.
                           ----------------------------
                           !    Initial Parameters    !
                           ! (Angstroms and Degrees)  !
 --------------------------                            --------------------------
 ! Name  Definition              Value          Derivative Info.                !
 --------------------------------------------------------------------------------
 ! R1    R(1,8)                  1.5287         estimate D2E/DX2                !
 ! R2    R(1,13)                 1.5317         estimate D2E/DX2                !
 ! R3    R(1,14)                 1.0852         estimate D2E/DX2                !
 ! R4    R(1,15)                 1.0882         estimate D2E/DX2                !
 ! R5    R(2,4)                  1.411          estimate D2E/DX2                !
 ! R6    R(2,12)                 1.5241         estimate D2E/DX2                !
 ! R7    R(2,16)                 1.0877         estimate D2E/DX2                !
 ! R8    R(2,17)                 1.081          estimate D2E/DX2                !
 ! R9    R(3,9)                  1.5308         estimate D2E/DX2                !
 ! R10   R(3,11)                 1.5201         estimate D2E/DX2                !
 ! R11   R(3,18)                 1.0872         estimate D2E/DX2                !
 ! R12   R(3,19)                 1.0859         estimate D2E/DX2                !
 ! R13   R(4,11)                 1.4165         estimate D2E/DX2                !
 ! R14   R(5,6)                  1.4194         estimate D2E/DX2                !
 ! R15   R(5,10)                 1.4064         estimate D2E/DX2                !
 ! R16   R(6,8)                  1.5199         estimate D2E/DX2                !
 ! R17   R(6,20)                 1.0875         estimate D2E/DX2                !
 ! R18   R(6,21)                 1.0809         estimate D2E/DX2                !
 ! R19   R(7,10)                 1.3931         estimate D2E/DX2                !
 ! R20   R(7,12)                 1.4203         estimate D2E/DX2                !
 ! R21   R(8,22)                 1.0873         estimate D2E/DX2                !
 ! R22   R(8,23)                 1.0863         estimate D2E/DX2                !
 ! R23   R(9,12)                 1.5232         estimate D2E/DX2                !
 ! R24   R(9,24)                 1.0878         estimate D2E/DX2                !
 ! R25   R(9,25)                 1.0851         estimate D2E/DX2                !
 ! R26   R(10,13)                1.5215         estimate D2E/DX2                !
 ! R27   R(10,26)                1.084          estimate D2E/DX2                !
 ! R28   R(11,27)                1.0814         estimate D2E/DX2                !
 ! R29   R(11,28)                1.0877         estimate D2E/DX2                !
 ! R30   R(12,29)                1.0814         estimate D2E/DX2                !
 ! R31   R(13,30)                1.085          estimate D2E/DX2                !
 ! R32   R(13,31)                1.0853         estimate D2E/DX2                !
 ! A1    A(8,1,13)             110.097          estimate D2E/DX2                !
 ! A2    A(8,1,14)             110.752          estimate D2E/DX2                !
 ! A3    A(8,1,15)             109.4089         estimate D2E/DX2                !
 ! A4    A(13,1,14)            110.0007         estimate D2E/DX2                !
 ! A5    A(13,1,15)            109.5219         estimate D2E/DX2                !
 ! A6    A(14,1,15)            107.0015         estimate D2E/DX2                !
 ! A7    A(4,2,12)             110.751          estimate D2E/DX2                !
 ! A8    A(4,2,16)             109.7916         estimate D2E/DX2                !
 ! A9    A(4,2,17)             106.9667         estimate D2E/DX2                !
 ! A10   A(12,2,16)            109.7995         estimate D2E/DX2                !
 ! A11   A(12,2,17)            110.7919         estimate D2E/DX2                !
 ! A12   A(16,2,17)            108.678          estimate D2E/DX2                !
 ! A13   A(9,3,11)             110.4798         estimate D2E/DX2                !
 ! A14   A(9,3,18)             110.0051         estimate D2E/DX2                !
 ! A15   A(9,3,19)             110.464          estimate D2E/DX2                !
 ! A16   A(11,3,18)            109.0715         estimate D2E/DX2                !
 ! A17   A(11,3,19)            109.3583         estimate D2E/DX2                !
 ! A18   A(18,3,19)            107.397          estimate D2E/DX2                !
 ! A19   A(2,4,11)             113.3717         estimate D2E/DX2                !
 ! A20   A(6,5,10)             113.7816         estimate D2E/DX2                !
 ! A21   A(5,6,8)              111.1782         estimate D2E/DX2                !
 ! A22   A(5,6,20)             108.8695         estimate D2E/DX2                !
 ! A23   A(5,6,21)             105.9918         estimate D2E/DX2                !
 ! A24   A(8,6,20)             110.5615         estimate D2E/DX2                !
 ! A25   A(8,6,21)             111.762          estimate D2E/DX2                !
 ! A26   A(20,6,21)            108.3126         estimate D2E/DX2                !
 ! A27   A(10,7,12)            119.6493         estimate D2E/DX2                !
 ! A28   A(1,8,6)              110.0809         estimate D2E/DX2                !
 ! A29   A(1,8,22)             109.9439         estimate D2E/DX2                !
 ! A30   A(1,8,23)             110.9855         estimate D2E/DX2                !
 ! A31   A(6,8,22)             109.171          estimate D2E/DX2                !
 ! A32   A(6,8,23)             109.0869         estimate D2E/DX2                !
 ! A33   A(22,8,23)            107.5159         estimate D2E/DX2                !
 ! A34   A(3,9,12)             109.9894         estimate D2E/DX2                !
 ! A35   A(3,9,24)             109.7202         estimate D2E/DX2                !
 ! A36   A(3,9,25)             110.8484         estimate D2E/DX2                !
 ! A37   A(12,9,24)            108.5113         estimate D2E/DX2                !
 ! A38   A(12,9,25)            110.2134         estimate D2E/DX2                !
 ! A39   A(24,9,25)            107.4936         estimate D2E/DX2                !
 ! A40   A(5,10,7)             108.2005         estimate D2E/DX2                !
 ! A41   A(5,10,13)            110.9971         estimate D2E/DX2                !
 ! A42   A(5,10,26)            108.5701         estimate D2E/DX2                !
 ! A43   A(7,10,13)            114.4979         estimate D2E/DX2                !
 ! A44   A(7,10,26)            104.5853         estimate D2E/DX2                !
 ! A45   A(13,10,26)           109.67           estimate D2E/DX2                !
 ! A46   A(3,11,4)             110.9007         estimate D2E/DX2                !
 ! A47   A(3,11,27)            111.4765         estimate D2E/DX2                !
 ! A48   A(3,11,28)            110.6298         estimate D2E/DX2                !
 ! A49   A(4,11,27)            106.3124         estimate D2E/DX2                !
 ! A50   A(4,11,28)            108.9769         estimate D2E/DX2                !
 ! A51   A(27,11,28)           108.4026         estimate D2E/DX2                !
 ! A52   A(2,12,7)             107.4835         estimate D2E/DX2                !
 ! A53   A(2,12,9)             110.2648         estimate D2E/DX2                !
 ! A54   A(2,12,29)            108.5134         estimate D2E/DX2                !
 ! A55   A(7,12,9)             110.3509         estimate D2E/DX2                !
 ! A56   A(7,12,29)            110.2467         estimate D2E/DX2                !
 ! A57   A(9,12,29)            109.9321         estimate D2E/DX2                !
 ! A58   A(1,13,10)            109.8322         estimate D2E/DX2                !
 ! A59   A(1,13,30)            109.6144         estimate D2E/DX2                !
 ! A60   A(1,13,31)            110.9249         estimate D2E/DX2                !
 ! A61   A(10,13,30)           109.8357         estimate D2E/DX2                !
 ! A62   A(10,13,31)           108.6794         estimate D2E/DX2                !
 ! A63   A(30,13,31)           107.9227         estimate D2E/DX2                !
 ! D1    D(13,1,8,6)            52.4752         estimate D2E/DX2                !
 ! D2    D(13,1,8,22)          -67.8298         estimate D2E/DX2                !
 ! D3    D(13,1,8,23)          173.3474         estimate D2E/DX2                !
 ! D4    D(14,1,8,6)           174.3532         estimate D2E/DX2                !
 ! D5    D(14,1,8,22)           54.0482         estimate D2E/DX2                !
 ! D6    D(14,1,8,23)          -64.7745         estimate D2E/DX2                !
 ! D7    D(15,1,8,6)           -67.9351         estimate D2E/DX2                !
 ! D8    D(15,1,8,22)          171.7599         estimate D2E/DX2                !
 ! D9    D(15,1,8,23)           52.9372         estimate D2E/DX2                !
 ! D10   D(8,1,13,10)          -52.9473         estimate D2E/DX2                !
 ! D11   D(8,1,13,30)           67.8142         estimate D2E/DX2                !
 ! D12   D(8,1,13,31)         -173.1066         estimate D2E/DX2                !
 ! D13   D(14,1,13,10)        -175.2701         estimate D2E/DX2                !
 ! D14   D(14,1,13,30)         -54.5086         estimate D2E/DX2                !
 ! D15   D(14,1,13,31)          64.5705         estimate D2E/DX2                !
 ! D16   D(15,1,13,10)          67.3948         estimate D2E/DX2                !
 ! D17   D(15,1,13,30)        -171.8437         estimate D2E/DX2                !
 ! D18   D(15,1,13,31)         -52.7645         estimate D2E/DX2                !
 ! D19   D(12,2,4,11)           60.885          estimate D2E/DX2                !
 ! D20   D(16,2,4,11)          -60.5354         estimate D2E/DX2                !
 ! D21   D(17,2,4,11)         -178.2866         estimate D2E/DX2                !
 ! D22   D(4,2,12,7)          -176.431          estimate D2E/DX2                !
 ! D23   D(4,2,12,9)           -56.102          estimate D2E/DX2                !
 ! D24   D(4,2,12,29)           64.3533         estimate D2E/DX2                !
 ! D25   D(16,2,12,7)          -55.0153         estimate D2E/DX2                !
 ! D26   D(16,2,12,9)           65.3137         estimate D2E/DX2                !
 ! D27   D(16,2,12,29)        -174.231          estimate D2E/DX2                !
 ! D28   D(17,2,12,7)           65.0362         estimate D2E/DX2                !
 ! D29   D(17,2,12,9)         -174.6347         estimate D2E/DX2                !
 ! D30   D(17,2,12,29)         -54.1795         estimate D2E/DX2                !
 ! D31   D(11,3,9,12)          -51.862          estimate D2E/DX2                !
 ! D32   D(11,3,9,24)           67.4315         estimate D2E/DX2                !
 ! D33   D(11,3,9,25)         -174.0            estimate D2E/DX2                !
 ! D34   D(18,3,9,12)           68.6131         estimate D2E/DX2                !
 ! D35   D(18,3,9,24)         -172.0933         estimate D2E/DX2                !
 ! D36   D(18,3,9,25)          -53.5248         estimate D2E/DX2                !
 ! D37   D(19,3,9,12)         -172.9962         estimate D2E/DX2                !
 ! D38   D(19,3,9,24)          -53.7027         estimate D2E/DX2                !
 ! D39   D(19,3,9,25)           64.8659         estimate D2E/DX2                !
 ! D40   D(9,3,11,4)            55.0203         estimate D2E/DX2                !
 ! D41   D(9,3,11,27)          173.2713         estimate D2E/DX2                !
 ! D42   D(9,3,11,28)          -66.0245         estimate D2E/DX2                !
 ! D43   D(18,3,11,4)          -66.0117         estimate D2E/DX2                !
 ! D44   D(18,3,11,27)          52.2394         estimate D2E/DX2                !
 ! D45   D(18,3,11,28)         172.9436         estimate D2E/DX2                !
 ! D46   D(19,3,11,4)          176.809          estimate D2E/DX2                !
 ! D47   D(19,3,11,27)         -64.94           estimate D2E/DX2                !
 ! D48   D(19,3,11,28)          55.7643         estimate D2E/DX2                !
 ! D49   D(2,4,11,3)           -60.4365         estimate D2E/DX2                !
 ! D50   D(2,4,11,27)          178.2243         estimate D2E/DX2                !
 ! D51   D(2,4,11,28)           61.5784         estimate D2E/DX2                !
 ! D52   D(10,5,6,8)            59.704          estimate D2E/DX2                !
 ! D53   D(10,5,6,20)          -62.3327         estimate D2E/DX2                !
 ! D54   D(10,5,6,21)         -178.6515         estimate D2E/DX2                !
 ! D55   D(6,5,10,7)           173.3101         estimate D2E/DX2                !
 ! D56   D(6,5,10,13)          -60.2672         estimate D2E/DX2                !
 ! D57   D(6,5,10,26)           60.3492         estimate D2E/DX2                !
 ! D58   D(5,6,8,1)            -54.7925         estimate D2E/DX2                !
 ! D59   D(5,6,8,22)            65.9779         estimate D2E/DX2                !
 ! D60   D(5,6,8,23)          -176.7974         estimate D2E/DX2                !
 ! D61   D(20,6,8,1)            66.2563         estimate D2E/DX2                !
 ! D62   D(20,6,8,22)         -172.9733         estimate D2E/DX2                !
 ! D63   D(20,6,8,23)          -55.7486         estimate D2E/DX2                !
 ! D64   D(21,6,8,1)          -173.0083         estimate D2E/DX2                !
 ! D65   D(21,6,8,22)          -52.2379         estimate D2E/DX2                !
 ! D66   D(21,6,8,23)           64.9868         estimate D2E/DX2                !
 ! D67   D(12,7,10,5)           62.4544         Frozen                          !
 ! D68   D(12,7,10,13)         -61.9016         estimate D2E/DX2                !
 ! D69   D(12,7,10,26)         178.046          estimate D2E/DX2                !
 ! D70   D(10,7,12,2)         -122.4523         estimate D2E/DX2                !
 ! D71   D(10,7,12,9)          117.2732         estimate D2E/DX2                !
 ! D72   D(10,7,12,29)          -4.3523         estimate D2E/DX2                !
 ! D73   D(3,9,12,2)            52.2281         estimate D2E/DX2                !
 ! D74   D(3,9,12,7)           170.8172         estimate D2E/DX2                !
 ! D75   D(3,9,12,29)          -67.3712         estimate D2E/DX2                !
 ! D76   D(24,9,12,2)          -67.8011         estimate D2E/DX2                !
 ! D77   D(24,9,12,7)           50.7879         estimate D2E/DX2                !
 ! D78   D(24,9,12,29)         172.5995         estimate D2E/DX2                !
 ! D79   D(25,9,12,2)          174.7419         estimate D2E/DX2                !
 ! D80   D(25,9,12,7)          -66.6691         estimate D2E/DX2                !
 ! D81   D(25,9,12,29)          55.1425         estimate D2E/DX2                !
 ! D82   D(5,10,13,1)           56.0236         estimate D2E/DX2                !
 ! D83   D(5,10,13,30)         -64.6042         estimate D2E/DX2                !
 ! D84   D(5,10,13,31)         177.5374         estimate D2E/DX2                !
 ! D85   D(7,10,13,1)          178.881          estimate D2E/DX2                !
 ! D86   D(7,10,13,30)          58.2532         estimate D2E/DX2                !
 ! D87   D(7,10,13,31)         -59.6052         estimate D2E/DX2                !
 ! D88   D(26,10,13,1)         -63.94           estimate D2E/DX2                !
 ! D89   D(26,10,13,30)        175.4322         estimate D2E/DX2                !
 ! D90   D(26,10,13,31)         57.5738         estimate D2E/DX2                !
 --------------------------------------------------------------------------------
 Trust Radius=3.00D-01 FncErr=1.00D-07 GrdErr=1.00D-06 EigMax=2.50D+02 EigMin=1.00D-04
 Number of steps in this run=    186 maximum allowed number of steps=    186.
 GradGradGradGradGradGradGradGradGradGradGradGradGradGradGradGradGradGrad

                          Input orientation:                          
 ---------------------------------------------------------------------
 Center     Atomic      Atomic             Coordinates (Angstroms)
 Number     Number       Type             X           Y           Z
 ---------------------------------------------------------------------
      1          6           0       -3.245837    1.189878   -0.240186
      2          6           0        1.872121   -1.229690    0.352394
      3          6           0        3.066140    1.192373   -0.611799
      4          8           0        2.936532   -1.223179   -0.573780
      5          8           0       -1.613144   -1.131718    0.087837
      6          6           0       -2.990969   -1.295400   -0.211480
      7          8           0        0.015825   -0.019246    1.206659
      8          6           0       -3.527249   -0.108957   -0.995603
      9          6           0        1.863620    1.270470    0.332286
     10          6           0       -1.331187    0.014354    0.852764
     11          6           0        3.810007   -0.119012   -0.418187
     12          6           0        1.009769    0.016794    0.192743
     13          6           0       -1.759867    1.277424    0.120760
     14          1           0       -3.534787    2.050680   -0.834477
     15          1           0       -3.843063    1.216033    0.669084
     16          1           0        2.265566   -1.278263    1.365309
     17          1           0        1.294069   -2.123117    0.162336
     18          1           0        2.733485    1.262987   -1.644454
     19          1           0        3.744537    2.020978   -0.431847
     20          1           0       -3.540777   -1.418440    0.718740
     21          1           0       -3.066172   -2.214911   -0.774592
     22          1           0       -3.049711   -0.081024   -1.972053
     23          1           0       -4.593217   -0.242186   -1.156673
     24          1           0        2.208895    1.340386    1.361477
     25          1           0        1.268389    2.154220    0.127189
     26          1           0       -1.862801   -0.059797    1.794571
     27          1           0        4.591338   -0.243573   -1.155377
     28          1           0        4.261023   -0.161394    0.570719
     29          1           0        0.548175   -0.007923   -0.784853
     30          1           0       -1.171861    1.396553   -0.783285
     31          1           0       -1.566076    2.132535    0.760307
 ---------------------------------------------------------------------
                    Distance matrix (angstroms):
                    1          2          3          4          5
     1  C    0.000000
     2  C    5.692008   0.000000
     3  C    6.322907   2.867357   0.000000
     4  O    6.644984   1.410961   2.419325   0.000000
     5  O    2.857113   3.496664   5.271299   4.598440   0.000000
     6  C    2.498477   4.896112   6.560323   5.939002   1.419431
     7  O    3.767463   2.375032   3.752230   3.626286   2.267796
     8  C    1.528666   5.676824   6.731534   6.572662   2.425630
     9  C    5.142059   2.500255   1.530833   2.861884   4.232984
    10  C    2.498456   3.472636   4.782171   4.666898   1.406447
    11  C    7.178427   2.362796   1.520051   1.416458   5.540054
    12  C    4.435509   1.524094   2.501587   2.416093   2.865267
    13  C    1.531683   4.419345   4.882030   5.365777   2.413830
    14  H    1.085198   6.434605   6.660219   7.257002   3.830278
    15  H    1.088180   6.224563   7.026970   7.311455   3.289730
    16  H    6.248592   1.087729   3.264034   2.052631   4.086294
    17  H    5.634599   1.080962   3.838228   2.012322   3.072509
    18  H    6.142443   3.307989   1.087208   2.714515   5.256294
    19  H    7.042215   3.832469   1.085906   3.346277   6.238133
    20  H    2.794611   5.428563   7.227588   6.607894   2.048418
    21  H    3.451153   5.160184   7.017217   6.087390   2.007083
    22  H    2.157086   5.562995   6.393392   6.252583   2.722284
    23  H    2.169375   6.712156   7.811568   7.615723   3.349762
    24  H    5.687010   2.781538   2.156524   3.293409   4.726673
    25  H    4.630676   3.444714   2.168677   3.831564   4.370603
    26  H    2.759477   4.171111   5.626100   5.476873   2.030833
    27  H    8.019580   3.261892   2.164173   2.009046   6.389834
    28  H    7.670492   2.625981   2.158421   2.047326   5.973319
    29  H    4.015709   2.130464   2.794782   2.688057   2.587625
    30  H    2.153845   4.177648   4.246381   4.877067   2.710302
    31  H    2.170527   4.826194   4.921789   5.771835   3.333134
                    6          7          8          9         10
     6  C    0.000000
     7  O    3.560969   0.000000
     8  C    1.519899   4.172694   0.000000
     9  C    5.517826   2.417073   5.720802   0.000000
    10  C    2.367055   1.393130   2.873039   3.472105   0.000000
    11  C    6.905063   4.128667   7.359948   2.506450   5.297639
    12  C    4.229794   1.420299   4.691749   1.523233   2.432223
    13  C    2.871484   2.452267   2.508378   3.629662   1.521493
    14  H    3.446754   4.588864   2.165652   5.577890   3.442275
    15  H    2.794415   4.087287   2.150935   5.716872   2.790572
    16  H    5.487961   2.582950   6.363795   2.779341   3.856189
    17  H    4.380229   2.674096   5.351894   3.445244   3.455060
    18  H    6.431806   4.142299   6.442052   2.159681   4.931201
    19  H    7.510923   4.555273   7.598244   2.164488   5.607115
    20  H    1.087537   3.852950   2.157290   6.048726   2.636882
    21  H    1.080857   4.271417   2.167136   6.138070   3.260074
    22  H    2.139574   4.416507   1.087326   5.592614   3.307871
    23  H    2.137720   5.184429   1.086269   6.796754   3.839855
    24  H    6.038224   2.584980   6.368655   1.087813   3.814358
    25  H    5.491512   2.730957   5.420404   1.085071   3.444311
    26  H    2.612225   1.968888   3.249288   4.218305   1.084026
    27  H    7.712889   5.154111   8.121275   3.456286   6.259030
    28  H    7.381680   4.294919   7.944388   2.802611   5.602075
    29  H    3.809448   2.061467   4.082120   2.147716   2.492847
    30  H    3.298898   2.715688   2.803479   3.236439   2.147677
    31  H    3.837373   2.707730   3.457413   3.562187   2.133169
                   11         12         13         14         15
    11  C    0.000000
    12  C    2.869322   0.000000
    13  C    5.767495   3.043888   0.000000
    14  H    7.669867   5.083784   2.158876   0.000000
    15  H    7.844360   5.021459   2.155025   1.747102   0.000000
    16  H    2.628691   2.151537   4.927936   7.040243   6.634877
    17  H    3.268545   2.158928   4.570769   6.460036   6.147914
    18  H    2.138353   2.810603   4.827670   6.369282   6.971775
    19  H    2.141035   3.447582   5.581820   7.290511   7.709193
    20  H    7.550837   4.800421   3.285864   3.800962   2.652224
    21  H    7.197337   4.746529   3.834644   4.291672   3.802517
    22  H    7.033610   4.601661   2.808727   2.464455   3.047518
    23  H    8.436510   5.769007   3.459613   2.545843   2.454083
    24  H    2.803677   2.134418   4.158655   6.190042   6.092706
    25  H    3.453236   2.154013   3.152641   4.899594   5.225015
    26  H    6.089381   3.289890   2.144854   3.763183   2.610728
    27  H    1.081408   3.835734   6.654304   8.449881   8.752041
    28  H    1.087725   3.277998   6.206753   8.224506   8.220900
    29  H    3.284255   1.081376   2.792724   4.572842   4.784869
    30  H    5.220081   2.759687   1.085007   2.452330   3.045863
    31  H    5.946476   3.381341   1.085260   2.534928   2.456210
                   16         17         18         19         20
    16  H    0.000000
    17  H    1.762024   0.000000
    18  H    3.966809   4.099038   0.000000
    19  H    4.037588   4.850914   1.751340   0.000000
    20  H    5.843913   4.917509   7.220879   8.138135   0.000000
    21  H    5.820989   4.460713   6.818244   8.027826   1.757742
    22  H    6.389330   5.253017   5.946347   7.276844   3.044699
    23  H    7.380837   6.319638   7.495601   8.669800   2.451199
    24  H    2.619265   3.777658   3.052344   2.457115   6.409599
    25  H    3.782756   4.277558   2.465669   2.541965   6.020125
    26  H    4.325776   4.109417   5.890882   6.381912   2.412245
    27  H    3.582409   4.017591   2.441421   2.523640   8.427569
    28  H    2.420871   3.580216   3.044540   2.456551   7.903807
    29  H    3.030906   2.434660   2.670151   3.802339   4.579288
    30  H    4.856645   4.400351   4.001397   4.968338   3.973918
    31  H    5.165370   5.162226   5.002521   5.443922   4.063323
                   21         22         23         24         25
    21  H    0.000000
    22  H    2.446969   0.000000
    23  H    2.523786   1.753063   0.000000
    24  H    6.710384   6.386373   7.423903   0.000000
    25  H    6.220204   5.296142   6.461384   1.752240   0.000000
    26  H    3.562754   3.949261   4.024708   4.327446   4.181672
    27  H    7.916352   7.686287   9.184555   3.810448   4.293760
    28  H    7.727521   7.740735   9.021528   2.663057   3.809809
    29  H    4.234903   3.789402   5.160140   3.030291   2.454667
    30  H    4.078132   2.668843   3.811897   4.004082   2.712534
    31  H    4.848349   3.816649   4.298569   3.903756   2.904393
                   26         27         28         29         30
    26  H    0.000000
    27  H    7.098724   0.000000
    28  H    6.245747   1.759338   0.000000
    29  H    3.531136   4.066938   3.955549   0.000000
    30  H    3.040345   6.003576   5.811777   2.220603   0.000000
    31  H    2.442144   6.872371   6.265232   3.382179   1.754922
                   31
    31  H    0.000000
 Stoichiometry    C10H18O3
 Framework group  C1[X(C10H18O3)]
 Deg. of freedom    87
 Full point group                 C1      NOp   1
 Largest Abelian subgroup         C1      NOp   1
 Largest concise Abelian subgroup C1      NOp   1
                         Standard orientation:                         
 ---------------------------------------------------------------------
 Center     Atomic      Atomic             Coordinates (Angstroms)
 Number     Number       Type             X           Y           Z
 ---------------------------------------------------------------------
      1          6           0       -3.245837    1.189878   -0.240186
      2          6           0        1.872121   -1.229690    0.352394
      3          6           0        3.066140    1.192373   -0.611799
      4          8           0        2.936532   -1.223179   -0.573780
      5          8           0       -1.613144   -1.131718    0.087837
      6          6           0       -2.990969   -1.295400   -0.211480
      7          8           0        0.015825   -0.019246    1.206659
      8          6           0       -3.527249   -0.108957   -0.995603
      9          6           0        1.863620    1.270470    0.332286
     10          6           0       -1.331187    0.014354    0.852764
     11          6           0        3.810007   -0.119012   -0.418187
     12          6           0        1.009769    0.016794    0.192743
     13          6           0       -1.759867    1.277424    0.120760
     14          1           0       -3.534787    2.050680   -0.834477
     15          1           0       -3.843063    1.216033    0.669084
     16          1           0        2.265566   -1.278263    1.365309
     17          1           0        1.294069   -2.123117    0.162336
     18          1           0        2.733485    1.262987   -1.644454
     19          1           0        3.744537    2.020978   -0.431847
     20          1           0       -3.540777   -1.418440    0.718740
     21          1           0       -3.066172   -2.214911   -0.774592
     22          1           0       -3.049711   -0.081024   -1.972053
     23          1           0       -4.593217   -0.242186   -1.156673
     24          1           0        2.208895    1.340386    1.361477
     25          1           0        1.268389    2.154220    0.127189
     26          1           0       -1.862801   -0.059797    1.794571
     27          1           0        4.591338   -0.243573   -1.155377
     28          1           0        4.261023   -0.161394    0.570719
     29          1           0        0.548175   -0.007923   -0.784853
     30          1           0       -1.171861    1.396553   -0.783285
     31          1           0       -1.566076    2.132535    0.760307
 ---------------------------------------------------------------------
 Rotational constants (GHZ):           1.8368922           0.4049579           0.3715520
 Standard basis: 6-311++G(2d,2p) (5D, 7F)
 There are   557 symmetry adapted cartesian basis functions of A   symmetry.
 There are   531 symmetry adapted basis functions of A   symmetry.
   531 basis functions,   762 primitive gaussians,   557 cartesian basis functions
    51 alpha electrons       51 beta electrons
       nuclear repulsion energy       888.3050661691 Hartrees.
 NAtoms=   31 NActive=   31 NUniq=   31 SFac= 1.00D+00 NAtFMM=   60 NAOKFM=F Big=F
 Integral buffers will be    131072 words long.
 Raffenetti 2 integral format.
 Two-electron integral symmetry is turned on.
 ------------------------------------------------------------------------------
 Polarizable Continuum Model (PCM)
 =================================
 Model                : PCM.
 Atomic radii         : SMD-Coulomb.
 Polarization charges : Total charges.
 Charge compensation  : None.
 Solution method      : On-the-fly selection.
 Cavity type          : VdW (van der Waals Surface) (Alpha=1.000).
 Cavity algorithm     : GePol (No added spheres)
                        Default sphere list used, NSphG=   31.
                        Lebedev-Laikov grids with approx.  5.0 points / Ang**2.
                        Smoothing algorithm: York/Karplus (Gamma=1.0000).
                        Polarization charges: spherical gaussians, with
                                              point-specific exponents (IZeta= 3).
                        Self-potential: point-specific (ISelfS= 7).
                        Self-field    : sphere-specific E.n sum rule (ISelfD= 2).
 1st derivatives      : Analytical E(r).r(x)/FMM algorithm (CHGder, D1EAlg=3).
                        Cavity 1st derivative terms included.
 Solvent              : Water, Eps=  78.355300 Eps(inf)=   1.777849
 ------------------------------------------------------------------------------
 ------------------------------------------------------------------------------
 Atomic radii for non-electrostatic terms: SMD-CDS.
 ------------------------------------------------------------------------------
 Nuclear repulsion after PCM non-electrostatic terms =      888.3114459662 Hartrees.
 One-electron integrals computed using PRISM.
 NBasis=   531 RedAO= T EigKep=  5.54D-06  NBF=   531
 NBsUse=   531 1.00D-06 EigRej= -1.00D+00 NBFU=   531
 ExpMin= 3.60D-02 ExpMax= 8.59D+03 ExpMxC= 1.30D+03 IAcc=3 IRadAn=         5 AccDes= 0.00D+00
 Harris functional with IExCor= 1009 and IRadAn=       5 diagonalized for initial guess.
 HarFok:  IExCor= 1009 AccDes= 0.00D+00 IRadAn=         5 IDoV= 1 UseB2=F ITyADJ=14
 ICtDFT=  3500011 ScaDFX=  1.000000  1.000000  1.000000  1.000000
 FoFCou: FMM=F IPFlag=           0 FMFlag=      100000 FMFlg1=           0
         NFxFlg=           0 DoJE=T BraDBF=F KetDBF=T FulRan=T
         wScrn=  0.000000 ICntrl=       500 IOpCl=  0 I1Cent=   200000004 NGrid=           0
         NMat0=    1 NMatS0=      1 NMatT0=    0 NMatD0=    1 NMtDS0=    0 NMtDT0=    0
 Petite list used in FoFCou.
 Requested convergence on RMS density matrix=1.00D-08 within 128 cycles.
 Requested convergence on MAX density matrix=1.00D-06.
 Requested convergence on             energy=1.00D-06.
 No special actions if energy rises.
 Inv3:  Mode=1 IEnd=    12144432.
 Iteration    1 A*A^-1 deviation from unit magnitude is 6.22D-15 for    558.
 Iteration    1 A*A^-1 deviation from orthogonality  is 3.52D-15 for   1824    744.
 Iteration    1 A^-1*A deviation from unit magnitude is 6.66D-15 for    558.
 Iteration    1 A^-1*A deviation from orthogonality  is 1.18D-14 for   1620   1619.
 Error on total polarization charges =  0.06255
 SCF Done:  E(RM062X) =  -617.503873584     A.U. after   12 cycles
            NFock= 12  Conv=0.52D-08     -V/T= 2.0035
 SMD-CDS (non-electrostatic) energy       (kcal/mol) =       4.00
 (included in total energy above)

 **********************************************************************

            Population analysis using the SCF Density.

 **********************************************************************

 Orbital symmetries:
       Occupied  (A) (A) (A) (A) (A) (A) (A) (A) (A) (A) (A) (A)
                 (A) (A) (A) (A) (A) (A) (A) (A) (A) (A) (A) (A)
                 (A) (A) (A) (A) (A) (A) (A) (A) (A) (A) (A) (A)
                 (A) (A) (A) (A) (A) (A) (A) (A) (A) (A) (A) (A)
                 (A) (A) (A)
       Virtual   (A) (A) (A) (A) (A) (A) (A) (A) (A) (A) (A) (A)
                 (A) (A) (A) (A) (A) (A) (A) (A) (A) (A) (A) (A)
                 (A) (A) (A) (A) (A) (A) (A) (A) (A) (A) (A) (A)
                 (A) (A) (A) (A) (A) (A) (A) (A) (A) (A) (A) (A)
                 (A) (A) (A) (A) (A) (A) (A) (A) (A) (A) (A) (A)
                 (A) (A) (A) (A) (A) (A) (A) (A) (A) (A) (A) (A)
                 (A) (A) (A) (A) (A) (A) (A) (A) (A) (A) (A) (A)
                 (A) (A) (A) (A) (A) (A) (A) (A) (A) (A) (A) (A)
                 (A) (A) (A) (A) (A) (A) (A) (A) (A) (A) (A) (A)
                 (A) (A) (A) (A) (A) (A) (A) (A) (A) (A) (A) (A)
                 (A) (A) (A) (A) (A) (A) (A) (A) (A) (A) (A) (A)
                 (A) (A) (A) (A) (A) (A) (A) (A) (A) (A) (A) (A)
                 (A) (A) (A) (A) (A) (A) (A) (A) (A) (A) (A) (A)
                 (A) (A) (A) (A) (A) (A) (A) (A) (A) (A) (A) (A)
                 (A) (A) (A) (A) (A) (A) (A) (A) (A) (A) (A) (A)
                 (A) (A) (A) (A) (A) (A) (A) (A) (A) (A) (A) (A)
                 (A) (A) (A) (A) (A) (A) (A) (A) (A) (A) (A) (A)
                 (A) (A) (A) (A) (A) (A) (A) (A) (A) (A) (A) (A)
                 (A) (A) (A) (A) (A) (A) (A) (A) (A) (A) (A) (A)
                 (A) (A) (A) (A) (A) (A) (A) (A) (A) (A) (A) (A)
                 (A) (A) (A) (A) (A) (A) (A) (A) (A) (A) (A) (A)
                 (A) (A) (A) (A) (A) (A) (A) (A) (A) (A) (A) (A)
                 (A) (A) (A) (A) (A) (A) (A) (A) (A) (A) (A) (A)
                 (A) (A) (A) (A) (A) (A) (A) (A) (A) (A) (A) (A)
                 (A) (A) (A) (A) (A) (A) (A) (A) (A) (A) (A) (A)
                 (A) (A) (A) (A) (A) (A) (A) (A) (A) (A) (A) (A)
                 (A) (A) (A) (A) (A) (A) (A) (A) (A) (A) (A) (A)
                 (A) (A) (A) (A) (A) (A) (A) (A) (A) (A) (A) (A)
                 (A) (A) (A) (A) (A) (A) (A) (A) (A) (A) (A) (A)
                 (A) (A) (A) (A) (A) (A) (A) (A) (A) (A) (A) (A)
                 (A) (A) (A) (A) (A) (A) (A) (A) (A) (A) (A) (A)
                 (A) (A) (A) (A) (A) (A) (A) (A) (A) (A) (A) (A)
                 (A) (A) (A) (A) (A) (A) (A) (A) (A) (A) (A) (A)
                 (A) (A) (A) (A) (A) (A) (A) (A) (A) (A) (A) (A)
                 (A) (A) (A) (A) (A) (A) (A) (A) (A) (A) (A) (A)
                 (A) (A) (A) (A) (A) (A) (A) (A) (A) (A) (A) (A)
                 (A) (A) (A) (A) (A) (A) (A) (A) (A) (A) (A) (A)
                 (A) (A) (A) (A) (A) (A) (A) (A) (A) (A) (A) (A)
                 (A) (A) (A) (A) (A) (A) (A) (A) (A) (A) (A) (A)
                 (A) (A) (A) (A) (A) (A) (A) (A) (A) (A) (A) (A)
 The electronic state is 1-A.
 Alpha  occ. eigenvalues --  -19.63419 -19.62904 -19.62882 -10.63283 -10.58166
 Alpha  occ. eigenvalues --  -10.57385 -10.57236 -10.57189 -10.52457 -10.52381
 Alpha  occ. eigenvalues --  -10.52330 -10.52246 -10.52144  -1.20415  -1.16682
 Alpha  occ. eigenvalues --   -1.13983  -0.90213  -0.89574  -0.86992  -0.83972
 Alpha  occ. eigenvalues --   -0.74845  -0.73914  -0.72818  -0.69617  -0.66188
 Alpha  occ. eigenvalues --   -0.64055  -0.60111  -0.58157  -0.56402  -0.56027
 Alpha  occ. eigenvalues --   -0.53729  -0.52779  -0.51854  -0.51012  -0.49947
 Alpha  occ. eigenvalues --   -0.48902  -0.46592  -0.45460  -0.45262  -0.44482
 Alpha  occ. eigenvalues --   -0.42784  -0.41585  -0.40298  -0.39620  -0.39351
 Alpha  occ. eigenvalues --   -0.38448  -0.37630  -0.37052  -0.35214  -0.32394
 Alpha  occ. eigenvalues --   -0.31348
 Alpha virt. eigenvalues --    0.00435   0.01279   0.01332   0.01586   0.02667
 Alpha virt. eigenvalues --    0.02930   0.03086   0.03844   0.04163   0.04971
 Alpha virt. eigenvalues --    0.05028   0.05119   0.06033   0.06075   0.07516
 Alpha virt. eigenvalues --    0.07849   0.08042   0.08081   0.08684   0.09900
 Alpha virt. eigenvalues --    0.10501   0.11265   0.11824   0.12046   0.12563
 Alpha virt. eigenvalues --    0.12830   0.13522   0.13578   0.13684   0.13962
 Alpha virt. eigenvalues --    0.14351   0.14440   0.14824   0.15065   0.15385
 Alpha virt. eigenvalues --    0.15748   0.15820   0.16030   0.16247   0.16827
 Alpha virt. eigenvalues --    0.16968   0.17364   0.17836   0.18002   0.18354
 Alpha virt. eigenvalues --    0.18443   0.18890   0.19053   0.19157   0.19424
 Alpha virt. eigenvalues --    0.19792   0.20534   0.20717   0.21450   0.21742
 Alpha virt. eigenvalues --    0.22377   0.23426   0.23482   0.23703   0.24784
 Alpha virt. eigenvalues --    0.25952   0.26276   0.26324   0.27453   0.27685
 Alpha virt. eigenvalues --    0.28340   0.28472   0.29018   0.29432   0.29816
 Alpha virt. eigenvalues --    0.30218   0.30958   0.31476   0.31629   0.32145
 Alpha virt. eigenvalues --    0.32912   0.33257   0.33977   0.34222   0.34759
 Alpha virt. eigenvalues --    0.34935   0.35147   0.35710   0.35989   0.36417
 Alpha virt. eigenvalues --    0.37274   0.37485   0.37716   0.37909   0.38739
 Alpha virt. eigenvalues --    0.38809   0.39201   0.39829   0.40766   0.40946
 Alpha virt. eigenvalues --    0.41777   0.42710   0.43383   0.44908   0.45676
 Alpha virt. eigenvalues --    0.46422   0.47957   0.49412   0.50941   0.51731
 Alpha virt. eigenvalues --    0.52228   0.52615   0.53680   0.54083   0.56817
 Alpha virt. eigenvalues --    0.57338   0.57868   0.58720   0.58974   0.59994
 Alpha virt. eigenvalues --    0.60321   0.60504   0.61032   0.61239   0.62233
 Alpha virt. eigenvalues --    0.62464   0.62779   0.64031   0.64357   0.64593
 Alpha virt. eigenvalues --    0.65396   0.66015   0.66259   0.66690   0.67477
 Alpha virt. eigenvalues --    0.69090   0.69580   0.69680   0.70438   0.70840
 Alpha virt. eigenvalues --    0.71408   0.71580   0.72618   0.73197   0.73768
 Alpha virt. eigenvalues --    0.74099   0.74908   0.75359   0.76025   0.76704
 Alpha virt. eigenvalues --    0.77004   0.77644   0.78923   0.79312   0.80250
 Alpha virt. eigenvalues --    0.81794   0.81983   0.83367   0.84852   0.85171
 Alpha virt. eigenvalues --    0.86483   0.87608   0.89071   0.90092   0.90317
 Alpha virt. eigenvalues --    0.90893   0.92357   0.93341   0.94167   0.94743
 Alpha virt. eigenvalues --    0.96413   0.99174   1.00130   1.01066   1.02036
 Alpha virt. eigenvalues --    1.03587   1.03878   1.05116   1.05571   1.07339
 Alpha virt. eigenvalues --    1.08582   1.09927   1.10207   1.11219   1.12391
 Alpha virt. eigenvalues --    1.12450   1.14017   1.14879   1.15459   1.16566
 Alpha virt. eigenvalues --    1.17562   1.17970   1.19344   1.19692   1.20927
 Alpha virt. eigenvalues --    1.21987   1.22820   1.23294   1.24018   1.24705
 Alpha virt. eigenvalues --    1.25128   1.26084   1.26631   1.27591   1.28173
 Alpha virt. eigenvalues --    1.28687   1.29222   1.30003   1.30927   1.30978
 Alpha virt. eigenvalues --    1.31764   1.32384   1.33665   1.34282   1.34870
 Alpha virt. eigenvalues --    1.35095   1.36047   1.36636   1.37897   1.38037
 Alpha virt. eigenvalues --    1.38131   1.39658   1.40702   1.40913   1.41884
 Alpha virt. eigenvalues --    1.42624   1.43755   1.44251   1.44739   1.45803
 Alpha virt. eigenvalues --    1.46459   1.46749   1.47022   1.47466   1.49275
 Alpha virt. eigenvalues --    1.50203   1.50320   1.51250   1.51305   1.52318
 Alpha virt. eigenvalues --    1.53344   1.54041   1.55061   1.55672   1.56283
 Alpha virt. eigenvalues --    1.57068   1.57828   1.58103   1.58935   1.60283
 Alpha virt. eigenvalues --    1.61071   1.61938   1.62158   1.62914   1.63464
 Alpha virt. eigenvalues --    1.64524   1.64990   1.65467   1.67494   1.67816
 Alpha virt. eigenvalues --    1.68702   1.69135   1.71024   1.71624   1.72557
 Alpha virt. eigenvalues --    1.73201   1.75235   1.76012   1.77294   1.78530
 Alpha virt. eigenvalues --    1.79809   1.80762   1.81784   1.82471   1.82982
 Alpha virt. eigenvalues --    1.85601   1.88176   1.90848   1.94018   1.99465
 Alpha virt. eigenvalues --    2.03571   2.05101   2.12296   2.16773   2.18470
 Alpha virt. eigenvalues --    2.24975   2.26702   2.30200   2.33784   2.35762
 Alpha virt. eigenvalues --    2.39439   2.43633   2.45542   2.50039   2.54228
 Alpha virt. eigenvalues --    2.56179   2.76078   2.77117   2.80102   2.82707
 Alpha virt. eigenvalues --    2.86765   2.91030   2.91497   2.92464   2.96217
 Alpha virt. eigenvalues --    2.97342   2.99110   3.01278   3.02946   3.06003
 Alpha virt. eigenvalues --    3.08151   3.08936   3.09298   3.10349   3.13784
 Alpha virt. eigenvalues --    3.14291   3.16798   3.17570   3.19152   3.21976
 Alpha virt. eigenvalues --    3.25782   3.31493   3.32057   3.33689   3.35642
 Alpha virt. eigenvalues --    3.36091   3.37696   3.38853   3.40745   3.42280
 Alpha virt. eigenvalues --    3.43588   3.43846   3.44587   3.45905   3.46311
 Alpha virt. eigenvalues --    3.47630   3.48328   3.50347   3.50973   3.52768
 Alpha virt. eigenvalues --    3.53402   3.53724   3.54441   3.55435   3.56768
 Alpha virt. eigenvalues --    3.57393   3.58245   3.58701   3.59264   3.60661
 Alpha virt. eigenvalues --    3.61101   3.61643   3.63188   3.64339   3.64946
 Alpha virt. eigenvalues --    3.66483   3.67475   3.68121   3.69219   3.70875
 Alpha virt. eigenvalues --    3.71677   3.72441   3.73793   3.74325   3.74835
 Alpha virt. eigenvalues --    3.74973   3.76857   3.77382   3.77824   3.78701
 Alpha virt. eigenvalues --    3.79199   3.80467   3.81847   3.84259   3.84807
 Alpha virt. eigenvalues --    3.86881   3.87642   3.90697   3.91021   3.91989
 Alpha virt. eigenvalues --    3.92451   3.94373   3.95907   3.97044   3.98330
 Alpha virt. eigenvalues --    3.98996   4.02904   4.04054   4.04352   4.05223
 Alpha virt. eigenvalues --    4.05973   4.06479   4.07214   4.07630   4.08822
 Alpha virt. eigenvalues --    4.09301   4.09498   4.10220   4.10851   4.12384
 Alpha virt. eigenvalues --    4.12622   4.13231   4.14820   4.15919   4.16519
 Alpha virt. eigenvalues --    4.18194   4.19122   4.19723   4.20462   4.21381
 Alpha virt. eigenvalues --    4.21717   4.23947   4.24352   4.25839   4.26629
 Alpha virt. eigenvalues --    4.27564   4.30202   4.30834   4.32377   4.33758
 Alpha virt. eigenvalues --    4.34758   4.35328   4.36602   4.38533   4.41918
 Alpha virt. eigenvalues --    4.43522   4.44327   4.46174   4.47917   4.51493
 Alpha virt. eigenvalues --    4.59010   4.61080   4.77146   4.77650   4.83729
 Alpha virt. eigenvalues --    4.89173   4.92421   4.93908   4.99641   5.00906
 Alpha virt. eigenvalues --    5.07113   5.07450   5.08454   5.09469   5.12581
 Alpha virt. eigenvalues --    5.13038   5.14436   5.16421   5.30601   5.33767
 Alpha virt. eigenvalues --    5.40989   5.57119   5.59191   5.63595   5.86741
 Alpha virt. eigenvalues --    5.88382   6.00903   7.02593   7.05189   7.05770
 Alpha virt. eigenvalues --    7.05845   7.10425   7.12856   7.13544   7.17432
 Alpha virt. eigenvalues --    7.23893   7.34769   7.39149   7.45590   7.53035
 Alpha virt. eigenvalues --    7.55528   7.65475  23.95316  23.99606  24.06424
 Alpha virt. eigenvalues --   24.08602  24.10482  24.13954  24.14509  24.15513
 Alpha virt. eigenvalues --   24.17462  24.20161  50.17324  50.19613  50.24091
          Condensed to atoms (all electrons):
               1          2          3          4          5          6
     1  C    6.038968  -0.034695  -0.014720  -0.001054  -0.019169  -0.074687
     2  C   -0.034695   6.159101   0.088415   0.112156  -0.024840   0.003088
     3  C   -0.014720   0.088415   5.535048  -0.006374   0.001001   0.001612
     4  O   -0.001054   0.112156  -0.006374   8.378918  -0.000752   0.000208
     5  O   -0.019169  -0.024840   0.001001  -0.000752   8.352260   0.033883
     6  C   -0.074687   0.003088   0.001612   0.000208   0.033883   5.412258
     7  O    0.022383  -0.163060  -0.003933   0.004115   0.017685   0.012553
     8  C    0.019561   0.004457   0.001148   0.000386  -0.024337   0.074791
     9  C   -0.013108   0.143106   0.105982  -0.022279   0.056993   0.021014
    10  C    0.152815   0.011199  -0.064188   0.001619   0.264311  -0.149108
    11  C    0.001390  -0.265157   0.065348   0.084814  -0.003669  -0.001574
    12  C    0.067257  -0.518673  -0.112912   0.042524  -0.060649  -0.052903
    13  C   -0.455277   0.053490   0.030097  -0.000300  -0.019794   0.102405
    14  H    0.400703   0.000617  -0.000531  -0.000042  -0.000158   0.007424
    15  H    0.500207   0.000846  -0.000038   0.000007   0.000588  -0.009572
    16  H   -0.001275   0.358164   0.001857  -0.038244  -0.001774  -0.000837
    17  H    0.001910   0.453269   0.004117  -0.068189   0.010633   0.003450
    18  H   -0.000660   0.008054   0.499499   0.000703   0.000562  -0.000217
    19  H    0.000019  -0.000546   0.427469   0.008448   0.000326   0.000199
    20  H   -0.018337  -0.000643  -0.000335   0.000010  -0.050582   0.483739
    21  H    0.007390   0.003960   0.000354   0.000056  -0.070737   0.444479
    22  H   -0.039547   0.000432   0.000045   0.000073  -0.006882  -0.071295
    23  H   -0.048170   0.000013  -0.000137  -0.000008   0.006575  -0.034398
    24  H    0.003573  -0.003337  -0.076390   0.001340   0.000567  -0.001121
    25  H   -0.009238  -0.002500   0.008004  -0.003795  -0.000992   0.000626
    26  H   -0.017545   0.008204   0.000961   0.000130  -0.037308  -0.004313
    27  H    0.000014   0.017130  -0.044372  -0.068330  -0.000176  -0.000065
    28  H   -0.000398  -0.037815  -0.036259  -0.044054  -0.000068   0.000159
    29  H    0.022272  -0.020322  -0.025413  -0.023369  -0.003914   0.001662
    30  H   -0.028893   0.014061  -0.001749   0.001935  -0.016097   0.014238
    31  H    0.011703  -0.001971  -0.002442  -0.000011   0.005183  -0.004969
               7          8          9         10         11         12
     1  C    0.022383   0.019561  -0.013108   0.152815   0.001390   0.067257
     2  C   -0.163060   0.004457   0.143106   0.011199  -0.265157  -0.518673
     3  C   -0.003933   0.001148   0.105982  -0.064188   0.065348  -0.112912
     4  O    0.004115   0.000386  -0.022279   0.001619   0.084814   0.042524
     5  O    0.017685  -0.024337   0.056993   0.264311  -0.003669  -0.060649
     6  C    0.012553   0.074791   0.021014  -0.149108  -0.001574  -0.052903
     7  O    8.363463   0.003359  -0.182732   0.077761   0.016098   0.308028
     8  C    0.003359   5.519450  -0.012193  -0.082325   0.001048   0.030950
     9  C   -0.182732  -0.012193   6.659756   0.016278  -0.211190  -1.356171
    10  C    0.077761  -0.082325   0.016278   6.457520  -0.017822  -0.307173
    11  C    0.016098   0.001048  -0.211190  -0.017822   5.488788   0.274260
    12  C    0.308028   0.030950  -1.356171  -0.307173   0.274260   7.683413
    13  C   -0.069488  -0.013084   0.102992  -0.500763  -0.005765  -0.109742
    14  H   -0.002254  -0.014948   0.002494   0.011199  -0.000292  -0.006125
    15  H    0.001335  -0.061418  -0.000580  -0.014325   0.000061  -0.001006
    16  H    0.003472   0.001400  -0.012618   0.020933  -0.000160   0.006474
    17  H    0.003376  -0.002900   0.023684  -0.001289   0.009496  -0.084275
    18  H   -0.000171   0.000232  -0.000075   0.003518  -0.091350  -0.046313
    19  H   -0.002165   0.000012  -0.035468  -0.000887  -0.033395   0.000462
    20  H    0.002649  -0.047459   0.002298  -0.005718  -0.000076  -0.013390
    21  H   -0.002501  -0.045983  -0.000249   0.007982  -0.000079  -0.005938
    22  H   -0.000352   0.488161   0.000942   0.017657  -0.000406  -0.003017
    23  H    0.000900   0.460275   0.000051  -0.008394   0.000013   0.000317
    24  H   -0.001444   0.000158   0.509696   0.008794  -0.014723  -0.055457
    25  H   -0.005641  -0.000118   0.441295  -0.016936  -0.013094  -0.051468
    26  H   -0.079814   0.005033   0.008137   0.478627  -0.001199  -0.028518
    27  H    0.000779   0.000013   0.006143  -0.001206   0.435866  -0.000742
    28  H    0.000464  -0.000043  -0.012608   0.002431   0.455373   0.026777
    29  H   -0.011093  -0.006077   0.010060  -0.003652   0.012592   0.381693
    30  H   -0.003502  -0.022447  -0.029207  -0.003963   0.005023   0.020758
    31  H   -0.000304   0.006405   0.012961  -0.050697  -0.001057  -0.017477
              13         14         15         16         17         18
     1  C   -0.455277   0.400703   0.500207  -0.001275   0.001910  -0.000660
     2  C    0.053490   0.000617   0.000846   0.358164   0.453269   0.008054
     3  C    0.030097  -0.000531  -0.000038   0.001857   0.004117   0.499499
     4  O   -0.000300  -0.000042   0.000007  -0.038244  -0.068189   0.000703
     5  O   -0.019794  -0.000158   0.000588  -0.001774   0.010633   0.000562
     6  C    0.102405   0.007424  -0.009572  -0.000837   0.003450  -0.000217
     7  O   -0.069488  -0.002254   0.001335   0.003472   0.003376  -0.000171
     8  C   -0.013084  -0.014948  -0.061418   0.001400  -0.002900   0.000232
     9  C    0.102992   0.002494  -0.000580  -0.012618   0.023684  -0.000075
    10  C   -0.500763   0.011199  -0.014325   0.020933  -0.001289   0.003518
    11  C   -0.005765  -0.000292   0.000061  -0.000160   0.009496  -0.091350
    12  C   -0.109742  -0.006125  -0.001006   0.006474  -0.084275  -0.046313
    13  C    6.173081  -0.029002  -0.043319  -0.002093  -0.008622   0.003508
    14  H   -0.029002   0.490646  -0.007117  -0.000032  -0.000070   0.000096
    15  H   -0.043319  -0.007117   0.453209   0.000013  -0.000006  -0.000056
    16  H   -0.002093  -0.000032   0.000013   0.480570  -0.015536   0.003169
    17  H   -0.008622  -0.000070  -0.000006  -0.015536   0.462918  -0.002288
    18  H    0.003508   0.000096  -0.000056   0.003169  -0.002288   0.470163
    19  H   -0.001375  -0.000013  -0.000007  -0.001846   0.002090  -0.008009
    20  H    0.010399  -0.000452   0.000021   0.000009  -0.000182   0.000059
    21  H    0.009568   0.000550  -0.001967   0.000198  -0.001461  -0.000013
    22  H   -0.003533  -0.005364   0.003753   0.000085  -0.000298   0.000387
    23  H    0.001083  -0.004726  -0.006055  -0.000014   0.000032  -0.000023
    24  H   -0.006948   0.000178  -0.000029   0.000015  -0.002956   0.002469
    25  H    0.038829   0.000228   0.000536  -0.002883  -0.000322  -0.000396
    26  H   -0.023742   0.002934  -0.008053  -0.000051   0.000290   0.000194
    27  H   -0.000039  -0.000010   0.000007  -0.001905   0.002488  -0.004543
    28  H    0.000023   0.000005  -0.000005   0.008909  -0.002768   0.003296
    29  H   -0.031539   0.001056   0.000370  -0.010718   0.001674  -0.011566
    30  H    0.417015  -0.007304   0.003844   0.001141  -0.000037  -0.002020
    31  H    0.425976  -0.010897  -0.007340   0.000034  -0.000371   0.000408
              19         20         21         22         23         24
     1  C    0.000019  -0.018337   0.007390  -0.039547  -0.048170   0.003573
     2  C   -0.000546  -0.000643   0.003960   0.000432   0.000013  -0.003337
     3  C    0.427469  -0.000335   0.000354   0.000045  -0.000137  -0.076390
     4  O    0.008448   0.000010   0.000056   0.000073  -0.000008   0.001340
     5  O    0.000326  -0.050582  -0.070737  -0.006882   0.006575   0.000567
     6  C    0.000199   0.483739   0.444479  -0.071295  -0.034398  -0.001121
     7  O   -0.002165   0.002649  -0.002501  -0.000352   0.000900  -0.001444
     8  C    0.000012  -0.047459  -0.045983   0.488161   0.460275   0.000158
     9  C   -0.035468   0.002298  -0.000249   0.000942   0.000051   0.509696
    10  C   -0.000887  -0.005718   0.007982   0.017657  -0.008394   0.008794
    11  C   -0.033395  -0.000076  -0.000079  -0.000406   0.000013  -0.014723
    12  C    0.000462  -0.013390  -0.005938  -0.003017   0.000317  -0.055457
    13  C   -0.001375   0.010399   0.009568  -0.003533   0.001083  -0.006948
    14  H   -0.000013  -0.000452   0.000550  -0.005364  -0.004726   0.000178
    15  H   -0.000007   0.000021  -0.001967   0.003753  -0.006055  -0.000029
    16  H   -0.001846   0.000009   0.000198   0.000085  -0.000014   0.000015
    17  H    0.002090  -0.000182  -0.001461  -0.000298   0.000032  -0.002956
    18  H   -0.008009   0.000059  -0.000013   0.000387  -0.000023   0.002469
    19  H    0.475774   0.000005  -0.000014  -0.000035   0.000007  -0.004917
    20  H    0.000005   0.473112  -0.007399   0.002283   0.001002   0.000213
    21  H   -0.000014  -0.007399   0.474835  -0.001711  -0.010665  -0.000098
    22  H   -0.000035   0.002283  -0.001711   0.468454  -0.012016   0.000139
    23  H    0.000007   0.001002  -0.010665  -0.012016   0.475626   0.000003
    24  H   -0.004917   0.000213  -0.000098   0.000139   0.000003   0.438285
    25  H   -0.010341  -0.000143   0.000155   0.000138  -0.000178  -0.007724
    26  H    0.000027   0.000042   0.000007   0.000092  -0.001698  -0.000256
    27  H   -0.008982  -0.000008   0.000006  -0.000014  -0.000003  -0.001412
    28  H    0.003845   0.000007   0.000015   0.000011  -0.000001  -0.003627
    29  H    0.001140   0.000039  -0.000307  -0.003815   0.000565   0.004064
    30  H   -0.000002  -0.000892  -0.000860   0.000920  -0.002730  -0.000311
    31  H    0.000167   0.000455   0.000788  -0.001377   0.002212   0.000437
              25         26         27         28         29         30
     1  C   -0.009238  -0.017545   0.000014  -0.000398   0.022272  -0.028893
     2  C   -0.002500   0.008204   0.017130  -0.037815  -0.020322   0.014061
     3  C    0.008004   0.000961  -0.044372  -0.036259  -0.025413  -0.001749
     4  O   -0.003795   0.000130  -0.068330  -0.044054  -0.023369   0.001935
     5  O   -0.000992  -0.037308  -0.000176  -0.000068  -0.003914  -0.016097
     6  C    0.000626  -0.004313  -0.000065   0.000159   0.001662   0.014238
     7  O   -0.005641  -0.079814   0.000779   0.000464  -0.011093  -0.003502
     8  C   -0.000118   0.005033   0.000013  -0.000043  -0.006077  -0.022447
     9  C    0.441295   0.008137   0.006143  -0.012608   0.010060  -0.029207
    10  C   -0.016936   0.478627  -0.001206   0.002431  -0.003652  -0.003963
    11  C   -0.013094  -0.001199   0.435866   0.455373   0.012592   0.005023
    12  C   -0.051468  -0.028518  -0.000742   0.026777   0.381693   0.020758
    13  C    0.038829  -0.023742  -0.000039   0.000023  -0.031539   0.417015
    14  H    0.000228   0.002934  -0.000010   0.000005   0.001056  -0.007304
    15  H    0.000536  -0.008053   0.000007  -0.000005   0.000370   0.003844
    16  H   -0.002883  -0.000051  -0.001905   0.008909  -0.010718   0.001141
    17  H   -0.000322   0.000290   0.002488  -0.002768   0.001674  -0.000037
    18  H   -0.000396   0.000194  -0.004543   0.003296  -0.011566  -0.002020
    19  H   -0.010341   0.000027  -0.008982   0.003845   0.001140  -0.000002
    20  H   -0.000143   0.000042  -0.000008   0.000007   0.000039  -0.000892
    21  H    0.000155   0.000007   0.000006   0.000015  -0.000307  -0.000860
    22  H    0.000138   0.000092  -0.000014   0.000011  -0.003815   0.000920
    23  H   -0.000178  -0.001698  -0.000003  -0.000001   0.000565  -0.002730
    24  H   -0.007724  -0.000256  -0.001412  -0.003627   0.004064  -0.000311
    25  H    0.468039   0.000953   0.001069   0.000182   0.000712  -0.002215
    26  H    0.000953   0.423967  -0.000024  -0.000030  -0.001178  -0.003377
    27  H    0.001069  -0.000024   0.463758  -0.006232  -0.000163   0.000137
    28  H    0.000182  -0.000030  -0.006232   0.484297  -0.003126  -0.000098
    29  H    0.000712  -0.001178  -0.000163  -0.003126   0.431575  -0.012825
    30  H   -0.002215  -0.003377   0.000137  -0.000098  -0.012825   0.483292
    31  H   -0.005696   0.000635  -0.000095   0.000113   0.003509  -0.023944
              31
     1  C    0.011703
     2  C   -0.001971
     3  C   -0.002442
     4  O   -0.000011
     5  O    0.005183
     6  C   -0.004969
     7  O   -0.000304
     8  C    0.006405
     9  C    0.012961
    10  C   -0.050697
    11  C   -0.001057
    12  C   -0.017477
    13  C    0.425976
    14  H   -0.010897
    15  H   -0.007340
    16  H    0.000034
    17  H   -0.000371
    18  H    0.000408
    19  H    0.000167
    20  H    0.000455
    21  H    0.000788
    22  H   -0.001377
    23  H    0.002212
    24  H    0.000437
    25  H   -0.005696
    26  H    0.000635
    27  H   -0.000095
    28  H    0.000113
    29  H    0.003509
    30  H   -0.023944
    31  H    0.464506
 Mulliken charges:
               1
     1  C   -0.473392
     2  C   -0.366201
     3  C   -0.381162
     4  O   -0.360639
     5  O   -0.408671
     6  C   -0.212732
     7  O   -0.309966
     8  C   -0.283507
     9  C   -0.235403
    10  C   -0.304199
    11  C   -0.189164
    12  C   -0.010964
    13  C   -0.044041
    14  H    0.171209
    15  H    0.196097
    16  H    0.203544
    17  H    0.212144
    18  H    0.171384
    19  H    0.188013
    20  H    0.169271
    21  H    0.199639
    22  H    0.166090
    23  H    0.180542
    24  H    0.210818
    25  H    0.172916
    26  H    0.276873
    27  H    0.210915
    28  H    0.161226
    29  H    0.296094
    30  H    0.200110
    31  H    0.193153
 Sum of Mulliken charges =  -0.00000
 Mulliken charges with hydrogens summed into heavy atoms:
               1
     1  C   -0.106086
     2  C    0.049487
     3  C   -0.021765
     4  O   -0.360639
     5  O   -0.408671
     6  C    0.156179
     7  O   -0.309966
     8  C    0.063125
     9  C    0.148332
    10  C   -0.027326
    11  C    0.182977
    12  C    0.285130
    13  C    0.349222
 Electronic spatial extent (au):  <R**2>=           3134.2780
 Charge=             -0.0000 electrons
 Dipole moment (field-independent basis, Debye):
    X=             -2.3729    Y=              3.4421    Z=             -0.4219  Tot=              4.2020
 Quadrupole moment (field-independent basis, Debye-Ang):
   XX=            -65.6388   YY=            -81.9260   ZZ=            -81.9129
   XY=              6.5238   XZ=              2.2924   YZ=             -1.9202
 Traceless Quadrupole moment (field-independent basis, Debye-Ang):
   XX=             10.8537   YY=             -5.4334   ZZ=             -5.4203
   XY=              6.5238   XZ=              2.2924   YZ=             -1.9202
 Octapole moment (field-independent basis, Debye-Ang**2):
  XXX=            -13.1126  YYY=             -0.7187  ZZZ=             -1.1181  XYY=            -10.0353
  XXY=             14.4735  XXZ=              6.7850  XZZ=             -3.5375  YZZ=             -0.4768
  YYZ=              1.6171  XYZ=             -8.1601
 Hexadecapole moment (field-independent basis, Debye-Ang**3):
 XXXX=          -2994.8793 YYYY=           -620.3597 ZZZZ=           -321.0488 XXXY=             97.0385
 XXXZ=              4.7782 YYYX=             18.9783 YYYZ=              2.1902 ZZZX=             -9.8870
 ZZZY=             -1.6007 XXYY=           -656.7908 XXZZ=           -576.1161 YYZZ=           -159.3471
 XXYZ=            -14.6213 YYXZ=             14.5078 ZZXY=              3.0470
 N-N= 8.883114459662D+02 E-N=-3.218735208270D+03  KE= 6.153616622412D+02
 D1PCM: PCM CHGder 1st derivatives, ID1Alg=3 FixD1E=F DoIter=F DoCFld=F I1PDM=0.
 Calling FoFJK, ICntrl=      2127 FMM=F ISym2X=0 I1Cent= 0 IOpClX= 0 NMat=1 NMatS=1 NMatT=0.
 ***** Axes restored to original set *****
 -------------------------------------------------------------------
 Center     Atomic                   Forces (Hartrees/Bohr)
 Number     Number              X              Y              Z
 -------------------------------------------------------------------
      1        6           0.002548127   -0.002956051   -0.001161255
      2        6          -0.001200570    0.005910721   -0.000810749
      3        6          -0.000257586   -0.001663929    0.002699894
      4        8           0.001520448   -0.008478636   -0.008650158
      5        8           0.008500356   -0.009322549   -0.005436219
      6        6          -0.001958006    0.006254693   -0.002235226
      7        8           0.004018304   -0.001266906    0.011526617
      8        6           0.000622998    0.000548757    0.003337799
      9        6           0.001453603   -0.003297586   -0.003152825
     10        6          -0.002844855    0.008541117   -0.006194617
     11        6          -0.004318725    0.005827813    0.000979584
     12        6           0.002655003    0.002003593    0.000902037
     13        6          -0.002989354   -0.001984608    0.001675112
     14        1          -0.000665229    0.002122789   -0.001571277
     15        1          -0.001326779   -0.000620022    0.003081622
     16        1           0.001311525    0.001094642    0.005969325
     17        1          -0.003636084   -0.003805753   -0.000881551
     18        1          -0.001291225   -0.000514600   -0.003027798
     19        1           0.001753462    0.002193220    0.000601743
     20        1          -0.003279840    0.000278075    0.004680368
     21        1          -0.000523775   -0.003817103   -0.002569582
     22        1           0.002169139   -0.000024574   -0.002612141
     23        1          -0.002756430   -0.000321375   -0.000217393
     24        1           0.001161267   -0.000915156    0.003643696
     25        1          -0.002734093    0.002516868   -0.000891324
     26        1          -0.004298238    0.000173835    0.006436282
     27        1           0.003104319   -0.000333681   -0.003235661
     28        1           0.001818035    0.000654647    0.005403745
     29        1          -0.002542818   -0.000306537   -0.006676378
     30        1           0.003184996   -0.000850464   -0.003915785
     31        1           0.000802027    0.002358758    0.002302113
 -------------------------------------------------------------------
 Cartesian Forces:  Max     0.011526617 RMS     0.003660675

 GradGradGradGradGradGradGradGradGradGradGradGradGradGradGradGradGradGrad
 Berny optimization.
 FormGI is forming the generalized inverse of G from B-inverse, IUseBI=4.
 Internal  Forces:  Max     0.015783053 RMS     0.002304198
 Search for a local minimum.
 Step number   1 out of a maximum of  186
 All quantities printed in internal units (Hartrees-Bohrs-Radians)
 Mixed Optimization -- RFO/linear search
 Second derivative matrix not updated -- first step.
 ITU=  0
     Eigenvalues ---    0.00617   0.00644   0.00739   0.00739   0.01423
     Eigenvalues ---    0.01448   0.01458   0.02692   0.02786   0.03102
     Eigenvalues ---    0.03164   0.04204   0.04362   0.04493   0.04762
     Eigenvalues ---    0.04800   0.04987   0.04991   0.05144   0.05156
     Eigenvalues ---    0.05175   0.05659   0.05745   0.06027   0.06159
     Eigenvalues ---    0.06233   0.06399   0.06797   0.07560   0.07867
     Eigenvalues ---    0.07890   0.07919   0.07941   0.07995   0.08119
     Eigenvalues ---    0.08713   0.09366   0.09375   0.10870   0.11514
     Eigenvalues ---    0.11613   0.11706   0.11735   0.12356   0.12499
     Eigenvalues ---    0.14570   0.14576   0.16571   0.16662   0.17556
     Eigenvalues ---    0.19512   0.21559   0.21758   0.25000   0.28512
     Eigenvalues ---    0.28580   0.28642   0.28715   0.28905   0.29304
     Eigenvalues ---    0.30190   0.30302   0.35024   0.35067   0.35076
     Eigenvalues ---    0.35077   0.35099   0.35124   0.35137   0.35247
     Eigenvalues ---    0.35290   0.35366   0.35374   0.35389   0.35396
     Eigenvalues ---    0.35512   0.35825   0.35829   0.35878   0.35891
     Eigenvalues ---    0.41114   0.41471   0.42325   0.42415   0.42929
     Eigenvalues ---    0.467781000.000001000.000001000.000001000.00000
     Eigenvalues --- 1000.000001000.000001000.000001000.000001000.00000
     Eigenvalues --- 1000.000001000.000001000.000001000.000001000.00000
     Eigenvalues --- 1000.000001000.000001000.000001000.000001000.00000
     Eigenvalues --- 1000.000001000.000001000.000001000.000001000.00000
     Eigenvalues --- 1000.000001000.000001000.000001000.000001000.00000
     Eigenvalues --- 1000.000001000.000001000.000001000.000001000.00000
     Eigenvalues --- 1000.000001000.000001000.000001000.000001000.00000
     Eigenvalues --- 1000.000001000.000001000.000001000.000001000.00000
     Eigenvalues --- 1000.000001000.000001000.000001000.000001000.00000
     Eigenvalues --- 1000.000001000.000001000.000001000.000001000.00000
     Eigenvalues --- 1000.000001000.000001000.000001000.000001000.00000
     Eigenvalues --- 1000.000001000.000001000.000001000.000001000.00000
     Eigenvalues --- 1000.000001000.000001000.000001000.000001000.00000
     Eigenvalues --- 1000.000001000.000001000.000001000.000001000.00000
     Eigenvalues --- 1000.000001000.000001000.000001000.000001000.00000
     Eigenvalues --- 1000.000001000.000001000.000001000.000001000.00000
     Eigenvalues --- 1000.000001000.000001000.000001000.000001000.00000
     Eigenvalues --- 1000.000001000.000001000.000001000.000001000.00000
     Eigenvalues --- 1000.000001000.000001000.000001000.000001000.00000
 RFO step:  Lambda=-3.52681251D-03 EMin= 6.16923352D-03
 Linear search not attempted -- first point.
 Iteration  1 RMS(Cart)=  0.06300981 RMS(Int)=  0.00076675
 Iteration  2 RMS(Cart)=  0.00242635 RMS(Int)=  0.00003657
 Iteration  3 RMS(Cart)=  0.00000102 RMS(Int)=  0.00003657
 Iteration  4 RMS(Cart)=  0.00000000 RMS(Int)=  0.00003657
 Iteration  1 RMS(Cart)=  0.00003609 RMS(Int)=  0.00000818
 Iteration  2 RMS(Cart)=  0.00001948 RMS(Int)=  0.00000914
 Iteration  3 RMS(Cart)=  0.00001051 RMS(Int)=  0.00001031
 Iteration  4 RMS(Cart)=  0.00000567 RMS(Int)=  0.00001107
 Iteration  5 RMS(Cart)=  0.00000306 RMS(Int)=  0.00001151
 Iteration  6 RMS(Cart)=  0.00000165 RMS(Int)=  0.00001176
 Iteration  7 RMS(Cart)=  0.00000089 RMS(Int)=  0.00001190
 Variable       Old X    -DE/DX   Delta X   Delta X   Delta X     New X
                                 (Linear)    (Quad)   (Total)
    R1        2.88876  -0.00083   0.00000  -0.00425  -0.00430   2.88446
    R2        2.89446  -0.00098   0.00000  -0.00387  -0.00389   2.89057
    R3        2.05073   0.00272   0.00000   0.00762   0.00762   2.05834
    R4        2.05636   0.00329   0.00000   0.00929   0.00929   2.06566
    R5        2.66633   0.00608   0.00000   0.01425   0.01428   2.68061
    R6        2.88012  -0.00088   0.00000  -0.00270  -0.00269   2.87743
    R7        2.05551   0.00598   0.00000   0.01689   0.01689   2.07240
    R8        2.04272   0.00525   0.00000   0.01448   0.01448   2.05720
    R9        2.89286  -0.00093   0.00000  -0.00390  -0.00392   2.88893
   R10        2.87248  -0.00066   0.00000  -0.00227  -0.00228   2.87020
   R11        2.05453   0.00324   0.00000   0.00912   0.00912   2.06364
   R12        2.05206   0.00287   0.00000   0.00805   0.00805   2.06012
   R13        2.67672   0.00632   0.00000   0.01498   0.01501   2.69172
   R14        2.68234   0.00563   0.00000   0.01356   0.01358   2.69592
   R15        2.65780   0.00823   0.00000   0.01928   0.01933   2.67713
   R16        2.87219  -0.00067   0.00000  -0.00267  -0.00270   2.86949
   R17        2.05515   0.00563   0.00000   0.01587   0.01587   2.07102
   R18        2.04252   0.00462   0.00000   0.01276   0.01276   2.05528
   R19        2.63263   0.00385   0.00000   0.00817   0.00817   2.64081
   R20        2.68398   0.00426   0.00000   0.00995   0.00995   2.69393
   R21        2.05475   0.00330   0.00000   0.00930   0.00930   2.06405
   R22        2.05275   0.00278   0.00000   0.00780   0.00780   2.06055
   R23        2.87849  -0.00208   0.00000  -0.00737  -0.00740   2.87109
   R24        2.05567   0.00376   0.00000   0.01061   0.01061   2.06628
   R25        2.05049   0.00372   0.00000   0.01040   0.01040   2.06089
   R26        2.87521  -0.00161   0.00000  -0.00466  -0.00462   2.87058
   R27        2.04851   0.00769   0.00000   0.02143   0.02143   2.06995
   R28        2.04356   0.00449   0.00000   0.01240   0.01240   2.05597
   R29        2.05550   0.00564   0.00000   0.01593   0.01593   2.07143
   R30        2.04350   0.00713   0.00000   0.01970   0.01970   2.06320
   R31        2.05037   0.00489   0.00000   0.01369   0.01369   2.06406
   R32        2.05084   0.00336   0.00000   0.00940   0.00940   2.06025
    A1        1.92156   0.00176   0.00000  -0.00264  -0.00271   1.91885
    A2        1.93299  -0.00057   0.00000   0.00060   0.00060   1.93359
    A3        1.90955  -0.00056   0.00000  -0.00116  -0.00113   1.90841
    A4        1.91987  -0.00034   0.00000   0.00116   0.00120   1.92108
    A5        1.91152  -0.00091   0.00000  -0.00293  -0.00294   1.90858
    A6        1.86753   0.00055   0.00000   0.00511   0.00510   1.87263
    A7        1.93297   0.00109   0.00000   0.00583   0.00588   1.93885
    A8        1.91623   0.00110   0.00000   0.00767   0.00768   1.92391
    A9        1.86692  -0.00026   0.00000   0.00428   0.00428   1.87120
   A10        1.91636  -0.00196   0.00000  -0.01358  -0.01363   1.90274
   A11        1.93368  -0.00076   0.00000  -0.00760  -0.00764   1.92604
   A12        1.89679   0.00086   0.00000   0.00403   0.00392   1.90071
   A13        1.92824  -0.00039   0.00000  -0.00569  -0.00574   1.92249
   A14        1.91995   0.00064   0.00000   0.00164   0.00165   1.92161
   A15        1.92796  -0.00049   0.00000  -0.00045  -0.00045   1.92751
   A16        1.90366  -0.00031   0.00000  -0.00158  -0.00158   1.90207
   A17        1.90866   0.00039   0.00000   0.00139   0.00142   1.91008
   A18        1.87443   0.00018   0.00000   0.00497   0.00496   1.87939
   A19        1.97871  -0.00485   0.00000  -0.02669  -0.02661   1.95209
   A20        1.98586  -0.00495   0.00000  -0.02478  -0.02467   1.96119
   A21        1.94043   0.00079   0.00000   0.00401   0.00395   1.94438
   A22        1.90013   0.00073   0.00000   0.00376   0.00379   1.90392
   A23        1.84991  -0.00060   0.00000   0.00014   0.00016   1.85007
   A24        1.92966  -0.00110   0.00000  -0.00755  -0.00752   1.92214
   A25        1.95061  -0.00028   0.00000  -0.00270  -0.00272   1.94789
   A26        1.89041   0.00052   0.00000   0.00285   0.00282   1.89323
   A27        2.08827  -0.01578   0.00000  -0.06225  -0.06225   2.02602
   A28        1.92127   0.00033   0.00000  -0.00423  -0.00428   1.91699
   A29        1.91888   0.00043   0.00000   0.00150   0.00151   1.92039
   A30        1.93706  -0.00066   0.00000  -0.00061  -0.00060   1.93646
   A31        1.90539  -0.00052   0.00000  -0.00185  -0.00186   1.90354
   A32        1.90393   0.00009   0.00000   0.00020   0.00023   1.90416
   A33        1.87651   0.00031   0.00000   0.00517   0.00516   1.88167
   A34        1.91968   0.00175   0.00000  -0.00280  -0.00287   1.91681
   A35        1.91498  -0.00040   0.00000   0.00214   0.00213   1.91711
   A36        1.93467  -0.00005   0.00000   0.00509   0.00509   1.93976
   A37        1.89388  -0.00113   0.00000  -0.00617  -0.00617   1.88771
   A38        1.92359  -0.00089   0.00000  -0.00541  -0.00537   1.91822
   A39        1.87612   0.00066   0.00000   0.00716   0.00711   1.88323
   A40        1.88846  -0.00085   0.00000  -0.01166  -0.01184   1.87662
   A41        1.93726   0.00108   0.00000   0.00050   0.00032   1.93758
   A42        1.89491   0.00057   0.00000   0.01166   0.01171   1.90661
   A43        1.99837  -0.00210   0.00000  -0.01763  -0.01776   1.98061
   A44        1.82536   0.00154   0.00000   0.01475   0.01486   1.84022
   A45        1.91410  -0.00011   0.00000   0.00447   0.00446   1.91856
   A46        1.93558   0.00134   0.00000   0.00700   0.00699   1.94257
   A47        1.94563  -0.00039   0.00000  -0.00372  -0.00372   1.94191
   A48        1.93085  -0.00126   0.00000  -0.00787  -0.00788   1.92298
   A49        1.85550  -0.00095   0.00000  -0.00275  -0.00274   1.85277
   A50        1.90201   0.00066   0.00000   0.00454   0.00457   1.90658
   A51        1.89198   0.00063   0.00000   0.00316   0.00314   1.89512
   A52        1.87594   0.00021   0.00000   0.00131   0.00132   1.87726
   A53        1.92448   0.00039   0.00000   0.00077   0.00072   1.92521
   A54        1.89392  -0.00032   0.00000  -0.00158  -0.00157   1.89235
   A55        1.92599  -0.00078   0.00000  -0.00165  -0.00163   1.92435
   A56        1.92417   0.00022   0.00000   0.00236   0.00235   1.92652
   A57        1.91868   0.00029   0.00000  -0.00114  -0.00112   1.91756
   A58        1.91693  -0.00032   0.00000  -0.00309  -0.00312   1.91381
   A59        1.91313   0.00096   0.00000   0.00518   0.00516   1.91829
   A60        1.93600  -0.00005   0.00000   0.00427   0.00426   1.94026
   A61        1.91699  -0.00079   0.00000  -0.01005  -0.01002   1.90697
   A62        1.89681  -0.00006   0.00000  -0.00230  -0.00229   1.89452
   A63        1.88361   0.00025   0.00000   0.00590   0.00585   1.88945
    D1        0.91586  -0.00032   0.00000   0.00879   0.00874   0.92460
    D2       -1.18385  -0.00016   0.00000   0.01281   0.01279  -1.17106
[...]
 ,0.00199577,-0.00299950,-0.00085434,-0.00018286,-0.00003716,-0.0000956
 8,-0.00000520,0.00000377,-0.00000129,-0.00001492,-0.00000120,0.0000037
 5,0.00030165,-0.00030922,0.00018313,-0.00002276,0.00001527,0.00027588,
 -0.00094181,-0.00008827,0.00093183,-0.00087635,0.00043727,0.00066654,0
 .00000327,0.00000065,-0.00000028,-0.00000174,-0.00000300,-0.00000068,0
 .00000044,-0.00000206,-0.00000225,-0.00000105,-0.00000455,-0.00000515,
 -0.01678057,0.02310837,-0.00501054,0.03396640,-0.04548722,0.06060612,0
 .00108895,-0.00012642,-0.00033956,-0.00001245,-0.00108476,0.00095615,-
 0.00010069,-0.00053188,-0.00025358,-0.00096825,0.00051859,0.00024308,0
 .00467193,-0.00110998,-0.00573496,0.00266364,-0.00061243,-0.00166293,-
 0.03856363,-0.00282387,0.02861739,-0.00017943,0.00020548,0.00005291,-0
 .00074990,0.00043997,0.00096728,-0.11287941,-0.01260792,0.10406245,0.0
 0027115,0.00014556,0.00007861,-0.00109180,0.00081132,-0.00533746,0.005
 23084,0.00181601,-0.00548254,0.00015640,-0.00005584,0.00005174,0.00020
 133,0.00010815,0.00020213,-0.00007557,0.00005480,-0.00008292,-0.000005
 89,0.00010198,-0.00000426,-0.00000146,0.00000855,0.00003196,-0.0001851
 9,-0.00000791,0.00013895,0.00050423,0.00014997,0.00076862,0.00021705,0
 .00005373,-0.00005726,-0.00011290,-0.00007549,0.00010795,-0.00000841,0
 .00002166,0.00000916,-0.00001805,-0.00004362,-0.00006390,0.00003145,-0
 .00009210,-0.00004143,0.13966700,-0.00120707,0.00056548,-0.00046059,-0
 .00007062,-0.00013477,0.00008892,0.00002577,0.00008954,0.00001809,-0.0
 0009528,0.00004474,0.00002687,0.00902263,-0.00950402,-0.03761511,0.004
 56432,0.00081769,-0.00003431,0.00210810,0.00259436,-0.00203572,-0.0004
 6058,-0.00019835,0.00003584,0.00027689,-0.00008687,-0.00026037,-0.0162
 9118,-0.05520646,0.03086341,0.00001398,0.00002047,0.00000634,0.0005484
 2,0.00155418,0.00000664,-0.01316190,-0.00321897,0.02584075,0.00016477,
 -0.00004375,-0.00031317,0.00048003,0.00010396,-0.00036164,-0.00001753,
 0.00002333,-0.00000600,0.00000394,0.00001603,0.00000470,-0.00000096,-0
 .00000040,0.,0.00002109,-0.00000384,-0.00001397,-0.00045979,0.00010892
 ,0.00099031,-0.00015402,-0.00007913,0.00023980,-0.00000477,-0.00003321
 ,0.00000821,-0.00006416,0.00025048,-0.00001282,-0.00001672,-0.00000550
 ,0.00000244,-0.00000222,0.00003315,-0.00001893,0.01320738,0.06545866,0
 .00052483,-0.00043949,0.00022055,-0.00001246,-0.00022103,0.00029698,-0
 .00001279,-0.00011865,-0.00004325,-0.00022199,0.00014209,0.00003779,0.
 00461978,-0.01481999,-0.02431102,0.00304841,0.00033389,0.00088703,-0.0
 0741620,-0.00087540,0.01155516,-0.00041225,-0.00011402,0.00000829,-0.0
 0010512,0.00009966,0.00018640,0.11354415,0.02795874,-0.23457874,0.0000
 5290,0.00003491,0.00000213,-0.00241774,0.00048700,0.00089764,0.0089680
 7,0.00391403,-0.01242795,-0.00017764,0.00003432,0.00018567,-0.00050055
 ,-0.00006276,0.00001412,-0.00000150,-0.00000125,-0.00002152,-0.0000059
 8,0.00002832,-0.00000214,0.00000469,0.00000094,0.00000252,-0.00003872,
 -0.00000121,0.00002480,-0.00108645,0.00000436,-0.00000841,-0.00043516,
 -0.00012197,0.00023909,0.00013037,0.00003145,-0.00003915,-0.00008606,0
 .00005396,-0.00010121,0.00000732,-0.00000843,-0.00001335,0.00000277,-0
 .00005421,-0.00000718,-0.11681794,-0.01910541,0.25667378,0.00001032,0.
 00001206,0.00000077,0.00027413,-0.00284206,-0.00298628,-0.01118639,0.0
 0300829,0.01174294,-0.02026251,-0.00545665,0.01583510,-0.00010451,-0.0
 0005668,-0.00005037,0.00004355,0.00000196,0.00000788,-0.00051905,0.000
 15428,0.00019579,-0.00001144,0.00000105,0.00000449,-0.00045600,0.00291
 972,-0.00137270,0.00027921,0.00006138,0.00013230,-0.18479555,0.0230039
 4,0.12876065,0.00080481,-0.00019278,-0.00005357,-0.00005439,-0.0000041
 0,-0.00003748,-0.00001133,0.00000285,-0.00000432,-0.00000688,-0.000001
 25,0.00000037,0.00004937,0.00008814,0.00035457,-0.00080088,0.00002928,
 0.00077127,0.00051721,-0.00089533,-0.00004391,0.00035501,0.00021199,-0
 .00006068,-0.00000828,0.00000051,0.00000142,-0.00000843,-0.00000393,-0
 .00000364,0.00000162,-0.00000027,-0.00000186,-0.00000342,-0.00000032,-
 0.00000474,0.00002833,-0.00003110,0.00020944,-0.00068981,-0.00004559,0
 .00070855,-0.00005422,-0.00000253,-0.00000795,0.20539446,-0.00000326,0
 .00001712,-0.00001498,-0.00203362,-0.00416782,-0.00231568,0.01987377,-
 0.00128272,-0.02052015,-0.02973537,-0.00337312,0.02418245,0.00001890,0
 .00000486,-0.00000476,0.00000300,0.00000494,0.00000356,-0.00008290,0.0
 0054540,-0.00007393,0.00000436,-0.00000243,-0.00000099,0.00255577,-0.0
 0483766,0.00267479,-0.00002671,0.00007578,0.00003026,0.02997296,-0.052
 64161,-0.02852763,-0.00042726,-0.00130770,0.00036980,-0.00000935,-0.00
 000875,0.00002937,-0.00000197,-0.00000075,-0.00000061,0.00000624,0.000
 00110,0.00000017,0.00014293,0.00001328,0.00011043,-0.00137211,0.000027
 11,0.00088349,-0.00081097,0.00121252,0.00042224,-0.00095246,0.00077330
 ,0.00002864,-0.00000005,0.00000031,0.00000018,0.00000098,0.00000094,0.
 00000050,-0.00000041,0.00000004,0.00000052,0.00000040,0.00000216,0.000
 00149,-0.00029901,0.00000687,0.00009649,0.00171081,0.00006152,-0.00109
 362,-0.00000287,-0.00000240,-0.00000373,-0.01898885,0.06364784,-0.0000
 0091,-0.00000049,-0.00000046,-0.00109079,0.00003778,0.00138723,-0.0063
 4658,0.00104183,0.00502503,-0.00283584,0.00131915,0.00381175,0.0000046
 2,-0.00000154,0.00000068,-0.00000260,-0.00000059,-0.00000056,0.0000118
 3,0.00002147,0.00001841,-0.00000034,0.00000038,-0.00000126,-0.00068969
 ,0.00079690,0.00074777,-0.00002228,0.00000396,-0.00000315,0.13659032,-
 0.02153257,-0.18558530,-0.00005956,-0.00000384,-0.00007574,-0.00000718
 ,0.00000356,-0.00000316,0.00000036,-0.00000041,0.00000018,0.00000065,-
 0.00000042,0.00000052,-0.00008187,0.00003214,0.00039268,0.00021680,-0.
 00007734,0.00016150,0.00016036,-0.00059341,0.00083121,0.00047165,-0.00
 046791,0.00010057,0.00000088,0.00000028,-0.00000003,0.00000041,0.00000
 028,0.00000044,-0.00000023,-0.00000018,0.00000041,0.00000073,-0.000000
 28,0.00000011,-0.00014340,0.00001624,0.00029516,-0.00008039,0.00016302
 ,0.00021237,0.00000189,0.00000119,-0.00000060,-0.14586909,0.02298945,0
 .19068304,0.00000366,0.00000814,-0.00000392,0.00137781,0.00022037,-0.0
 0396891,-0.00651493,0.00203770,-0.01701491,-0.01545915,-0.01418829,-0.
 01806119,-0.00003565,-0.00002347,-0.00002161,0.00001842,-0.00000059,0.
 00000115,-0.00036762,0.00011839,0.00015357,-0.00000261,0.00000047,0.00
 000068,0.00056499,-0.00091425,-0.00082638,0.00011379,0.00002540,0.0000
 8226,-0.09160273,0.00388417,-0.08527388,-0.00004411,-0.00008513,0.0002
 5976,-0.00001197,-0.00000391,-0.00000726,-0.00000432,0.00000071,-0.000
 00182,-0.00000138,-0.00000067,0.00000067,0.00018380,0.00027329,0.00061
 294,0.00008578,-0.00000988,0.00028327,-0.00094670,0.00283809,-0.000696
 36,0.00057561,-0.00002311,0.00027133,-0.00000322,0.00000025,0.00000117
 ,-0.00000358,-0.00000135,-0.00000148,0.00000020,-0.00000015,0.00000044
 ,-0.00000141,0.00000027,-0.00000108,-0.00006832,0.00004591,0.00024623,
 0.00018701,0.00003387,0.00017204,-0.00002858,-0.00000071,-0.00000410,0
 .01128394,0.00041688,0.01978766,0.10065735,-0.00000027,0.00000664,-0.0
 0000255,0.00291321,0.00078721,-0.00384815,0.01243414,-0.00017550,0.026
 79473,-0.02504781,-0.01386023,-0.02810713,-0.00002191,-0.00001867,-0.0
 0001762,0.00001378,0.00000016,0.00000311,-0.00025151,0.00025885,0.0000
 6118,-0.00000143,0.00000050,0.00000160,-0.00109256,0.00104304,0.000548
 53,0.00008322,0.00005480,0.00006068,0.00314553,-0.04752095,0.00437736,
 -0.00002660,-0.00047447,0.00037405,-0.00002261,-0.00000708,-0.00000187
 ,-0.00000403,0.00000100,-0.00000145,-0.00000046,0.00000027,-0.00000048
 ,0.00057428,0.00033729,0.00095731,0.00013655,-0.00006107,0.00024380,0.
 00398110,-0.00426749,0.00062050,-0.00084708,0.00109948,-0.00047690,-0.
 00000241,0.00000063,0.00000066,-0.00000225,-0.00000059,-0.00000088,-0.
 00000029,-0.00000049,-0.00000102,-0.00000108,0.00000014,-0.00000119,-0
 .00007651,0.00007090,-0.00054068,-0.00028650,-0.00007019,-0.00018027,-
 0.00001748,-0.00000260,-0.00000407,-0.00095034,0.00113295,-0.00372924,
 0.00538108,0.06170575,0.00000393,0.00000867,0.00000042,0.00172064,0.00
 088884,0.00220454,-0.00137540,0.00056195,-0.00583933,-0.00465070,-0.00
 722181,0.00005895,-0.00005762,-0.00002680,-0.00002367,0.00002421,-0.00
 000048,0.00000217,-0.00037601,-0.00000583,0.00007118,-0.00000370,0.000
 00037,0.00000103,0.00038523,-0.00043926,0.00091128,0.00014125,0.000015
 39,0.00007844,-0.08926359,0.00133577,-0.26259984,0.00030110,-0.0001931
 1,-0.00004114,-0.00002241,-0.00000012,-0.00001945,-0.00000543,0.000001
 24,-0.00000248,-0.00000383,-0.00000072,0.00000101,-0.00127894,-0.00009
 623,0.00043362,-0.00007174,-0.00006868,0.00040018,-0.00049948,0.001124
 05,0.00108780,-0.00016364,0.00042038,0.00013579,-0.00000459,-0.0000000
 9,0.00000161,-0.00000455,-0.00000161,-0.00000207,0.00000040,-0.0000000
 5,0.00000009,-0.00000216,0.00000020,-0.00000178,-0.00049112,-0.0000946
 8,0.00035703,0.00001496,0.00012801,0.00018574,-0.00003184,-0.00000154,
 -0.00000348,-0.00825191,0.00074362,-0.01800654,0.10398728,0.00286861,0
 .28078056,0.00001112,-0.00000813,0.00006966,-0.00954493,-0.00052291,-0
 .01831829,0.00057628,0.00016903,-0.00065625,0.00136102,-0.00056180,0.0
 0024845,-0.00200155,-0.00113726,0.00043072,0.00011218,0.00006577,0.000
 07807,0.00520316,0.00138500,0.03177185,0.00000178,0.00000524,0.0000321
 8,-0.00685451,-0.00169829,-0.01433957,0.00170371,0.00012134,0.00138338
 ,0.00003922,-0.00004766,0.00007350,-0.10905922,-0.00974426,-0.11441314
 ,-0.00098766,0.00082746,-0.00029633,-0.00000642,0.00000673,0.00000368,
 -0.00004784,-0.00003032,0.00001881,-0.00188541,0.00297541,-0.00010075,
 0.00102585,-0.00035665,0.00068512,-0.00010468,-0.00002935,0.00025843,0
 .00005858,-0.00003059,0.00011571,-0.00005894,0.00001769,0.00003702,0.0
 0001109,-0.00001043,0.00000098,0.00004398,0.00000140,-0.00002645,0.000
 00689,-0.00000174,-0.00001349,-0.00115402,-0.00274233,0.00007841,0.000
 60278,0.00017719,0.00059501,0.00013135,0.00006277,-0.00023469,-0.00006
 290,0.00003143,-0.00001509,0.00004384,-0.00000686,-0.00001533,0.122329
 09,0.00002940,0.00007925,0.00010416,0.01496339,-0.00008151,0.02577917,
 0.00092701,0.00077522,-0.00048362,-0.00212432,0.00119533,-0.00082459,-
 0.00063426,-0.00018315,0.00056260,-0.00004582,0.00001584,0.00002287,0.
 00082083,-0.00026456,0.00068161,0.00001631,0.00002235,0.00001609,-0.01
 507268,-0.00357755,-0.02578974,-0.00016972,0.00106758,-0.00041602,-0.0
 0012651,-0.00032396,-0.00000282,-0.01066136,-0.05096316,-0.02013091,0.
 00036109,-0.00024162,-0.00057486,-0.00003861,0.00000650,-0.00001116,-0
 .00004927,-0.00001012,-0.00000397,0.00370117,-0.00344023,0.00082314,-0
 .00097046,0.00146479,-0.00015496,0.00001192,0.00014756,0.00048286,0.00
 024226,-0.00008743,0.00028899,-0.00000625,-0.00000741,-0.00000964,0.00
 002140,-0.00000462,0.00000182,0.00000618,-0.00000236,-0.00000439,0.000
 00009,-0.00001686,-0.00000369,-0.00331858,-0.00415825,-0.00037685,0.00
 107154,0.00141864,0.00013989,0.00003845,-0.00011149,0.00001327,-0.0000
 1950,0.00009567,-0.00002077,-0.00003497,-0.00003780,0.00005162,0.00988
 916,0.05804758,-0.00008129,-0.00011295,0.00037080,-0.00291639,0.000573
 14,-0.00386653,-0.00035043,-0.00007027,0.00046664,-0.00049739,-0.00053
 759,0.00162932,-0.00109747,0.00012801,0.00132623,0.00016872,0.00015112
 ,0.00053483,0.00231718,-0.00098204,-0.03040774,0.00001365,0.00001421,0
 .00000804,-0.00163447,-0.00090903,-0.00019267,-0.00418756,-0.00031124,
 -0.00205032,0.00005900,0.00016125,0.00007926,-0.10370346,-0.01897262,-
 0.25171467,0.00009144,0.00030805,-0.00009295,0.00005072,0.00001003,0.0
 0000780,-0.00015403,-0.00001950,-0.00003748,0.00028956,0.00034130,0.00
 041473,0.00006612,0.00008761,0.00047032,-0.00026068,0.00015613,0.00016
 924,-0.00008958,-0.00001748,0.00022938,-0.00021235,-0.00002213,-0.0000
 3475,0.00005149,-0.00001870,0.00000013,0.00004533,0.00000341,-0.000026
 82,-0.00000899,-0.00000114,-0.00002267,0.00034795,0.00031000,0.0008360
 4,-0.00000355,-0.00004241,0.00027938,0.00025324,-0.00004684,0.00017203
 ,0.00000633,-0.00000463,0.00000813,0.00002146,-0.00000360,-0.00018189,
 0.11194036,0.01969005,0.28070471,-0.02057035,-0.00277659,0.02617441,-0
 .00013853,0.00001013,-0.00032762,-0.00003985,0.00006554,-0.00008890,0.
 00004828,-0.00002980,-0.00000458,-0.00017558,-0.00104755,0.00066512,-0
 .00028045,-0.00003747,-0.00015302,0.00088031,-0.00116918,0.00108590,0.
 00153271,0.00059969,0.00098727,-0.00066711,0.00016936,0.00005399,0.004
 34677,0.00065653,-0.00825160,-0.00001885,0.00000628,0.00003381,-0.0013
 9643,0.00099262,-0.00032076,-0.12712940,-0.01483598,0.12227972,0.00160
 730,0.00029917,-0.00003460,-0.00567403,-0.00054675,-0.00208514,-0.0000
 4857,0.00009075,0.00000630,0.00001458,-0.00001873,0.00000993,0.0000350
 9,-0.00001255,0.00003142,-0.00000312,-0.00000315,0.00000808,-0.0000292
 6,0.00002761,-0.00002722,0.00003335,-0.00008450,0.00004895,0.00024103,
 -0.00033292,-0.00045943,0.00018762,0.00026580,-0.00029879,0.00005410,-
 0.00001185,-0.00000357,-0.00022399,0.00002300,-0.00018385,0.00008379,0
 .00175012,-0.00075463,-0.00000438,0.00001116,-0.00000326,0.00000224,-0
 .00000281,-0.00000360,-0.00149214,0.00117958,-0.00035456,0.14566584,0.
 00098476,-0.00070222,-0.00095164,-0.00000166,-0.00003338,-0.00008851,0
 .00003847,0.00002492,0.00001511,-0.00001093,-0.00002068,0.00001541,0.0
 0059155,0.00296077,-0.00088810,0.00009135,0.00004111,0.00001522,0.0000
 5901,0.00150443,-0.00222256,-0.00050852,-0.00001292,0.00047190,0.00012
 443,-0.00003716,-0.00037259,-0.01902274,-0.00422222,0.02626333,0.00000
 836,0.00001548,-0.00000009,0.00089426,-0.00021459,0.00067698,-0.013736
 95,-0.05157172,0.01865471,-0.00004112,0.00017868,-0.00037997,0.0003903
 0,0.00096567,0.00035974,-0.00003577,0.00003315,0.00000961,0.00000346,0
 .00000877,0.00000146,-0.00000127,0.00000187,0.00000677,0.00001059,0.00
 000076,-0.00000726,0.00005468,0.00003458,-0.00001342,-0.00000292,0.000
 00055,-0.00002386,-0.00017839,0.00009925,0.00005667,0.00001062,-0.0000
 0313,0.00003903,-0.00007774,-0.00000623,-0.00000906,0.00001083,0.00001
 310,-0.00003387,0.00164759,-0.00411053,0.00241146,-0.00000136,-0.00000
 320,0.00000176,0.00000064,-0.00000290,0.00000163,0.00124145,-0.0008261
 3,0.00003694,0.01325752,0.05259642,-0.00563372,-0.00140449,0.00803633,
 -0.00002805,0.00012195,0.00052747,-0.00000446,-0.00008562,0.00011898,0
 .00002353,0.00002661,-0.00003995,-0.00040583,-0.00073662,0.00207831,-0
 .00033618,-0.00005521,0.00004460,-0.00011904,-0.00036747,0.00098649,-0
 .00002478,0.00034359,0.00076895,-0.00027737,-0.00001070,-0.00000116,0.
 01013815,0.00095577,-0.01691813,-0.00001153,-0.00000721,-0.00006739,-0
 .00005276,-0.00029500,-0.00067410,0.12165731,0.02078382,-0.22670984,0.
 00068881,-0.00006497,0.00057644,-0.00225382,-0.00035147,0.00048953,0.0
 0013709,-0.00015712,0.00000559,0.00000395,-0.00003015,-0.00000392,-0.0
 0002475,0.00000478,-0.00003687,0.00001389,0.00001116,-0.00001458,0.000
 01254,-0.00006866,-0.00019131,0.00003707,-0.00000168,0.00001333,0.0001
 3060,0.00034299,-0.00003649,0.00005538,0.00014529,0.00012919,0.0000618
 6,0.00001884,0.00003327,-0.00016811,-0.00022541,-0.00004405,-0.0010081
 5,0.00304722,-0.00033646,0.00001977,-0.00001972,0.00000088,0.00000003,
 0.00000403,0.00000890,0.00049268,0.00014331,0.00074154,-0.13271462,-0.
 02456701,0.24485193,-0.00559424,-0.02619356,-0.01930079,-0.00003411,-0
 .00007501,-0.00013278,-0.00001675,0.00000526,-0.00000153,-0.00002054,0
 .00000485,0.00001771,0.00127542,0.00334429,-0.00060933,-0.00067647,0.0
 0047894,-0.00034904,0.00082075,-0.00004282,0.00058024,-0.00661726,0.00
 143115,-0.00082431,0.00005101,-0.00007061,0.00007271,-0.00114964,0.005
 06074,0.00542579,0.00001173,0.00000014,0.00000103,-0.00010916,0.000314
 20,0.00018016,-0.05439765,-0.03791435,-0.02885010,0.00145172,0.0005564
 5,0.00032749,0.00150321,0.00006718,0.00070010,-0.00003249,0.00003651,-
 0.00001788,0.00000802,-0.00000144,0.00000143,0.00000511,-0.00000031,-0
 .00000343,-0.00000122,-0.00000185,-0.00000044,0.00008818,-0.00002599,0
 .00013224,0.00018637,-0.00009558,0.00009618,0.00013828,0.00003901,-0.0
 0014158,-0.00041549,-0.00177464,-0.00097604,-0.00000124,-0.00001623,-0
 .00003036,-0.00005616,-0.00005644,0.00013048,0.00011672,-0.00024019,-0
 .00015338,-0.00000159,-0.00000241,0.00000093,-0.00000213,-0.00000008,-
 0.00000143,-0.00000169,-0.00000748,-0.00017037,0.00315904,0.01419952,0
 .00959052,0.06031227,-0.00034806,0.00162709,0.00153958,-0.00002386,0.0
 0002515,0.00003122,-0.00000402,0.00004909,-0.00000528,0.00001755,0.000
 00710,-0.00000208,0.00005232,-0.00872340,0.00192628,0.00205091,0.00050
 879,0.00044962,-0.00039831,0.00210404,-0.00021414,0.00029242,0.0013760
 1,0.00036579,0.00013820,-0.00014059,0.00008729,-0.00602343,-0.01859363
 ,-0.02011015,-0.00001971,-0.00001929,0.00000717,0.00005222,-0.00008124
 ,-0.00005196,-0.03707108,-0.20787853,-0.12375206,-0.00054264,0.0003705
 5,0.00000224,-0.00023788,0.00015949,-0.00000634,0.00001862,-0.00001620
 ,-0.00000787,-0.00000193,-0.00000126,0.00000183,0.00000050,-0.00000080
 ,0.00000070,0.00000569,-0.00000090,-0.00000360,-0.00024333,-0.00001329
 ,0.00000106,-0.00025457,-0.00002005,-0.00009569,0.00004265,-0.00009111
 ,-0.00009967,0.00021747,0.00009632,-0.00006286,0.00001235,0.00001062,-
 0.00001666,-0.00003070,0.00004525,-0.00001370,-0.00013662,0.00106129,0
 .00040325,-0.00000282,0.00000447,-0.00000043,0.00000084,0.00000043,0.0
 0000065,-0.00004849,0.00000192,0.00010092,0.00150496,0.00328752,0.0024
 9917,0.04098076,0.22484515,-0.00022107,-0.00528728,-0.00505547,0.00001
 927,0.00006881,0.00011172,-0.00003864,0.00006686,-0.00004137,0.0000306
 1,0.00001180,-0.00001843,-0.00079169,0.00499397,0.00051671,-0.00071202
 ,-0.00001115,-0.00041078,0.00097896,-0.00056950,0.00069016,-0.00232387
 ,0.00057362,0.00078929,-0.00003352,-0.00023987,0.00009585,0.00297436,0
 .01139533,0.00908763,-0.00003300,-0.00003227,0.00002351,0.00006949,-0.
 00017239,-0.00026802,-0.02955063,-0.12743195,-0.15028407,0.00028126,0.
 00009728,-0.00007965,-0.00012418,0.00032743,0.00063446,0.00002512,-0.0
 0003177,0.00001020,-0.00000650,0.00000330,-0.00000401,-0.00000153,-0.0
 0000128,0.00000290,0.00000431,-0.00000100,-0.00000219,0.00006890,-0.00
 003231,0.00002774,0.00014320,-0.00007915,0.00003707,0.00004357,0.00035
 312,0.00023682,-0.00014626,-0.00082277,-0.00008495,0.00000354,0.000020
 10,-0.00002450,-0.00013867,0.00012902,-0.00006234,0.00037521,-0.000894
 29,0.00049045,-0.00000314,0.00001298,-0.00000125,0.00000095,0.00000094
 ,0.00000132,0.00011537,0.00000654,0.00017995,-0.00531516,-0.01947980,-
 0.01433748,0.03430578,0.13702570,0.15773873\\-0.00000258,0.00000848,0.
 00000473,-0.00002395,0.00000966,0.00003489,-0.00000162,-0.00000234,0.0
 0000571,-0.00001286,-0.00002242,-0.00001722,0.00018798,0.00035623,-0.0
 0049205,-0.00006365,-0.00000778,-0.00003354,0.00007640,0.00109078,-0.0
 0005068,-0.00000132,-0.00000645,0.00001376,-0.00000364,0.00000781,0.00
 001151,-0.00024962,-0.00076507,0.00064138,0.00004197,0.00004361,0.0000
 1021,0.00003215,-0.00067784,-0.00010455,0.00000046,-0.00000624,0.00000
 431,0.00000356,-0.00000309,0.00000779,-0.00000130,0.00000011,-0.000003
 00,-0.00000040,-0.00000891,-0.00001767,0.00000616,0.00000362,-0.000007
 95,0.00000106,0.00000294,0.00000180,-0.00000178,-0.00000303,-0.0000049
 7,0.00001410,0.00000151,-0.00000905,-0.00000271,0.00000784,0.00000006,
 -0.00000001,0.00000311,0.00000224,0.00000440,-0.00000139,-0.00000664,-
 0.00000163,-0.00000261,-0.00000698,0.00000377,-0.00000727,0.00000568,0
 .00001234,-0.00000101,-0.00000708,-0.00000900,-0.00000628,0.00000427,-
 0.00000881,-0.00000985,-0.00001084,-0.00000119,0.00000324,0.00001558,-
 0.00000245,0.00000104,0.00000609,0.00000419,-0.00000839,0.00000223\\\@


 K N O W I N G  IS A BARRIER WHICH PREVENTS LEARNING

                     -- TEACHING OF THE BENE GESSERIT
 Job cpu time:       0 days 12 hours 24 minutes 56.6 seconds.
 Elapsed time:       0 days  1 hours  2 minutes 10.3 seconds.
 File lengths (MBytes):  RWF=    721 Int=      0 D2E=      0 Chk=     34 Scr=      1
 Normal termination of Gaussian 16 at Sun Mar 10 08:18:54 2019.
