 Entering Gaussian System, Link 0=g16
 Initial command:
 /apps/gaussian/g16a03/g16/l1.exe "/jobfs/local/2011864.r-man2/Gau-18118.inp" -scrdir="/jobfs/local/2011864.r-man2/"
 Entering Link 1 = /apps/gaussian/g16a03/g16/l1.exe PID=     18119.
  
 Copyright (c) 1988,1990,1992,1993,1995,1998,2003,2009,2016,
            Gaussian, Inc.  All Rights Reserved.
  
 This is part of the Gaussian(R) 16 program.  It is based on
 the Gaussian(R) 09 system (copyright 2009, Gaussian, Inc.),
 the Gaussian(R) 03 system (copyright 2003, Gaussian, Inc.),
 the Gaussian(R) 98 system (copyright 1998, Gaussian, Inc.),
 the Gaussian(R) 94 system (copyright 1995, Gaussian, Inc.),
 the Gaussian 92(TM) system (copyright 1992, Gaussian, Inc.),
 the Gaussian 90(TM) system (copyright 1990, Gaussian, Inc.),
 the Gaussian 88(TM) system (copyright 1988, Gaussian, Inc.),
 the Gaussian 86(TM) system (copyright 1986, Carnegie Mellon
 University), and the Gaussian 82(TM) system (copyright 1983,
 Carnegie Mellon University). Gaussian is a federally registered
 trademark of Gaussian, Inc.
  
 This software contains proprietary and confidential information,
 including trade secrets, belonging to Gaussian, Inc.
  
 This software is provided under written license and may be
 used, copied, transmitted, or stored only in accord with that
 written license.
  
 The following legend is applicable only to US Government
 contracts under FAR:
  
                    RESTRICTED RIGHTS LEGEND
  
 Use, reproduction and disclosure by the US Government is
 subject to restrictions as set forth in subparagraphs (a)
 and (c) of the Commercial Computer Software - Restricted
 Rights clause in FAR 52.227-19.
  
 Gaussian, Inc.
 340 Quinnipiac St., Bldg. 40, Wallingford CT 06492
  
  
 ---------------------------------------------------------------
 Warning -- This program may not be used in any manner that
 competes with the business of Gaussian, Inc. or will provide
 assistance to any competitor of Gaussian, Inc.  The licensee
 of this program is prohibited from giving any competitor of
 Gaussian, Inc. access to this program.  By using this program,
 the user acknowledges that Gaussian, Inc. is engaged in the
 business of creating and licensing software in the field of
 computational chemistry and represents and warrants to the
 licensee that it is not a competitor of Gaussian, Inc. and that
 it will not use this program in any manner prohibited above.
 ---------------------------------------------------------------
  

 Cite this work as:
 Gaussian 16, Revision A.03,
 M. J. Frisch, G. W. Trucks, H. B. Schlegel, G. E. Scuseria, 
 M. A. Robb, J. R. Cheeseman, G. Scalmani, V. Barone, 
 G. A. Petersson, H. Nakatsuji, X. Li, M. Caricato, A. V. Marenich, 
 J. Bloino, B. G. Janesko, R. Gomperts, B. Mennucci, H. P. Hratchian, 
 J. V. Ortiz, A. F. Izmaylov, J. L. Sonnenberg, D. Williams-Young, 
 F. Ding, F. Lipparini, F. Egidi, J. Goings, B. Peng, A. Petrone, 
 T. Henderson, D. Ranasinghe, V. G. Zakrzewski, J. Gao, N. Rega, 
 G. Zheng, W. Liang, M. Hada, M. Ehara, K. Toyota, R. Fukuda, 
 J. Hasegawa, M. Ishida, T. Nakajima, Y. Honda, O. Kitao, H. Nakai, 
 T. Vreven, K. Throssell, J. A. Montgomery, Jr., J. E. Peralta, 
 F. Ogliaro, M. J. Bearpark, J. J. Heyd, E. N. Brothers, K. N. Kudin, 
 V. N. Staroverov, T. A. Keith, R. Kobayashi, J. Normand, 
 K. Raghavachari, A. P. Rendell, J. C. Burant, S. S. Iyengar, 
 J. Tomasi, M. Cossi, J. M. Millam, M. Klene, C. Adamo, R. Cammi, 
 J. W. Ochterski, R. L. Martin, K. Morokuma, O. Farkas, 
 J. B. Foresman, and D. J. Fox, Gaussian, Inc., Wallingford CT, 2016.
 
 ******************************************
 Gaussian 16:  ES64L-G16RevA.03 25-Dec-2016
                 5-Nov-2018 
 ******************************************
 %mem=6000mb
 %nproc=24
 Will use up to   24 processors via shared memory.
 %chk=2SO_1_e4_D_PSI.inp_extract_2.chk
 ----------------------------------------------------------------------
 #M062X/6-311++G(2d,2p) opt=ModRedundant freq=noraman SCRF=(Solvent=Wat
 er)
 ----------------------------------------------------------------------
 1/18=120,19=15,26=3,38=1/1,3;
 2/9=110,12=2,17=6,18=5,40=1/2;
 3/5=4,6=6,7=1212,11=2,25=1,30=1,70=2201,71=1,72=1,74=-55/1,2,3;
 4//1;
 5/5=2,38=5,53=1/2;
 6/7=2,8=2,9=2,10=2,28=1/1;
 7//1,2,3,16;
 1/18=20,19=15,26=3/3(2);
 2/9=110/2;
 99//99;
 2/9=110/2;
 3/5=4,6=6,7=1212,11=2,25=1,30=1,70=2205,71=1,72=1,74=-55/1,2,3;
 4/5=5,16=3,69=1/1;
 5/5=2,38=5,53=1/2;
 7//1,2,3,16;
 1/18=20,19=15,26=3/3(-5);
 2/9=110/2;
 6/7=2,8=2,9=2,10=2,19=2,28=1/1;
 99/9=1/99;
 ----------------------------
 2SO_1_e4_D_PSI.inp_extract_2
 ----------------------------
 Symbolic Z-matrix:
 Charge =  0 Multiplicity = 1
 C                     1.13011   0.2205   -0.01649 
 C                    -3.93637   0.51242  -0.30324 
 C                    -1.17728  -0.52067   0.01628 
 C                    -2.63608   1.23618  -0.65852 
 C                    -3.62881  -0.84414   0.35661 
 C                     2.0623    1.01269   0.8908 
 C                     1.76954  -1.12866  -0.35034 
 C                     3.96384  -0.27413  -0.09936 
 O                     3.03714  -0.93611  -0.9405 
 C                     3.45801   1.10882   0.27322 
 O                    -0.09398   0.0664    0.68091 
 C                    -2.26695  -0.79554   1.0466 
 O                    -1.63511   0.30016  -1.02703 
 H                     0.95712   0.76708  -0.93693 
 H                    -4.5376    0.3649   -1.19459 
 H                    -4.51024   1.14397   0.36887 
 H                    -0.86953  -1.43648  -0.46396 
 H                    -2.76181   1.89361  -1.50688 
 H                    -2.27966   1.83264   0.1736 
 H                    -3.61737  -1.62727  -0.39623 
 H                    -4.40263  -1.1071    1.06954 
 H                     1.65003   2.00125   1.0671 
 H                     2.12      0.50628   1.85148 
 H                     1.18974  -1.68786  -1.06904 
 H                     1.8683   -1.72293   0.55559 
 H                     4.12675  -0.87643   0.79156 
 H                     4.89209  -0.22286  -0.65168 
 H                     4.14958   1.57152   0.97082 
 H                     3.42941   1.73025  -0.61817 
 H                    -2.25778  -0.0111    1.79725 
 H                    -2.04074  -1.72811   1.55129 
 
 The following ModRedundant input section has been read:
 D       6       1      11       3 F                                           
 

 GradGradGradGradGradGradGradGradGradGradGradGradGradGradGradGradGradGrad
 Berny optimization.
 Initialization pass.
                           ----------------------------
                           !    Initial Parameters    !
                           ! (Angstroms and Degrees)  !
 --------------------------                            --------------------------
 ! Name  Definition              Value          Derivative Info.                !
 --------------------------------------------------------------------------------
 ! R1    R(1,6)                  1.5231         estimate D2E/DX2                !
 ! R2    R(1,7)                  1.5299         estimate D2E/DX2                !
 ! R3    R(1,11)                 1.4172         estimate D2E/DX2                !
 ! R4    R(1,14)                 1.0844         estimate D2E/DX2                !
 ! R5    R(2,4)                  1.53           estimate D2E/DX2                !
 ! R6    R(2,5)                  1.5396         estimate D2E/DX2                !
 ! R7    R(2,15)                 1.0852         estimate D2E/DX2                !
 ! R8    R(2,16)                 1.0862         estimate D2E/DX2                !
 ! R9    R(3,11)                 1.4            estimate D2E/DX2                !
 ! R10   R(3,12)                 1.5246         estimate D2E/DX2                !
 ! R11   R(3,13)                 1.4042         estimate D2E/DX2                !
 ! R12   R(3,17)                 1.0789         estimate D2E/DX2                !
 ! R13   R(4,13)                 1.4191         estimate D2E/DX2                !
 ! R14   R(4,18)                 1.0806         estimate D2E/DX2                !
 ! R15   R(4,19)                 1.0841         estimate D2E/DX2                !
 ! R16   R(5,12)                 1.5275         estimate D2E/DX2                !
 ! R17   R(5,20)                 1.0864         estimate D2E/DX2                !
 ! R18   R(5,21)                 1.0845         estimate D2E/DX2                !
 ! R19   R(6,10)                 1.5293         estimate D2E/DX2                !
 ! R20   R(6,22)                 1.0855         estimate D2E/DX2                !
 ! R21   R(6,23)                 1.0875         estimate D2E/DX2                !
 ! R22   R(7,9)                  1.4114         estimate D2E/DX2                !
 ! R23   R(7,24)                 1.0795         estimate D2E/DX2                !
 ! R24   R(7,25)                 1.0879         estimate D2E/DX2                !
 ! R25   R(8,9)                  1.4158         estimate D2E/DX2                !
 ! R26   R(8,10)                 1.519          estimate D2E/DX2                !
 ! R27   R(8,26)                 1.0877         estimate D2E/DX2                !
 ! R28   R(8,27)                 1.0814         estimate D2E/DX2                !
 ! R29   R(10,28)                1.0858         estimate D2E/DX2                !
 ! R30   R(10,29)                1.087          estimate D2E/DX2                !
 ! R31   R(12,30)                1.0858         estimate D2E/DX2                !
 ! R32   R(12,31)                1.0842         estimate D2E/DX2                !
 ! A1    A(6,1,7)              109.4431         estimate D2E/DX2                !
 ! A2    A(6,1,11)             106.9809         estimate D2E/DX2                !
 ! A3    A(6,1,14)             109.9447         estimate D2E/DX2                !
 ! A4    A(7,1,11)             111.8696         estimate D2E/DX2                !
 ! A5    A(7,1,14)             109.0237         estimate D2E/DX2                !
 ! A6    A(11,1,14)            109.5547         estimate D2E/DX2                !
 ! A7    A(4,2,5)              110.2774         estimate D2E/DX2                !
 ! A8    A(4,2,15)             110.1458         estimate D2E/DX2                !
 ! A9    A(4,2,16)             108.5211         estimate D2E/DX2                !
 ! A10   A(5,2,15)             110.0551         estimate D2E/DX2                !
 ! A11   A(5,2,16)             110.6493         estimate D2E/DX2                !
 ! A12   A(15,2,16)            107.1304         estimate D2E/DX2                !
 ! A13   A(11,3,12)            107.9276         estimate D2E/DX2                !
 ! A14   A(11,3,13)            111.0936         estimate D2E/DX2                !
 ! A15   A(11,3,17)            110.2762         estimate D2E/DX2                !
 ! A16   A(12,3,13)            111.9906         estimate D2E/DX2                !
 ! A17   A(12,3,17)            110.5872         estimate D2E/DX2                !
 ! A18   A(13,3,17)            104.9792         estimate D2E/DX2                !
 ! A19   A(2,4,13)             110.3501         estimate D2E/DX2                !
 ! A20   A(2,4,18)             111.7914         estimate D2E/DX2                !
 ! A21   A(2,4,19)             111.1895         estimate D2E/DX2                !
 ! A22   A(13,4,18)            106.2289         estimate D2E/DX2                !
 ! A23   A(13,4,19)            109.2883         estimate D2E/DX2                !
 ! A24   A(18,4,19)            107.8251         estimate D2E/DX2                !
 ! A25   A(2,5,12)             110.1016         estimate D2E/DX2                !
 ! A26   A(2,5,20)             109.8936         estimate D2E/DX2                !
 ! A27   A(2,5,21)             110.6615         estimate D2E/DX2                !
 ! A28   A(12,5,20)            109.0615         estimate D2E/DX2                !
 ! A29   A(12,5,21)            110.2995         estimate D2E/DX2                !
 ! A30   A(20,5,21)            106.7546         estimate D2E/DX2                !
 ! A31   A(1,6,10)             110.5314         estimate D2E/DX2                !
 ! A32   A(1,6,22)             109.7537         estimate D2E/DX2                !
 ! A33   A(1,6,23)             108.4509         estimate D2E/DX2                !
 ! A34   A(10,6,22)            110.7923         estimate D2E/DX2                !
 ! A35   A(10,6,23)            109.7298         estimate D2E/DX2                !
 ! A36   A(22,6,23)            107.5031         estimate D2E/DX2                !
 ! A37   A(1,7,9)              110.2608         estimate D2E/DX2                !
 ! A38   A(1,7,24)             112.1854         estimate D2E/DX2                !
 ! A39   A(1,7,25)             109.7515         estimate D2E/DX2                !
 ! A40   A(9,7,24)             105.9408         estimate D2E/DX2                !
 ! A41   A(9,7,25)             109.948          estimate D2E/DX2                !
 ! A42   A(24,7,25)            108.6735         estimate D2E/DX2                !
 ! A43   A(9,8,10)             110.6986         estimate D2E/DX2                !
 ! A44   A(9,8,26)             109.0114         estimate D2E/DX2                !
 ! A45   A(9,8,27)             106.2947         estimate D2E/DX2                !
 ! A46   A(10,8,26)            110.6788         estimate D2E/DX2                !
 ! A47   A(10,8,27)            111.5913         estimate D2E/DX2                !
 ! A48   A(26,8,27)            108.4246         estimate D2E/DX2                !
 ! A49   A(7,9,8)              113.7789         estimate D2E/DX2                !
 ! A50   A(6,10,8)             110.2283         estimate D2E/DX2                !
 ! A51   A(6,10,28)            110.4032         estimate D2E/DX2                !
 ! A52   A(6,10,29)            110.0654         estimate D2E/DX2                !
 ! A53   A(8,10,28)            109.4789         estimate D2E/DX2                !
 ! A54   A(8,10,29)            109.1544         estimate D2E/DX2                !
 ! A55   A(28,10,29)           107.4568         estimate D2E/DX2                !
 ! A56   A(1,11,3)             118.7065         estimate D2E/DX2                !
 ! A57   A(3,12,5)             109.7368         estimate D2E/DX2                !
 ! A58   A(3,12,30)            109.3246         estimate D2E/DX2                !
 ! A59   A(3,12,31)            108.6944         estimate D2E/DX2                !
 ! A60   A(5,12,30)            110.0481         estimate D2E/DX2                !
 ! A61   A(5,12,31)            111.6489         estimate D2E/DX2                !
 ! A62   A(30,12,31)           107.3277         estimate D2E/DX2                !
 ! A63   A(3,13,4)             114.9979         estimate D2E/DX2                !
 ! D1    D(7,1,6,10)            53.0451         estimate D2E/DX2                !
 ! D2    D(7,1,6,22)           175.5417         estimate D2E/DX2                !
 ! D3    D(7,1,6,23)           -67.2843         estimate D2E/DX2                !
 ! D4    D(11,1,6,10)          174.4326         estimate D2E/DX2                !
 ! D5    D(11,1,6,22)          -63.0707         estimate D2E/DX2                !
 ! D6    D(11,1,6,23)           54.1032         estimate D2E/DX2                !
 ! D7    D(14,1,6,10)          -66.6791         estimate D2E/DX2                !
 ! D8    D(14,1,6,22)           55.8176         estimate D2E/DX2                !
 ! D9    D(14,1,6,23)          172.9916         estimate D2E/DX2                !
 ! D10   D(6,1,7,9)            -56.6115         estimate D2E/DX2                !
 ! D11   D(6,1,7,24)          -174.4316         estimate D2E/DX2                !
 ! D12   D(6,1,7,25)            64.6502         estimate D2E/DX2                !
 ! D13   D(11,1,7,9)          -174.9982         estimate D2E/DX2                !
 ! D14   D(11,1,7,24)           67.1816         estimate D2E/DX2                !
 ! D15   D(11,1,7,25)          -53.7366         estimate D2E/DX2                !
 ! D16   D(14,1,7,9)            63.6769         estimate D2E/DX2                !
 ! D17   D(14,1,7,24)          -54.1432         estimate D2E/DX2                !
 ! D18   D(14,1,7,25)         -175.0615         estimate D2E/DX2                !
 ! D19   D(6,1,11,3)           173.9917         Frozen                          !
 ! D20   D(7,1,11,3)           -66.1668         estimate D2E/DX2                !
 ! D21   D(14,1,11,3)           54.8509         estimate D2E/DX2                !
 ! D22   D(5,2,4,13)            33.7443         estimate D2E/DX2                !
 ! D23   D(5,2,4,18)           151.7336         estimate D2E/DX2                !
 ! D24   D(5,2,4,19)           -87.6983         estimate D2E/DX2                !
 ! D25   D(15,2,4,13)          -87.9201         estimate D2E/DX2                !
 ! D26   D(15,2,4,18)           30.0692         estimate D2E/DX2                !
 ! D27   D(15,2,4,19)          150.6373         estimate D2E/DX2                !
 ! D28   D(16,2,4,13)          155.0936         estimate D2E/DX2                !
 ! D29   D(16,2,4,18)          -86.9171         estimate D2E/DX2                !
 ! D30   D(16,2,4,19)           33.651          estimate D2E/DX2                !
 ! D31   D(4,2,5,12)            26.6925         estimate D2E/DX2                !
 ! D32   D(4,2,5,20)           -93.458          estimate D2E/DX2                !
 ! D33   D(4,2,5,21)           148.8899         estimate D2E/DX2                !
 ! D34   D(15,2,5,12)          148.4106         estimate D2E/DX2                !
 ! D35   D(15,2,5,20)           28.2601         estimate D2E/DX2                !
 ! D36   D(15,2,5,21)          -89.3919         estimate D2E/DX2                !
 ! D37   D(16,2,5,12)          -93.3821         estimate D2E/DX2                !
 ! D38   D(16,2,5,20)          146.4674         estimate D2E/DX2                !
 ! D39   D(16,2,5,21)           28.8154         estimate D2E/DX2                !
 ! D40   D(12,3,11,1)          169.9165         estimate D2E/DX2                !
 ! D41   D(13,3,11,1)          -66.9478         estimate D2E/DX2                !
 ! D42   D(17,3,11,1)           49.0183         estimate D2E/DX2                !
 ! D43   D(11,3,12,5)          155.322          estimate D2E/DX2                !
 ! D44   D(11,3,12,30)          34.5406         estimate D2E/DX2                !
 ! D45   D(11,3,12,31)         -82.3223         estimate D2E/DX2                !
 ! D46   D(13,3,12,5)           32.7343         estimate D2E/DX2                !
 ! D47   D(13,3,12,30)         -88.047          estimate D2E/DX2                !
 ! D48   D(13,3,12,31)         155.09           estimate D2E/DX2                !
 ! D49   D(17,3,12,5)          -83.9742         estimate D2E/DX2                !
 ! D50   D(17,3,12,30)         155.2444         estimate D2E/DX2                !
 ! D51   D(17,3,12,31)          38.3815         estimate D2E/DX2                !
 ! D52   D(11,3,13,4)          -89.5829         estimate D2E/DX2                !
 ! D53   D(12,3,13,4)           31.1866         estimate D2E/DX2                !
 ! D54   D(17,3,13,4)          151.2271         estimate D2E/DX2                !
 ! D55   D(2,4,13,3)           -67.9572         estimate D2E/DX2                !
 ! D56   D(18,4,13,3)          170.6882         estimate D2E/DX2                !
 ! D57   D(19,4,13,3)           54.6071         estimate D2E/DX2                !
 ! D58   D(2,5,12,3)           -61.4992         estimate D2E/DX2                !
 ! D59   D(2,5,12,30)           58.8438         estimate D2E/DX2                !
 ! D60   D(2,5,12,31)          177.9187         estimate D2E/DX2                !
 ! D61   D(20,5,12,3)           59.1529         estimate D2E/DX2                !
 ! D62   D(20,5,12,30)         179.4959         estimate D2E/DX2                !
 ! D63   D(20,5,12,31)         -61.4292         estimate D2E/DX2                !
 ! D64   D(21,5,12,3)          176.0895         estimate D2E/DX2                !
 ! D65   D(21,5,12,30)         -63.5675         estimate D2E/DX2                !
 ! D66   D(21,5,12,31)          55.5074         estimate D2E/DX2                !
 ! D67   D(1,6,10,8)           -52.3198         estimate D2E/DX2                !
 ! D68   D(1,6,10,28)         -173.3995         estimate D2E/DX2                !
 ! D69   D(1,6,10,29)           68.1361         estimate D2E/DX2                !
 ! D70   D(22,6,10,8)         -174.207          estimate D2E/DX2                !
 ! D71   D(22,6,10,28)          64.7133         estimate D2E/DX2                !
 ! D72   D(22,6,10,29)         -53.7512         estimate D2E/DX2                !
 ! D73   D(23,6,10,8)           67.2412         estimate D2E/DX2                !
 ! D74   D(23,6,10,28)         -53.8385         estimate D2E/DX2                !
 ! D75   D(23,6,10,29)        -172.303          estimate D2E/DX2                !
 ! D76   D(1,7,9,8)             61.6216         estimate D2E/DX2                !
 ! D77   D(24,7,9,8)          -176.7745         estimate D2E/DX2                !
 ! D78   D(25,7,9,8)           -59.5229         estimate D2E/DX2                !
 ! D79   D(10,8,9,7)           -60.6223         estimate D2E/DX2                !
 ! D80   D(26,8,9,7)            61.3466         estimate D2E/DX2                !
 ! D81   D(27,8,9,7)           178.0261         estimate D2E/DX2                !
 ! D82   D(9,8,10,6)            54.5532         estimate D2E/DX2                !
 ! D83   D(9,8,10,28)          176.1833         estimate D2E/DX2                !
 ! D84   D(9,8,10,29)          -66.4487         estimate D2E/DX2                !
 ! D85   D(26,8,10,6)          -66.4327         estimate D2E/DX2                !
 ! D86   D(26,8,10,28)          55.1973         estimate D2E/DX2                !
 ! D87   D(26,8,10,29)         172.5654         estimate D2E/DX2                !
 ! D88   D(27,8,10,6)          172.7242         estimate D2E/DX2                !
 ! D89   D(27,8,10,28)         -65.6458         estimate D2E/DX2                !
 ! D90   D(27,8,10,29)          51.7223         estimate D2E/DX2                !
 --------------------------------------------------------------------------------
 Trust Radius=3.00D-01 FncErr=1.00D-07 GrdErr=1.00D-06 EigMax=2.50D+02 EigMin=1.00D-04
 Number of steps in this run=    186 maximum allowed number of steps=    186.
 GradGradGradGradGradGradGradGradGradGradGradGradGradGradGradGradGradGrad

                          Input orientation:                          
 ---------------------------------------------------------------------
 Center     Atomic      Atomic             Coordinates (Angstroms)
 Number     Number       Type             X           Y           Z
 ---------------------------------------------------------------------
      1          6           0        1.130114    0.220500   -0.016494
      2          6           0       -3.936371    0.512424   -0.303235
      3          6           0       -1.177279   -0.520666    0.016275
      4          6           0       -2.636083    1.236175   -0.658521
      5          6           0       -3.628809   -0.844136    0.356614
      6          6           0        2.062302    1.012695    0.890799
      7          6           0        1.769541   -1.128661   -0.350338
      8          6           0        3.963844   -0.274125   -0.099357
      9          8           0        3.037140   -0.936106   -0.940500
     10          6           0        3.458009    1.108819    0.273222
     11          8           0       -0.093978    0.066403    0.680914
     12          6           0       -2.266947   -0.795538    1.046596
     13          8           0       -1.635112    0.300164   -1.027035
     14          1           0        0.957115    0.767079   -0.936931
     15          1           0       -4.537600    0.364904   -1.194590
     16          1           0       -4.510243    1.143966    0.368868
     17          1           0       -0.869526   -1.436481   -0.463963
     18          1           0       -2.761805    1.893611   -1.506878
     19          1           0       -2.279657    1.832644    0.173600
     20          1           0       -3.617366   -1.627265   -0.396228
     21          1           0       -4.402632   -1.107099    1.069543
     22          1           0        1.650026    2.001254    1.067102
     23          1           0        2.120004    0.506275    1.851480
     24          1           0        1.189743   -1.687857   -1.069039
     25          1           0        1.868300   -1.722931    0.555586
     26          1           0        4.126752   -0.876427    0.791564
     27          1           0        4.892093   -0.222858   -0.651682
     28          1           0        4.149580    1.571520    0.970815
     29          1           0        3.429413    1.730250   -0.618174
     30          1           0       -2.257784   -0.011097    1.797247
     31          1           0       -2.040738   -1.728109    1.551289
 ---------------------------------------------------------------------
                    Distance matrix (angstroms):
                    1          2          3          4          5
     1  C    0.000000
     2  C    5.082982   0.000000
     3  C    2.423729   2.963436   0.000000
     4  C    3.953231   1.529965   2.381165   0.000000
     5  C    4.890808   1.539562   2.496090   2.518670   0.000000
     6  C    1.523065   6.136780   3.689292   4.952288   6.010151
     7  C    1.529887   5.937408   3.031140   5.009686   5.451873
     8  C    2.877768   7.941890   5.148330   6.793578   7.627660
     9  O    2.414182   7.150818   4.341582   6.081429   6.791601
    10  C    2.508414   7.440756   4.920075   6.166224   7.351461
    11  O    1.417224   3.991424   1.399977   3.102378   3.664598
    12  C    3.701691   2.513918   1.524629   2.677974   1.527451
    13  O    2.945168   2.421721   1.404232   1.419106   2.683046
    14  H    1.084381   4.940913   2.668806   3.634369   5.029908
    15  H    5.790660   1.085243   3.679971   2.159224   2.166544
    16  H    5.728431   1.086231   3.742188   2.139277   2.174770
    17  H    2.635218   3.637252   1.078915   3.209621   2.939024
    18  H    4.490833   2.176244   3.264881   1.080619   3.423384
    19  H    3.776464   2.171417   2.603470   1.084085   3.003141
    20  H    5.108522   2.165336   2.710857   3.038257   1.086367
    21  H    5.792519   2.173654   3.443280   3.405559   1.084536
    22  H    2.148389   5.941571   3.931663   4.683359   6.038803
    23  H    2.133278   6.428259   3.910839   5.427082   6.091559
    24  H    2.180191   5.630696   2.853600   4.832746   5.095370
    25  H    2.156181   6.279219   3.318411   5.524476   5.570465
    26  H    3.291815   8.254783   5.372186   7.231996   7.767815
    27  H    3.840900   8.865880   6.113275   7.668263   8.602815
    28  H    3.452131   8.253938   5.802053   6.986588   8.167985
    29  H    2.815695   7.472420   5.166310   6.085719   7.576026
    30  H    3.849824   2.739298   2.144531   2.780215   2.156174
    31  H    4.038480   3.471696   2.135357   3.744953   2.175000
                    6          7          8          9         10
     6  C    0.000000
     7  C    2.492295   0.000000
     8  C    2.500435   2.368162   0.000000
     9  O    2.846364   1.411445   1.415811   0.000000
    10  C    1.529261   2.871597   1.518953   2.414947   0.000000
    11  O    2.364120   2.442204   4.146167   3.665775   3.724172
    12  C    4.694292   4.284347   6.356716   5.665832   6.082746
    13  O    4.225714   3.753814   5.704271   4.833817   5.318315
    14  H    2.149968   2.144285   3.290297   2.688374   2.799237
    15  H    6.951776   6.536324   8.595490   7.689855   8.163188
    16  H    6.594543   6.716977   8.604671   7.937514   7.968904
    17  H    4.053327   2.659387   4.984524   3.967304   5.074402
    18  H    5.458652   5.568196   7.205175   6.477333   6.516958
    19  H    4.476528   5.043792   6.595020   6.097174   5.784000
    20  H    6.394095   5.410127   7.706742   6.712405   7.615461
    21  H    6.805942   6.333423   8.488704   7.708419   8.205736
    22  H    1.085497   3.437992   3.448439   3.818722   2.166908
    23  H    1.087520   2.764750   2.795449   3.273645   2.155044
    24  H    3.448957   1.079536   3.261067   1.998631   3.842928
    25  H    2.762907   1.087938   2.630455   2.055129   3.259710
    26  H    2.800104   2.631351   1.087680   2.047159   2.158031
    27  H    3.451602   3.265213   1.081359   2.008230   2.164580
    28  H    2.162271   3.834189   2.141535   3.343477   1.085817
    29  H    2.158906   3.316667   2.138295   2.714264   1.087006
    30  H    4.531329   4.698980   6.509604   6.032174   6.020561
    31  H    4.978272   4.300436   6.394819   5.711491   6.318056
                   11         12         13         14         15
    11  O    0.000000
    12  C    2.366106   0.000000
    13  O    2.312321   2.428935   0.000000
    14  H    2.052600   4.095208   2.635483   0.000000
    15  H    4.832432   3.394909   2.908041   5.515435   0.000000
    16  H    4.556524   3.041935   3.305590   5.633752   1.747022
    17  H    2.042273   2.155315   1.979674   2.901033   4.151334
    18  H    3.904155   3.741208   2.009667   3.927376   2.363877
    19  H    2.855550   2.769409   2.050721   3.584048   3.020681
    20  H    4.054998   2.144095   2.835883   5.191447   2.335155
    21  H    4.482481   2.158413   3.746358   6.022073   2.703943
    22  H    2.633313   4.813018   4.251029   2.453459   6.788196
    23  H    2.542721   4.646277   4.735950   3.032419   7.322719
    24  H    2.790646   4.149801   3.454533   2.469469   6.085396
    25  H    2.658563   4.266312   4.344134   3.042699   6.961158
    26  H    4.326168   6.399295   6.155546   3.966788   8.975339
    27  H    5.169177   7.379970   6.558875   4.067603   9.463579
    28  H    4.511896   6.839629   6.250633   3.805056   9.033936
    29  H    4.107347   6.449774   5.278421   2.672370   8.103686
    30  H    2.436034   1.085776   2.908809   4.291487   3.780215
    31  H    2.787059   1.084239   3.305477   4.626481   4.260854
                   16         17         18         19         20
    16  H    0.000000
    17  H    4.539508   0.000000
    18  H    2.671596   3.969623   0.000000
    19  H    2.342631   3.616923   1.749340   0.000000
    20  H    3.010369   2.755288   3.789736   3.753017   0.000000
    21  H    2.360046   3.865614   4.281883   3.735214   1.742326
    22  H    6.258705   4.528833   5.108935   4.033508   6.561471
    23  H    6.823853   4.251219   6.085666   4.891989   6.520859
    24  H    6.525078   2.160994   5.351014   5.096549   4.854343
    25  H    6.995697   2.935511   6.226637   5.476639   5.568450
    26  H    8.880222   5.181969   7.772269   6.983052   7.870576
    27  H    9.555818   5.891042   7.987049   7.506009   8.628355
    28  H    8.691241   6.024789   7.349146   6.483735   8.510375
    29  H    8.022227   5.341614   6.256809   5.764622   7.808922
    30  H    2.906546   3.011984   3.846972   2.456845   3.044962
    31  H    3.968046   2.349048   4.794703   3.825450   2.507738
                   21         22         23         24         25
    21  H    0.000000
    22  H    6.804156   0.000000
    23  H    6.764553   1.752453   0.000000
    24  H    6.015436   4.287715   3.769487   0.000000
    25  H    6.322024   3.765481   2.590764   1.760987   0.000000
    26  H    8.537030   3.806723   2.657503   3.570194   2.423398
    27  H    9.494020   4.290908   3.805513   4.003474   3.584835
    28  H    8.962426   2.538053   2.455503   4.852337   4.028655
    29  H    8.499404   2.465728   3.051534   4.111308   3.967272
    30  H    2.516177   4.455743   4.408587   4.786707   4.636450
    31  H    2.489232   5.269186   4.732268   4.159777   4.033860
                   26         27         28         29         30
    26  H    0.000000
    27  H    1.759505   0.000000
    28  H    2.454607   2.530536   0.000000
    29  H    3.044406   2.440325   1.751777   0.000000
    30  H    6.520927   7.560611   6.651464   6.419561   0.000000
    31  H    6.272199   7.428527   7.038788   6.825641   1.748066
                   31
    31  H    0.000000
 Stoichiometry    C10H18O3
 Framework group  C1[X(C10H18O3)]
 Deg. of freedom    87
 Full point group                 C1      NOp   1
 Largest Abelian subgroup         C1      NOp   1
 Largest concise Abelian subgroup C1      NOp   1
                         Standard orientation:                         
 ---------------------------------------------------------------------
 Center     Atomic      Atomic             Coordinates (Angstroms)
 Number     Number       Type             X           Y           Z
 ---------------------------------------------------------------------
      1          6           0        1.130114    0.220500   -0.016494
      2          6           0       -3.936371    0.512424   -0.303235
      3          6           0       -1.177279   -0.520666    0.016275
      4          6           0       -2.636083    1.236175   -0.658521
      5          6           0       -3.628809   -0.844136    0.356614
      6          6           0        2.062302    1.012695    0.890799
      7          6           0        1.769541   -1.128661   -0.350338
      8          6           0        3.963844   -0.274125   -0.099357
      9          8           0        3.037140   -0.936106   -0.940500
     10          6           0        3.458009    1.108819    0.273222
     11          8           0       -0.093978    0.066403    0.680914
     12          6           0       -2.266947   -0.795538    1.046596
     13          8           0       -1.635112    0.300164   -1.027035
     14          1           0        0.957115    0.767079   -0.936931
     15          1           0       -4.537600    0.364904   -1.194590
     16          1           0       -4.510243    1.143966    0.368868
     17          1           0       -0.869526   -1.436481   -0.463963
     18          1           0       -2.761805    1.893611   -1.506878
     19          1           0       -2.279657    1.832644    0.173600
     20          1           0       -3.617366   -1.627265   -0.396228
     21          1           0       -4.402632   -1.107099    1.069543
     22          1           0        1.650026    2.001254    1.067102
     23          1           0        2.120004    0.506275    1.851480
     24          1           0        1.189743   -1.687857   -1.069039
     25          1           0        1.868300   -1.722931    0.555586
     26          1           0        4.126752   -0.876427    0.791564
     27          1           0        4.892093   -0.222858   -0.651682
     28          1           0        4.149580    1.571520    0.970815
     29          1           0        3.429413    1.730250   -0.618174
     30          1           0       -2.257784   -0.011097    1.797247
     31          1           0       -2.040738   -1.728109    1.551289
 ---------------------------------------------------------------------
 Rotational constants (GHZ):           2.2309851           0.3598485           0.3491353
 Standard basis: 6-311++G(2d,2p) (5D, 7F)
 There are   557 symmetry adapted cartesian basis functions of A   symmetry.
 There are   531 symmetry adapted basis functions of A   symmetry.
   531 basis functions,   762 primitive gaussians,   557 cartesian basis functions
    51 alpha electrons       51 beta electrons
       nuclear repulsion energy       881.8540761274 Hartrees.
 NAtoms=   31 NActive=   31 NUniq=   31 SFac= 1.00D+00 NAtFMM=   60 NAOKFM=F Big=F
 Integral buffers will be    131072 words long.
 Raffenetti 2 integral format.
 Two-electron integral symmetry is turned on.
 ------------------------------------------------------------------------------
 Polarizable Continuum Model (PCM)
 =================================
 Model                : PCM.
 Atomic radii         : UFF (Universal Force Field).
 Polarization charges : Total charges.
 Charge compensation  : None.
 Solution method      : On-the-fly selection.
 Cavity type          : Scaled VdW (van der Waals Surface) (Alpha=1.100).
 Cavity algorithm     : GePol (No added spheres)
                        Default sphere list used, NSphG=   31.
                        Lebedev-Laikov grids with approx.  5.0 points / Ang**2.
                        Smoothing algorithm: York/Karplus (Gamma=1.0000).
                        Polarization charges: spherical gaussians, with
                                              point-specific exponents (IZeta= 3).
                        Self-potential: point-specific (ISelfS= 7).
                        Self-field    : sphere-specific E.n sum rule (ISelfD= 2).
 1st derivatives      : Analytical E(r).r(x)/FMM algorithm (CHGder, D1EAlg=3).
                        Cavity 1st derivative terms included.
 Solvent              : Water, Eps=  78.355300 Eps(inf)=   1.777849
 ------------------------------------------------------------------------------
 One-electron integrals computed using PRISM.
 NBasis=   531 RedAO= T EigKep=  5.17D-06  NBF=   531
 NBsUse=   531 1.00D-06 EigRej= -1.00D+00 NBFU=   531
 ExpMin= 3.60D-02 ExpMax= 8.59D+03 ExpMxC= 1.30D+03 IAcc=3 IRadAn=         5 AccDes= 0.00D+00
 Harris functional with IExCor= 1009 and IRadAn=       5 diagonalized for initial guess.
 HarFok:  IExCor= 1009 AccDes= 0.00D+00 IRadAn=         5 IDoV= 1 UseB2=F ITyADJ=14
 ICtDFT=  3500011 ScaDFX=  1.000000  1.000000  1.000000  1.000000
 FoFCou: FMM=F IPFlag=           0 FMFlag=      100000 FMFlg1=           0
         NFxFlg=           0 DoJE=T BraDBF=F KetDBF=T FulRan=T
         wScrn=  0.000000 ICntrl=       500 IOpCl=  0 I1Cent=   200000004 NGrid=           0
         NMat0=    1 NMatS0=      1 NMatT0=    0 NMatD0=    1 NMtDS0=    0 NMtDT0=    0
 Petite list used in FoFCou.
 Requested convergence on RMS density matrix=1.00D-08 within 128 cycles.
 Requested convergence on MAX density matrix=1.00D-06.
 Requested convergence on             energy=1.00D-06.
 No special actions if energy rises.
 Inv3:  Mode=1 IEnd=    13318347.
 Iteration    1 A*A^-1 deviation from unit magnitude is 6.33D-15 for   2092.
 Iteration    1 A*A^-1 deviation from orthogonality  is 2.01D-15 for   1823     65.
 Iteration    1 A^-1*A deviation from unit magnitude is 6.33D-15 for   2092.
 Iteration    1 A^-1*A deviation from orthogonality  is 1.57D-15 for   2101    882.
 Error on total polarization charges =  0.01502
 SCF Done:  E(RM062X) =  -617.495512525     A.U. after   12 cycles
            NFock= 12  Conv=0.49D-08     -V/T= 2.0035

 **********************************************************************

            Population analysis using the SCF density.

 **********************************************************************

 Orbital symmetries:
       Occupied  (A) (A) (A) (A) (A) (A) (A) (A) (A) (A) (A) (A)
                 (A) (A) (A) (A) (A) (A) (A) (A) (A) (A) (A) (A)
                 (A) (A) (A) (A) (A) (A) (A) (A) (A) (A) (A) (A)
                 (A) (A) (A) (A) (A) (A) (A) (A) (A) (A) (A) (A)
                 (A) (A) (A)
       Virtual   (A) (A) (A) (A) (A) (A) (A) (A) (A) (A) (A) (A)
                 (A) (A) (A) (A) (A) (A) (A) (A) (A) (A) (A) (A)
                 (A) (A) (A) (A) (A) (A) (A) (A) (A) (A) (A) (A)
                 (A) (A) (A) (A) (A) (A) (A) (A) (A) (A) (A) (A)
                 (A) (A) (A) (A) (A) (A) (A) (A) (A) (A) (A) (A)
                 (A) (A) (A) (A) (A) (A) (A) (A) (A) (A) (A) (A)
                 (A) (A) (A) (A) (A) (A) (A) (A) (A) (A) (A) (A)
                 (A) (A) (A) (A) (A) (A) (A) (A) (A) (A) (A) (A)
                 (A) (A) (A) (A) (A) (A) (A) (A) (A) (A) (A) (A)
                 (A) (A) (A) (A) (A) (A) (A) (A) (A) (A) (A) (A)
                 (A) (A) (A) (A) (A) (A) (A) (A) (A) (A) (A) (A)
                 (A) (A) (A) (A) (A) (A) (A) (A) (A) (A) (A) (A)
                 (A) (A) (A) (A) (A) (A) (A) (A) (A) (A) (A) (A)
                 (A) (A) (A) (A) (A) (A) (A) (A) (A) (A) (A) (A)
                 (A) (A) (A) (A) (A) (A) (A) (A) (A) (A) (A) (A)
                 (A) (A) (A) (A) (A) (A) (A) (A) (A) (A) (A) (A)
                 (A) (A) (A) (A) (A) (A) (A) (A) (A) (A) (A) (A)
                 (A) (A) (A) (A) (A) (A) (A) (A) (A) (A) (A) (A)
                 (A) (A) (A) (A) (A) (A) (A) (A) (A) (A) (A) (A)
                 (A) (A) (A) (A) (A) (A) (A) (A) (A) (A) (A) (A)
                 (A) (A) (A) (A) (A) (A) (A) (A) (A) (A) (A) (A)
                 (A) (A) (A) (A) (A) (A) (A) (A) (A) (A) (A) (A)
                 (A) (A) (A) (A) (A) (A) (A) (A) (A) (A) (A) (A)
                 (A) (A) (A) (A) (A) (A) (A) (A) (A) (A) (A) (A)
                 (A) (A) (A) (A) (A) (A) (A) (A) (A) (A) (A) (A)
                 (A) (A) (A) (A) (A) (A) (A) (A) (A) (A) (A) (A)
                 (A) (A) (A) (A) (A) (A) (A) (A) (A) (A) (A) (A)
                 (A) (A) (A) (A) (A) (A) (A) (A) (A) (A) (A) (A)
                 (A) (A) (A) (A) (A) (A) (A) (A) (A) (A) (A) (A)
                 (A) (A) (A) (A) (A) (A) (A) (A) (A) (A) (A) (A)
                 (A) (A) (A) (A) (A) (A) (A) (A) (A) (A) (A) (A)
                 (A) (A) (A) (A) (A) (A) (A) (A) (A) (A) (A) (A)
                 (A) (A) (A) (A) (A) (A) (A) (A) (A) (A) (A) (A)
                 (A) (A) (A) (A) (A) (A) (A) (A) (A) (A) (A) (A)
                 (A) (A) (A) (A) (A) (A) (A) (A) (A) (A) (A) (A)
                 (A) (A) (A) (A) (A) (A) (A) (A) (A) (A) (A) (A)
                 (A) (A) (A) (A) (A) (A) (A) (A) (A) (A) (A) (A)
                 (A) (A) (A) (A) (A) (A) (A) (A) (A) (A) (A) (A)
                 (A) (A) (A) (A) (A) (A) (A) (A) (A) (A) (A) (A)
                 (A) (A) (A) (A) (A) (A) (A) (A) (A) (A) (A) (A)
 The electronic state is 1-A.
 Alpha  occ. eigenvalues --  -19.63185 -19.62981 -19.62808 -10.63470 -10.58616
 Alpha  occ. eigenvalues --  -10.57941 -10.57855 -10.57756 -10.53185 -10.53174
 Alpha  occ. eigenvalues --  -10.53144 -10.53107 -10.52796  -1.20212  -1.16809
 Alpha  occ. eigenvalues --   -1.13827  -0.90964  -0.89797  -0.87309  -0.84604
 Alpha  occ. eigenvalues --   -0.75611  -0.74612  -0.73337  -0.70227  -0.65686
 Alpha  occ. eigenvalues --   -0.62658  -0.60937  -0.59355  -0.58159  -0.56850
 Alpha  occ. eigenvalues --   -0.55754  -0.53123  -0.52253  -0.50398  -0.49509
 Alpha  occ. eigenvalues --   -0.47991  -0.46499  -0.45895  -0.45380  -0.44886
 Alpha  occ. eigenvalues --   -0.44529  -0.43422  -0.40709  -0.39995  -0.39386
 Alpha  occ. eigenvalues --   -0.38665  -0.37617  -0.36115  -0.35204  -0.33972
 Alpha  occ. eigenvalues --   -0.31926
 Alpha virt. eigenvalues --   -0.00112   0.00746   0.00927   0.01025   0.02117
 Alpha virt. eigenvalues --    0.02368   0.02539   0.03537   0.03911   0.04205
 Alpha virt. eigenvalues --    0.04327   0.04560   0.05395   0.05904   0.06735
 Alpha virt. eigenvalues --    0.07266   0.07622   0.07897   0.08968   0.09430
 Alpha virt. eigenvalues --    0.09940   0.10544   0.11294   0.11361   0.11669
 Alpha virt. eigenvalues --    0.12162   0.12245   0.12728   0.13219   0.13383
 Alpha virt. eigenvalues --    0.13668   0.14061   0.14414   0.14528   0.14747
 Alpha virt. eigenvalues --    0.14944   0.15258   0.15500   0.15946   0.16145
 Alpha virt. eigenvalues --    0.16484   0.16853   0.17073   0.17371   0.17598
 Alpha virt. eigenvalues --    0.17860   0.18288   0.18734   0.19075   0.19271
 Alpha virt. eigenvalues --    0.20048   0.20268   0.20724   0.20945   0.21505
 Alpha virt. eigenvalues --    0.22188   0.22655   0.22810   0.23471   0.24525
 Alpha virt. eigenvalues --    0.24960   0.25429   0.25570   0.26625   0.26850
 Alpha virt. eigenvalues --    0.27017   0.27837   0.28073   0.28607   0.29355
 Alpha virt. eigenvalues --    0.29684   0.30283   0.30496   0.31522   0.32115
 Alpha virt. eigenvalues --    0.32456   0.33109   0.33770   0.33847   0.34091
 Alpha virt. eigenvalues --    0.34625   0.35133   0.35905   0.36070   0.36554
 Alpha virt. eigenvalues --    0.36861   0.37032   0.37447   0.37974   0.38503
 Alpha virt. eigenvalues --    0.38604   0.38954   0.39530   0.40302   0.41345
 Alpha virt. eigenvalues --    0.41816   0.42788   0.43266   0.43504   0.44671
 Alpha virt. eigenvalues --    0.46176   0.47223   0.48224   0.49380   0.50651
 Alpha virt. eigenvalues --    0.51013   0.52271   0.52823   0.53416   0.54340
 Alpha virt. eigenvalues --    0.55119   0.56149   0.56935   0.57857   0.58299
 Alpha virt. eigenvalues --    0.59363   0.60040   0.60199   0.60606   0.61346
 Alpha virt. eigenvalues --    0.61886   0.62115   0.62711   0.62868   0.63524
 Alpha virt. eigenvalues --    0.64758   0.65243   0.65996   0.66647   0.67161
 Alpha virt. eigenvalues --    0.68002   0.68508   0.69078   0.69940   0.70157
 Alpha virt. eigenvalues --    0.70336   0.71171   0.71943   0.72357   0.73462
 Alpha virt. eigenvalues --    0.74021   0.74168   0.74409   0.75053   0.75426
 Alpha virt. eigenvalues --    0.75894   0.76115   0.76694   0.77410   0.77742
 Alpha virt. eigenvalues --    0.81005   0.81678   0.83045   0.84704   0.85122
 Alpha virt. eigenvalues --    0.86236   0.88021   0.88188   0.88676   0.89176
 Alpha virt. eigenvalues --    0.90278   0.90880   0.91900   0.94092   0.94908
 Alpha virt. eigenvalues --    0.96118   0.96237   0.98811   1.00262   1.01303
 Alpha virt. eigenvalues --    1.03541   1.04517   1.05000   1.06710   1.07333
 Alpha virt. eigenvalues --    1.08275   1.08760   1.09939   1.10871   1.11545
 Alpha virt. eigenvalues --    1.12348   1.13554   1.14183   1.15568   1.16312
 Alpha virt. eigenvalues --    1.17264   1.17573   1.18377   1.19066   1.20283
 Alpha virt. eigenvalues --    1.20752   1.21414   1.22526   1.23346   1.23687
 Alpha virt. eigenvalues --    1.25109   1.25984   1.26474   1.27290   1.27311
 Alpha virt. eigenvalues --    1.28933   1.29124   1.29540   1.29716   1.31079
 Alpha virt. eigenvalues --    1.32092   1.32622   1.33104   1.33644   1.34173
 Alpha virt. eigenvalues --    1.34511   1.35978   1.36221   1.36630   1.36899
 Alpha virt. eigenvalues --    1.37960   1.38978   1.39348   1.40223   1.41455
 Alpha virt. eigenvalues --    1.42306   1.43572   1.43983   1.44142   1.44723
 Alpha virt. eigenvalues --    1.45741   1.46630   1.47135   1.47735   1.48017
 Alpha virt. eigenvalues --    1.49482   1.49995   1.50873   1.51153   1.52129
 Alpha virt. eigenvalues --    1.52357   1.52532   1.53113   1.54286   1.55066
 Alpha virt. eigenvalues --    1.55900   1.56561   1.57371   1.57496   1.58192
 Alpha virt. eigenvalues --    1.58401   1.59428   1.60587   1.61041   1.61592
 Alpha virt. eigenvalues --    1.62819   1.63342   1.64007   1.65090   1.65292
 Alpha virt. eigenvalues --    1.67253   1.68064   1.68768   1.68883   1.70250
 Alpha virt. eigenvalues --    1.71690   1.73699   1.75384   1.76114   1.76894
 Alpha virt. eigenvalues --    1.78209   1.79238   1.80931   1.82760   1.84131
 Alpha virt. eigenvalues --    1.87614   1.88776   1.90178   1.93042   1.99856
 Alpha virt. eigenvalues --    2.01322   2.02882   2.07949   2.10518   2.18416
 Alpha virt. eigenvalues --    2.23762   2.25137   2.31984   2.34206   2.40245
 Alpha virt. eigenvalues --    2.41236   2.43093   2.44391   2.49233   2.52626
 Alpha virt. eigenvalues --    2.56618   2.75575   2.76286   2.78748   2.80617
 Alpha virt. eigenvalues --    2.87031   2.89329   2.90661   2.92371   2.93586
 Alpha virt. eigenvalues --    2.95038   2.97313   3.00036   3.01139   3.03670
 Alpha virt. eigenvalues --    3.04785   3.07235   3.07513   3.09041   3.11502
 Alpha virt. eigenvalues --    3.12334   3.14302   3.15469   3.17475   3.21440
 Alpha virt. eigenvalues --    3.25108   3.26580   3.30143   3.32161   3.32705
 Alpha virt. eigenvalues --    3.34974   3.35747   3.37438   3.39001   3.40407
 Alpha virt. eigenvalues --    3.41474   3.41840   3.42631   3.44865   3.45696
 Alpha virt. eigenvalues --    3.46925   3.47972   3.48714   3.49771   3.50884
 Alpha virt. eigenvalues --    3.51772   3.53522   3.54122   3.55240   3.55715
 Alpha virt. eigenvalues --    3.57059   3.57988   3.58300   3.59043   3.59929
 Alpha virt. eigenvalues --    3.61278   3.61621   3.62973   3.63701   3.64559
 Alpha virt. eigenvalues --    3.66430   3.67019   3.68623   3.69152   3.69683
 Alpha virt. eigenvalues --    3.70951   3.71133   3.71910   3.73032   3.73625
 Alpha virt. eigenvalues --    3.73707   3.75688   3.76279   3.76568   3.78280
 Alpha virt. eigenvalues --    3.79733   3.81039   3.82398   3.84478   3.85758
 Alpha virt. eigenvalues --    3.86994   3.87500   3.88592   3.89865   3.91177
 Alpha virt. eigenvalues --    3.92044   3.93640   3.95917   3.97099   3.98245
 Alpha virt. eigenvalues --    3.98973   4.01686   4.02363   4.03169   4.04365
 Alpha virt. eigenvalues --    4.05202   4.05542   4.05971   4.06510   4.08130
 Alpha virt. eigenvalues --    4.08717   4.09377   4.10088   4.10147   4.12205
 Alpha virt. eigenvalues --    4.13028   4.13381   4.14343   4.15419   4.15621
 Alpha virt. eigenvalues --    4.16850   4.17332   4.18654   4.19086   4.20140
 Alpha virt. eigenvalues --    4.20814   4.21961   4.24862   4.25776   4.26331
 Alpha virt. eigenvalues --    4.26655   4.27793   4.28881   4.29840   4.30674
 Alpha virt. eigenvalues --    4.32647   4.33484   4.34880   4.36552   4.37705
 Alpha virt. eigenvalues --    4.39022   4.45043   4.46935   4.47943   4.51512
 Alpha virt. eigenvalues --    4.56555   4.60262   4.75231   4.77626   4.82166
 Alpha virt. eigenvalues --    4.85037   4.92764   4.96364   4.99081   5.00387
 Alpha virt. eigenvalues --    5.02867   5.07070   5.08458   5.11976   5.12747
 Alpha virt. eigenvalues --    5.13831   5.15011   5.18106   5.30361   5.37045
 Alpha virt. eigenvalues --    5.37552   5.58327   5.58874   5.63240   5.85660
 Alpha virt. eigenvalues --    5.88723   6.06267   7.03288   7.04046   7.05851
 Alpha virt. eigenvalues --    7.06215   7.09470   7.11813   7.12972   7.20112
 Alpha virt. eigenvalues --    7.25515   7.36744   7.37839   7.46664   7.53750
 Alpha virt. eigenvalues --    7.55036   7.63813  23.95442  23.98568  24.04582
 Alpha virt. eigenvalues --   24.07342  24.09251  24.11600  24.13583  24.14745
 Alpha virt. eigenvalues --   24.16144  24.21141  50.17819  50.18968  50.22097
          Condensed to atoms (all electrons):
               1          2          3          4          5          6
     1  C    6.975397   0.021357  -0.504045   0.005936  -0.103590  -0.782879
     2  C    0.021357   6.006235   0.481884  -0.311650  -0.329538  -0.009867
     3  C   -0.504045   0.481884   6.681726  -0.512530  -0.258825   0.066679
     4  C    0.005936  -0.311650  -0.512530   5.860049   0.346142   0.011820
     5  C   -0.103590  -0.329538  -0.258825   0.346142   5.852657   0.005638
     6  C   -0.782879  -0.009867   0.066679   0.011820   0.005638   6.559093
     7  C   -0.419310  -0.005893   0.016776   0.041380   0.006741  -0.015541
     8  C    0.214483   0.001172  -0.001299  -0.005080  -0.002138  -0.181703
     9  O    0.037659   0.000160  -0.007045   0.000492  -0.000549  -0.017228
    10  C   -0.031303  -0.001351  -0.109352   0.011177  -0.001317  -0.005752
    11  O    0.204206   0.029354   0.380656  -0.015511  -0.025790  -0.218891
    12  C    0.199230  -0.196945  -0.641452  -0.100560   0.136454  -0.035408
    13  O    0.043360   0.014467   0.282094   0.016500  -0.088983  -0.003453
    14  H    0.493122   0.005113  -0.023326  -0.003790  -0.006205  -0.007923
    15  H    0.000644   0.474052  -0.003757  -0.079373  -0.048072  -0.000345
    16  H    0.001001   0.486411   0.013719  -0.054531  -0.077792   0.001093
    17  H    0.025287   0.050420   0.546249  -0.085942  -0.039962  -0.006641
    18  H    0.000042  -0.015845   0.014387   0.431364  -0.008831  -0.000575
    19  H    0.004474  -0.084793  -0.033699   0.472756  -0.002621   0.002247
    20  H    0.003909  -0.073154  -0.043218   0.005486   0.458343   0.000012
    21  H   -0.000055  -0.045552   0.023121   0.007023   0.446729  -0.000348
    22  H   -0.028315  -0.000714  -0.000291   0.001820   0.000722   0.410163
    23  H   -0.033963  -0.000228  -0.006863   0.000594  -0.000488   0.515567
    24  H   -0.078294  -0.008598  -0.030729   0.013180   0.007140   0.014956
    25  H    0.014046   0.003750  -0.008558  -0.005697  -0.006657  -0.030683
    26  H    0.042228  -0.000008  -0.000422   0.000091   0.000181  -0.024416
    27  H    0.000582   0.000083  -0.001601  -0.000200  -0.000151   0.007300
    28  H    0.014068  -0.000088  -0.001553   0.000340   0.000011  -0.045789
    29  H   -0.047342  -0.000007  -0.002180   0.000155  -0.000149   0.011381
    30  H    0.003953   0.008552  -0.058130  -0.028037  -0.061404  -0.000341
    31  H   -0.012486  -0.002320  -0.030942   0.012008  -0.006366   0.003045
               7          8          9         10         11         12
     1  C   -0.419310   0.214483   0.037659  -0.031303   0.204206   0.199230
     2  C   -0.005893   0.001172   0.000160  -0.001351   0.029354  -0.196945
     3  C    0.016776  -0.001299  -0.007045  -0.109352   0.380656  -0.641452
     4  C    0.041380  -0.005080   0.000492   0.011177  -0.015511  -0.100560
     5  C    0.006741  -0.002138  -0.000549  -0.001317  -0.025790   0.136454
     6  C   -0.015541  -0.181703  -0.017228  -0.005752  -0.218891  -0.035408
     7  C    6.182447  -0.245101   0.158267   0.098844  -0.109340  -0.068382
     8  C   -0.245101   5.401969   0.076464   0.088921   0.013248   0.006893
     9  O    0.158267   0.076464   8.325567  -0.030553   0.005899   0.000104
    10  C    0.098844   0.088921  -0.030553   5.560818  -0.005498   0.001925
    11  O   -0.109340   0.013248   0.005899  -0.005498   8.332716  -0.233016
    12  C   -0.068382   0.006893   0.000104   0.001925  -0.233016   6.340606
    13  O   -0.044467   0.000098  -0.000362  -0.004358  -0.049581   0.008635
    14  H   -0.092968   0.008986  -0.009071  -0.004591  -0.027513  -0.006250
    15  H   -0.002013   0.000080  -0.000009  -0.000196  -0.000392   0.038866
    16  H    0.001565  -0.000074   0.000004   0.000211   0.001164  -0.012363
    17  H   -0.014180   0.002725   0.002427  -0.011837  -0.043061  -0.054452
    18  H    0.005675  -0.000513   0.000065   0.001396   0.000570  -0.017992
    19  H   -0.003749   0.000657  -0.000220  -0.001245   0.013086   0.035186
    20  H    0.002169   0.000118   0.000035   0.000284   0.001842   0.005639
    21  H   -0.001214   0.000011  -0.000010  -0.000102  -0.003689  -0.059358
    22  H    0.014687   0.003006  -0.001768  -0.006486   0.000974  -0.003337
    23  H   -0.036383  -0.016102   0.001121  -0.055568  -0.002489   0.003330
    24  H    0.446951   0.002585  -0.083479   0.018288  -0.004649   0.031418
    25  H    0.391670   0.012490  -0.026223   0.001955   0.009734  -0.012447
    26  H   -0.041490   0.473849  -0.039953  -0.045047  -0.000337   0.001371
    27  H    0.013920   0.435377  -0.072953  -0.045929   0.001040  -0.000244
    28  H   -0.007505  -0.034737   0.006989   0.432613  -0.003100   0.000460
    29  H    0.002211  -0.081922  -0.003328   0.494890  -0.000439   0.000583
    30  H   -0.000999   0.000371   0.000107  -0.001607  -0.010691   0.519673
    31  H    0.003815  -0.000278   0.000095   0.000242  -0.000116   0.410480
              13         14         15         16         17         18
     1  C    0.043360   0.493122   0.000644   0.001001   0.025287   0.000042
     2  C    0.014467   0.005113   0.474052   0.486411   0.050420  -0.015845
     3  C    0.282094  -0.023326  -0.003757   0.013719   0.546249   0.014387
     4  C    0.016500  -0.003790  -0.079373  -0.054531  -0.085942   0.431364
     5  C   -0.088983  -0.006205  -0.048072  -0.077792  -0.039962  -0.008831
     6  C   -0.003453  -0.007923  -0.000345   0.001093  -0.006641  -0.000575
     7  C   -0.044467  -0.092968  -0.002013   0.001565  -0.014180   0.005675
     8  C    0.000098   0.008986   0.000080  -0.000074   0.002725  -0.000513
     9  O   -0.000362  -0.009071  -0.000009   0.000004   0.002427   0.000065
    10  C   -0.004358  -0.004591  -0.000196   0.000211  -0.011837   0.001396
    11  O   -0.049581  -0.027513  -0.000392   0.001164  -0.043061   0.000570
    12  C    0.008635  -0.006250   0.038866  -0.012363  -0.054452  -0.017992
    13  O    8.283691  -0.002828  -0.008935   0.010686  -0.088326  -0.071182
    14  H   -0.002828   0.434965   0.000110  -0.000046   0.005030  -0.000628
    15  H   -0.008935   0.000110   0.513686  -0.023383   0.006761  -0.012679
    16  H    0.010686  -0.000046  -0.023383   0.504804  -0.002181   0.001472
    17  H   -0.088326   0.005030   0.006761  -0.002181   0.539035  -0.005238
    18  H   -0.071182  -0.000628  -0.012679   0.001472  -0.005238   0.476963
    19  H   -0.027587  -0.001058   0.005993  -0.002190   0.001587  -0.006936
    20  H    0.011192  -0.000107  -0.016849   0.008149  -0.018072   0.000849
    21  H   -0.003751  -0.000004  -0.000305  -0.005641   0.001626  -0.000285
    22  H   -0.000365  -0.008241   0.000030   0.000030   0.000477   0.000303
    23  H   -0.000230   0.005573  -0.000033   0.000042  -0.000947   0.000043
    24  H    0.000591  -0.004777  -0.000867   0.000335  -0.029731   0.001003
    25  H    0.000091  -0.001590   0.000141  -0.000076   0.009066  -0.000180
    26  H   -0.000042  -0.000210   0.000002  -0.000009  -0.000732   0.000004
    27  H   -0.000043  -0.000663   0.000000   0.000002   0.000157   0.000000
    28  H    0.000016  -0.001133  -0.000002   0.000005  -0.000005   0.000012
    29  H   -0.000091  -0.005225  -0.000012   0.000001  -0.000599   0.000022
    30  H   -0.000211  -0.000719  -0.003718   0.001522  -0.002589  -0.001462
    31  H    0.006803   0.000362  -0.000145   0.000174  -0.016724   0.001510
              19         20         21         22         23         24
     1  C    0.004474   0.003909  -0.000055  -0.028315  -0.033963  -0.078294
     2  C   -0.084793  -0.073154  -0.045552  -0.000714  -0.000228  -0.008598
     3  C   -0.033699  -0.043218   0.023121  -0.000291  -0.006863  -0.030729
     4  C    0.472756   0.005486   0.007023   0.001820   0.000594   0.013180
     5  C   -0.002621   0.458343   0.446729   0.000722  -0.000488   0.007140
     6  C    0.002247   0.000012  -0.000348   0.410163   0.515567   0.014956
     7  C   -0.003749   0.002169  -0.001214   0.014687  -0.036383   0.446951
     8  C    0.000657   0.000118   0.000011   0.003006  -0.016102   0.002585
     9  O   -0.000220   0.000035  -0.000010  -0.001768   0.001121  -0.083479
    10  C   -0.001245   0.000284  -0.000102  -0.006486  -0.055568   0.018288
    11  O    0.013086   0.001842  -0.003689   0.000974  -0.002489  -0.004649
    12  C    0.035186   0.005639  -0.059358  -0.003337   0.003330   0.031418
    13  O   -0.027587   0.011192  -0.003751  -0.000365  -0.000230   0.000591
    14  H   -0.001058  -0.000107  -0.000004  -0.008241   0.005573  -0.004777
    15  H    0.005993  -0.016849  -0.000305   0.000030  -0.000033  -0.000867
    16  H   -0.002190   0.008149  -0.005641   0.000030   0.000042   0.000335
    17  H    0.001587  -0.018072   0.001626   0.000477  -0.000947  -0.029731
    18  H   -0.006936   0.000849  -0.000285   0.000303   0.000043   0.001003
    19  H    0.491332   0.000107  -0.001065  -0.001072  -0.000109  -0.000065
    20  H    0.000107   0.501543  -0.011857  -0.000067   0.000125   0.002726
    21  H   -0.001065  -0.011857   0.474609  -0.000039  -0.000012   0.000081
    22  H   -0.001072  -0.000067  -0.000039   0.481674  -0.016121  -0.001296
    23  H   -0.000109   0.000125  -0.000012  -0.016121   0.446837   0.000015
    24  H   -0.000065   0.002726   0.000081  -0.001296   0.000015   0.499004
    25  H   -0.000195  -0.000453  -0.000173  -0.001270  -0.003625  -0.029277
    26  H   -0.000023   0.000011   0.000009  -0.000531  -0.003893  -0.004142
    27  H   -0.000026   0.000007  -0.000004   0.001013  -0.001268   0.003227
    28  H    0.000020  -0.000001   0.000003  -0.010035  -0.004821   0.002066
    29  H   -0.000048   0.000009  -0.000009  -0.004852   0.002819  -0.000998
    30  H   -0.009408   0.006455  -0.005845   0.000183   0.000462   0.000042
    31  H    0.000117   0.001676  -0.009062  -0.000136   0.000594   0.002136
              25         26         27         28         29         30
     1  C    0.014046   0.042228   0.000582   0.014068  -0.047342   0.003953
     2  C    0.003750  -0.000008   0.000083  -0.000088  -0.000007   0.008552
     3  C   -0.008558  -0.000422  -0.001601  -0.001553  -0.002180  -0.058130
     4  C   -0.005697   0.000091  -0.000200   0.000340   0.000155  -0.028037
     5  C   -0.006657   0.000181  -0.000151   0.000011  -0.000149  -0.061404
     6  C   -0.030683  -0.024416   0.007300  -0.045789   0.011381  -0.000341
     7  C    0.391670  -0.041490   0.013920  -0.007505   0.002211  -0.000999
     8  C    0.012490   0.473849   0.435377  -0.034737  -0.081922   0.000371
     9  O   -0.026223  -0.039953  -0.072953   0.006989  -0.003328   0.000107
    10  C    0.001955  -0.045047  -0.045929   0.432613   0.494890  -0.001607
    11  O    0.009734  -0.000337   0.001040  -0.003100  -0.000439  -0.010691
    12  C   -0.012447   0.001371  -0.000244   0.000460   0.000583   0.519673
    13  O    0.000091  -0.000042  -0.000043   0.000016  -0.000091  -0.000211
    14  H   -0.001590  -0.000210  -0.000663  -0.001133  -0.005225  -0.000719
    15  H    0.000141   0.000002   0.000000  -0.000002  -0.000012  -0.003718
    16  H   -0.000076  -0.000009   0.000002   0.000005   0.000001   0.001522
    17  H    0.009066  -0.000732   0.000157  -0.000005  -0.000599  -0.002589
    18  H   -0.000180   0.000004   0.000000   0.000012   0.000022  -0.001462
    19  H   -0.000195  -0.000023  -0.000026   0.000020  -0.000048  -0.009408
    20  H   -0.000453   0.000011   0.000007  -0.000001   0.000009   0.006455
    21  H   -0.000173   0.000009  -0.000004   0.000003  -0.000009  -0.005845
    22  H   -0.001270  -0.000531   0.001013  -0.010035  -0.004852   0.000183
    23  H   -0.003625  -0.003893  -0.001268  -0.004821   0.002819   0.000462
    24  H   -0.029277  -0.004142   0.003227   0.002066  -0.000998   0.000042
    25  H    0.476094   0.005732  -0.001124  -0.001509   0.001072   0.000947
    26  H    0.005732   0.492099  -0.003860   0.004658   0.001234   0.000105
    27  H   -0.001124  -0.003860   0.468947  -0.009472  -0.002270   0.000002
    28  H   -0.001509   0.004658  -0.009472   0.481756  -0.004564  -0.000048
    29  H    0.001072   0.001234  -0.002270  -0.004564   0.470597   0.000131
    30  H    0.000947   0.000105   0.000002  -0.000048   0.000131   0.450603
    31  H   -0.002060  -0.000087  -0.000009  -0.000010   0.000066  -0.010234
              31
     1  C   -0.012486
     2  C   -0.002320
     3  C   -0.030942
     4  C    0.012008
     5  C   -0.006366
     6  C    0.003045
     7  C    0.003815
     8  C   -0.000278
     9  O    0.000095
    10  C    0.000242
    11  O   -0.000116
    12  C    0.410480
    13  O    0.006803
    14  H    0.000362
    15  H   -0.000145
    16  H    0.000174
    17  H   -0.016724
    18  H    0.001510
    19  H    0.000117
    20  H    0.001676
    21  H   -0.009062
    22  H   -0.000136
    23  H    0.000594
    24  H    0.002136
    25  H   -0.002060
    26  H   -0.000087
    27  H   -0.000009
    28  H   -0.000010
    29  H    0.000066
    30  H   -0.010234
    31  H    0.477237
 Mulliken charges:
               1
     1  C   -0.263404
     2  C   -0.496456
     3  C   -0.227475
     4  C   -0.035410
     5  C   -0.191333
     6  C   -0.221211
     7  C   -0.278583
     8  C   -0.174554
     9  O   -0.322706
    10  C   -0.349474
    11  O   -0.240386
    12  C   -0.298647
    13  O   -0.283430
    14  H    0.255608
    15  H    0.160719
    16  H    0.145896
    17  H    0.230371
    18  H    0.206665
    19  H    0.148546
    20  H    0.153096
    21  H    0.195171
    22  H    0.169854
    23  H    0.206022
    24  H    0.231160
    25  H    0.205007
    26  H    0.143627
    27  H    0.208157
    28  H    0.181355
    29  H    0.168863
    30  H    0.202334
    31  H    0.170615
 Sum of Mulliken charges =  -0.00000
 Mulliken charges with hydrogens summed into heavy atoms:
               1
     1  C   -0.007796
     2  C   -0.189841
     3  C    0.002896
     4  C    0.319801
     5  C    0.156934
     6  C    0.154664
     7  C    0.157585
     8  C    0.177231
     9  O   -0.322706
    10  C    0.000744
    11  O   -0.240386
    12  C    0.074302
    13  O   -0.283430
 Electronic spatial extent (au):  <R**2>=           3335.2451
 Charge=             -0.0000 electrons
 Dipole moment (field-independent basis, Debye):
    X=             -1.1251    Y=              0.5177    Z=              1.9154  Tot=              2.2809
 Quadrupole moment (field-independent basis, Debye-Ang):
   XX=            -69.7078   YY=            -77.3173   ZZ=            -84.8760
   XY=              3.2737   XZ=              3.7041   YZ=             -2.1463
 Traceless Quadrupole moment (field-independent basis, Debye-Ang):
   XX=              7.5925   YY=             -0.0169   ZZ=             -7.5757
   XY=              3.2737   XZ=              3.7041   YZ=             -2.1463
 Octapole moment (field-independent basis, Debye-Ang**2):
  XXX=              2.1685  YYY=              0.2297  ZZZ=              0.5015  XYY=             -6.6763
  XXY=             19.1014  XXZ=             19.8728  XZZ=             -4.4610  YZZ=              1.9963
  YYZ=             -0.6477  XYZ=             -3.4235
 Hexadecapole moment (field-independent basis, Debye-Ang**3):
 XXXX=          -3436.6467 YYYY=           -476.8435 ZZZZ=           -350.3680 XXXY=             20.9648
 XXXZ=             37.0413 YYYX=             -7.0598 YYYZ=             -2.7237 ZZZX=              6.3143
 ZZZY=             -4.5682 XXYY=           -690.7292 XXZZ=           -670.7243 YYZZ=           -131.7630
 XXYZ=            -24.8612 YYXZ=             10.7936 ZZXY=              1.9834
 N-N= 8.818540761274D+02 E-N=-3.205582614532D+03  KE= 6.153426776232D+02
 D1PCM: PCM CHGder 1st derivatives, ID1Alg=3 FixD1E=F DoIter=F DoCFld=F I1PDM=0.
 Calling FoFJK, ICntrl=      2127 FMM=F ISym2X=0 I1Cent= 0 IOpClX= 0 NMat=1 NMatS=1 NMatT=0.
 ***** Axes restored to original set *****
 -------------------------------------------------------------------
 Center     Atomic                   Forces (Hartrees/Bohr)
 Number     Number              X              Y              Z
 -------------------------------------------------------------------
      1        6           0.000032607   -0.004409781    0.003249067
      2        6           0.001458264   -0.000863768    0.000628401
      3        6          -0.003596339    0.007399290    0.002182664
      4        6          -0.000922410   -0.004972652    0.002740218
      5        6           0.002184591    0.002802962    0.000099183
      6        6           0.001082520   -0.000254198   -0.004856264
      7        6           0.003697977    0.006987852    0.000803663
      8        6          -0.006162479    0.003249283    0.000216176
      9        8           0.001962867   -0.003006120   -0.008976885
     10        6          -0.001019513   -0.001987187    0.001805147
     11        8          -0.000200940    0.001180732    0.012598810
     12        6          -0.000606406   -0.001119606   -0.002667265
     13        8           0.002576413   -0.001894918   -0.010434358
     14        1          -0.000163209    0.002985159   -0.005920506
     15        1          -0.001309602   -0.000470662   -0.002263164
     16        1          -0.001572516    0.001429301    0.002152850
     17        1           0.001851964   -0.007135955   -0.004310209
     18        1          -0.000627648    0.002666999   -0.003248373
     19        1           0.001371700    0.003109266    0.004969049
     20        1           0.000615761   -0.001916964   -0.002419293
     21        1          -0.001750765   -0.000556408    0.001677280
     22        1          -0.001646839    0.002467777    0.000385673
     23        1          -0.000279643   -0.002622993    0.002977036
     24        1          -0.003442298   -0.002548634   -0.003557182
     25        1          -0.000781923   -0.002339828    0.006192703
     26        1           0.000737265   -0.002392521    0.005646298
     27        1           0.003695315    0.000304115   -0.002315670
     28        1           0.001668448    0.001576192    0.001937927
     29        1          -0.000296354    0.001261015   -0.002937798
     30        1           0.000883136    0.003503319    0.002077099
     31        1           0.000560057   -0.002431069    0.001567724
 -------------------------------------------------------------------
 Cartesian Forces:  Max     0.012598810 RMS     0.003414217

 GradGradGradGradGradGradGradGradGradGradGradGradGradGradGradGradGradGrad
 Berny optimization.
 FormGI is forming the generalized inverse of G from B-inverse, IUseBI=4.
 Internal  Forces:  Max     0.013083371 RMS     0.002038670
 Search for a local minimum.
 Step number   1 out of a maximum of  186
 All quantities printed in internal units (Hartrees-Bohrs-Radians)
 Mixed Optimization -- RFO/linear search
 Second derivative matrix not updated -- first step.
 ITU=  0
     Eigenvalues ---    0.00392   0.00657   0.00684   0.00718   0.01426
     Eigenvalues ---    0.01437   0.01692   0.02706   0.02806   0.03133
     Eigenvalues ---    0.03209   0.04089   0.04275   0.04652   0.04666
     Eigenvalues ---    0.04874   0.04883   0.05091   0.05105   0.05152
     Eigenvalues ---    0.05161   0.05639   0.05702   0.05931   0.06090
     Eigenvalues ---    0.06261   0.06510   0.06650   0.07674   0.07884
     Eigenvalues ---    0.07908   0.07915   0.07956   0.07974   0.08089
     Eigenvalues ---    0.09254   0.09267   0.09655   0.10842   0.11597
     Eigenvalues ---    0.11630   0.11694   0.11695   0.12483   0.12625
     Eigenvalues ---    0.14520   0.15817   0.16322   0.17301   0.19236
     Eigenvalues ---    0.20527   0.21157   0.22418   0.25000   0.27368
     Eigenvalues ---    0.27531   0.28206   0.28783   0.28807   0.29260
     Eigenvalues ---    0.29533   0.30094   0.35052   0.35082   0.35101
     Eigenvalues ---    0.35161   0.35236   0.35252   0.35301   0.35305
     Eigenvalues ---    0.35338   0.35368   0.35452   0.35470   0.35487
     Eigenvalues ---    0.35505   0.35831   0.35920   0.36050   0.36126
     Eigenvalues ---    0.40042   0.41501   0.42239   0.42881   0.43001
     Eigenvalues ---    0.456241000.000001000.000001000.000001000.00000
     Eigenvalues --- 1000.000001000.000001000.000001000.000001000.00000
     Eigenvalues --- 1000.000001000.000001000.000001000.000001000.00000
     Eigenvalues --- 1000.000001000.000001000.000001000.000001000.00000
     Eigenvalues --- 1000.000001000.000001000.000001000.000001000.00000
     Eigenvalues --- 1000.000001000.000001000.000001000.000001000.00000
     Eigenvalues --- 1000.000001000.000001000.000001000.000001000.00000
     Eigenvalues --- 1000.000001000.000001000.000001000.000001000.00000
     Eigenvalues --- 1000.000001000.000001000.000001000.000001000.00000
     Eigenvalues --- 1000.000001000.000001000.000001000.000001000.00000
     Eigenvalues --- 1000.000001000.000001000.000001000.000001000.00000
     Eigenvalues --- 1000.000001000.000001000.000001000.000001000.00000
     Eigenvalues --- 1000.000001000.000001000.000001000.000001000.00000
     Eigenvalues --- 1000.000001000.000001000.000001000.000001000.00000
     Eigenvalues --- 1000.000001000.000001000.000001000.000001000.00000
     Eigenvalues --- 1000.000001000.000001000.000001000.000001000.00000
     Eigenvalues --- 1000.000001000.000001000.000001000.000001000.00000
     Eigenvalues --- 1000.000001000.000001000.000001000.000001000.00000
     Eigenvalues --- 1000.000001000.000001000.000001000.000001000.00000
     Eigenvalues --- 1000.000001000.000001000.000001000.000001000.00000
 RFO step:  Lambda=-3.00225390D-03 EMin= 3.91602085D-03
 Linear search not attempted -- first point.
 Iteration  1 RMS(Cart)=  0.03684779 RMS(Int)=  0.00037175
 Iteration  2 RMS(Cart)=  0.00108567 RMS(Int)=  0.00004544
 Iteration  3 RMS(Cart)=  0.00000028 RMS(Int)=  0.00004544
 Iteration  1 RMS(Cart)=  0.00000520 RMS(Int)=  0.00000120
 Iteration  2 RMS(Cart)=  0.00000288 RMS(Int)=  0.00000134
 Iteration  3 RMS(Cart)=  0.00000159 RMS(Int)=  0.00000152
 Iteration  4 RMS(Cart)=  0.00000088 RMS(Int)=  0.00000164
 Variable       Old X    -DE/DX   Delta X   Delta X   Delta X     New X
                                 (Linear)    (Quad)   (Total)
    R1        2.87818  -0.00238   0.00000  -0.00768  -0.00770   2.87047
    R2        2.89107  -0.00037   0.00000  -0.00090  -0.00090   2.89017
    R3        2.67817   0.00175   0.00000   0.00405   0.00405   2.68222
    R4        2.04918   0.00656   0.00000   0.01833   0.01833   2.06751
    R5        2.89121   0.00095   0.00000   0.00270   0.00273   2.89394
    R6        2.90935  -0.00041   0.00000  -0.00273  -0.00269   2.90666
    R7        2.05081   0.00265   0.00000   0.00743   0.00743   2.05824
    R8        2.05268   0.00299   0.00000   0.00842   0.00842   2.06110
    R9        2.64557   0.00277   0.00000   0.00604   0.00604   2.65161
   R10        2.88113  -0.00106   0.00000  -0.00224  -0.00225   2.87888
   R11        2.65361   0.00337   0.00000   0.00864   0.00862   2.66224
   R12        2.03885   0.00850   0.00000   0.02335   0.02335   2.06220
   R13        2.68172   0.00332   0.00000   0.00764   0.00761   2.68934
   R14        2.04207   0.00425   0.00000   0.01173   0.01173   2.05380
   R15        2.04862   0.00597   0.00000   0.01669   0.01669   2.06531
   R16        2.88646  -0.00048   0.00000  -0.00270  -0.00271   2.88376
   R17        2.05294   0.00307   0.00000   0.00863   0.00863   2.06156
   R18        2.04948   0.00249   0.00000   0.00695   0.00695   2.05643
   R19        2.88988  -0.00075   0.00000  -0.00250  -0.00253   2.88736
   R20        2.05129   0.00294   0.00000   0.00824   0.00824   2.05953
   R21        2.05511   0.00384   0.00000   0.01084   0.01084   2.06595
   R22        2.66724   0.00305   0.00000   0.00689   0.00692   2.67416
   R23        2.04003   0.00554   0.00000   0.01523   0.01523   2.05526
   R24        2.05590   0.00637   0.00000   0.01801   0.01801   2.07391
   R25        2.67549   0.00343   0.00000   0.00781   0.00783   2.68333
   R26        2.87041   0.00063   0.00000   0.00170   0.00170   2.87210
   R27        2.05542   0.00606   0.00000   0.01714   0.01714   2.07255
   R28        2.04347   0.00437   0.00000   0.01209   0.01209   2.05556
   R29        2.05190   0.00298   0.00000   0.00837   0.00837   2.06027
   R30        2.05414   0.00314   0.00000   0.00884   0.00884   2.06299
   R31        2.05182   0.00397   0.00000   0.01116   0.01116   2.06298
   R32        2.04891   0.00294   0.00000   0.00820   0.00820   2.05712
    A1        1.91014   0.00040   0.00000  -0.00223  -0.00227   1.90787
    A2        1.86717  -0.00064   0.00000  -0.00033  -0.00033   1.86684
    A3        1.91890   0.00007   0.00000   0.00048   0.00048   1.91937
    A4        1.95249   0.00021   0.00000  -0.00077  -0.00075   1.95174
    A5        1.90282  -0.00038   0.00000  -0.00383  -0.00383   1.89900
    A6        1.91209   0.00035   0.00000   0.00680   0.00679   1.91888
    A7        1.92470  -0.00004   0.00000  -0.00826  -0.00841   1.91630
    A8        1.92241  -0.00055   0.00000   0.00044   0.00047   1.92288
    A9        1.89405   0.00072   0.00000   0.00465   0.00468   1.89873
   A10        1.92082   0.00085   0.00000   0.00247   0.00253   1.92335
   A11        1.93120  -0.00110   0.00000  -0.00229  -0.00225   1.92894
   A12        1.86978   0.00011   0.00000   0.00337   0.00334   1.87311
   A13        1.88369  -0.00262   0.00000  -0.01176  -0.01176   1.87193
   A14        1.93895   0.00042   0.00000   0.00191   0.00204   1.94099
   A15        1.92468   0.00133   0.00000   0.00798   0.00796   1.93265
   A16        1.95460   0.00276   0.00000   0.00901   0.00888   1.96348
   A17        1.93011  -0.00015   0.00000   0.00040   0.00048   1.93059
   A18        1.83223  -0.00162   0.00000  -0.00690  -0.00692   1.82531
   A19        1.92597   0.00129   0.00000   0.00190   0.00170   1.92767
   A20        1.95113  -0.00035   0.00000  -0.00339  -0.00333   1.94780
   A21        1.94062  -0.00094   0.00000  -0.00341  -0.00340   1.93722
   A22        1.85404  -0.00110   0.00000  -0.00063  -0.00058   1.85347
   A23        1.90744   0.00074   0.00000   0.00496   0.00505   1.91249
   A24        1.88190   0.00036   0.00000   0.00087   0.00084   1.88274
   A25        1.92164  -0.00078   0.00000  -0.00705  -0.00727   1.91437
   A26        1.91801   0.00061   0.00000   0.00143   0.00148   1.91949
   A27        1.93141  -0.00019   0.00000   0.00057   0.00063   1.93204
   A28        1.90348   0.00041   0.00000  -0.00055  -0.00049   1.90300
   A29        1.92509  -0.00008   0.00000   0.00112   0.00118   1.92627
   A30        1.86322   0.00008   0.00000   0.00485   0.00482   1.86803
   A31        1.92914   0.00098   0.00000  -0.00367  -0.00372   1.92542
   A32        1.91556  -0.00041   0.00000  -0.00231  -0.00228   1.91328
   A33        1.89282  -0.00108   0.00000  -0.00735  -0.00735   1.88548
   A34        1.93369   0.00020   0.00000   0.00581   0.00582   1.93951
   A35        1.91515  -0.00009   0.00000   0.00360   0.00357   1.91871
   A36        1.87628   0.00034   0.00000   0.00387   0.00383   1.88011
   A37        1.92441   0.00169   0.00000   0.00956   0.00959   1.93401
   A38        1.95801  -0.00044   0.00000  -0.00631  -0.00637   1.95164
   A39        1.91553  -0.00242   0.00000  -0.01583  -0.01590   1.89963
   A40        1.84902  -0.00089   0.00000   0.00063   0.00064   1.84966
   A41        1.91896   0.00141   0.00000   0.01206   0.01212   1.93108
   A42        1.89671   0.00076   0.00000   0.00090   0.00077   1.89749
   A43        1.93205   0.00188   0.00000   0.00935   0.00936   1.94142
   A44        1.90261   0.00075   0.00000   0.00673   0.00677   1.90938
   A45        1.85519  -0.00128   0.00000  -0.00403  -0.00403   1.85117
   A46        1.93171  -0.00157   0.00000  -0.00978  -0.00981   1.92190
   A47        1.94764  -0.00033   0.00000  -0.00312  -0.00313   1.94450
   A48        1.89237   0.00058   0.00000   0.00124   0.00121   1.89357
   A49        1.98582  -0.00463   0.00000  -0.02874  -0.02865   1.95717
   A50        1.92385  -0.00078   0.00000  -0.00541  -0.00546   1.91838
   A51        1.92690  -0.00051   0.00000  -0.00058  -0.00056   1.92633
   A52        1.92100   0.00085   0.00000   0.00140   0.00141   1.92241
   A53        1.91077   0.00080   0.00000   0.00483   0.00485   1.91562
   A54        1.90510  -0.00034   0.00000  -0.00300  -0.00300   1.90211
   A55        1.87548   0.00000   0.00000   0.00297   0.00297   1.87844
   A56        2.07182  -0.01308   0.00000  -0.05171  -0.05171   2.02011
   A57        1.91527   0.00010   0.00000  -0.00643  -0.00652   1.90874
   A58        1.90807  -0.00046   0.00000  -0.00884  -0.00881   1.89926
   A59        1.89708  -0.00020   0.00000   0.00371   0.00375   1.90083
   A60        1.92070   0.00012   0.00000   0.00356   0.00346   1.92416
   A61        1.94864   0.00028   0.00000   0.00451   0.00459   1.95323
   A62        1.87322   0.00015   0.00000   0.00341   0.00339   1.87661
   A63        2.00709  -0.00554   0.00000  -0.03421  -0.03428   1.97281
    D1        0.92581  -0.00044   0.00000   0.00432   0.00430   0.93011
    D2        3.06378   0.00019   0.00000   0.00762   0.00762   3.07140
    D3       -1.17433  -0.00025   0.00000   0.00675   0.00674  -1.16759
    D4        3.04442  -0.00035   0.00000   0.00191   0.00190   3.04633
    D5       -1.10079   0.00029   0.00000   0.00522   0.00522  -1.09558
    D6        0.94428  -0.00015   0.00000   0.00434   0.00434   0.94862
    D7       -1.16377  -0.00027   0.00000   0.01011   0.01011  -1.15366
    D8        0.97420   0.00037   0.00000   0.01342   0.01342   0.98762
    D9        3.01927  -0.00007   0.00000   0.01255   0.01255   3.03182
   D10       -0.98806  -0.00115   0.00000  -0.01600  -0.01600  -1.00405
[...]
 -0.00006095,0.00009926,-0.00190796,-0.00000815,0.00100384,-0.00001519,
 0.00008537,0.00000255,0.00007767,0.00002046,-0.00003749,0.00097202,-0.
 00134777,0.00021711,-0.00000243,0.00000131,-0.00000266,-0.00000444,-0.
 00000056,0.00000220,-0.00007026,0.00011406,-0.00010584,-0.00000371,0.0
 0000224,-0.00000135,-0.00001027,-0.00000210,0.00000545,0.00000037,-0.0
 0000117,-0.00000393,-0.00001142,-0.00000060,-0.00000404,-0.00003135,0.
 00011918,0.00007503,0.00035943,0.00027235,0.00015172,-0.00456437,0.011
 46302,-0.01496774,0.03266143,-0.12360425,0.23239959,-0.00038419,-0.000
 23015,0.00022690,0.00000024,0.00000080,-0.00000013,0.00004702,0.000029
 60,0.00003655,0.00000413,-0.00000503,0.00000004,-0.00000051,-0.0000018
 1,0.00000147,0.00045532,-0.00011062,-0.00124359,0.00292618,0.00270888,
 -0.00422810,-0.05983051,0.02319567,-0.02425308,-0.01379175,0.00453619,
 -0.02749116,-0.00107705,0.00854889,-0.00835538,-0.00018626,0.00011484,
 0.00019884,-0.00000715,-0.00000233,-0.00000265,-0.00000816,0.00000943,
 -0.00000581,0.00006330,-0.00012544,0.00004194,-0.00000027,0.00000011,-
 0.00000020,-0.00000045,-0.00000004,0.00000025,0.00000249,-0.00000125,-
 0.00000434,-0.00000053,0.00000036,-0.00000054,-0.00000038,0.00000034,-
 0.00000024,-0.00000011,-0.00000033,-0.00000031,-0.00000150,0.00000009,
 -0.00000039,0.00014660,-0.00014859,0.00015118,-0.00002354,0.00008398,0
 .00023498,0.00013136,-0.00017965,0.00026117,0.00036622,-0.00037455,0.0
 0090507,0.06396990,-0.00022651,-0.00032600,0.00009347,0.00000026,-0.00
 000050,-0.00000095,-0.00001535,-0.00000216,-0.00005180,-0.00000821,0.0
 0000818,0.00000168,0.00000114,0.00000094,-0.00000669,-0.00116135,0.001
 30491,0.00089476,0.00179159,0.00169069,-0.00262063,0.02421041,-0.13642
 901,0.11749733,-0.00916660,0.01028588,-0.01823824,0.00488240,-0.019678
 66,0.02499445,0.00013295,0.00019843,0.00012388,0.00001006,0.00000395,0
 .00001327,0.00002161,-0.00001017,0.00001772,-0.00008059,-0.00011155,0.
 00000338,0.00000087,-0.00000015,0.00000043,0.00000072,-0.00000003,-0.0
 0000074,0.00000761,0.00000411,0.00000378,0.00000129,-0.00000068,0.0000
 0041,-0.00000138,-0.00000069,0.00000063,-0.00000006,0.00000012,0.00000
 068,0.00000339,0.00000026,0.00000143,-0.00027351,0.00016733,-0.0004071
 6,0.00055480,0.00037821,-0.00065196,0.00018056,0.00002524,-0.00008452,
 0.00104198,-0.00021247,0.00063250,-0.02465988,0.14744254,0.00013998,-0
 .00060918,-0.00006097,0.00000094,0.00000334,0.00000338,0.00026993,0.00
 005348,0.00019868,0.00004435,-0.00004521,-0.00001525,-0.00000404,-0.00
 000514,0.00002219,-0.00045951,-0.00039448,0.00086244,0.00381056,0.0006
 8034,0.00030101,-0.02790430,0.11557049,-0.20159590,-0.01771380,0.00195
 212,-0.02625733,0.00308312,-0.00528007,0.00784670,-0.00059709,0.000123
 16,0.00015023,-0.00002541,0.00000733,-0.00003137,-0.00011957,0.0000642
 4,-0.00007617,0.00004687,0.00009454,-0.00011512,-0.00000369,0.00000106
 ,-0.00000330,-0.00000651,0.00000043,0.00000270,0.00001232,0.00001046,-
 0.00001078,-0.00000636,0.00000856,-0.00000286,-0.00000123,-0.00000059,
 0.00000626,0.00000016,-0.00000075,-0.00000319,-0.00001302,-0.00000034,
 -0.00000342,-0.00015077,0.00007655,0.00007245,-0.00048014,0.00011669,-
 0.00007482,-0.00007388,-0.00037169,0.00036106,-0.00107365,-0.00027297,
 0.00094678,0.04239305,-0.12125691,0.22877319,0.00063847,-0.00061106,-0
 .00014250,0.00000035,0.00000587,0.00000468,0.00032523,-0.00003384,0.00
 022753,0.00006323,-0.00006406,-0.00002189,-0.00000221,-0.00000505,0.00
 002907,0.00069988,0.00212277,0.00014654,0.00034620,-0.00086045,-0.0047
 2893,-0.23268135,-0.01786508,0.12005069,-0.02775777,-0.00846835,0.0083
 2216,-0.00741780,0.00001029,0.00647626,-0.00055189,0.00008552,0.000150
 83,-0.00002726,0.00002831,-0.00003383,-0.00015627,0.00010054,-0.000096
 63,-0.00003443,0.00003584,0.00000560,-0.00000558,0.00000154,-0.0000045
 0,-0.00000866,0.00000061,0.00000377,-0.00000863,0.00005285,0.00000424,
 -0.00001034,0.00001255,-0.00000476,-0.00000090,0.00000005,0.00000721,0
 .00000093,-0.00000168,-0.00000430,-0.00001789,-0.00000031,-0.00000453,
 -0.00049307,-0.00020210,0.00028046,-0.00000907,-0.00010494,0.00010139,
 -0.00118834,-0.00016373,0.00053216,0.00005851,-0.00009251,0.00026450,0
 .00658145,0.00041746,-0.00200759,0.26137138,-0.00061533,-0.00087303,-0
 .00038002,0.00000060,-0.00000079,0.00000055,-0.00001427,-0.00006141,-0
 .00006205,-0.00000294,0.00000515,-0.00000471,0.00000551,0.00000101,-0.
 00000566,0.00109662,-0.00598266,-0.00085347,-0.00112433,-0.00094144,-0
 .00305986,-0.01558984,-0.05177786,0.01297162,-0.02027112,-0.00432247,0
 .00766715,0.02660285,0.00409821,-0.01690883,0.00008902,0.00040604,0.00
 021377,0.00001558,0.00003051,0.00002726,0.00002485,0.00001031,0.000023
 71,0.00005017,0.00009093,0.00005113,0.00000039,0.00000016,0.00000009,-
 0.00000014,0.00000002,-0.00000027,0.00004191,0.00005774,0.00002478,-0.
 00000047,0.00000115,0.00000070,-0.00000251,0.00000001,0.00000037,0.000
 00017,-0.00000006,0.,0.00000214,-0.00000002,0.00000113,0.00181501,0.00
 019770,-0.00076117,-0.00011803,0.00009098,-0.00014783,-0.00110045,0.00
 006391,0.00019800,0.00026425,0.00010234,-0.00018719,-0.01519469,-0.000
 73360,0.01049778,0.02551822,0.05721022,-0.00036146,-0.00067285,-0.0003
 4853,0.00000078,0.00000077,0.00000109,-0.00000322,-0.00005668,-0.00003
 324,0.00000193,0.00000090,-0.00000541,0.00000431,0.00000039,-0.0000043
 8,0.00008313,-0.00270282,0.00056894,-0.00244649,-0.00131739,-0.0021288
 1,0.13147761,0.01681250,-0.13609201,-0.02509897,-0.00537204,0.01195273
 ,0.00619044,0.00250451,-0.00415850,0.00002157,0.00031063,0.00021499,0.
 00000974,0.00002287,0.00002126,0.00000724,0.00001926,0.00000839,0.0000
 1463,0.00003044,0.00002348,0.00000007,-0.00000008,0.00000010,-0.000000
 46,-0.00000002,0.00000009,0.00001966,0.00004732,0.00002015,-0.00000149
 ,0.00000142,-0.00000044,-0.00000085,0.00000016,0.00000108,0.00000066,-
 0.00000034,-0.00000004,0.00000090,0.00000005,0.00000069,0.00090968,0.0
 0007487,-0.00004586,-0.00043552,-0.00004502,0.00032119,-0.00082813,-0.
 00026841,0.00048436,-0.00014737,-0.00026667,0.00036967,0.02055964,0.00
 149071,-0.01214321,-0.12940368,-0.01027116,0.14017803,-0.00192024,0.00
 162658,0.00519878,0.00000587,0.00000775,0.00000773,0.00047871,0.000125
 07,0.00110698,0.00012334,-0.00013458,-0.00003228,-0.00003999,-0.000024
 30,0.00011224,-0.01970841,-0.01375057,-0.01909051,-0.00073389,0.000606
 23,0.00046816,0.00830046,0.00335654,0.00749770,0.00118439,0.00371980,0
 .00167844,-0.15934770,-0.07522656,-0.10903645,-0.00275943,-0.00189836,
 -0.00123673,-0.00016898,-0.00007346,-0.00023965,-0.00029166,0.00018735
 ,-0.00028480,0.00014651,0.00022708,0.00005131,-0.00001116,0.00000495,-
 0.00000999,-0.00001670,0.00000248,0.00000730,-0.00007003,-0.00008088,-
 0.00007702,-0.00001724,0.00002267,-0.00000918,-0.00000141,0.00000073,0
 .00001178,0.00000231,-0.00000322,-0.00000875,-0.00005325,0.00000180,-0
 .00001971,0.00103125,0.00067946,-0.00043826,0.00135928,-0.00000264,0.0
 0008745,0.00016412,-0.00009293,-0.00015672,0.00015509,-0.00006312,-0.0
 0001746,0.00040189,-0.00054174,-0.00038936,0.00007826,-0.00097982,-0.0
 0012671,0.17396981,0.00036299,0.00096258,0.00067814,0.00000053,0.00000
 174,0.00000171,0.00015768,0.00001588,0.00011571,0.00002943,-0.00002965
 ,-0.00000885,-0.00000191,-0.00000352,0.00001626,-0.00198813,-0.0019512
 1,-0.00080939,0.00182555,0.00065220,-0.00062999,-0.02163428,-0.0086915
 7,-0.01649008,0.00032706,-0.00802469,-0.00383311,-0.07415523,-0.100257
 42,-0.07202550,-0.00031498,0.00013474,-0.00016127,-0.00000909,0.000001
 40,-0.00002376,-0.00007145,0.00004379,-0.00004782,-0.00015791,-0.00010
 712,-0.00030016,-0.00000261,0.00000063,-0.00000209,-0.00000400,0.00000
 049,0.00000185,-0.00000352,0.00000863,-0.00000909,-0.00000498,0.000005
 01,-0.00000245,0.00000022,0.00000008,0.00000432,0.00000067,-0.00000030
 ,-0.00000203,-0.00000864,0.00000019,-0.00000240,-0.00002861,0.00025488
 ,0.00042583,-0.00000534,0.00003578,-0.00018928,-0.00021801,-0.00000757
 ,0.00009594,-0.00015947,-0.00004105,0.00015514,-0.00013651,0.00087694,
 0.00103208,0.00042334,0.00090443,0.00001307,0.08299515,0.10608138,0.00
 231831,-0.00040318,-0.00171062,-0.00000212,0.00000155,-0.00000206,0.00
 008027,-0.00000494,-0.00030142,-0.00002139,0.00002220,0.00000379,0.000
 01724,0.00000696,-0.00003169,0.01204063,0.00908609,0.01096378,0.000868
 91,0.00023158,-0.00053975,-0.00620957,-0.00057494,-0.00627358,0.000064
 82,-0.00371087,0.00013807,-0.10979973,-0.07407144,-0.15153676,0.001061
 23,0.00061899,0.00059136,0.00005920,0.00003407,0.00007272,0.00003232,-
 0.00003520,0.00005897,0.00012485,0.00004269,0.00030779,0.00000188,-0.0
 0000154,0.00000221,0.00000240,-0.00000088,-0.00000113,0.00001675,0.000
 02946,0.00002008,0.00000353,-0.00000402,0.00000221,0.00000050,-0.00000
 006,-0.00000231,-0.00000128,0.00000057,0.00000163,0.00001532,-0.000001
 17,0.00000572,-0.00094705,-0.00024312,0.00042125,-0.00080394,0.0000078
 2,0.00075877,-0.00011923,0.00000560,0.00002821,-0.00018373,-0.00002779
 ,0.00006935,0.00020035,-0.00017973,0.00038387,0.00023115,0.00026126,0.
 00003342,0.11666648,0.08069367,0.16212304,0.00143699,-0.00025610,0.001
 03079,0.00000036,0.00000176,-0.00000008,0.00006339,0.00012998,-0.00006
 022,0.00000830,-0.00001254,-0.00000666,0.00000163,0.00000029,-0.000000
 86,0.00240704,-0.01794671,0.02568537,-0.00054940,-0.00012919,0.0003026
 1,-0.00351726,0.00820805,-0.01220275,0.00100851,-0.00120593,0.00087103
 ,-0.05106612,0.01486031,-0.02222704,-0.00024636,0.00018255,-0.00027032
 ,0.00001559,0.00000030,0.00000850,-0.00005006,0.00001153,-0.00006524,-
 0.00027542,0.00008840,-0.00043395,-0.00000045,0.00000009,-0.00000034,-
 0.00000096,-0.00000005,0.00000058,-0.00000107,-0.00000966,-0.00000649,
 -0.00000251,0.00000249,-0.00000085,-0.00000042,-0.00000197,0.00000337,
 0.00000018,-0.00000009,-0.00000043,-0.00000074,0.00000026,0.00000012,0
 .00131210,0.00051525,-0.00063127,-0.00508636,-0.00105712,0.00235082,0.
 00008771,-0.00006241,-0.00003672,-0.00012637,0.00008458,-0.00013120,0.
 00021871,0.00287637,0.00123655,0.00022429,-0.00050227,-0.00043600,-0.0
 0226104,0.01278845,-0.01571763,0.05640261,0.00026190,-0.00019179,0.000
 57868,0.00000082,-0.00000037,-0.00000082,-0.00001333,-0.00001667,0.000
 01174,-0.00000082,0.00000304,0.00000214,-0.00000066,-0.00000100,0.0000
 0265,0.00008209,-0.00176954,0.00164625,0.,-0.00012061,-0.00011274,0.00
 530315,-0.02069540,0.02566244,-0.00063008,0.00331216,-0.00000214,0.013
 50163,-0.13524672,0.12115712,-0.00012282,0.00005888,-0.00016283,-0.000
 00261,-0.00000035,-0.00000289,0.00000510,0.00001188,-0.00001380,-0.000
 25970,-0.00012530,-0.00012382,-0.00000035,0.00000014,-0.00000026,0.000
 00016,0.00000021,0.00000005,0.00000039,0.00000051,-0.00000031,-0.00000
 120,0.00000065,-0.00000067,-0.00000035,-0.00000063,0.00000044,0.000000
 13,-0.00000036,-0.00000012,-0.00000121,0.00000029,-0.00000085,-0.00037
 559,0.00044985,-0.00023311,-0.00020403,0.00091535,0.00012006,-0.000034
 06,-0.00000832,-0.00001909,0.00013270,0.00008751,0.00003639,0.00194424
 ,-0.00488238,-0.00204897,-0.00033492,0.00142373,-0.00035243,-0.0006838
 0,0.00913562,-0.01178442,-0.01856633,0.14765957,-0.00093103,-0.0004040
 2,-0.00005202,0.00000040,-0.00000383,-0.00000331,-0.00012005,-0.000052
 20,-0.00009944,-0.00002713,0.00003830,0.00001061,0.00000446,0.00000355
 ,-0.00001520,-0.00055945,0.00824450,-0.01329699,-0.00006583,-0.0000962
 5,0.00009745,0.00080337,-0.00744823,0.00750594,0.00121541,0.00117479,0
 .00133848,-0.02290781,0.12310918,-0.22014440,0.00027858,-0.00009396,0.
 00033087,0.00001732,0.00000711,0.00002608,0.00010386,-0.00004038,0.000
 06467,0.00025619,0.00023670,0.00053704,0.00000251,-0.00000087,0.000002
 29,0.00000453,0.00000003,-0.00000216,0.00000666,0.00001283,0.00001430,
 0.00000492,-0.00000500,0.00000352,-0.00000005,-0.00000013,-0.00000478,
 -0.00000020,0.00000039,0.00000170,0.00000905,-0.00000016,0.00000233,-0
 .00017332,-0.00033772,0.00035555,0.00313298,0.00021194,-0.00007034,-0.
 00001555,0.00008991,0.00001637,-0.00003739,-0.00001861,-0.00015755,0.0
 0037606,-0.00226975,0.00046086,-0.00039152,0.00069935,0.00075776,-0.00
 172840,0.01129956,-0.01558339,0.02073814,-0.13435964,0.23790661,0.0000
 9119,0.00015756,0.00005662,0.00142583,-0.00092971,0.00078257,-0.003411
 26,0.02217802,0.01675541,0.00044378,0.00066542,0.00012937,-0.00168532,
 -0.02340330,-0.02170036,0.00002741,-0.00004099,-0.00007850,0.00003554,
 0.00017776,0.00020084,-0.00002089,0.00002964,0.00004872,-0.00008002,-0
 .00011693,-0.00013518,0.00001805,0.00002086,0.00002309,0.00206260,0.00
 079005,0.00016417,-0.04586340,-0.00597447,-0.00493058,0.00025888,-0.00
 149988,0.00018231,0.00010075,0.00004450,-0.00007265,0.00007866,-0.0000
 8133,0.00031697,-0.00002018,0.00028143,0.00026312,-0.00336925,-0.00136
 314,0.00262741,0.00000441,-0.00004545,0.00002998,0.00031402,-0.0000741
 2,-0.00028521,-0.00518286,0.00050399,-0.00324334,0.00112655,-0.0000455
 2,0.00100733,-0.00000850,-0.00000833,-0.00000777,-0.00000626,-0.000004
 17,-0.00000385,-0.00002061,-0.00014435,-0.00013095,-0.00000148,0.00000
 061,-0.00002375,-0.00000149,-0.00000112,-0.00000339,-0.00001218,-0.000
 01202,-0.00001159,0.00001572,-0.00000170,-0.00000555,-0.00000029,-0.00
 000021,-0.00000124,0.05414041,-0.00008468,0.00040608,0.00032276,-0.000
 55213,0.00077413,0.00075567,0.00045561,0.00125782,0.00221514,0.0000111
 7,-0.00083203,0.00066558,-0.00063117,0.00106468,0.00110910,0.00005413,
 -0.00001015,-0.00007933,-0.00017064,-0.00011989,0.00001779,-0.00000754
 ,0.00000923,-0.00000289,-0.00001711,0.00003876,0.00000387,0.00001923,0
 .00001267,0.00002793,-0.00004596,0.00067725,0.00078981,-0.00389868,-0.
 19728388,-0.13008072,-0.00011250,0.00002852,-0.00041813,-0.00000212,-0
 .00000092,0.00000245,-0.00000552,0.00005023,-0.00011422,-0.00009392,0.
 00012197,-0.00067258,-0.00025710,0.00095395,-0.00022262,0.00005937,0.0
 0024626,0.00013216,0.00014486,-0.00036644,0.00095392,0.00024906,0.0011
 3095,0.00076420,-0.00040807,0.00004039,-0.00011929,-0.00000047,0.00000
 010,-0.00000586,0.00000070,-0.00000711,0.00000011,0.00001645,-0.000007
 80,0.00002367,0.00000979,0.00000611,-0.00000597,-0.00000107,-0.0000011
 9,0.00000052,0.00000036,-0.00000138,-0.00000287,0.00001180,0.00000203,
 -0.00000405,-0.00000007,0.00000030,-0.00000094,0.00599579,0.21177965,-
 0.00005427,0.00038370,0.00016182,0.00004941,-0.00041501,0.00046204,0.0
 0030607,-0.01968890,-0.01507871,0.00021096,-0.00093732,-0.00080677,-0.
 00173792,-0.01106354,-0.01121804,0.00001719,0.00000090,-0.00000111,-0.
 00017985,-0.00027082,-0.00010197,0.00002051,-0.00000385,-0.00001663,-0
 .00002777,0.00012906,0.00010109,0.00000610,-0.00000219,-0.00000936,-0.
 00313228,0.00021023,0.00151962,-0.00170656,-0.12754315,-0.16280862,0.0
 0050726,0.00204246,-0.00049015,-0.00007668,-0.00004475,0.00005003,0.00
 011239,0.00007216,0.00022106,-0.00019849,0.00028232,-0.00022061,0.0023
 4916,0.00095742,-0.00156089,-0.00000049,0.00019708,0.00028085,0.000259
 48,0.00084971,-0.00011958,-0.00284208,0.00008569,-0.00049913,0.0000370
 9,0.00033931,0.00057610,0.00000530,0.00000420,-0.00000248,0.00000253,-
 0.00000080,-0.00000507,0.00003978,0.00008449,0.00010782,0.00000337,0.0
 0000605,0.00001178,-0.00000165,-0.00000050,-0.00000057,0.00000421,0.00
 000560,0.00000402,-0.00000628,0.00000147,0.00000063,0.00000016,0.00000
 023,0.00000007,0.00522160,0.14233799,0.17758896,-0.00016816,0.00042623
 ,-0.00038523,-0.00500773,-0.00157643,-0.00372156,0.00452182,-0.0224805
 3,0.01045171,-0.00169073,0.00033520,0.00023879,-0.00278138,0.02754102,
 -0.01321398,-0.00006594,0.00002068,0.00005938,-0.00003742,-0.00011779,
 0.00002119,0.00002107,0.00000355,0.00001556,-0.00008040,0.00004669,0.0
 0002904,-0.00000262,-0.00002255,-0.00002920,-0.00089198,0.00061011,0.0
 0009138,-0.05141517,0.02932856,-0.01670352,-0.00192667,-0.00200303,0.0
 0504546,0.00010716,0.00000926,0.00000652,-0.00033145,0.00165940,-0.000
 88782,-0.00004370,0.00023287,0.00007942,0.00106686,0.00008899,-0.00030
 223,0.00018587,-0.00002973,-0.00002739,0.00016977,-0.00007585,0.000150
 98,0.00120546,-0.00058113,0.00036149,0.00113840,-0.00000860,0.00101759
 ,0.00000367,-0.00000308,-0.00000252,-0.00000272,-0.00000086,-0.0000032
 6,0.00000534,0.00000273,0.00001108,-0.00000110,0.00000948,-0.00001737,
 -0.00000096,0.00000084,-0.00000450,-0.00000456,0.00000094,-0.00000004,
 -0.00001588,-0.00000469,0.00000507,-0.00000257,-0.00000022,0.00000453,
 -0.00045982,-0.00073957,0.00081174,0.05650555,-0.00001561,0.00024280,-
 0.00021158,-0.00038924,0.00118191,0.00017683,0.00285152,-0.00307555,-0
 .00107940,0.00001910,0.00012568,-0.00037783,-0.00028015,0.00212690,-0.
 00180019,-0.00004864,0.00001111,0.00007018,-0.00003433,-0.00011467,0.0
 0004410,0.00002786,0.00000327,0.00002923,-0.00010296,0.00003926,0.0000
 2637,-0.00000511,-0.00001564,-0.00004042,-0.00126249,0.00014435,0.0001
 9936,0.02835780,-0.25170394,0.11698626,-0.00006404,0.00092559,-0.00033
 319,0.00001419,0.00000612,-0.00000386,-0.00002954,-0.00013489,0.000064
 38,-0.00003233,0.00011905,-0.00015530,-0.00031200,0.00114471,-0.000342
 27,0.00000677,0.00007485,0.00019481,0.00015763,0.00023619,0.00012817,0
 .00045042,0.00036090,0.00029001,0.00049527,0.00017288,0.00005968,0.000
 00349,-0.00000394,-0.00000451,-0.00000378,0.00000068,-0.00000747,0.000
 00262,-0.00000569,-0.00000631,-0.00000588,0.00000726,-0.00000582,-0.00
 000147,0.00000150,-0.00000687,-0.00000803,0.00000017,-0.00000111,-0.00
 001948,-0.00000435,0.00000484,-0.00000023,-0.00000028,0.00000354,0.002
 90113,-0.01997031,0.01198076,-0.03267249,0.26810409,0.00013374,-0.0000
 0752,0.00020515,-0.00238570,-0.00082311,-0.00052744,-0.00513566,0.0181
 6712,-0.01110323,0.00049606,-0.00184219,-0.00003071,-0.00114735,0.0126
 2418,-0.00730557,0.00006753,-0.00002678,-0.00004295,-0.00002093,0.0000
 3525,0.00000296,-0.00001233,0.00000500,-0.00000415,0.00001008,-0.00001
 691,-0.00000873,0.00000702,0.00001932,0.00002781,0.00048536,-0.0002397
 2,-0.00000991,-0.01560164,0.11346441,-0.11259320,0.00344436,0.00222194
 ,-0.00451124,-0.00007802,-0.00003064,0.00002166,-0.00011484,0.00076869
 ,-0.00017727,-0.00020485,0.00022614,-0.00014339,-0.00060628,-0.0002261
 2,0.00051316,-0.00001704,0.00017472,0.00010428,0.00009062,0.00018328,0
 .00026405,0.00061371,-0.00002006,0.00021092,0.00022133,-0.00037129,0.0
 0066209,-0.00000365,0.00000273,-0.00000048,0.00000677,0.00000304,0.000
 00624,0.00000483,-0.00000889,-0.00000970,0.00000864,-0.00000721,-0.000
 00088,0.00000007,-0.00000095,0.00000246,0.00000220,-0.00000205,-0.0000
 0099,0.00001392,0.00000254,-0.00000416,0.,0.00000069,-0.00000292,0.002
 82440,-0.01839320,0.01185382,0.01689768,-0.12588241,0.12260233\\-0.000
 24292,0.00045445,-0.00020937,-0.00000331,-0.00000168,0.00000027,0.0003
 1681,-0.00070445,0.00023206,0.00002385,0.00000074,-0.00001901,0.000006
 54,0.00000219,-0.00001119,0.00026092,-0.00061017,0.00025402,0.00000326
 ,0.00001482,-0.00000441,-0.00001155,0.00000073,-0.00001056,0.00001524,
 0.00000265,-0.00000509,0.00000609,-0.00000059,-0.00001399,-0.00034295,
 0.00085037,-0.00024646,-0.00000369,-0.00001085,0.00001135,-0.00003142,
 0.00000188,-0.00000032,0.00000164,0.00000358,-0.00001085,0.00000199,0.
 00000605,0.00000030,0.00000097,-0.00000070,0.00000360,0.00000859,-0.00
 000857,0.00000329,-0.00000808,0.00000255,0.00000014,-0.00000624,-0.000
 00079,0.00000393,0.00000040,-0.00000344,0.00000474,0.00000424,-0.00000
 285,0.00000854,-0.00000041,0.00000189,-0.00000552,-0.00000064,0.,-0.00
 000090,-0.00000676,0.00000092,0.00000122,-0.00000381,-0.00000181,0.000
 00395,0.00000282,0.00000428,0.00000511,0.00000268,0.00000495,-0.000001
 93,0.00000248,-0.00000153,0.00000395,0.00000316,-0.00000148,0.00000003
 ,0.00000146,0.00000226,0.00000415,-0.00000138,-0.00000538,-0.00000106\
 \\@


 THE PROMISED LAND ALWAYS LIES ON THE OTHER SIDE OF A WILDERNESS.

                         -- HAVELOCK ELLIS
 Job cpu time:       0 days 14 hours 18 minutes 47.7 seconds.
 Elapsed time:       0 days  0 hours 53 minutes 42.4 seconds.
 File lengths (MBytes):  RWF=    691 Int=      0 D2E=      0 Chk=     33 Scr=      1
 Normal termination of Gaussian 16 at Mon Nov  5 02:25:03 2018.
