 Entering Gaussian System, Link 0=g16
 Initial command:
 /apps/gaussian/g16a03/g16/l1.exe "/jobfs/local/2011856.r-man2/Gau-5867.inp" -scrdir="/jobfs/local/2011856.r-man2/"
 Entering Link 1 = /apps/gaussian/g16a03/g16/l1.exe PID=      5868.
  
 Copyright (c) 1988,1990,1992,1993,1995,1998,2003,2009,2016,
            Gaussian, Inc.  All Rights Reserved.
  
 This is part of the Gaussian(R) 16 program.  It is based on
 the Gaussian(R) 09 system (copyright 2009, Gaussian, Inc.),
 the Gaussian(R) 03 system (copyright 2003, Gaussian, Inc.),
 the Gaussian(R) 98 system (copyright 1998, Gaussian, Inc.),
 the Gaussian(R) 94 system (copyright 1995, Gaussian, Inc.),
 the Gaussian 92(TM) system (copyright 1992, Gaussian, Inc.),
 the Gaussian 90(TM) system (copyright 1990, Gaussian, Inc.),
 the Gaussian 88(TM) system (copyright 1988, Gaussian, Inc.),
 the Gaussian 86(TM) system (copyright 1986, Carnegie Mellon
 University), and the Gaussian 82(TM) system (copyright 1983,
 Carnegie Mellon University). Gaussian is a federally registered
 trademark of Gaussian, Inc.
  
 This software contains proprietary and confidential information,
 including trade secrets, belonging to Gaussian, Inc.
  
 This software is provided under written license and may be
 used, copied, transmitted, or stored only in accord with that
 written license.
  
 The following legend is applicable only to US Government
 contracts under FAR:
  
                    RESTRICTED RIGHTS LEGEND
  
 Use, reproduction and disclosure by the US Government is
 subject to restrictions as set forth in subparagraphs (a)
 and (c) of the Commercial Computer Software - Restricted
 Rights clause in FAR 52.227-19.
  
 Gaussian, Inc.
 340 Quinnipiac St., Bldg. 40, Wallingford CT 06492
  
  
 ---------------------------------------------------------------
 Warning -- This program may not be used in any manner that
 competes with the business of Gaussian, Inc. or will provide
 assistance to any competitor of Gaussian, Inc.  The licensee
 of this program is prohibited from giving any competitor of
 Gaussian, Inc. access to this program.  By using this program,
 the user acknowledges that Gaussian, Inc. is engaged in the
 business of creating and licensing software in the field of
 computational chemistry and represents and warrants to the
 licensee that it is not a competitor of Gaussian, Inc. and that
 it will not use this program in any manner prohibited above.
 ---------------------------------------------------------------
  

 Cite this work as:
 Gaussian 16, Revision A.03,
 M. J. Frisch, G. W. Trucks, H. B. Schlegel, G. E. Scuseria, 
 M. A. Robb, J. R. Cheeseman, G. Scalmani, V. Barone, 
 G. A. Petersson, H. Nakatsuji, X. Li, M. Caricato, A. V. Marenich, 
 J. Bloino, B. G. Janesko, R. Gomperts, B. Mennucci, H. P. Hratchian, 
 J. V. Ortiz, A. F. Izmaylov, J. L. Sonnenberg, D. Williams-Young, 
 F. Ding, F. Lipparini, F. Egidi, J. Goings, B. Peng, A. Petrone, 
 T. Henderson, D. Ranasinghe, V. G. Zakrzewski, J. Gao, N. Rega, 
 G. Zheng, W. Liang, M. Hada, M. Ehara, K. Toyota, R. Fukuda, 
 J. Hasegawa, M. Ishida, T. Nakajima, Y. Honda, O. Kitao, H. Nakai, 
 T. Vreven, K. Throssell, J. A. Montgomery, Jr., J. E. Peralta, 
 F. Ogliaro, M. J. Bearpark, J. J. Heyd, E. N. Brothers, K. N. Kudin, 
 V. N. Staroverov, T. A. Keith, R. Kobayashi, J. Normand, 
 K. Raghavachari, A. P. Rendell, J. C. Burant, S. S. Iyengar, 
 J. Tomasi, M. Cossi, J. M. Millam, M. Klene, C. Adamo, R. Cammi, 
 J. W. Ochterski, R. L. Martin, K. Morokuma, O. Farkas, 
 J. B. Foresman, and D. J. Fox, Gaussian, Inc., Wallingford CT, 2016.
 
 ******************************************
 Gaussian 16:  ES64L-G16RevA.03 25-Dec-2016
                 4-Nov-2018 
 ******************************************
 %mem=6000mb
 %nproc=24
 Will use up to   24 processors via shared memory.
 %chk=2SO_1_e4_D_PSI.inp_extract_19.chk
 ----------------------------------------------------------------------
 #M062X/6-311++G(2d,2p) opt=ModRedundant freq=noraman SCRF=(Solvent=Wat
 er)
 ----------------------------------------------------------------------
 1/18=120,19=15,26=3,38=1/1,3;
 2/9=110,12=2,17=6,18=5,40=1/2;
 3/5=4,6=6,7=1212,11=2,25=1,30=1,70=2201,71=1,72=1,74=-55/1,2,3;
 4//1;
 5/5=2,38=5,53=1/2;
 6/7=2,8=2,9=2,10=2,28=1/1;
 7//1,2,3,16;
 1/18=20,19=15,26=3/3(2);
 2/9=110/2;
 99//99;
 2/9=110/2;
 3/5=4,6=6,7=1212,11=2,25=1,30=1,70=2205,71=1,72=1,74=-55/1,2,3;
 4/5=5,16=3,69=1/1;
 5/5=2,38=5,53=1/2;
 7//1,2,3,16;
 1/18=20,19=15,26=3/3(-5);
 2/9=110/2;
 6/7=2,8=2,9=2,10=2,19=2,28=1/1;
 99/9=1/99;
 -----------------------------
 2SO_1_e4_D_PSI.inp_extract_19
 -----------------------------
 Symbolic Z-matrix:
 Charge =  0 Multiplicity = 1
 C                     1.205     0.41252   0.26573 
 C                    -3.89973  -0.54909  -0.39463 
 C                    -1.19473   0.28637   0.49401 
 C                    -2.56011  -1.1143   -0.86967 
 C                    -3.66904   0.63627   0.5605 
 C                     1.56539  -1.07028   0.27792 
 C                     2.17781   1.1886   -0.61223 
 C                     3.91607  -0.36758  -0.25479 
 O                     3.50729   0.9872   -0.18823 
 C                     3.04529  -1.23682   0.63646 
 O                    -0.08287   0.69014  -0.25365 
 C                    -2.32035   1.28961   0.2669 
 O                    -1.58823  -1.01934   0.15933 
 H                     1.26045   0.80554   1.27743 
 H                    -4.476    -1.32248   0.10289 
 H                    -4.46934  -0.2354   -1.26469 
 H                    -0.92245   0.2432    1.53962 
 H                    -2.63385  -2.16343  -1.11803 
 H                    -2.20353  -0.59008  -1.74918 
 H                    -3.67836   0.28901   1.58987 
 H                    -4.46812   1.36388   0.46886 
 H                     0.94581  -1.60997   0.9845 
 H                     1.37652  -1.48587  -0.70925 
 H                     1.98291   2.25011  -0.54827 
 H                     2.07029   0.87605  -1.6483 
 H                     3.86391  -0.70249  -1.2883 
 H                     4.95048  -0.3887    0.05956 
 H                     3.34354  -2.27543   0.5299 
 H                     3.20986  -0.95698   1.67407 
 H                    -2.28945   1.63529  -0.76208 
 H                    -2.14587   2.15198   0.90068 
 
 The following ModRedundant input section has been read:
 D       6       1      11       3 F                                           
 

 GradGradGradGradGradGradGradGradGradGradGradGradGradGradGradGradGradGrad
 Berny optimization.
 Initialization pass.
                           ----------------------------
                           !    Initial Parameters    !
                           ! (Angstroms and Degrees)  !
 --------------------------                            --------------------------
 ! Name  Definition              Value          Derivative Info.                !
 --------------------------------------------------------------------------------
 ! R1    R(1,6)                  1.526          estimate D2E/DX2                !
 ! R2    R(1,7)                  1.523          estimate D2E/DX2                !
 ! R3    R(1,11)                 1.4161         estimate D2E/DX2                !
 ! R4    R(1,14)                 1.0868         estimate D2E/DX2                !
 ! R5    R(2,4)                  1.5296         estimate D2E/DX2                !
 ! R6    R(2,5)                  1.5397         estimate D2E/DX2                !
 ! R7    R(2,15)                 1.0852         estimate D2E/DX2                !
 ! R8    R(2,16)                 1.0862         estimate D2E/DX2                !
 ! R9    R(3,11)                 1.3994         estimate D2E/DX2                !
 ! R10   R(3,12)                 1.5248         estimate D2E/DX2                !
 ! R11   R(3,13)                 1.4042         estimate D2E/DX2                !
 ! R12   R(3,17)                 1.0813         estimate D2E/DX2                !
 ! R13   R(4,13)                 1.4186         estimate D2E/DX2                !
 ! R14   R(4,18)                 1.0806         estimate D2E/DX2                !
 ! R15   R(4,19)                 1.0842         estimate D2E/DX2                !
 ! R16   R(5,12)                 1.5271         estimate D2E/DX2                !
 ! R17   R(5,20)                 1.0864         estimate D2E/DX2                !
 ! R18   R(5,21)                 1.0846         estimate D2E/DX2                !
 ! R19   R(6,10)                 1.5318         estimate D2E/DX2                !
 ! R20   R(6,22)                 1.0837         estimate D2E/DX2                !
 ! R21   R(6,23)                 1.0876         estimate D2E/DX2                !
 ! R22   R(7,9)                  1.4099         estimate D2E/DX2                !
 ! R23   R(7,24)                 1.0812         estimate D2E/DX2                !
 ! R24   R(7,25)                 1.0875         estimate D2E/DX2                !
 ! R25   R(8,9)                  1.4167         estimate D2E/DX2                !
 ! R26   R(8,10)                 1.5193         estimate D2E/DX2                !
 ! R27   R(8,26)                 1.0877         estimate D2E/DX2                !
 ! R28   R(8,27)                 1.0813         estimate D2E/DX2                !
 ! R29   R(10,28)                1.0858         estimate D2E/DX2                !
 ! R30   R(10,29)                1.0872         estimate D2E/DX2                !
 ! R31   R(12,30)                1.0859         estimate D2E/DX2                !
 ! R32   R(12,31)                1.0844         estimate D2E/DX2                !
 ! A1    A(6,1,7)              110.4197         estimate D2E/DX2                !
 ! A2    A(6,1,11)             114.0915         estimate D2E/DX2                !
 ! A3    A(6,1,14)             109.3847         estimate D2E/DX2                !
 ! A4    A(7,1,11)             105.639          estimate D2E/DX2                !
 ! A5    A(7,1,14)             108.6499         estimate D2E/DX2                !
 ! A6    A(11,1,14)            108.4772         estimate D2E/DX2                !
 ! A7    A(4,2,5)              110.2378         estimate D2E/DX2                !
 ! A8    A(4,2,15)             110.1262         estimate D2E/DX2                !
 ! A9    A(4,2,16)             108.4945         estimate D2E/DX2                !
 ! A10   A(5,2,15)             110.1099         estimate D2E/DX2                !
 ! A11   A(5,2,16)             110.6798         estimate D2E/DX2                !
 ! A12   A(15,2,16)            107.131          estimate D2E/DX2                !
 ! A13   A(11,3,12)            108.4885         estimate D2E/DX2                !
 ! A14   A(11,3,13)            111.3224         estimate D2E/DX2                !
 ! A15   A(11,3,17)            109.1523         estimate D2E/DX2                !
 ! A16   A(12,3,13)            111.6802         estimate D2E/DX2                !
 ! A17   A(12,3,17)            110.8649         estimate D2E/DX2                !
 ! A18   A(13,3,17)            105.302          estimate D2E/DX2                !
 ! A19   A(2,4,13)             110.4875         estimate D2E/DX2                !
 ! A20   A(2,4,18)             111.7373         estimate D2E/DX2                !
 ! A21   A(2,4,19)             111.1806         estimate D2E/DX2                !
 ! A22   A(13,4,18)            106.1668         estimate D2E/DX2                !
 ! A23   A(13,4,19)            109.3133         estimate D2E/DX2                !
 ! A24   A(18,4,19)            107.783          estimate D2E/DX2                !
 ! A25   A(2,5,12)             110.0253         estimate D2E/DX2                !
 ! A26   A(2,5,20)             109.9015         estimate D2E/DX2                !
 ! A27   A(2,5,21)             110.712          estimate D2E/DX2                !
 ! A28   A(12,5,20)            109.0569         estimate D2E/DX2                !
 ! A29   A(12,5,21)            110.3304         estimate D2E/DX2                !
 ! A30   A(20,5,21)            106.7482         estimate D2E/DX2                !
 ! A31   A(1,6,10)             109.6139         estimate D2E/DX2                !
 ! A32   A(1,6,22)             110.7374         estimate D2E/DX2                !
 ! A33   A(1,6,23)             108.8463         estimate D2E/DX2                !
 ! A34   A(10,6,22)            110.2183         estimate D2E/DX2                !
 ! A35   A(10,6,23)            109.7966         estimate D2E/DX2                !
 ! A36   A(22,6,23)            107.591          estimate D2E/DX2                !
 ! A37   A(1,7,9)              110.8649         estimate D2E/DX2                !
 ! A38   A(1,7,24)             110.5528         estimate D2E/DX2                !
 ! A39   A(1,7,25)             109.8532         estimate D2E/DX2                !
 ! A40   A(9,7,24)             107.0042         estimate D2E/DX2                !
 ! A41   A(9,7,25)             109.7959         estimate D2E/DX2                !
 ! A42   A(24,7,25)            108.7058         estimate D2E/DX2                !
 ! A43   A(9,8,10)             110.7445         estimate D2E/DX2                !
 ! A44   A(9,8,26)             108.9817         estimate D2E/DX2                !
 ! A45   A(9,8,27)             106.3227         estimate D2E/DX2                !
 ! A46   A(10,8,26)            110.7178         estimate D2E/DX2                !
 ! A47   A(10,8,27)            111.5045         estimate D2E/DX2                !
 ! A48   A(26,8,27)            108.4271         estimate D2E/DX2                !
 ! A49   A(7,9,8)              113.2386         estimate D2E/DX2                !
 ! A50   A(6,10,8)             110.7459         estimate D2E/DX2                !
 ! A51   A(6,10,28)            110.2669         estimate D2E/DX2                !
 ! A52   A(6,10,29)            109.977          estimate D2E/DX2                !
 ! A53   A(8,10,28)            109.4063         estimate D2E/DX2                !
 ! A54   A(8,10,29)            109.0169         estimate D2E/DX2                !
 ! A55   A(28,10,29)           107.3543         estimate D2E/DX2                !
 ! A56   A(1,11,3)             118.0382         estimate D2E/DX2                !
 ! A57   A(3,12,5)             109.989          estimate D2E/DX2                !
 ! A58   A(3,12,30)            109.2428         estimate D2E/DX2                !
 ! A59   A(3,12,31)            108.5066         estimate D2E/DX2                !
 ! A60   A(5,12,30)            110.0899         estimate D2E/DX2                !
 ! A61   A(5,12,31)            111.7144         estimate D2E/DX2                !
 ! A62   A(30,12,31)           107.2229         estimate D2E/DX2                !
 ! A63   A(3,13,4)             115.2848         estimate D2E/DX2                !
 ! D1    D(7,1,6,10)            51.9672         estimate D2E/DX2                !
 ! D2    D(7,1,6,22)           173.7853         estimate D2E/DX2                !
 ! D3    D(7,1,6,23)           -68.1353         estimate D2E/DX2                !
 ! D4    D(11,1,6,10)          170.7548         estimate D2E/DX2                !
 ! D5    D(11,1,6,22)          -67.4271         estimate D2E/DX2                !
 ! D6    D(11,1,6,23)           50.6523         estimate D2E/DX2                !
 ! D7    D(14,1,6,10)          -67.5527         estimate D2E/DX2                !
 ! D8    D(14,1,6,22)           54.2654         estimate D2E/DX2                !
 ! D9    D(14,1,6,23)          172.3448         estimate D2E/DX2                !
 ! D10   D(6,1,7,9)            -56.1208         estimate D2E/DX2                !
 ! D11   D(6,1,7,24)          -174.6203         estimate D2E/DX2                !
 ! D12   D(6,1,7,25)            65.4107         estimate D2E/DX2                !
 ! D13   D(11,1,7,9)          -179.9368         estimate D2E/DX2                !
 ! D14   D(11,1,7,24)           61.5637         estimate D2E/DX2                !
 ! D15   D(11,1,7,25)          -58.4054         estimate D2E/DX2                !
 ! D16   D(14,1,7,9)            63.8423         estimate D2E/DX2                !
 ! D17   D(14,1,7,24)          -54.6572         estimate D2E/DX2                !
 ! D18   D(14,1,7,25)         -174.6262         estimate D2E/DX2                !
 ! D19   D(6,1,11,3)            68.9919         Frozen                          !
 ! D20   D(7,1,11,3)          -169.5382         estimate D2E/DX2                !
 ! D21   D(14,1,11,3)          -53.1998         estimate D2E/DX2                !
 ! D22   D(5,2,4,13)            34.3969         estimate D2E/DX2                !
 ! D23   D(5,2,4,18)           152.3636         estimate D2E/DX2                !
 ! D24   D(5,2,4,19)           -87.1652         estimate D2E/DX2                !
 ! D25   D(15,2,4,13)          -87.2972         estimate D2E/DX2                !
 ! D26   D(15,2,4,18)           30.6696         estimate D2E/DX2                !
 ! D27   D(15,2,4,19)          151.1408         estimate D2E/DX2                !
 ! D28   D(16,2,4,13)          155.7423         estimate D2E/DX2                !
 ! D29   D(16,2,4,18)          -86.2909         estimate D2E/DX2                !
 ! D30   D(16,2,4,19)           34.1803         estimate D2E/DX2                !
 ! D31   D(4,2,5,12)            25.817          estimate D2E/DX2                !
 ! D32   D(4,2,5,20)           -94.2847         estimate D2E/DX2                !
 ! D33   D(4,2,5,21)           148.0355         estimate D2E/DX2                !
 ! D34   D(15,2,5,12)          147.5208         estimate D2E/DX2                !
 ! D35   D(15,2,5,20)           27.419          estimate D2E/DX2                !
 ! D36   D(15,2,5,21)          -90.2607         estimate D2E/DX2                !
 ! D37   D(16,2,5,12)          -94.2181         estimate D2E/DX2                !
 ! D38   D(16,2,5,20)          145.6801         estimate D2E/DX2                !
 ! D39   D(16,2,5,21)           28.0004         estimate D2E/DX2                !
 ! D40   D(12,3,11,1)          147.487          estimate D2E/DX2                !
 ! D41   D(13,3,11,1)          -89.2371         estimate D2E/DX2                !
 ! D42   D(17,3,11,1)           26.5777         estimate D2E/DX2                !
 ! D43   D(11,3,12,5)          156.8486         estimate D2E/DX2                !
 ! D44   D(11,3,12,30)          35.91           estimate D2E/DX2                !
 ! D45   D(11,3,12,31)         -80.677          estimate D2E/DX2                !
 ! D46   D(13,3,12,5)           33.7885         estimate D2E/DX2                !
 ! D47   D(13,3,12,30)         -87.1502         estimate D2E/DX2                !
 ! D48   D(13,3,12,31)         156.2629         estimate D2E/DX2                !
 ! D49   D(17,3,12,5)          -83.3059         estimate D2E/DX2                !
 ! D50   D(17,3,12,30)         155.7554         estimate D2E/DX2                !
 ! D51   D(17,3,12,31)          39.1685         estimate D2E/DX2                !
 ! D52   D(11,3,13,4)          -91.4152         estimate D2E/DX2                !
 ! D53   D(12,3,13,4)           30.0181         estimate D2E/DX2                !
 ! D54   D(17,3,13,4)          150.425          estimate D2E/DX2                !
 ! D55   D(2,4,13,3)           -67.6791         estimate D2E/DX2                !
 ! D56   D(18,4,13,3)          170.9918         estimate D2E/DX2                !
 ! D57   D(19,4,13,3)           54.9806         estimate D2E/DX2                !
 ! D58   D(2,5,12,3)           -61.5531         estimate D2E/DX2                !
 ! D59   D(2,5,12,30)           58.8753         estimate D2E/DX2                !
 ! D60   D(2,5,12,31)          177.8883         estimate D2E/DX2                !
 ! D61   D(20,5,12,3)           59.0588         estimate D2E/DX2                !
 ! D62   D(20,5,12,30)         179.4872         estimate D2E/DX2                !
 ! D63   D(20,5,12,31)         -61.4998         estimate D2E/DX2                !
 ! D64   D(21,5,12,3)          176.0028         estimate D2E/DX2                !
 ! D65   D(21,5,12,30)         -63.5689         estimate D2E/DX2                !
 ! D66   D(21,5,12,31)          55.4442         estimate D2E/DX2                !
 ! D67   D(1,6,10,8)           -51.8484         estimate D2E/DX2                !
 ! D68   D(1,6,10,28)         -173.0882         estimate D2E/DX2                !
 ! D69   D(1,6,10,29)           68.7117         estimate D2E/DX2                !
 ! D70   D(22,6,10,8)         -173.977          estimate D2E/DX2                !
 ! D71   D(22,6,10,28)          64.7832         estimate D2E/DX2                !
 ! D72   D(22,6,10,29)         -53.4169         estimate D2E/DX2                !
 ! D73   D(23,6,10,8)           67.6726         estimate D2E/DX2                !
 ! D74   D(23,6,10,28)         -53.5672         estimate D2E/DX2                !
 ! D75   D(23,6,10,29)        -171.7673         estimate D2E/DX2                !
 ! D76   D(1,7,9,8)             60.9862         estimate D2E/DX2                !
 ! D77   D(24,7,9,8)          -178.3868         estimate D2E/DX2                !
 ! D78   D(25,7,9,8)           -60.5789         estimate D2E/DX2                !
 ! D79   D(10,8,9,7)           -60.5815         estimate D2E/DX2                !
 ! D80   D(26,8,9,7)            61.446          estimate D2E/DX2                !
 ! D81   D(27,8,9,7)           178.1285         estimate D2E/DX2                !
 ! D82   D(9,8,10,6)            55.3507         estimate D2E/DX2                !
 ! D83   D(9,8,10,28)          177.0972         estimate D2E/DX2                !
 ! D84   D(9,8,10,29)          -65.7787         estimate D2E/DX2                !
 ! D85   D(26,8,10,6)          -65.6546         estimate D2E/DX2                !
 ! D86   D(26,8,10,28)          56.0919         estimate D2E/DX2                !
 ! D87   D(26,8,10,29)         173.216          estimate D2E/DX2                !
 ! D88   D(27,8,10,6)          173.531          estimate D2E/DX2                !
 ! D89   D(27,8,10,28)         -64.7225         estimate D2E/DX2                !
 ! D90   D(27,8,10,29)          52.4016         estimate D2E/DX2                !
 --------------------------------------------------------------------------------
 Trust Radius=3.00D-01 FncErr=1.00D-07 GrdErr=1.00D-06 EigMax=2.50D+02 EigMin=1.00D-04
 Number of steps in this run=    186 maximum allowed number of steps=    186.
 GradGradGradGradGradGradGradGradGradGradGradGradGradGradGradGradGradGrad

                          Input orientation:                          
 ---------------------------------------------------------------------
 Center     Atomic      Atomic             Coordinates (Angstroms)
 Number     Number       Type             X           Y           Z
 ---------------------------------------------------------------------
      1          6           0        1.204996    0.412522    0.265730
      2          6           0       -3.899730   -0.549086   -0.394630
      3          6           0       -1.194725    0.286374    0.494009
      4          6           0       -2.560114   -1.114298   -0.869671
      5          6           0       -3.669035    0.636274    0.560502
      6          6           0        1.565392   -1.070281    0.277915
      7          6           0        2.177806    1.188595   -0.612231
      8          6           0        3.916072   -0.367583   -0.254793
      9          8           0        3.507291    0.987199   -0.188233
     10          6           0        3.045291   -1.236823    0.636458
     11          8           0       -0.082869    0.690142   -0.253645
     12          6           0       -2.320345    1.289606    0.266897
     13          8           0       -1.588228   -1.019344    0.159327
     14          1           0        1.260445    0.805536    1.277434
     15          1           0       -4.475996   -1.322480    0.102890
     16          1           0       -4.469343   -0.235403   -1.264693
     17          1           0       -0.922446    0.243203    1.539621
     18          1           0       -2.633853   -2.163430   -1.118025
     19          1           0       -2.203531   -0.590083   -1.749184
     20          1           0       -3.678364    0.289009    1.589871
     21          1           0       -4.468118    1.363877    0.468861
     22          1           0        0.945814   -1.609968    0.984497
     23          1           0        1.376521   -1.485866   -0.709245
     24          1           0        1.982909    2.250109   -0.548273
     25          1           0        2.070293    0.876052   -1.648303
     26          1           0        3.863913   -0.702490   -1.288304
     27          1           0        4.950476   -0.388701    0.059562
     28          1           0        3.343538   -2.275429    0.529902
     29          1           0        3.209859   -0.956983    1.674073
     30          1           0       -2.289453    1.635288   -0.762078
     31          1           0       -2.145866    2.151980    0.900684
 ---------------------------------------------------------------------
                    Distance matrix (angstroms):
                    1          2          3          4          5
     1  C    0.000000
     2  C    5.236315   0.000000
     3  C    2.413853   2.967276   0.000000
     4  C    4.218574   1.529608   2.384490   0.000000
     5  C    4.888060   1.539667   2.499812   2.517857   0.000000
     6  C    1.526020   5.530960   3.083092   4.282370   5.512841
     7  C    1.522979   6.324819   3.662204   5.274228   5.988815
     8  C    2.868700   7.819160   5.206593   6.548026   7.694562
     9  O    2.415967   7.567479   4.802662   6.457093   7.223808
    10  C    2.498893   7.054746   4.507567   5.805515   6.971114
    11  O    1.416128   4.015469   1.399371   3.126057   3.677815
    12  C    3.632810   2.512541   1.524820   2.669837   1.527092
    13  O    3.140647   2.423025   1.404192   1.418596   2.689195
    14  H    1.086775   5.590904   2.628905   4.784610   4.984217
    15  H    5.942257   1.085240   3.675340   2.158661   2.167328
    16  H    5.912709   1.086216   3.753453   2.138610   2.175236
    17  H    2.485453   3.637756   1.081344   3.213947   2.942266
    18  H    4.825668   2.175282   3.266693   1.080646   3.424529
    19  H    4.084501   2.171080   2.611088   1.084203   2.997716
    20  H    5.061206   2.165560   2.714661   3.044520   1.086407
    21  H    5.755915   2.174422   3.446266   3.401984   1.084591
    22  H    2.162005   5.148471   2.901482   3.996894   5.149971
    23  H    2.140998   5.367994   3.346634   3.957385   5.619019
    24  H    2.155105   6.516482   3.878139   5.662295   5.981498
    25  H    2.151074   6.264494   3.949375   5.099846   6.154364
    26  H    3.275380   7.816415   5.453834   6.450811   7.871193
    27  H    3.835764   8.863304   6.197416   7.602561   8.694681
    28  H    3.445030   7.503329   5.211521   6.177389   7.593098
    29  H    2.806858   7.415670   4.726399   6.307771   7.148265
    30  H    3.842228   2.738521   2.143771   2.764970   2.156500
    31  H    3.828467   3.471258   2.133199   3.738226   2.175576
                    6          7          8          9         10
     6  C    0.000000
     7  C    2.503983   0.000000
     8  C    2.510629   2.360301   0.000000
     9  O    2.867314   1.409917   1.416674   0.000000
    10  C    1.531793   2.862587   1.519265   2.416575   0.000000
    11  O    2.469496   2.342582   4.136461   3.603022   3.780326
    12  C    4.546223   4.584368   6.473896   5.853199   5.942177
    13  O    3.156260   4.433205   5.558202   5.487379   4.663094
    14  H    2.147259   2.135209   3.282725   2.688773   2.787069
    15  H    6.049182   7.147725   8.453790   8.315783   7.540676
    16  H    6.284480   6.829207   8.447044   8.141266   7.815814
    17  H    3.083258   3.890475   5.196560   4.812648   4.330025
    18  H    4.558210   5.885912   6.846295   6.964526   6.015770
    19  H    4.306333   4.863381   6.303352   6.126816   5.801697
    20  H    5.573677   6.320857   7.842790   7.435238   6.960222
    21  H    6.508827   6.735562   8.591640   8.011293   7.952550
    22  H    1.083696   3.449536   3.449898   3.831675   2.160595
    23  H    1.087597   2.793602   2.811833   3.305705   2.158178
    24  H    3.447013   1.081151   3.267348   2.012041   3.832876
    25  H    2.784502   1.087514   2.625909   2.051614   3.261134
    26  H    2.805621   2.622257   1.087671   2.047531   2.158787
    27  H    3.459917   3.259888   1.081322   2.009300   2.163758
    28  H    2.162795   3.829212   2.140892   3.344738   1.085821
    29  H    2.160177   3.300882   2.136973   2.708596   1.087216
    30  H    4.823020   4.492036   6.540441   5.861020   6.218072
    31  H    4.954215   4.680936   6.665615   5.873724   6.204991
                   11         12         13         14         15
    11  O    0.000000
    12  C    2.374157   0.000000
    13  O    2.314950   2.424627   0.000000
    14  H    2.040101   3.752008   3.563045   0.000000
    15  H    4.845341   3.390682   2.904183   6.230149   0.000000
    16  H    4.595651   3.047887   3.308054   6.354245   1.747016
    17  H    2.029888   2.160765   1.985574   2.269355   4.140444
    18  H    3.923971   3.733598   2.008455   5.451471   2.364597
    19  H    2.893583   2.758887   2.050677   4.807005   3.021702
    20  H    4.060424   2.143751   2.850774   4.975565   2.333287
    21  H    4.495147   2.158526   3.750909   5.812226   2.711183
    22  H    2.807435   4.426090   2.729672   2.453460   5.500537
    23  H    2.659399   4.724713   3.124387   3.034945   5.910856
    24  H    2.605329   4.483867   4.893163   2.437612   7.409781
    25  H    2.572108   4.807985   4.499425   3.036571   7.124193
    26  H    4.311268   6.680729   5.649945   3.954137   8.477847
    27  H    5.157186   7.464887   6.569803   4.065187   9.472708
    28  H    4.598785   6.697628   5.102685   3.793471   7.888952
    29  H    4.155860   6.132737   5.031897   2.657821   7.853316
    30  H    2.453736   1.085928   2.896166   4.177305   3.778562
    31  H    2.779461   1.084351   3.304219   3.682093   4.258856
                   16         17         18         19         20
    16  H    0.000000
    17  H    4.546836   0.000000
    18  H    2.666050   3.972893   0.000000
    19  H    2.344021   3.626539   1.748988   0.000000
    20  H    3.008187   2.756757   3.799758   3.754627   0.000000
    21  H    2.358582   3.869655   4.280728   3.723713   1.742331
    22  H    6.022641   2.689387   4.188190   4.293198   5.035436
    23  H    6.003858   3.651346   4.087700   3.834146   5.829921
    24  H    6.951445   4.102202   6.412366   5.199534   6.361414
    25  H    6.644496   4.418127   5.625712   4.519436   6.624005
    26  H    8.346369   5.639213   6.662155   6.085961   8.133444
    27  H    9.513682   6.089424   7.877717   7.381865   8.789654
    28  H    8.271843   5.055854   6.201404   6.229334   7.550297
    29  H    8.253918   4.305168   6.587890   6.415458   7.000514
    30  H    2.916167   3.017354   3.830870   2.435988   3.045194
    31  H    3.973286   2.355510   4.789163   3.813664   2.508822
                   21         22         23         24         25
    21  H    0.000000
    22  H    6.198411   0.000000
    23  H    6.608235   1.752048   0.000000
    24  H    6.590578   4.280788   3.788288   0.000000
    25  H    6.889933   3.791620   2.634731   1.762309   0.000000
    26  H    8.762434   3.808470   2.671349   3.578221   2.416292
    27  H    9.589002   4.287694   3.816804   4.017367   3.579365
    28  H    8.618019   2.529541   2.455209   4.847088   4.037024
    29  H    8.111119   2.455159   3.053039   4.090192   3.961920
    30  H    2.517033   4.903995   4.814952   4.321666   4.513227
    31  H    2.490067   4.870089   5.313474   4.376744   5.089334
                   26         27         28         29         30
    26  H    0.000000
    27  H    1.759496   0.000000
    28  H    2.459837   2.522541   0.000000
    29  H    3.044377   2.441175   1.750799   0.000000
    30  H    6.603486   7.562288   6.978073   6.549590   0.000000
    31  H    7.004078   7.584235   7.062081   6.240799   1.747102
                   31
    31  H    0.000000
 Stoichiometry    C10H18O3
 Framework group  C1[X(C10H18O3)]
 Deg. of freedom    87
 Full point group                 C1      NOp   1
 Largest Abelian subgroup         C1      NOp   1
 Largest concise Abelian subgroup C1      NOp   1
                         Standard orientation:                         
 ---------------------------------------------------------------------
 Center     Atomic      Atomic             Coordinates (Angstroms)
 Number     Number       Type             X           Y           Z
 ---------------------------------------------------------------------
      1          6           0        1.204996   -0.412522   -0.265730
      2          6           0       -3.899730    0.549086    0.394630
      3          6           0       -1.194725   -0.286374   -0.494009
      4          6           0       -2.560114    1.114298    0.869671
      5          6           0       -3.669035   -0.636274   -0.560502
      6          6           0        1.565392    1.070281   -0.277915
      7          6           0        2.177806   -1.188595    0.612231
      8          6           0        3.916072    0.367583    0.254793
      9          8           0        3.507291   -0.987199    0.188233
     10          6           0        3.045291    1.236823   -0.636458
     11          8           0       -0.082869   -0.690142    0.253645
     12          6           0       -2.320345   -1.289606   -0.266897
     13          8           0       -1.588228    1.019344   -0.159327
     14          1           0        1.260445   -0.805536   -1.277434
     15          1           0       -4.475996    1.322480   -0.102890
     16          1           0       -4.469343    0.235403    1.264693
     17          1           0       -0.922446   -0.243203   -1.539621
     18          1           0       -2.633853    2.163430    1.118025
     19          1           0       -2.203531    0.590083    1.749184
     20          1           0       -3.678364   -0.289009   -1.589871
     21          1           0       -4.468118   -1.363877   -0.468861
     22          1           0        0.945814    1.609968   -0.984497
     23          1           0        1.376521    1.485866    0.709245
     24          1           0        1.982909   -2.250109    0.548273
     25          1           0        2.070293   -0.876052    1.648303
     26          1           0        3.863913    0.702490    1.288304
     27          1           0        4.950476    0.388701   -0.059562
     28          1           0        3.343538    2.275429   -0.529902
     29          1           0        3.209859    0.956983   -1.674073
     30          1           0       -2.289453   -1.635288    0.762078
     31          1           0       -2.145866   -2.151980   -0.900684
 ---------------------------------------------------------------------
 Rotational constants (GHZ):           2.2263320           0.3695771           0.3408456
 Standard basis: 6-311++G(2d,2p) (5D, 7F)
 There are   557 symmetry adapted cartesian basis functions of A   symmetry.
 There are   531 symmetry adapted basis functions of A   symmetry.
   531 basis functions,   762 primitive gaussians,   557 cartesian basis functions
    51 alpha electrons       51 beta electrons
       nuclear repulsion energy       882.3493765353 Hartrees.
 NAtoms=   31 NActive=   31 NUniq=   31 SFac= 1.00D+00 NAtFMM=   60 NAOKFM=F Big=F
 Integral buffers will be    131072 words long.
 Raffenetti 2 integral format.
 Two-electron integral symmetry is turned on.
 ------------------------------------------------------------------------------
 Polarizable Continuum Model (PCM)
 =================================
 Model                : PCM.
 Atomic radii         : UFF (Universal Force Field).
 Polarization charges : Total charges.
 Charge compensation  : None.
 Solution method      : On-the-fly selection.
 Cavity type          : Scaled VdW (van der Waals Surface) (Alpha=1.100).
 Cavity algorithm     : GePol (No added spheres)
                        Default sphere list used, NSphG=   31.
                        Lebedev-Laikov grids with approx.  5.0 points / Ang**2.
                        Smoothing algorithm: York/Karplus (Gamma=1.0000).
                        Polarization charges: spherical gaussians, with
                                              point-specific exponents (IZeta= 3).
                        Self-potential: point-specific (ISelfS= 7).
                        Self-field    : sphere-specific E.n sum rule (ISelfD= 2).
 1st derivatives      : Analytical E(r).r(x)/FMM algorithm (CHGder, D1EAlg=3).
                        Cavity 1st derivative terms included.
 Solvent              : Water, Eps=  78.355300 Eps(inf)=   1.777849
 ------------------------------------------------------------------------------
 One-electron integrals computed using PRISM.
 NBasis=   531 RedAO= T EigKep=  5.07D-06  NBF=   531
 NBsUse=   531 1.00D-06 EigRej= -1.00D+00 NBFU=   531
 ExpMin= 3.60D-02 ExpMax= 8.59D+03 ExpMxC= 1.30D+03 IAcc=3 IRadAn=         5 AccDes= 0.00D+00
 Harris functional with IExCor= 1009 and IRadAn=       5 diagonalized for initial guess.
 HarFok:  IExCor= 1009 AccDes= 0.00D+00 IRadAn=         5 IDoV= 1 UseB2=F ITyADJ=14
 ICtDFT=  3500011 ScaDFX=  1.000000  1.000000  1.000000  1.000000
 FoFCou: FMM=F IPFlag=           0 FMFlag=      100000 FMFlg1=           0
         NFxFlg=           0 DoJE=T BraDBF=F KetDBF=T FulRan=T
         wScrn=  0.000000 ICntrl=       500 IOpCl=  0 I1Cent=   200000004 NGrid=           0
         NMat0=    1 NMatS0=      1 NMatT0=    0 NMatD0=    1 NMtDS0=    0 NMtDT0=    0
 Petite list used in FoFCou.
 Requested convergence on RMS density matrix=1.00D-08 within 128 cycles.
 Requested convergence on MAX density matrix=1.00D-06.
 Requested convergence on             energy=1.00D-06.
 No special actions if energy rises.
 Inv3:  Mode=1 IEnd=    12966723.
 Iteration    1 A*A^-1 deviation from unit magnitude is 4.88D-15 for   2068.
 Iteration    1 A*A^-1 deviation from orthogonality  is 3.78D-15 for   2037    944.
 Iteration    1 A^-1*A deviation from unit magnitude is 4.88D-15 for   2068.
 Iteration    1 A^-1*A deviation from orthogonality  is 3.00D-15 for   2039   1054.
 Error on total polarization charges =  0.01495
 SCF Done:  E(RM062X) =  -617.495576408     A.U. after   12 cycles
            NFock= 12  Conv=0.49D-08     -V/T= 2.0035

 **********************************************************************

            Population analysis using the SCF density.

 **********************************************************************

 Orbital symmetries:
       Occupied  (A) (A) (A) (A) (A) (A) (A) (A) (A) (A) (A) (A)
                 (A) (A) (A) (A) (A) (A) (A) (A) (A) (A) (A) (A)
                 (A) (A) (A) (A) (A) (A) (A) (A) (A) (A) (A) (A)
                 (A) (A) (A) (A) (A) (A) (A) (A) (A) (A) (A) (A)
                 (A) (A) (A)
       Virtual   (A) (A) (A) (A) (A) (A) (A) (A) (A) (A) (A) (A)
                 (A) (A) (A) (A) (A) (A) (A) (A) (A) (A) (A) (A)
                 (A) (A) (A) (A) (A) (A) (A) (A) (A) (A) (A) (A)
                 (A) (A) (A) (A) (A) (A) (A) (A) (A) (A) (A) (A)
                 (A) (A) (A) (A) (A) (A) (A) (A) (A) (A) (A) (A)
                 (A) (A) (A) (A) (A) (A) (A) (A) (A) (A) (A) (A)
                 (A) (A) (A) (A) (A) (A) (A) (A) (A) (A) (A) (A)
                 (A) (A) (A) (A) (A) (A) (A) (A) (A) (A) (A) (A)
                 (A) (A) (A) (A) (A) (A) (A) (A) (A) (A) (A) (A)
                 (A) (A) (A) (A) (A) (A) (A) (A) (A) (A) (A) (A)
                 (A) (A) (A) (A) (A) (A) (A) (A) (A) (A) (A) (A)
                 (A) (A) (A) (A) (A) (A) (A) (A) (A) (A) (A) (A)
                 (A) (A) (A) (A) (A) (A) (A) (A) (A) (A) (A) (A)
                 (A) (A) (A) (A) (A) (A) (A) (A) (A) (A) (A) (A)
                 (A) (A) (A) (A) (A) (A) (A) (A) (A) (A) (A) (A)
                 (A) (A) (A) (A) (A) (A) (A) (A) (A) (A) (A) (A)
                 (A) (A) (A) (A) (A) (A) (A) (A) (A) (A) (A) (A)
                 (A) (A) (A) (A) (A) (A) (A) (A) (A) (A) (A) (A)
                 (A) (A) (A) (A) (A) (A) (A) (A) (A) (A) (A) (A)
                 (A) (A) (A) (A) (A) (A) (A) (A) (A) (A) (A) (A)
                 (A) (A) (A) (A) (A) (A) (A) (A) (A) (A) (A) (A)
                 (A) (A) (A) (A) (A) (A) (A) (A) (A) (A) (A) (A)
                 (A) (A) (A) (A) (A) (A) (A) (A) (A) (A) (A) (A)
                 (A) (A) (A) (A) (A) (A) (A) (A) (A) (A) (A) (A)
                 (A) (A) (A) (A) (A) (A) (A) (A) (A) (A) (A) (A)
                 (A) (A) (A) (A) (A) (A) (A) (A) (A) (A) (A) (A)
                 (A) (A) (A) (A) (A) (A) (A) (A) (A) (A) (A) (A)
                 (A) (A) (A) (A) (A) (A) (A) (A) (A) (A) (A) (A)
                 (A) (A) (A) (A) (A) (A) (A) (A) (A) (A) (A) (A)
                 (A) (A) (A) (A) (A) (A) (A) (A) (A) (A) (A) (A)
                 (A) (A) (A) (A) (A) (A) (A) (A) (A) (A) (A) (A)
                 (A) (A) (A) (A) (A) (A) (A) (A) (A) (A) (A) (A)
                 (A) (A) (A) (A) (A) (A) (A) (A) (A) (A) (A) (A)
                 (A) (A) (A) (A) (A) (A) (A) (A) (A) (A) (A) (A)
                 (A) (A) (A) (A) (A) (A) (A) (A) (A) (A) (A) (A)
                 (A) (A) (A) (A) (A) (A) (A) (A) (A) (A) (A) (A)
                 (A) (A) (A) (A) (A) (A) (A) (A) (A) (A) (A) (A)
                 (A) (A) (A) (A) (A) (A) (A) (A) (A) (A) (A) (A)
                 (A) (A) (A) (A) (A) (A) (A) (A) (A) (A) (A) (A)
                 (A) (A) (A) (A) (A) (A) (A) (A) (A) (A) (A) (A)
 The electronic state is 1-A.
 Alpha  occ. eigenvalues --  -19.63136 -19.62934 -19.62633 -10.63486 -10.58755
 Alpha  occ. eigenvalues --  -10.57946 -10.57832 -10.57714 -10.53128 -10.53083
 Alpha  occ. eigenvalues --  -10.53079 -10.52944 -10.52763  -1.20075  -1.16818
 Alpha  occ. eigenvalues --   -1.13910  -0.90768  -0.89667  -0.87666  -0.84379
 Alpha  occ. eigenvalues --   -0.75200  -0.74721  -0.73154  -0.70531  -0.66005
 Alpha  occ. eigenvalues --   -0.62809  -0.60441  -0.59132  -0.57916  -0.57036
 Alpha  occ. eigenvalues --   -0.55423  -0.53202  -0.51988  -0.50398  -0.49485
 Alpha  occ. eigenvalues --   -0.48073  -0.47262  -0.45975  -0.45571  -0.44267
 Alpha  occ. eigenvalues --   -0.43805  -0.42966  -0.41227  -0.40659  -0.39380
 Alpha  occ. eigenvalues --   -0.38411  -0.37603  -0.36290  -0.34316  -0.33948
 Alpha  occ. eigenvalues --   -0.32067
 Alpha virt. eigenvalues --   -0.00078   0.00776   0.00781   0.01059   0.02144
 Alpha virt. eigenvalues --    0.02394   0.02564   0.03499   0.03553   0.04213
 Alpha virt. eigenvalues --    0.04474   0.04792   0.05456   0.05843   0.06832
 Alpha virt. eigenvalues --    0.07297   0.07432   0.07708   0.08891   0.09038
 Alpha virt. eigenvalues --    0.09852   0.10586   0.10964   0.11742   0.11793
 Alpha virt. eigenvalues --    0.12084   0.12274   0.12625   0.13173   0.13550
 Alpha virt. eigenvalues --    0.13636   0.13899   0.14392   0.14529   0.14928
 Alpha virt. eigenvalues --    0.15087   0.15266   0.15518   0.15708   0.16435
 Alpha virt. eigenvalues --    0.16607   0.16776   0.16999   0.17566   0.17693
 Alpha virt. eigenvalues --    0.18190   0.18227   0.18407   0.19031   0.19237
 Alpha virt. eigenvalues --    0.19685   0.19922   0.20246   0.20979   0.21243
 Alpha virt. eigenvalues --    0.22179   0.23072   0.23259   0.23915   0.24288
 Alpha virt. eigenvalues --    0.25134   0.25654   0.25780   0.26224   0.26593
 Alpha virt. eigenvalues --    0.27699   0.27896   0.27998   0.29050   0.29320
 Alpha virt. eigenvalues --    0.29611   0.30371   0.30711   0.31157   0.32084
 Alpha virt. eigenvalues --    0.32583   0.32708   0.33624   0.33890   0.34181
 Alpha virt. eigenvalues --    0.34622   0.35147   0.35532   0.36019   0.36138
 Alpha virt. eigenvalues --    0.36518   0.36869   0.37213   0.37981   0.38286
 Alpha virt. eigenvalues --    0.38785   0.38906   0.40138   0.40293   0.40461
 Alpha virt. eigenvalues --    0.41407   0.42001   0.42345   0.43371   0.44099
 Alpha virt. eigenvalues --    0.46032   0.47933   0.48111   0.49590   0.50416
 Alpha virt. eigenvalues --    0.51314   0.52225   0.53324   0.54315   0.55459
 Alpha virt. eigenvalues --    0.55902   0.56109   0.56849   0.57892   0.58653
 Alpha virt. eigenvalues --    0.59330   0.59743   0.60928   0.61192   0.61455
 Alpha virt. eigenvalues --    0.61728   0.62321   0.63400   0.63443   0.63808
 Alpha virt. eigenvalues --    0.64326   0.64783   0.65577   0.65851   0.67236
 Alpha virt. eigenvalues --    0.68093   0.68320   0.68722   0.68926   0.70143
 Alpha virt. eigenvalues --    0.70935   0.71561   0.71839   0.72325   0.73579
 Alpha virt. eigenvalues --    0.73986   0.74433   0.74636   0.75617   0.75808
 Alpha virt. eigenvalues --    0.76539   0.76858   0.77312   0.78234   0.79068
 Alpha virt. eigenvalues --    0.79521   0.80758   0.82988   0.84432   0.85317
 Alpha virt. eigenvalues --    0.85923   0.86676   0.87364   0.89155   0.89615
 Alpha virt. eigenvalues --    0.90314   0.92156   0.93094   0.93587   0.94876
 Alpha virt. eigenvalues --    0.95862   0.97745   0.98735   1.00428   1.01665
 Alpha virt. eigenvalues --    1.03297   1.04659   1.04989   1.06081   1.07615
 Alpha virt. eigenvalues --    1.08302   1.08918   1.10089   1.10339   1.10695
 Alpha virt. eigenvalues --    1.11455   1.12971   1.13599   1.15574   1.16093
 Alpha virt. eigenvalues --    1.16844   1.17667   1.18120   1.19851   1.20002
 Alpha virt. eigenvalues --    1.21404   1.21794   1.22254   1.23003   1.24132
 Alpha virt. eigenvalues --    1.25263   1.25961   1.26178   1.26932   1.27434
 Alpha virt. eigenvalues --    1.28673   1.29037   1.29498   1.30059   1.31073
 Alpha virt. eigenvalues --    1.31471   1.32683   1.32936   1.33174   1.33689
 Alpha virt. eigenvalues --    1.34546   1.35209   1.36080   1.37342   1.37786
 Alpha virt. eigenvalues --    1.38099   1.39502   1.39905   1.40736   1.41573
 Alpha virt. eigenvalues --    1.42553   1.42945   1.44090   1.44825   1.45394
 Alpha virt. eigenvalues --    1.45900   1.46246   1.47050   1.47648   1.48673
 Alpha virt. eigenvalues --    1.48907   1.49685   1.50116   1.50732   1.51745
 Alpha virt. eigenvalues --    1.52432   1.52950   1.53604   1.54046   1.54764
 Alpha virt. eigenvalues --    1.54891   1.56956   1.57153   1.58088   1.58332
 Alpha virt. eigenvalues --    1.59129   1.60312   1.60718   1.61220   1.62307
 Alpha virt. eigenvalues --    1.62680   1.63185   1.63996   1.65104   1.65899
 Alpha virt. eigenvalues --    1.67091   1.68490   1.69225   1.69556   1.71167
 Alpha virt. eigenvalues --    1.72396   1.72852   1.75063   1.75751   1.77389
 Alpha virt. eigenvalues --    1.78146   1.80094   1.80770   1.81772   1.83815
 Alpha virt. eigenvalues --    1.84778   1.88353   1.89267   1.94638   1.98399
 Alpha virt. eigenvalues --    2.01653   2.04294   2.07722   2.11443   2.21117
 Alpha virt. eigenvalues --    2.23310   2.26365   2.30212   2.36124   2.39102
 Alpha virt. eigenvalues --    2.40792   2.43517   2.45534   2.48779   2.51019
 Alpha virt. eigenvalues --    2.56496   2.76094   2.76694   2.79574   2.80999
 Alpha virt. eigenvalues --    2.87846   2.89188   2.91066   2.91613   2.92446
 Alpha virt. eigenvalues --    2.95087   2.95524   2.99806   3.01800   3.03036
 Alpha virt. eigenvalues --    3.05874   3.07629   3.08206   3.09485   3.10579
 Alpha virt. eigenvalues --    3.14360   3.14947   3.17891   3.18403   3.20064
 Alpha virt. eigenvalues --    3.24224   3.28883   3.30012   3.31450   3.33420
 Alpha virt. eigenvalues --    3.34966   3.36470   3.36873   3.39128   3.40340
 Alpha virt. eigenvalues --    3.41675   3.42829   3.43719   3.43883   3.45960
 Alpha virt. eigenvalues --    3.46210   3.48263   3.49171   3.49572   3.51436
 Alpha virt. eigenvalues --    3.51926   3.53753   3.54351   3.55177   3.55964
 Alpha virt. eigenvalues --    3.56490   3.57848   3.59139   3.59657   3.60293
 Alpha virt. eigenvalues --    3.60581   3.61303   3.62866   3.64100   3.65248
 Alpha virt. eigenvalues --    3.65946   3.66989   3.68151   3.69190   3.69857
 Alpha virt. eigenvalues --    3.70184   3.70743   3.72358   3.73310   3.73825
 Alpha virt. eigenvalues --    3.74622   3.74962   3.76322   3.77708   3.78555
 Alpha virt. eigenvalues --    3.79404   3.80374   3.81046   3.83130   3.86224
 Alpha virt. eigenvalues --    3.87200   3.87520   3.89537   3.90609   3.91637
 Alpha virt. eigenvalues --    3.91804   3.93488   3.95540   3.97645   3.99105
 Alpha virt. eigenvalues --    3.99311   4.02322   4.02914   4.03462   4.04398
 Alpha virt. eigenvalues --    4.04894   4.05872   4.06127   4.06991   4.07797
 Alpha virt. eigenvalues --    4.08045   4.08716   4.09191   4.09831   4.11722
 Alpha virt. eigenvalues --    4.12698   4.13169   4.13927   4.15667   4.15944
 Alpha virt. eigenvalues --    4.16762   4.18004   4.18673   4.20158   4.20698
 Alpha virt. eigenvalues --    4.21448   4.22029   4.24210   4.25471   4.26023
 Alpha virt. eigenvalues --    4.26666   4.28580   4.29434   4.30046   4.31807
 Alpha virt. eigenvalues --    4.33326   4.35193   4.35963   4.37500   4.39882
 Alpha virt. eigenvalues --    4.41844   4.43017   4.45493   4.46957   4.49889
 Alpha virt. eigenvalues --    4.57351   4.58614   4.74705   4.76620   4.82584
 Alpha virt. eigenvalues --    4.84968   4.91869   4.95058   4.99414   5.00730
 Alpha virt. eigenvalues --    5.02794   5.06690   5.08615   5.11669   5.12764
 Alpha virt. eigenvalues --    5.13740   5.15251   5.18190   5.30631   5.38211
 Alpha virt. eigenvalues --    5.39526   5.57001   5.59767   5.65618   5.87233
 Alpha virt. eigenvalues --    5.88526   6.06287   7.02621   7.04096   7.05784
 Alpha virt. eigenvalues --    7.07749   7.09847   7.12311   7.13220   7.18840
 Alpha virt. eigenvalues --    7.27427   7.36119   7.39659   7.42548   7.54394
 Alpha virt. eigenvalues --    7.54671   7.63244  23.96166  23.98373  24.04456
 Alpha virt. eigenvalues --   24.06609  24.11181  24.11601  24.13620  24.15619
 Alpha virt. eigenvalues --   24.16226  24.21653  50.17150  50.19200  50.22618
          Condensed to atoms (all electrons):
               1          2          3          4          5          6
     1  C    7.266901   0.029992  -0.739049   0.043066  -0.108568  -0.822069
     2  C    0.029992   6.054287   0.458493  -0.264911  -0.350999   0.001835
     3  C   -0.739049   0.458493   6.712492  -0.520046  -0.208744   0.252494
     4  C    0.043066  -0.264911  -0.520046   5.731946   0.325129   0.003705
     5  C   -0.108568  -0.350999  -0.208744   0.325129   5.890184   0.000389
     6  C   -0.822069   0.001835   0.252494   0.003705   0.000389   6.417979
     7  C   -0.365737   0.003359  -0.021696  -0.020166   0.000645   0.066801
     8  C    0.124585  -0.001060   0.001820  -0.000075   0.001420  -0.049546
     9  O    0.007210   0.000020  -0.005236   0.000489  -0.000285  -0.037955
    10  C   -0.137548  -0.003473  -0.104836  -0.001509  -0.001572  -0.320928
    11  O    0.214373   0.021630   0.327593   0.000426  -0.008189  -0.110277
    12  C    0.165513  -0.233686  -0.710365   0.041374   0.128927  -0.050025
    13  O   -0.087767   0.005574   0.321973   0.004513  -0.129362   0.046489
    14  H    0.584802  -0.000511  -0.059879   0.006601  -0.003647  -0.056435
    15  H   -0.007256   0.464644   0.012009  -0.073620  -0.044072   0.002764
    16  H    0.006478   0.486505   0.010523  -0.060261  -0.071937  -0.002341
    17  H   -0.035719   0.017658   0.502196  -0.047409  -0.009589   0.013779
    18  H    0.009141  -0.013400   0.010771   0.431611  -0.008114  -0.001724
    19  H   -0.005316  -0.091698  -0.015422   0.467469  -0.005302   0.001794
    20  H    0.010529  -0.066309  -0.038562   0.001055   0.457020  -0.003072
    21  H   -0.004752  -0.054264   0.020968   0.013055   0.451156   0.001016
    22  H   -0.000371   0.006343  -0.001903  -0.007771  -0.006527   0.374774
    23  H   -0.005419   0.000679   0.006844  -0.004617  -0.001366   0.485997
    24  H   -0.066222  -0.000371   0.005906   0.000149  -0.002364   0.031420
    25  H    0.014594  -0.000695  -0.011266   0.005456   0.001588  -0.012289
    26  H    0.018180  -0.000001   0.002940   0.000533   0.000044  -0.003050
    27  H   -0.002020   0.000033  -0.001887  -0.000297  -0.000011   0.005074
    28  H   -0.020671   0.000179   0.002074   0.000014  -0.000049  -0.020449
    29  H   -0.035553  -0.000044  -0.002293   0.000517  -0.000037  -0.005177
    30  H    0.008197   0.006647  -0.069459  -0.018279  -0.061706   0.003133
    31  H    0.008205   0.006443  -0.022543   0.005297  -0.012853  -0.005821
               7          8          9         10         11         12
     1  C   -0.365737   0.124585   0.007210  -0.137548   0.214373   0.165513
     2  C    0.003359  -0.001060   0.000020  -0.003473   0.021630  -0.233686
     3  C   -0.021696   0.001820  -0.005236  -0.104836   0.327593  -0.710365
     4  C   -0.020166  -0.000075   0.000489  -0.001509   0.000426   0.041374
     5  C    0.000645   0.001420  -0.000285  -0.001572  -0.008189   0.128927
     6  C    0.066801  -0.049546  -0.037955  -0.320928  -0.110277  -0.050025
     7  C    6.029186  -0.234066   0.149505   0.219834  -0.158915  -0.060785
     8  C   -0.234066   5.366835   0.110766   0.090657   0.008811   0.004016
     9  O    0.149505   0.110766   8.360412  -0.018031  -0.004335   0.003335
    10  C    0.219834   0.090657  -0.018031   5.992787  -0.008015   0.019178
    11  O   -0.158915   0.008811  -0.004335  -0.008015   8.336172  -0.197850
    12  C   -0.060785   0.004016   0.003335   0.019178  -0.197850   6.395062
    13  O   -0.014538   0.002545   0.000078   0.009855  -0.044648   0.000209
    14  H   -0.084873   0.012261  -0.008398  -0.028700  -0.038730   0.004088
    15  H    0.000353   0.000003  -0.000014  -0.000009   0.000038   0.023445
    16  H   -0.000129   0.000029   0.000006  -0.000001   0.000177  -0.009336
    17  H    0.015556  -0.001223  -0.001183   0.002869  -0.030088  -0.037515
    18  H   -0.001193  -0.000174   0.000049   0.000016  -0.002061  -0.014393
    19  H    0.001437   0.000905  -0.000075   0.001613   0.011054   0.024903
    20  H    0.000757  -0.000127   0.000028   0.000424   0.000384  -0.004688
    21  H   -0.000044   0.000027  -0.000007   0.000143  -0.002657  -0.057109
    22  H    0.012332   0.000475  -0.000750   0.009996  -0.010175   0.001132
    23  H   -0.036548  -0.002280  -0.001051  -0.076800   0.012976  -0.004550
    24  H    0.437271   0.002452  -0.074135   0.000599   0.003413   0.004226
    25  H    0.353929   0.004181  -0.034947  -0.001966   0.001620   0.000488
    26  H   -0.036349   0.458954  -0.042606  -0.044926  -0.000967  -0.000180
    27  H    0.018369   0.431874  -0.070640  -0.042991   0.000890   0.000382
    28  H   -0.001044  -0.033828   0.007568   0.433379  -0.001152  -0.000276
    29  H    0.007906  -0.078538  -0.000927   0.479428   0.001061   0.000990
    30  H    0.001033  -0.001081   0.000059  -0.000756  -0.010732   0.512197
    31  H   -0.001822   0.000565   0.000323  -0.000530  -0.003978   0.401057
              13         14         15         16         17         18
     1  C   -0.087767   0.584802  -0.007256   0.006478  -0.035719   0.009141
     2  C    0.005574  -0.000511   0.464644   0.486505   0.017658  -0.013400
     3  C    0.321973  -0.059879   0.012009   0.010523   0.502196   0.010771
     4  C    0.004513   0.006601  -0.073620  -0.060261  -0.047409   0.431611
     5  C   -0.129362  -0.003647  -0.044072  -0.071937  -0.009589  -0.008114
     6  C    0.046489  -0.056435   0.002764  -0.002341   0.013779  -0.001724
     7  C   -0.014538  -0.084873   0.000353  -0.000129   0.015556  -0.001193
     8  C    0.002545   0.012261   0.000003   0.000029  -0.001223  -0.000174
     9  O    0.000078  -0.008398  -0.000014   0.000006  -0.001183   0.000049
    10  C    0.009855  -0.028700  -0.000009  -0.000001   0.002869   0.000016
    11  O   -0.044648  -0.038730   0.000038   0.000177  -0.030088  -0.002061
    12  C    0.000209   0.004088   0.023445  -0.009336  -0.037515  -0.014393
    13  O    8.330088   0.000151  -0.009341   0.012031  -0.084814  -0.065700
    14  H    0.000151   0.446805  -0.000354   0.000212  -0.010157  -0.000030
    15  H   -0.009341  -0.000354   0.514610  -0.021831   0.005109  -0.012880
    16  H    0.012031   0.000212  -0.021831   0.502018  -0.001400   0.000171
    17  H   -0.084814  -0.010157   0.005109  -0.001400   0.486376  -0.003156
    18  H   -0.065700  -0.000030  -0.012880   0.000171  -0.003156   0.477266
    19  H   -0.025225   0.000237   0.006248  -0.000963   0.000316  -0.006433
    20  H    0.011321   0.000112  -0.014029   0.006867  -0.007093  -0.000139
    21  H   -0.005828  -0.000490  -0.001170  -0.004935   0.000956  -0.000094
    22  H   -0.012128  -0.003090  -0.000819   0.000449  -0.010723   0.001113
    23  H   -0.005588   0.005909   0.000268  -0.000050   0.002958  -0.001470
    24  H    0.000362  -0.010153  -0.000028   0.000023   0.001304   0.000105
    25  H   -0.000063   0.002248  -0.000110   0.000150  -0.001721   0.000535
    26  H   -0.000135  -0.000178  -0.000003  -0.000001  -0.000307   0.000089
    27  H    0.000182  -0.000947   0.000004  -0.000000   0.000105  -0.000051
    28  H    0.000874  -0.003108   0.000014  -0.000021   0.000410   0.000012
    29  H   -0.000522  -0.003002   0.000002  -0.000007  -0.000364   0.000092
    30  H    0.001347   0.000129  -0.003270   0.000798   0.000460  -0.001464
    31  H    0.009107   0.000365  -0.000304   0.000212  -0.017740   0.001405
              19         20         21         22         23         24
     1  C   -0.005316   0.010529  -0.004752  -0.000371  -0.005419  -0.066222
     2  C   -0.091698  -0.066309  -0.054264   0.006343   0.000679  -0.000371
     3  C   -0.015422  -0.038562   0.020968  -0.001903   0.006844   0.005906
     4  C    0.467469   0.001055   0.013055  -0.007771  -0.004617   0.000149
     5  C   -0.005302   0.457020   0.451156  -0.006527  -0.001366  -0.002364
     6  C    0.001794  -0.003072   0.001016   0.374774   0.485997   0.031420
     7  C    0.001437   0.000757  -0.000044   0.012332  -0.036548   0.437271
     8  C    0.000905  -0.000127   0.000027   0.000475  -0.002280   0.002452
     9  O   -0.000075   0.000028  -0.000007  -0.000750  -0.001051  -0.074135
    10  C    0.001613   0.000424   0.000143   0.009996  -0.076800   0.000599
    11  O    0.011054   0.000384  -0.002657  -0.010175   0.012976   0.003413
    12  C    0.024903  -0.004688  -0.057109   0.001132  -0.004550   0.004226
    13  O   -0.025225   0.011321  -0.005828  -0.012128  -0.005588   0.000362
    14  H    0.000237   0.000112  -0.000490  -0.003090   0.005909  -0.010153
    15  H    0.006248  -0.014029  -0.001170  -0.000819   0.000268  -0.000028
    16  H   -0.000963   0.006867  -0.004935   0.000449  -0.000050   0.000023
    17  H    0.000316  -0.007093   0.000956  -0.010723   0.002958   0.001304
    18  H   -0.006433  -0.000139  -0.000094   0.001113  -0.001470   0.000105
    19  H    0.492808   0.000683  -0.001790  -0.000207  -0.000179   0.000013
    20  H    0.000683   0.492160  -0.009720   0.001320  -0.000124   0.000185
    21  H   -0.001790  -0.009720   0.473498  -0.000138  -0.000036  -0.000004
    22  H   -0.000207   0.001320  -0.000138   0.487431  -0.013287  -0.001381
    23  H   -0.000179  -0.000124  -0.000036  -0.013287   0.435285  -0.001656
    24  H    0.000013   0.000185  -0.000004  -0.001381  -0.001656   0.492187
    25  H   -0.000973  -0.000026  -0.000038   0.000273  -0.005126  -0.025739
    26  H   -0.000081   0.000009   0.000000   0.001567  -0.010727  -0.002623
    27  H    0.000072  -0.000008   0.000002   0.000279  -0.000006   0.001841
    28  H   -0.000106  -0.000012   0.000005  -0.012088  -0.006032   0.002020
    29  H   -0.000057   0.000008   0.000004  -0.001658  -0.000808  -0.001458
    30  H   -0.007901   0.003832  -0.004339  -0.000082   0.000234   0.001014
    31  H    0.000538   0.000222  -0.008893   0.001260  -0.000502  -0.001157
              25         26         27         28         29         30
     1  C    0.014594   0.018180  -0.002020  -0.020671  -0.035553   0.008197
     2  C   -0.000695  -0.000001   0.000033   0.000179  -0.000044   0.006647
     3  C   -0.011266   0.002940  -0.001887   0.002074  -0.002293  -0.069459
     4  C    0.005456   0.000533  -0.000297   0.000014   0.000517  -0.018279
     5  C    0.001588   0.000044  -0.000011  -0.000049  -0.000037  -0.061706
     6  C   -0.012289  -0.003050   0.005074  -0.020449  -0.005177   0.003133
     7  C    0.353929  -0.036349   0.018369  -0.001044   0.007906   0.001033
     8  C    0.004181   0.458954   0.431874  -0.033828  -0.078538  -0.001081
     9  O   -0.034947  -0.042606  -0.070640   0.007568  -0.000927   0.000059
    10  C   -0.001966  -0.044926  -0.042991   0.433379   0.479428  -0.000756
    11  O    0.001620  -0.000967   0.000890  -0.001152   0.001061  -0.010732
    12  C    0.000488  -0.000180   0.000382  -0.000276   0.000990   0.512197
    13  O   -0.000063  -0.000135   0.000182   0.000874  -0.000522   0.001347
    14  H    0.002248  -0.000178  -0.000947  -0.003108  -0.003002   0.000129
    15  H   -0.000110  -0.000003   0.000004   0.000014   0.000002  -0.003270
    16  H    0.000150  -0.000001  -0.000000  -0.000021  -0.000007   0.000798
    17  H   -0.001721  -0.000307   0.000105   0.000410  -0.000364   0.000460
    18  H    0.000535   0.000089  -0.000051   0.000012   0.000092  -0.001464
    19  H   -0.000973  -0.000081   0.000072  -0.000106  -0.000057  -0.007901
    20  H   -0.000026   0.000009  -0.000008  -0.000012   0.000008   0.003832
    21  H   -0.000038   0.000000   0.000002   0.000005   0.000004  -0.004339
    22  H    0.000273   0.001567   0.000279  -0.012088  -0.001658  -0.000082
    23  H   -0.005126  -0.010727  -0.000006  -0.006032  -0.000808   0.000234
    24  H   -0.025739  -0.002623   0.001841   0.002020  -0.001458   0.001014
    25  H    0.505268   0.011810  -0.002691  -0.002308   0.002346  -0.001140
    26  H    0.011810   0.502724  -0.009688   0.004904   0.002489   0.000008
    27  H   -0.002691  -0.009688   0.475517  -0.008926  -0.003847  -0.000049
    28  H   -0.002308   0.004904  -0.008926   0.496364  -0.008899   0.000015
    29  H    0.002346   0.002489  -0.003847  -0.008899   0.475259   0.000074
    30  H   -0.001140   0.000008  -0.000049   0.000015   0.000074   0.442568
    31  H    0.001107   0.000061   0.000007  -0.000092   0.000053  -0.010166
              31
     1  C    0.008205
     2  C    0.006443
     3  C   -0.022543
     4  C    0.005297
     5  C   -0.012853
     6  C   -0.005821
     7  C   -0.001822
     8  C    0.000565
     9  O    0.000323
    10  C   -0.000530
    11  O   -0.003978
    12  C    0.401057
    13  O    0.009107
    14  H    0.000365
    15  H   -0.000304
    16  H    0.000212
    17  H   -0.017740
    18  H    0.001405
    19  H    0.000538
    20  H    0.000222
    21  H   -0.008893
    22  H    0.001260
    23  H   -0.000502
    24  H   -0.001157
    25  H    0.001107
    26  H    0.000061
    27  H    0.000007
    28  H   -0.000092
    29  H    0.000053
    30  H   -0.010166
    31  H    0.481856
 Mulliken charges:
               1
     1  C   -0.067729
     2  C   -0.482898
     3  C   -0.115912
     4  C   -0.063446
     5  C   -0.221209
     6  C   -0.208285
     7  C   -0.280368
     8  C   -0.221183
     9  O   -0.339272
    10  C   -0.468188
    11  O   -0.307851
    12  C   -0.349767
    13  O   -0.271038
    14  H    0.248763
    15  H    0.159601
    16  H    0.146564
    17  H    0.250151
    18  H    0.200100
    19  H    0.151638
    20  H    0.156994
    21  H    0.195478
    22  H    0.184353
    23  H    0.227070
    24  H    0.202801
    25  H    0.195506
    26  H    0.147509
    27  H    0.209429
    28  H    0.171231
    29  H    0.172962
    30  H    0.208678
    31  H    0.168319
 Sum of Mulliken charges =  -0.00000
 Mulliken charges with hydrogens summed into heavy atoms:
               1
     1  C    0.181034
     2  C   -0.176732
     3  C    0.134238
     4  C    0.288292
     5  C    0.131263
     6  C    0.203138
     7  C    0.117939
     8  C    0.135754
     9  O   -0.339272
    10  C   -0.123996
    11  O   -0.307851
    12  C    0.027230
    13  O   -0.271038
 Electronic spatial extent (au):  <R**2>=           3324.9079
 Charge=              0.0000 electrons
 Dipole moment (field-independent basis, Debye):
    X=             -1.9067    Y=              0.9323    Z=             -0.2515  Tot=              2.1373
 Quadrupole moment (field-independent basis, Debye-Ang):
   XX=            -76.4303   YY=            -81.3531   ZZ=            -77.9401
   XY=              8.7097   XZ=             -1.2183   YZ=              2.1974
 Traceless Quadrupole moment (field-independent basis, Debye-Ang):
   XX=              2.1442   YY=             -2.7786   ZZ=              0.6344
   XY=              8.7097   XZ=             -1.2183   YZ=              2.1974
 Octapole moment (field-independent basis, Debye-Ang**2):
  XXX=            -31.1353  YYY=             -0.9116  ZZZ=              0.3599  XYY=             -4.5487
  XXY=             29.7082  XXZ=              6.7709  XZZ=              0.5204  YZZ=             -0.5384
  YYZ=              1.9914  XYZ=             -3.7405
 Hexadecapole moment (field-independent basis, Debye-Ang**3):
 XXXX=          -3570.4193 YYYY=           -548.6136 ZZZZ=           -262.5208 XXXY=            113.8364
 XXXZ=            -20.0283 YYYX=            -10.0611 YYYZ=              5.5826 ZZZX=              2.2370
 ZZZY=              0.0349 XXYY=           -705.1366 XXZZ=           -638.2972 YYZZ=           -138.7025
 XXYZ=              5.6474 YYXZ=             -2.1906 ZZXY=             -4.3374
 N-N= 8.823493765353D+02 E-N=-3.206583445128D+03  KE= 6.153434746945D+02
 D1PCM: PCM CHGder 1st derivatives, ID1Alg=3 FixD1E=F DoIter=F DoCFld=F I1PDM=0.
 Calling FoFJK, ICntrl=      2127 FMM=F ISym2X=0 I1Cent= 0 IOpClX= 0 NMat=1 NMatS=1 NMatT=0.
 ***** Axes restored to original set *****
 -------------------------------------------------------------------
 Center     Atomic                   Forces (Hartrees/Bohr)
 Number     Number              X              Y              Z
 -------------------------------------------------------------------
      1        6          -0.002747544   -0.004354511   -0.002835559
      2        6           0.001378129    0.001013370    0.000405844
      3        6          -0.002967615    0.001341189   -0.006230030
      4        6          -0.001107713    0.004603848    0.003541795
      5        6           0.002173706   -0.000984504   -0.002571455
      6        6           0.004040113    0.003324795    0.000457370
      7        6           0.002094040   -0.005093019    0.004873518
      8        6          -0.006215001    0.000353042    0.003037731
      9        8           0.004986254    0.006626295    0.002904827
     10        6          -0.000952582    0.000187996   -0.002570764
     11        8          -0.000663068    0.005636556   -0.008892918
     12        6          -0.000959746   -0.002216459    0.002240515
     13        8           0.003130468   -0.008900059    0.006349451
     14        1           0.001961944    0.002007872    0.006098177
     15        1          -0.001230035   -0.001920947    0.001369010
     16        1          -0.001632022    0.001277330   -0.002248114
     17        1           0.001758233   -0.000680909    0.008096527
     18        1          -0.000401809   -0.004116186   -0.001110461
     19        1           0.001245538    0.003231246   -0.004902770
     20        1           0.000579967   -0.001326400    0.002787699
     21        1          -0.001861217    0.001647603   -0.000266196
     22        1          -0.003416297   -0.001395393    0.002025615
     23        1          -0.001150792   -0.000452467   -0.003734540
     24        1          -0.001536819    0.004464892    0.000462696
     25        1          -0.002470651   -0.002712425   -0.005573469
     26        1          -0.000850905   -0.002891620   -0.005434841
     27        1           0.004182591   -0.000074309    0.001381035
     28        1           0.000625310   -0.003001110   -0.000002154
     29        1           0.000550996    0.001477337    0.002859362
     30        1           0.000984951    0.000452620   -0.004028567
     31        1           0.000471575    0.002474326    0.001510666
 -------------------------------------------------------------------
 Cartesian Forces:  Max     0.008900059 RMS     0.003288379

 GradGradGradGradGradGradGradGradGradGradGradGradGradGradGradGradGradGrad
 Berny optimization.
 FormGI is forming the generalized inverse of G from B-inverse, IUseBI=4.
 Internal  Forces:  Max     0.013022974 RMS     0.002032241
 Search for a local minimum.
 Step number   1 out of a maximum of  186
 All quantities printed in internal units (Hartrees-Bohrs-Radians)
 Mixed Optimization -- RFO/linear search
 Second derivative matrix not updated -- first step.
 ITU=  0
     Eigenvalues ---    0.00392   0.00628   0.00688   0.00742   0.01423
     Eigenvalues ---    0.01457   0.01700   0.02695   0.02725   0.03162
     Eigenvalues ---    0.03205   0.04085   0.04118   0.04536   0.04663
     Eigenvalues ---    0.04861   0.04881   0.05093   0.05132   0.05145
     Eigenvalues ---    0.05164   0.05629   0.05722   0.05931   0.06158
     Eigenvalues ---    0.06398   0.06612   0.06622   0.07670   0.07819
     Eigenvalues ---    0.07899   0.07908   0.07930   0.08037   0.08134
     Eigenvalues ---    0.09286   0.09329   0.09691   0.10868   0.11608
     Eigenvalues ---    0.11619   0.11695   0.11705   0.12506   0.12637
     Eigenvalues ---    0.14587   0.15844   0.16289   0.17637   0.19275
     Eigenvalues ---    0.20544   0.21260   0.22405   0.25000   0.27364
     Eigenvalues ---    0.27554   0.28485   0.28671   0.28798   0.29068
     Eigenvalues ---    0.29547   0.30276   0.35083   0.35092   0.35101
     Eigenvalues ---    0.35136   0.35188   0.35231   0.35254   0.35287
     Eigenvalues ---    0.35300   0.35369   0.35445   0.35474   0.35491
     Eigenvalues ---    0.35551   0.35832   0.35835   0.35856   0.35916
     Eigenvalues ---    0.40109   0.41387   0.42472   0.43031   0.43049
     Eigenvalues ---    0.457251000.000001000.000001000.000001000.00000
     Eigenvalues --- 1000.000001000.000001000.000001000.000001000.00000
     Eigenvalues --- 1000.000001000.000001000.000001000.000001000.00000
     Eigenvalues --- 1000.000001000.000001000.000001000.000001000.00000
     Eigenvalues --- 1000.000001000.000001000.000001000.000001000.00000
     Eigenvalues --- 1000.000001000.000001000.000001000.000001000.00000
     Eigenvalues --- 1000.000001000.000001000.000001000.000001000.00000
     Eigenvalues --- 1000.000001000.000001000.000001000.000001000.00000
     Eigenvalues --- 1000.000001000.000001000.000001000.000001000.00000
     Eigenvalues --- 1000.000001000.000001000.000001000.000001000.00000
     Eigenvalues --- 1000.000001000.000001000.000001000.000001000.00000
     Eigenvalues --- 1000.000001000.000001000.000001000.000001000.00000
     Eigenvalues --- 1000.000001000.000001000.000001000.000001000.00000
     Eigenvalues --- 1000.000001000.000001000.000001000.000001000.00000
     Eigenvalues --- 1000.000001000.000001000.000001000.000001000.00000
     Eigenvalues --- 1000.000001000.000001000.000001000.000001000.00000
     Eigenvalues --- 1000.000001000.000001000.000001000.000001000.00000
     Eigenvalues --- 1000.000001000.000001000.000001000.000001000.00000
     Eigenvalues --- 1000.000001000.000001000.000001000.000001000.00000
     Eigenvalues --- 1000.000001000.000001000.000001000.000001000.00000
 RFO step:  Lambda=-3.23989867D-03 EMin= 3.92276881D-03
 Linear search not attempted -- first point.
 Iteration  1 RMS(Cart)=  0.06065062 RMS(Int)=  0.00081542
 Iteration  2 RMS(Cart)=  0.00218455 RMS(Int)=  0.00004637
 Iteration  3 RMS(Cart)=  0.00000121 RMS(Int)=  0.00004637
 Iteration  4 RMS(Cart)=  0.00000000 RMS(Int)=  0.00004637
 Iteration  1 RMS(Cart)=  0.00000138 RMS(Int)=  0.00000033
 Iteration  2 RMS(Cart)=  0.00000076 RMS(Int)=  0.00000037
 Variable       Old X    -DE/DX   Delta X   Delta X   Delta X     New X
                                 (Linear)    (Quad)   (Total)
    R1        2.88376  -0.00206   0.00000  -0.00696  -0.00698   2.87678
    R2        2.87801  -0.00063   0.00000  -0.00214  -0.00214   2.87587
    R3        2.67609   0.00093   0.00000   0.00215   0.00215   2.67825
    R4        2.05371   0.00650   0.00000   0.01831   0.01831   2.07202
    R5        2.89054   0.00101   0.00000   0.00279   0.00282   2.89336
    R6        2.90955  -0.00037   0.00000  -0.00251  -0.00247   2.90708
    R7        2.05081   0.00265   0.00000   0.00742   0.00742   2.05823
    R8        2.05265   0.00303   0.00000   0.00850   0.00850   2.06116
    R9        2.64443   0.00258   0.00000   0.00560   0.00560   2.65003
   R10        2.88149  -0.00086   0.00000  -0.00153  -0.00155   2.87994
   R11        2.65354   0.00347   0.00000   0.00876   0.00874   2.66228
   R12        2.04344   0.00830   0.00000   0.02295   0.02295   2.06639
   R13        2.68076   0.00334   0.00000   0.00763   0.00760   2.68836
   R14        2.04212   0.00428   0.00000   0.01181   0.01181   2.05393
   R15        2.04885   0.00595   0.00000   0.01661   0.01661   2.06546
   R16        2.88579  -0.00038   0.00000  -0.00215  -0.00216   2.88363
   R17        2.05301   0.00306   0.00000   0.00860   0.00860   2.06162
   R18        2.04958   0.00250   0.00000   0.00699   0.00699   2.05657
   R19        2.89467  -0.00046   0.00000  -0.00219  -0.00221   2.89246
   R20        2.04789   0.00397   0.00000   0.01106   0.01106   2.05895
   R21        2.05526   0.00376   0.00000   0.01062   0.01062   2.06588
   R22        2.66436   0.00288   0.00000   0.00695   0.00697   2.67132
   R23        2.04308   0.00469   0.00000   0.01296   0.01296   2.05604
   R24        2.05510   0.00633   0.00000   0.01788   0.01788   2.07298
   R25        2.67713   0.00359   0.00000   0.00837   0.00840   2.68553
   R26        2.87099   0.00029   0.00000   0.00107   0.00107   2.87207
   R27        2.05540   0.00609   0.00000   0.01721   0.01721   2.07261
   R28        2.04340   0.00440   0.00000   0.01218   0.01218   2.05558
   R29        2.05190   0.00304   0.00000   0.00854   0.00854   2.06044
   R30        2.05454   0.00319   0.00000   0.00901   0.00901   2.06355
   R31        2.05211   0.00399   0.00000   0.01121   0.01121   2.06331
   R32        2.04913   0.00293   0.00000   0.00817   0.00817   2.05730
    A1        1.92719   0.00010   0.00000  -0.00474  -0.00480   1.92238
    A2        1.99127  -0.00240   0.00000  -0.01566  -0.01563   1.97565
    A3        1.90912   0.00057   0.00000   0.00086   0.00090   1.91002
    A4        1.84375   0.00134   0.00000   0.00642   0.00635   1.85009
    A5        1.89630  -0.00052   0.00000  -0.00163  -0.00167   1.89463
    A6        1.89328   0.00098   0.00000   0.01560   0.01559   1.90887
    A7        1.92401  -0.00003   0.00000  -0.00784  -0.00798   1.91603
    A8        1.92207  -0.00056   0.00000  -0.00001   0.00001   1.92208
    A9        1.89359   0.00074   0.00000   0.00508   0.00512   1.89870
   A10        1.92178   0.00082   0.00000   0.00206   0.00211   1.92389
   A11        1.93173  -0.00108   0.00000  -0.00219  -0.00216   1.92957
   A12        1.86979   0.00011   0.00000   0.00327   0.00324   1.87303
   A13        1.89348  -0.00197   0.00000  -0.00753  -0.00753   1.88595
   A14        1.94294   0.00010   0.00000   0.00070   0.00082   1.94377
   A15        1.90507   0.00095   0.00000   0.00460   0.00459   1.90965
   A16        1.94919   0.00267   0.00000   0.00940   0.00928   1.95846
   A17        1.93496  -0.00001   0.00000   0.00200   0.00208   1.93703
   A18        1.83787  -0.00169   0.00000  -0.00897  -0.00899   1.82888
   A19        1.92837   0.00135   0.00000   0.00265   0.00246   1.93083
   A20        1.95018  -0.00037   0.00000  -0.00356  -0.00349   1.94669
   A21        1.94047  -0.00099   0.00000  -0.00397  -0.00397   1.93650
   A22        1.85296  -0.00112   0.00000  -0.00101  -0.00096   1.85200
   A23        1.90788   0.00079   0.00000   0.00584   0.00593   1.91381
   A24        1.88117   0.00034   0.00000   0.00034   0.00031   1.88148
   A25        1.92030  -0.00077   0.00000  -0.00652  -0.00673   1.91357
   A26        1.91814   0.00060   0.00000   0.00133   0.00138   1.91952
   A27        1.93229  -0.00021   0.00000   0.00026   0.00031   1.93260
   A28        1.90340   0.00038   0.00000  -0.00088  -0.00082   1.90258
   A29        1.92563  -0.00003   0.00000   0.00158   0.00163   1.92726
   A30        1.86311   0.00008   0.00000   0.00458   0.00455   1.86766
   A31        1.91312   0.00106   0.00000  -0.00223  -0.00229   1.91084
   A32        1.93273  -0.00079   0.00000  -0.00643  -0.00640   1.92633
   A33        1.89973  -0.00117   0.00000  -0.00892  -0.00891   1.89082
   A34        1.92367   0.00045   0.00000   0.01151   0.01152   1.93519
   A35        1.91631   0.00027   0.00000   0.00589   0.00588   1.92219
   A36        1.87782   0.00015   0.00000   0.00008  -0.00004   1.87778
   A37        1.93496   0.00165   0.00000   0.00690   0.00694   1.94190
   A38        1.92951  -0.00067   0.00000  -0.00610  -0.00616   1.92335
   A39        1.91730  -0.00244   0.00000  -0.01686  -0.01691   1.90039
   A40        1.86758  -0.00045   0.00000   0.00298   0.00299   1.87056
   A41        1.91630   0.00120   0.00000   0.01205   0.01208   1.92838
   A42        1.89727   0.00078   0.00000   0.00168   0.00154   1.89881
   A43        1.93286   0.00187   0.00000   0.00919   0.00920   1.94206
   A44        1.90209   0.00069   0.00000   0.00674   0.00677   1.90886
   A45        1.85568  -0.00118   0.00000  -0.00357  -0.00356   1.85212
   A46        1.93239  -0.00160   0.00000  -0.01021  -0.01024   1.92216
   A47        1.94612  -0.00031   0.00000  -0.00268  -0.00270   1.94342
   A48        1.89241   0.00056   0.00000   0.00094   0.00090   1.89331
   A49        1.97639  -0.00442   0.00000  -0.02391  -0.02386   1.95252
   A50        1.93288  -0.00092   0.00000  -0.00856  -0.00860   1.92428
   A51        1.92452  -0.00031   0.00000   0.00099   0.00101   1.92553
   A52        1.91946   0.00079   0.00000   0.00202   0.00200   1.92146
   A53        1.90950   0.00080   0.00000   0.00512   0.00514   1.91464
   A54        1.90270  -0.00030   0.00000  -0.00230  -0.00231   1.90039
   A55        1.87369  -0.00004   0.00000   0.00310   0.00309   1.87678
   A56        2.06016  -0.01302   0.00000  -0.05143  -0.05143   2.00873
   A57        1.91967   0.00020   0.00000  -0.00555  -0.00564   1.91403
   A58        1.90665  -0.00050   0.00000  -0.00899  -0.00897   1.89768
   A59        1.89380  -0.00024   0.00000   0.00344   0.00347   1.89727
   A60        1.92143   0.00006   0.00000   0.00304   0.00294   1.92437
   A61        1.94978   0.00031   0.00000   0.00496   0.00503   1.95482
   A62        1.87139   0.00014   0.00000   0.00300   0.00298   1.87437
   A63        2.01210  -0.00551   0.00000  -0.03384  -0.03390   1.97820
    D1        0.90700  -0.00014   0.00000   0.01236   0.01234   0.91933
    D2        3.03313   0.00062   0.00000   0.02110   0.02105   3.05418
    D3       -1.18919  -0.00038   0.00000   0.01196   0.01194  -1.17725
    D4        2.98023   0.00005   0.00000   0.00673   0.00675   2.98699
    D5       -1.17682   0.00080   0.00000   0.01546   0.01547  -1.16136
    D6        0.88405  -0.00019   0.00000   0.00632   0.00636   0.89041
    D7       -1.17902   0.00008   0.00000   0.01675   0.01677  -1.16225
    D8        0.94711   0.00084   0.00000   0.02549   0.02548   0.97259
    D9        3.00798  -0.00016   0.00000   0.01635   0.01637   3.02436
   D10       -0.97949  -0.00138   0.00000  -0.01775  -0.01774  -0.99723
   D11       -3.04770  -0.00144   0.00000  -0.02194  -0.02191  -3.06961
[...]
 84,0.00000186,0.00000116,0.00000348,-0.00000350,0.00001724,0.00000628,
 -0.00000342,0.00019700,0.00002889,0.00042121,-0.00010840,0.00086568,0.
 00036739,0.00081497,-0.00076822,-0.00099634,0.03206000,0.07181464,0.29
 972289,-0.00039659,-0.00003655,0.00002764,0.00000083,-0.00000106,0.000
 00296,-0.00007802,-0.00003026,0.00002214,-0.00001526,-0.00000736,-0.00
 002008,0.00000151,-0.00000622,0.00000236,0.00146440,0.00078453,0.00066
 835,0.00166224,0.00103562,0.00344615,-0.05935101,-0.00789432,-0.028929
 76,0.00152597,0.00672289,0.00729890,0.00186806,0.00362886,0.01966663,0
 .00003023,-0.00001995,-0.00007927,0.00000683,0.00000965,-0.00000067,0.
 00005159,0.00001638,0.00001370,0.00003798,-0.00001894,-0.00017187,0.00
 000153,0.00000108,-0.00000025,0.00000285,-0.00000060,0.00000045,0.0000
 0625,0.00000387,-0.00000280,0.00000096,0.00000235,0.00000233,-0.000000
 10,-0.00000006,0.00000191,-0.00000024,0.00000100,-0.00000061,0.0000041
 9,0.00000110,-0.00000052,0.00016173,-0.00011547,-0.00029184,-0.0000595
 5,-0.00020007,-0.00030037,0.00005739,-0.00010898,-0.00009171,0.0004646
 1,-0.00033101,-0.00038069,0.05492445,0.00016253,-0.00041258,0.00059029
 ,-0.00000163,-0.00000075,0.00000138,-0.00008705,-0.00010334,0.00013875
 ,-0.00001690,-0.00000347,-0.00002241,0.00000468,-0.00001498,0.00000293
 ,0.00098966,0.00033452,-0.00022247,-0.00543779,0.00160425,-0.00333969,
 -0.00528748,-0.06057562,-0.05508690,0.00418202,-0.03190207,-0.03529114
 ,0.00148118,0.00626130,0.01938846,0.00049836,0.00024837,-0.00022369,0.
 00002257,0.00002200,-0.00001791,0.00004960,0.00007482,0.00000532,-0.00
 004326,-0.00007635,0.00002214,0.00000175,0.00000185,0.,0.00000264,-0.0
 0000081,0.00000077,0.00000315,0.00000248,-0.00001254,0.00000310,0.0000
 0276,0.00000302,0.00000012,-0.00000207,0.00000051,-0.00000018,0.000001
 16,-0.00000140,0.00000793,0.00000312,-0.00000102,0.00013385,-0.0001261
 2,-0.00016342,-0.00007950,-0.00002819,-0.00043533,0.00000805,0.0000676
 2,0.00047266,0.00051031,0.00062874,0.00127886,0.00627356,0.08277204,-0
 .00018252,-0.00000610,0.00009930,0.00000100,-0.00000116,0.00000572,-0.
 00017799,-0.00010976,0.00013643,-0.00002961,-0.00000999,-0.00004470,0.
 00000429,-0.00001670,0.00000385,-0.00098404,-0.00067826,0.00089097,-0.
 00059102,0.00135331,0.00147820,-0.02693415,-0.05786077,-0.27754865,0.0
 0128272,-0.00988612,0.00078060,-0.00312753,-0.00381594,-0.02078473,0.0
 0046915,-0.00010083,-0.00009913,0.00002439,0.00002480,-0.00001594,0.00
 010398,0.00007382,0.00002087,-0.00010295,0.00005180,-0.00011391,0.0000
 0228,0.00000255,0.00000004,0.00000525,-0.00000177,0.00000146,0.0000082
 8,0.00000838,-0.00001047,0.00000448,0.00000565,0.00000411,0.00000149,-
 0.00000451,0.00000381,-0.00000030,0.00000173,-0.00000103,0.00000980,0.
 00000267,-0.00000094,-0.00000123,0.00025098,0.00034762,0.00079682,-0.0
 0013721,0.00040965,0.00024976,-0.00001064,0.00039582,0.00135863,-0.000
 46456,-0.00003905,0.02626564,0.06956157,0.30178662,0.00073845,-0.00047
 616,-0.00025749,-0.00000613,0.00000228,-0.00002118,0.00032669,0.000056
 03,-0.00022151,0.00006368,0.00004030,0.00011591,-0.00000581,0.00002395
 ,-0.00000942,-0.00035111,-0.00256927,0.00325151,0.00270501,0.00114654,
 0.00137620,-0.29997661,0.01544718,-0.06913710,-0.00844042,0.00664883,-
 0.00238578,-0.01637608,0.00027504,-0.00552092,-0.00054879,0.00008178,0
 .00009361,-0.00002910,-0.00003244,0.00001986,-0.00028798,-0.00007834,-
 0.00006963,-0.00003737,0.00006424,0.00004151,-0.00000599,-0.00000473,0
 .00000129,-0.00001448,0.00000474,-0.00000174,-0.00000053,-0.00001011,0
 .00001208,-0.00000793,-0.00001074,-0.00000898,-0.00000250,0.00000636,-
 0.00001091,0.00000104,-0.00000235,0.00000274,-0.00001681,-0.00000278,0
 .00000175,-0.00108173,0.00041477,-0.00028509,0.00019857,-0.00001144,-0
 .00009577,-0.00053833,0.00007540,-0.00007786,0.00002258,-0.00010704,-0
 .00006514,-0.00150540,-0.00078070,-0.00112623,0.32418283,-0.00002573,-
 0.00127406,0.00059410,-0.00000863,0.00000095,-0.00001357,-0.00001563,-
 0.00019586,0.00009278,0.00001302,0.00003301,0.00004510,0.00000516,-0.0
 0001174,-0.00000146,-0.00154059,-0.00215366,0.00372166,-0.00093973,-0.
 00572252,-0.00208763,0.00450903,-0.04744340,-0.00006076,0.04194350,-0.
 01339274,0.01115165,-0.01850220,0.00315909,-0.00659457,0.00038381,0.00
 054111,-0.00033745,0.00002301,0.00001816,-0.00001639,-0.00012596,0.000
 13194,-0.00005313,0.00001881,0.00008398,-0.00001781,-0.00000112,0.0000
 0041,0.00000101,-0.00000676,0.00000181,0.00000057,0.00001686,-0.000000
 07,-0.00002051,0.00000104,-0.00000299,0.00000007,-0.00000342,-0.000000
 27,-0.00000765,0.00000077,0.00000110,-0.00000050,0.00000314,0.00000345
 ,-0.00000032,-0.00137438,0.00049169,-0.00007613,0.00039300,-0.00005725
 ,0.00003990,0.00182470,-0.00038757,0.00029896,0.00000841,0.00011756,0.
 00029828,-0.00782285,0.00201746,-0.00105419,-0.02041468,0.06313615,-0.
 00028789,0.00040574,-0.00006323,0.00000533,-0.00000052,0.00001426,-0.0
 0009437,0.00004753,0.00005034,-0.00002896,-0.00002576,-0.00006268,-0.0
 0000006,-0.00000482,0.00000372,0.00162571,0.00237302,-0.00225736,0.000
 49495,-0.00002142,0.00025845,-0.07261511,0.00425641,-0.07278347,0.0038
 1222,-0.00070218,0.00178686,0.02115427,-0.00137921,0.00562898,0.000144
 58,-0.00009658,0.00005553,0.00000327,0.00000340,-0.00000654,0.00018386
 ,-0.00000252,0.00003869,0.00000923,-0.00006626,0.00000278,0.00000241,0
 .00000162,-0.00000062,0.00000812,-0.00000250,0.00000039,0.00000100,0.0
 0000059,0.00000159,0.00000293,0.00000552,0.00000335,0.00000170,-0.0000
 0331,0.00000768,-0.00000031,0.00000049,-0.00000050,0.00000476,-0.00000
 035,-0.00000038,0.00103953,-0.00012326,0.00034663,0.00026764,0.0000728
 2,0.00025179,-0.00010455,0.00007450,0.00035821,0.00039839,0.00000217,0
 .00040235,-0.02902675,0.00161854,-0.00675519,0.07423888,-0.00539441,0.
 07115549,-0.00498956,-0.00339567,-0.00150032,0.00000283,0.00000219,-0.
 00001060,0.00103963,0.00058036,-0.00064910,0.00009705,0.00002779,0.000
 12489,-0.00002468,0.00007537,-0.00000922,-0.00841468,0.03378905,0.0035
 7202,-0.00159082,-0.00018773,0.00000691,0.00587259,-0.01682924,-0.0054
 9535,-0.00110488,-0.00553054,0.00355375,-0.06020894,0.05944299,0.00904
 800,-0.00228560,0.00280385,-0.00043012,-0.00013245,-0.00014237,0.00006
 399,-0.00021600,-0.00036706,-0.00006321,0.00014601,-0.00001594,0.00026
 886,-0.00001039,-0.00001010,-0.00000056,-0.00001489,0.00000469,-0.0000
 0502,-0.00002961,-0.00003548,0.00006490,-0.00001741,-0.00001724,-0.000
 01647,-0.00000261,0.00001188,-0.00000338,-0.00000264,-0.00000789,0.000
 00781,-0.00004169,-0.00001245,0.00000447,0.00131218,-0.00055320,0.0006
 6603,0.00148140,-0.00053173,-0.00014139,0.00027187,0.00006835,0.000010
 47,0.00026415,-0.00002952,-0.00002971,0.00063145,0.00065816,-0.0000601
 6,0.00016526,0.00078495,-0.00079716,0.06730847,0.00011730,0.00210041,0
 .00028256,0.00000258,-0.00000210,0.00001168,-0.00038223,-0.00015142,0.
 00024453,-0.00005687,-0.00002492,-0.00008436,0.00000599,-0.00003060,0.
 00000828,0.00085477,-0.00226535,-0.00028150,-0.00146754,0.00075720,-0.
 00075240,0.00646479,-0.01545811,-0.00516054,-0.00209972,-0.00407511,0.
 00375356,0.05929259,-0.29775338,-0.02956987,0.00040951,-0.00035540,-0.
 00009906,0.00003981,0.00004893,-0.00002393,0.00019580,0.00012314,0.000
 03584,-0.00003467,0.00006117,-0.00005047,0.00000517,0.00000491,-0.0000
 0054,0.00001017,-0.00000327,0.00000218,0.00000637,0.00000993,-0.000020
 41,0.00000813,0.00000939,0.00000834,0.00000165,-0.00000549,0.00000629,
 0.00000011,0.00000326,-0.00000301,0.00001747,0.00000467,-0.00000210,0.
 00036463,0.00030716,-0.00003807,0.00014814,0.00033363,0.00026073,0.000
 12438,-0.00008903,0.00000568,0.00018385,-0.00001559,0.00011021,0.00012
 741,0.00065623,0.00031949,-0.00035646,0.00034972,-0.00017523,-0.065134
 60,0.32214436,-0.00105215,-0.00074485,0.00031585,0.00000064,0.00000012
 ,-0.00000085,0.00010761,0.00011768,-0.00010442,0.00001139,0.00000224,0
 .00001464,-0.00000583,0.00001223,-0.00000251,-0.00274306,0.00830617,-0
 .00037388,0.00103486,-0.00045531,0.00018897,-0.00726768,0.01760106,0.0
 0283842,0.00222840,0.00509533,-0.00170754,0.00930826,-0.03175870,-0.05
 241477,-0.00050182,0.00039585,0.00025701,-0.00002339,-0.00002546,0.000
 01288,-0.00000842,-0.00006936,-0.00000652,0.00002375,0.00050919,0.0001
 2760,-0.00000100,-0.00000134,-0.00000041,-0.00000166,0.00000059,-0.000
 00082,-0.00001611,-0.00000510,0.00001088,-0.00000239,-0.00000192,-0.00
 000242,-0.00000153,0.00000150,-0.00000078,0.00000005,-0.00000132,0.000
 00089,-0.00000636,-0.00000233,0.00000066,0.00024900,-0.00043129,0.0000
 3268,0.00051700,0.00027703,0.00034286,-0.00015496,0.00000463,-0.000023
 42,-0.00006639,-0.00003143,-0.00005043,-0.00068322,-0.00085287,0.00034
 405,0.00002990,-0.00051120,0.00054611,-0.00813984,0.03231234,0.0522628
 6,0.00110078,-0.00138250,-0.00079000,-0.00000464,0.00000391,-0.0000106
 1,0.00014342,-0.00005528,-0.00015035,0.00008695,0.00002259,0.00008650,
 -0.00000407,0.00000708,-0.00001055,-0.00702097,-0.00879011,-0.03224150
 ,-0.00049097,0.00006617,-0.00011142,0.00198566,0.00592462,0.02242704,0
 .00071379,0.00093800,-0.00187309,-0.05511254,-0.01106989,-0.04356784,-
 0.00022210,0.00032246,0.00065314,-0.00000492,-0.00001679,0.00001302,-0
 .00023972,0.00002606,0.00009059,-0.00004041,0.00058557,0.00038920,-0.0
 0000380,-0.00000196,0.00000173,-0.00000906,0.00000281,-0.00000141,-0.0
 0001361,-0.00000126,0.00002264,-0.00000139,-0.00000769,-0.00000721,0.0
 0000755,-0.00000019,-0.00001037,0.00000118,-0.00000042,0.00000102,-0.0
 0000729,0.00000002,0.00000118,0.00136983,-0.00044545,0.00063246,-0.005
 88146,0.00186509,-0.00123423,0.00010360,0.00004784,-0.00006680,-0.0000
 9684,0.00004853,0.00010513,-0.00149913,-0.00325958,0.00272690,0.000838
 20,0.00085899,-0.00045032,0.00048989,0.00114847,0.00716230,0.06381358,
 0.00020397,0.00020566,0.00088382,-0.00000013,-0.00000032,-0.00000306,0
 .00008941,0.00003061,-0.00006214,0.00001250,0.00000698,0.00002275,-0.0
 0000171,0.00000860,-0.00000139,0.00008923,0.00062903,0.00469115,0.0003
 1218,-0.00014647,0.00020437,0.00238706,0.00285999,0.02001408,0.0000086
 8,0.00259701,-0.00084625,-0.00981028,-0.06599160,-0.06356214,-0.000097
 13,-0.00000849,-0.00013250,-0.00001368,-0.00001123,0.00000953,-0.00005
 511,-0.00003510,-0.00001359,0.00024034,0.00010953,-0.00004642,-0.00000
 200,-0.00000108,0.00000012,-0.00000278,0.00000077,-0.00000022,-0.00000
 266,0.00000115,0.00000055,-0.00000215,-0.00000200,-0.00000270,-0.00000
 070,0.00000062,-0.00000085,-0.00000008,-0.00000100,0.00000112,-0.00000
 497,-0.00000123,0.00000084,-0.00025803,0.00017150,-0.00028533,0.000708
 77,0.00069018,0.00039176,-0.00001141,0.00000923,-0.00003530,-0.0000528
 9,-0.00004296,-0.00014693,-0.00201392,-0.00145115,0.00250344,0.0005631
 6,0.00055111,-0.00085912,-0.00544175,-0.00668139,-0.02974233,0.0131568
 3,0.06650083,0.00047106,-0.00061950,-0.00020653,-0.00000428,0.00000135
 ,-0.00001147,0.00011451,-0.00004472,-0.00010890,0.00004348,0.00002540,
 0.00006602,-0.00000299,0.00000998,-0.00000536,-0.00182714,-0.00142991,
 -0.00599446,0.00017152,0.00008523,0.00006788,-0.00183801,-0.00592675,-
 0.02168064,-0.00110944,-0.00010626,0.00245772,-0.04293478,-0.06147861,
 -0.28429756,-0.00022351,0.00021716,0.00027423,-0.00001138,-0.00001607,
 0.00001252,-0.00017535,-0.00000223,-0.00000399,-0.00012602,0.00055799,
 0.00005099,-0.00000311,-0.00000208,0.00000109,-0.00000789,0.00000263,-
 0.00000086,-0.00001365,-0.00000008,0.00000857,-0.00000292,-0.00000554,
 -0.00000442,-0.00000112,0.00000180,-0.00000602,0.00000054,-0.00000096,
 0.00000130,-0.00000750,-0.00000063,0.00000085,-0.00025137,0.00011783,0
 .00060764,-0.00112470,0.00022967,0.00092521,-0.00001348,0.00006197,-0.
 00002926,0.00005907,-0.00019529,-0.00006734,0.00256136,0.00258718,-0.0
 0129334,0.00010703,0.00000575,0.00101747,-0.00006473,-0.00109464,-0.00
 260807,0.04621778,0.06701518,0.31082771,-0.00002445,-0.00009040,-0.000
 32232,0.00138049,0.00116765,0.00049840,-0.00246606,0.00576909,-0.02787
 643,0.00048615,-0.00008270,-0.00059737,-0.00259852,-0.00960984,0.03016
 633,0.00009420,-0.00002563,0.00000152,0.00002530,-0.00002804,0.0001668
 5,-0.00001863,0.00002348,-0.00000313,0.00008275,0.00000930,-0.00002682
 ,0.00000659,-0.00004976,0.00002773,0.00192546,-0.00025394,-0.00055913,
 -0.04673426,-0.00372203,0.01467481,0.00019074,0.00058361,0.00136806,0.
 00001407,0.00005455,0.00020064,0.00006696,0.00031711,-0.00005487,-0.00
 001470,0.00009576,-0.00035265,-0.00352096,0.00298958,-0.00002499,0.000
 00105,0.00004873,0.00001387,0.00033597,-0.00008980,0.00023487,-0.00515
 595,-0.00326868,0.00070836,0.00109152,0.00094458,-0.00033862,0.0000411
 9,-0.00007278,0.00001620,-0.00001098,0.00001264,0.00000707,-0.00000481
 ,-0.00000740,0.00000099,-0.00003227,-0.00001791,0.00002018,-0.00000054
 ,-0.00000198,-0.00000032,-0.00000159,-0.00000638,0.00000296,0.00000941
 ,-0.00000270,0.00000314,0.00000083,0.00000075,0.00000052,0.05521162,0.
 00007109,0.00015086,0.00001933,0.00029802,0.00047128,0.00058175,-0.000
 73100,-0.00533748,0.02247928,0.00015145,-0.00075477,0.00088592,-0.0017
 9687,-0.00540870,0.01449334,-0.00015765,0.00000550,-0.00003065,0.00001
 795,0.00002908,-0.00007793,0.00001214,-0.00000981,-0.00000432,-0.00004
 611,-0.00000843,0.00001684,0.00000563,0.00005578,0.00000178,-0.0027536
 2,0.00058299,-0.00073343,-0.00159464,-0.06888345,0.06726715,0.00058182
 ,-0.00079567,-0.00159832,-0.00008440,-0.00001962,-0.00012858,0.0001150
 5,0.00021801,-0.00014544,-0.00012958,-0.00000833,-0.00022576,0.0022110
 1,-0.00129952,0.00018094,-0.00002022,0.00016404,-0.00015490,0.00033072
 ,-0.00103195,-0.00057834,-0.00280024,-0.00066428,0.00060980,0.00024234
 ,0.00041268,-0.00050557,-0.00002990,0.00003118,-0.00000391,0.00000932,
 -0.00000196,-0.00000228,0.00000099,-0.00000365,-0.00000144,0.00001379,
 0.00000720,-0.00000378,0.00000070,0.00000103,0.00000170,-0.00000206,0.
 00000187,-0.00000007,-0.00001800,0.00000376,-0.00000212,0.00000100,-0.
 00000145,-0.00000137,0.00441499,0.07367157,0.00007526,-0.00022954,0.00
 047314,0.00055435,-0.00048970,0.00084495,-0.00032542,0.00121262,-0.009
 33183,0.00001091,-0.00084321,-0.00103398,0.00136659,0.00153461,-0.0039
 8972,0.00012666,0.00001700,0.00002643,-0.00005771,0.00003386,-0.000010
 87,-0.00000513,0.00000087,-0.00000088,-0.00002144,-0.00000920,-0.00000
 359,-0.00000457,-0.00004866,-0.00000472,0.00119346,-0.00059057,0.00141
 242,0.01162542,0.06923543,-0.28919333,-0.00022514,0.00095864,0.0005566
 0,0.00020988,-0.00000963,-0.00000796,-0.00004248,0.00006353,0.00005700
 ,0.00014404,0.00073539,-0.00009498,-0.00092488,0.00132543,0.00073083,-
 0.00007053,-0.00010291,0.00040881,-0.00021888,-0.00080418,0.00049516,0
 .00081117,-0.00005940,0.00123252,0.00039289,-0.00000908,0.00022656,0.0
 0001745,-0.00003142,0.00001104,-0.00001376,-0.00000417,-0.00000244,0.0
 0000044,-0.00000175,-0.00000486,-0.00000134,0.00000310,-0.00000393,0.0
 0000072,0.00000033,0.00000009,-0.00000124,-0.00000103,0.00000029,0.000
 01343,-0.00000144,-0.00000021,-0.00000486,0.00000024,-0.00000160,-0.01
 538876,-0.07680321,0.31409663,-0.00008861,-0.00050152,-0.00004293,-0.0
 0507892,-0.00284701,0.00280730,0.00324655,0.01927682,0.01616109,-0.001
 74780,0.00003490,-0.00050639,-0.00156759,-0.02371247,-0.01920709,0.000
 05258,0.00000494,-0.00002633,-0.00001464,0.00004629,-0.00011865,0.0000
 0454,-0.00001262,-0.00001711,-0.00010166,-0.00001459,0.00003287,-0.000
 00273,-0.00001662,0.00002803,-0.00044104,-0.00022469,-0.00087933,-0.04
 921227,-0.01983801,-0.01345079,-0.00189394,0.00569194,-0.00042976,-0.0
 0008552,-0.00000390,-0.00005328,-0.00026971,-0.00152119,-0.00112559,-0
 .00003466,-0.00005189,-0.00026150,0.00105490,-0.00031759,0.00000029,0.
 00019152,-0.00000556,0.00004229,0.00018101,0.00018911,0.00000255,0.001
 22901,0.00062159,0.00039350,0.00115172,0.00094677,-0.00039397,-0.00000
 114,-0.00001155,0.00004128,0.00000748,0.00000567,-0.00000392,0.0000003
 6,-0.00000873,0.00000188,-0.00000032,0.00000436,0.00000212,0.00000079,
 0.00000280,0.00000319,-0.00000762,-0.00000015,0.00000373,-0.00000533,0
 .00000571,-0.00000048,-0.00000231,-0.00000150,-0.00000349,-0.00038060,
 0.00168630,0.00076348,0.05381598,0.00004926,0.00013390,-0.00020564,-0.
 00214943,-0.00004746,0.00137043,-0.00478086,-0.01617984,-0.01184972,0.
 00034675,0.00086518,0.00155900,-0.00047016,-0.01022875,-0.00736664,0.0
 0002128,-0.00000578,0.00004638,0.00002779,-0.00004829,0.00009031,0.000
 00092,0.00000950,0.00002041,0.00008717,0.00001238,-0.00002427,-0.00000
 455,0.00000738,-0.00003260,0.00088613,0.00041800,0.00071364,-0.0183684
 3,-0.22891395,-0.12625388,0.00316438,-0.00422027,0.00031100,0.00002751
 ,-0.00002457,0.00001759,-0.00006766,-0.00052824,-0.00062043,-0.0001675
 2,-0.00013348,-0.00012777,-0.00045088,0.00088761,0.00036314,-0.0000062
 3,-0.00004323,-0.00012537,0.00001649,0.00015585,-0.00014010,0.00038370
 ,0.00014891,0.00016156,-0.00002008,0.00070510,0.00011844,-0.00002274,0
 .00002511,-0.00004696,-0.00000069,-0.00000965,0.00001074,0.00000512,0.
 00000929,-0.00000370,-0.00000111,-0.00000216,-0.00000292,-0.00000136,-
 0.00000226,-0.00000337,0.00000868,0.00000155,-0.00000484,0.00001087,-0
 .00000669,0.00000096,0.00000509,0.00000267,0.00000553,0.00089813,0.008
 42221,0.00491802,0.02057243,0.24858997,-0.00009636,0.00009090,0.000105
 55,0.00120605,0.00030890,0.00074627,-0.00069099,0.00801510,0.00278519,
 -0.00024621,0.00000968,-0.00081384,0.00034366,0.00662944,0.00388624,0.
 00002325,0.00002460,-0.00000869,-0.00002775,-0.00004849,0.00002838,-0.
 00000956,0.00001330,0.00000857,0.00004777,0.00000347,-0.00001411,-0.00
 000901,-0.00002281,-0.00000380,0.00089161,0.00003349,-0.00006148,-0.01
 300659,-0.12954092,-0.13682535,-0.00155877,0.00292009,0.00063093,0.000
 10427,-0.00003020,-0.00000881,0.00005472,0.00005937,0.00014361,0.00010
 283,0.00026797,0.00008939,0.00055284,0.00042507,0.00078864,-0.00000066
 ,-0.00014838,0.00023367,-0.00020459,-0.00010048,0.00037226,-0.00064908
 ,-0.00017984,0.00041389,-0.00051451,-0.00029743,0.00011516,-0.00000313
 ,-0.00000069,0.00001015,0.00000034,-0.00000185,-0.00000286,0.00000188,
 0.00000773,0.00000022,0.00000436,0.00000328,-0.00000717,-0.00000083,-0
 .00000194,-0.00000212,0.00000372,-0.00000113,-0.00000098,0.00001085,-0
 .00000416,0.00000068,-0.00000006,0.00000129,0.00000063,-0.00256707,-0.
 02553641,-0.01688756,0.01623702,0.13710104,0.14427733\\0.00006330,-0.0
 0003819,-0.00020344,0.00000146,-0.00000291,-0.00000488,0.00001472,-0.0
 0013042,-0.00009995,0.00000019,-0.00000339,-0.00000272,0.00000852,-0.0
 0000586,0.00000732,-0.00005369,-0.00001039,0.00011119,0.00000523,-0.00
 000638,0.00000421,-0.00000696,-0.00000022,0.00000146,0.00000112,0.0000
 0391,0.00000055,0.00000756,0.00000407,-0.00000212,-0.00003361,0.000171
 58,0.00016462,-0.00000335,0.00000598,-0.00000102,-0.00001063,0.0000004
 3,0.00001403,0.00000160,-0.00000010,0.00000423,0.00000225,-0.00000156,
 0.00000008,-0.00000201,-0.00000187,-0.00000042,0.00000386,0.00000344,0
 .00000370,0.00000055,0.00000071,-0.00000111,-0.00000049,0.00000330,0.0
 0000054,-0.00000204,0.00000035,0.00000023,0.00000362,0.00000394,-0.000
 00191,0.00000051,0.00000170,0.00000223,0.00000104,0.00000085,0.0000012
 7,0.00000041,-0.00000045,0.00000294,-0.00000358,-0.00000028,-0.0000020
 0,0.00000047,-0.00000156,-0.00000106,0.00000052,0.00000291,0.00000116,
 -0.00000098,-0.00000045,-0.00000179,0.00000136,0.00000010,-0.00000104,
 0.00000276,0.00000077,0.00000022,-0.00000371,-0.00000002,0.00000347\\\
 @


 OLD HORSE! OLD HORSE! WHAT BROUGHT YOU HERE?
 FROM SACARAP' TO PORTLAND PIER
 I'VE CARTED STONE THIS MANY A YEAR;
 TILL, KILLED BY BLOWS AND SORE ABUSE,
 THEY SALTED ME DOWN FOR SAILORS' USE.
 THE SAILORS THEY DO ME DESPISE;
 THEY TURN ME OVER AND DAMN MY EYES;
 CUT OFF MY MEAT, AND SCRAPE MY BONES,
 AND PITCH ME OVER TO DAVY JONES.

    SAILORS' COMPLAINT ABOUT THE BEEF
    SERVED ON SHIPBOARD, CIRCA 1835.
 Job cpu time:       0 days 13 hours 54 minutes 52.9 seconds.
 Elapsed time:       0 days  0 hours 52 minutes 12.5 seconds.
 File lengths (MBytes):  RWF=    687 Int=      0 D2E=      0 Chk=     33 Scr=      1
 Normal termination of Gaussian 16 at Sun Nov  4 22:54:36 2018.
