 Entering Gaussian System, Link 0=g16
 Initial command:
 /apps/gaussian/g16a03/g16/l1.exe "/jobfs/local/2011867.r-man2/Gau-28865.inp" -scrdir="/jobfs/local/2011867.r-man2/"
 Entering Link 1 = /apps/gaussian/g16a03/g16/l1.exe PID=     28866.
  
 Copyright (c) 1988,1990,1992,1993,1995,1998,2003,2009,2016,
            Gaussian, Inc.  All Rights Reserved.
  
 This is part of the Gaussian(R) 16 program.  It is based on
 the Gaussian(R) 09 system (copyright 2009, Gaussian, Inc.),
 the Gaussian(R) 03 system (copyright 2003, Gaussian, Inc.),
 the Gaussian(R) 98 system (copyright 1998, Gaussian, Inc.),
 the Gaussian(R) 94 system (copyright 1995, Gaussian, Inc.),
 the Gaussian 92(TM) system (copyright 1992, Gaussian, Inc.),
 the Gaussian 90(TM) system (copyright 1990, Gaussian, Inc.),
 the Gaussian 88(TM) system (copyright 1988, Gaussian, Inc.),
 the Gaussian 86(TM) system (copyright 1986, Carnegie Mellon
 University), and the Gaussian 82(TM) system (copyright 1983,
 Carnegie Mellon University). Gaussian is a federally registered
 trademark of Gaussian, Inc.
  
 This software contains proprietary and confidential information,
 including trade secrets, belonging to Gaussian, Inc.
  
 This software is provided under written license and may be
 used, copied, transmitted, or stored only in accord with that
 written license.
  
 The following legend is applicable only to US Government
 contracts under FAR:
  
                    RESTRICTED RIGHTS LEGEND
  
 Use, reproduction and disclosure by the US Government is
 subject to restrictions as set forth in subparagraphs (a)
 and (c) of the Commercial Computer Software - Restricted
 Rights clause in FAR 52.227-19.
  
 Gaussian, Inc.
 340 Quinnipiac St., Bldg. 40, Wallingford CT 06492
  
  
 ---------------------------------------------------------------
 Warning -- This program may not be used in any manner that
 competes with the business of Gaussian, Inc. or will provide
 assistance to any competitor of Gaussian, Inc.  The licensee
 of this program is prohibited from giving any competitor of
 Gaussian, Inc. access to this program.  By using this program,
 the user acknowledges that Gaussian, Inc. is engaged in the
 business of creating and licensing software in the field of
 computational chemistry and represents and warrants to the
 licensee that it is not a competitor of Gaussian, Inc. and that
 it will not use this program in any manner prohibited above.
 ---------------------------------------------------------------
  

 Cite this work as:
 Gaussian 16, Revision A.03,
 M. J. Frisch, G. W. Trucks, H. B. Schlegel, G. E. Scuseria, 
 M. A. Robb, J. R. Cheeseman, G. Scalmani, V. Barone, 
 G. A. Petersson, H. Nakatsuji, X. Li, M. Caricato, A. V. Marenich, 
 J. Bloino, B. G. Janesko, R. Gomperts, B. Mennucci, H. P. Hratchian, 
 J. V. Ortiz, A. F. Izmaylov, J. L. Sonnenberg, D. Williams-Young, 
 F. Ding, F. Lipparini, F. Egidi, J. Goings, B. Peng, A. Petrone, 
 T. Henderson, D. Ranasinghe, V. G. Zakrzewski, J. Gao, N. Rega, 
 G. Zheng, W. Liang, M. Hada, M. Ehara, K. Toyota, R. Fukuda, 
 J. Hasegawa, M. Ishida, T. Nakajima, Y. Honda, O. Kitao, H. Nakai, 
 T. Vreven, K. Throssell, J. A. Montgomery, Jr., J. E. Peralta, 
 F. Ogliaro, M. J. Bearpark, J. J. Heyd, E. N. Brothers, K. N. Kudin, 
 V. N. Staroverov, T. A. Keith, R. Kobayashi, J. Normand, 
 K. Raghavachari, A. P. Rendell, J. C. Burant, S. S. Iyengar, 
 J. Tomasi, M. Cossi, J. M. Millam, M. Klene, C. Adamo, R. Cammi, 
 J. W. Ochterski, R. L. Martin, K. Morokuma, O. Farkas, 
 J. B. Foresman, and D. J. Fox, Gaussian, Inc., Wallingford CT, 2016.
 
 ******************************************
 Gaussian 16:  ES64L-G16RevA.03 25-Dec-2016
                 5-Nov-2018 
 ******************************************
 %mem=6000mb
 %nproc=24
 Will use up to   24 processors via shared memory.
 %chk=2SO_1_e4_D_PSI.inp_extract_5.chk
 ----------------------------------------------------------------------
 #M062X/6-311++G(2d,2p) opt=ModRedundant freq=noraman SCRF=(Solvent=Wat
 er)
 ----------------------------------------------------------------------
 1/18=120,19=15,26=3,38=1/1,3;
 2/9=110,12=2,17=6,18=5,40=1/2;
 3/5=4,6=6,7=1212,11=2,25=1,30=1,70=2201,71=1,72=1,74=-55/1,2,3;
 4//1;
 5/5=2,38=5,53=1/2;
 6/7=2,8=2,9=2,10=2,28=1/1;
 7//1,2,3,16;
 1/18=20,19=15,26=3/3(2);
 2/9=110/2;
 99//99;
 2/9=110/2;
 3/5=4,6=6,7=1212,11=2,25=1,30=1,70=2205,71=1,72=1,74=-55/1,2,3;
 4/5=5,16=3,69=1/1;
 5/5=2,38=5,53=1/2;
 7//1,2,3,16;
 1/18=20,19=15,26=3/3(-5);
 2/9=110/2;
 6/7=2,8=2,9=2,10=2,19=2,28=1/1;
 99/9=1/99;
 ----------------------------
 2SO_1_e4_D_PSI.inp_extract_5
 ----------------------------
 Symbolic Z-matrix:
 Charge =  0 Multiplicity = 1
 C                     1.18248   0.15387  -0.47346 
 C                    -3.93223  -0.39729  -0.3185 
 C                    -1.11503   0.16366   0.41637 
 C                    -2.67982  -0.83244  -1.0815 
 C                    -3.54623   0.4923    0.87729 
 C                     2.21188   1.27782  -0.44663 
 C                     1.53464  -0.86248   0.61621 
 C                     3.84745  -0.3797    0.4653 
 O                     2.83234  -1.36341   0.37639 
 C                     3.62747   0.71154  -0.56838 
 O                    -0.10357   0.7494   -0.34912 
 C                    -2.22028   1.19794   0.59999 
 O                    -1.59299  -1.01279  -0.1872 
 H                     1.2185   -0.36004  -1.42836 
 H                    -4.48083  -1.26778   0.02647 
 H                    -4.58271   0.1408   -1.00204 
 H                    -0.72987  -0.1467    1.37448 
 H                    -2.8226   -1.78152  -1.57817 
 H                    -2.40637  -0.10203  -1.83456 
 H                    -3.44469  -0.11496   1.77236 
 H                    -4.32433   1.22012   1.08003 
 H                     2.01066   1.97986  -1.25 
 H                     2.10619   1.81633   0.49218 
 H                     0.87465  -1.71662   0.60652 
 H                     1.50163  -0.40336   1.60057 
 H                     3.84901   0.0366    1.46998 
 H                     4.78462  -0.89547   0.30737 
 H                     4.3639    1.4972   -0.42904 
 H                     3.77714   0.29718  -1.56206 
 H                    -2.30037   1.80269  -0.29811 
 H                    -1.94268   1.86077   1.41186 
 
 The following ModRedundant input section has been read:
 D       6       1      11       3 F                                           
 

 GradGradGradGradGradGradGradGradGradGradGradGradGradGradGradGradGradGrad
 Berny optimization.
 Initialization pass.
                           ----------------------------
                           !    Initial Parameters    !
                           ! (Angstroms and Degrees)  !
 --------------------------                            --------------------------
 ! Name  Definition              Value          Derivative Info.                !
 --------------------------------------------------------------------------------
 ! R1    R(1,6)                  1.5243         estimate D2E/DX2                !
 ! R2    R(1,7)                  1.5311         estimate D2E/DX2                !
 ! R3    R(1,11)                 1.4227         estimate D2E/DX2                !
 ! R4    R(1,14)                 1.085          estimate D2E/DX2                !
 ! R5    R(2,4)                  1.5297         estimate D2E/DX2                !
 ! R6    R(2,5)                  1.5396         estimate D2E/DX2                !
 ! R7    R(2,15)                 1.0852         estimate D2E/DX2                !
 ! R8    R(2,16)                 1.0862         estimate D2E/DX2                !
 ! R9    R(3,11)                 1.3972         estimate D2E/DX2                !
 ! R10   R(3,12)                 1.5248         estimate D2E/DX2                !
 ! R11   R(3,13)                 1.406          estimate D2E/DX2                !
 ! R12   R(3,17)                 1.0783         estimate D2E/DX2                !
 ! R13   R(4,13)                 1.419          estimate D2E/DX2                !
 ! R14   R(4,18)                 1.0807         estimate D2E/DX2                !
 ! R15   R(4,19)                 1.0841         estimate D2E/DX2                !
 ! R16   R(5,12)                 1.5274         estimate D2E/DX2                !
 ! R17   R(5,20)                 1.0864         estimate D2E/DX2                !
 ! R18   R(5,21)                 1.0845         estimate D2E/DX2                !
 ! R19   R(6,10)                 1.5295         estimate D2E/DX2                !
 ! R20   R(6,22)                 1.0857         estimate D2E/DX2                !
 ! R21   R(6,23)                 1.0874         estimate D2E/DX2                !
 ! R22   R(7,9)                  1.4116         estimate D2E/DX2                !
 ! R23   R(7,24)                 1.0795         estimate D2E/DX2                !
 ! R24   R(7,25)                 1.0867         estimate D2E/DX2                !
 ! R25   R(8,9)                  1.4163         estimate D2E/DX2                !
 ! R26   R(8,10)                 1.5191         estimate D2E/DX2                !
 ! R27   R(8,26)                 1.0875         estimate D2E/DX2                !
 ! R28   R(8,27)                 1.0813         estimate D2E/DX2                !
 ! R29   R(10,28)                1.0858         estimate D2E/DX2                !
 ! R30   R(10,29)                1.087          estimate D2E/DX2                !
 ! R31   R(12,30)                1.0857         estimate D2E/DX2                !
 ! R32   R(12,31)                1.0842         estimate D2E/DX2                !
 ! A1    A(6,1,7)              108.7589         estimate D2E/DX2                !
 ! A2    A(6,1,11)             107.4735         estimate D2E/DX2                !
 ! A3    A(6,1,14)             110.0174         estimate D2E/DX2                !
 ! A4    A(7,1,11)             115.0604         estimate D2E/DX2                !
 ! A5    A(7,1,14)             107.7161         estimate D2E/DX2                !
 ! A6    A(11,1,14)            107.7697         estimate D2E/DX2                !
 ! A7    A(4,2,5)              110.2738         estimate D2E/DX2                !
 ! A8    A(4,2,15)             110.136          estimate D2E/DX2                !
 ! A9    A(4,2,16)             108.5011         estimate D2E/DX2                !
 ! A10   A(5,2,15)             110.0794         estimate D2E/DX2                !
 ! A11   A(5,2,16)             110.6511         estimate D2E/DX2                !
 ! A12   A(15,2,16)            107.1372         estimate D2E/DX2                !
 ! A13   A(11,3,12)            107.8395         estimate D2E/DX2                !
 ! A14   A(11,3,13)            111.2041         estimate D2E/DX2                !
 ! A15   A(11,3,17)            110.4203         estimate D2E/DX2                !
 ! A16   A(12,3,13)            111.8917         estimate D2E/DX2                !
 ! A17   A(12,3,17)            110.3133         estimate D2E/DX2                !
 ! A18   A(13,3,17)            105.1912         estimate D2E/DX2                !
 ! A19   A(2,4,13)             110.4185         estimate D2E/DX2                !
 ! A20   A(2,4,18)             111.7713         estimate D2E/DX2                !
 ! A21   A(2,4,19)             111.1803         estimate D2E/DX2                !
 ! A22   A(13,4,18)            106.2146         estimate D2E/DX2                !
 ! A23   A(13,4,19)            109.2821         estimate D2E/DX2                !
 ! A24   A(18,4,19)            107.8044         estimate D2E/DX2                !
 ! A25   A(2,5,12)             110.0949         estimate D2E/DX2                !
 ! A26   A(2,5,20)             109.8998         estimate D2E/DX2                !
 ! A27   A(2,5,21)             110.6753         estimate D2E/DX2                !
 ! A28   A(12,5,20)            109.0671         estimate D2E/DX2                !
 ! A29   A(12,5,21)            110.287          estimate D2E/DX2                !
 ! A30   A(20,5,21)            106.7483         estimate D2E/DX2                !
 ! A31   A(1,6,10)             110.5254         estimate D2E/DX2                !
 ! A32   A(1,6,22)             109.791          estimate D2E/DX2                !
 ! A33   A(1,6,23)             108.3427         estimate D2E/DX2                !
 ! A34   A(10,6,22)            110.6117         estimate D2E/DX2                !
 ! A35   A(10,6,23)            109.9999         estimate D2E/DX2                !
 ! A36   A(22,6,23)            107.4928         estimate D2E/DX2                !
 ! A37   A(1,7,9)              109.0322         estimate D2E/DX2                !
 ! A38   A(1,7,24)             112.224          estimate D2E/DX2                !
 ! A39   A(1,7,25)             110.9304         estimate D2E/DX2                !
 ! A40   A(9,7,24)             106.2462         estimate D2E/DX2                !
 ! A41   A(9,7,25)             109.3757         estimate D2E/DX2                !
 ! A42   A(24,7,25)            108.8973         estimate D2E/DX2                !
 ! A43   A(9,8,10)             110.6352         estimate D2E/DX2                !
 ! A44   A(9,8,26)             108.9591         estimate D2E/DX2                !
 ! A45   A(9,8,27)             106.3033         estimate D2E/DX2                !
 ! A46   A(10,8,26)            110.7225         estimate D2E/DX2                !
 ! A47   A(10,8,27)            111.6392         estimate D2E/DX2                !
 ! A48   A(26,8,27)            108.4376         estimate D2E/DX2                !
 ! A49   A(7,9,8)              113.6886         estimate D2E/DX2                !
 ! A50   A(6,10,8)             110.2314         estimate D2E/DX2                !
 ! A51   A(6,10,28)            110.4637         estimate D2E/DX2                !
 ! A52   A(6,10,29)            109.959          estimate D2E/DX2                !
 ! A53   A(8,10,28)            109.5257         estimate D2E/DX2                !
 ! A54   A(8,10,29)            109.164          estimate D2E/DX2                !
 ! A55   A(28,10,29)           107.4428         estimate D2E/DX2                !
 ! A56   A(1,11,3)             121.7892         estimate D2E/DX2                !
 ! A57   A(3,12,5)             109.7395         estimate D2E/DX2                !
 ! A58   A(3,12,30)            109.3713         estimate D2E/DX2                !
 ! A59   A(3,12,31)            108.6182         estimate D2E/DX2                !
 ! A60   A(5,12,30)            110.089          estimate D2E/DX2                !
 ! A61   A(5,12,31)            111.6384         estimate D2E/DX2                !
 ! A62   A(30,12,31)           107.3241         estimate D2E/DX2                !
 ! A63   A(3,13,4)             115.1243         estimate D2E/DX2                !
 ! D1    D(7,1,6,10)            54.5174         estimate D2E/DX2                !
 ! D2    D(7,1,6,22)           176.808          estimate D2E/DX2                !
 ! D3    D(7,1,6,23)           -66.0717         estimate D2E/DX2                !
 ! D4    D(11,1,6,10)          179.6792         estimate D2E/DX2                !
 ! D5    D(11,1,6,22)          -58.0302         estimate D2E/DX2                !
 ! D6    D(11,1,6,23)           59.0901         estimate D2E/DX2                !
 ! D7    D(14,1,6,10)          -63.2424         estimate D2E/DX2                !
 ! D8    D(14,1,6,22)           59.0482         estimate D2E/DX2                !
 ! D9    D(14,1,6,23)          176.1685         estimate D2E/DX2                !
 ! D10   D(6,1,7,9)            -58.9973         estimate D2E/DX2                !
 ! D11   D(6,1,7,24)          -176.4253         estimate D2E/DX2                !
 ! D12   D(6,1,7,25)            61.5118         estimate D2E/DX2                !
 ! D13   D(11,1,7,9)          -179.5859         estimate D2E/DX2                !
 ! D14   D(11,1,7,24)           62.9861         estimate D2E/DX2                !
 ! D15   D(11,1,7,25)          -59.0768         estimate D2E/DX2                !
 ! D16   D(14,1,7,9)            60.212          estimate D2E/DX2                !
 ! D17   D(14,1,7,24)          -57.2161         estimate D2E/DX2                !
 ! D18   D(14,1,7,25)         -179.279          estimate D2E/DX2                !
 ! D19   D(6,1,11,3)          -141.0084         Frozen                          !
 ! D20   D(7,1,11,3)           -19.7182         estimate D2E/DX2                !
 ! D21   D(14,1,11,3)          100.4545         estimate D2E/DX2                !
 ! D22   D(5,2,4,13)            33.9789         estimate D2E/DX2                !
 ! D23   D(5,2,4,18)           151.9821         estimate D2E/DX2                !
 ! D24   D(5,2,4,19)           -87.4963         estimate D2E/DX2                !
 ! D25   D(15,2,4,13)          -87.7071         estimate D2E/DX2                !
 ! D26   D(15,2,4,18)           30.296          estimate D2E/DX2                !
 ! D27   D(15,2,4,19)          150.8176         estimate D2E/DX2                !
 ! D28   D(16,2,4,13)          155.3155         estimate D2E/DX2                !
 ! D29   D(16,2,4,18)          -86.6814         estimate D2E/DX2                !
 ! D30   D(16,2,4,19)           33.8402         estimate D2E/DX2                !
 ! D31   D(4,2,5,12)            26.4217         estimate D2E/DX2                !
 ! D32   D(4,2,5,20)           -93.7355         estimate D2E/DX2                !
 ! D33   D(4,2,5,21)           148.608          estimate D2E/DX2                !
 ! D34   D(15,2,5,12)          148.1413         estimate D2E/DX2                !
 ! D35   D(15,2,5,20)           27.9841         estimate D2E/DX2                !
 ! D36   D(15,2,5,21)          -89.6724         estimate D2E/DX2                !
 ! D37   D(16,2,5,12)          -93.6267         estimate D2E/DX2                !
 ! D38   D(16,2,5,20)          146.2161         estimate D2E/DX2                !
 ! D39   D(16,2,5,21)           28.5596         estimate D2E/DX2                !
 ! D40   D(12,3,11,1)          166.9751         estimate D2E/DX2                !
 ! D41   D(13,3,11,1)          -70.0012         estimate D2E/DX2                !
 ! D42   D(17,3,11,1)           46.3807         estimate D2E/DX2                !
 ! D43   D(11,3,12,5)          155.9382         estimate D2E/DX2                !
 ! D44   D(11,3,12,30)          35.0755         estimate D2E/DX2                !
 ! D45   D(11,3,12,31)         -81.7661         estimate D2E/DX2                !
 ! D46   D(13,3,12,5)           33.3356         estimate D2E/DX2                !
 ! D47   D(13,3,12,30)         -87.5271         estimate D2E/DX2                !
 ! D48   D(13,3,12,31)         155.6314         estimate D2E/DX2                !
 ! D49   D(17,3,12,5)          -83.4004         estimate D2E/DX2                !
 ! D50   D(17,3,12,30)         155.7369         estimate D2E/DX2                !
 ! D51   D(17,3,12,31)          38.8954         estimate D2E/DX2                !
 ! D52   D(11,3,13,4)          -90.1579         estimate D2E/DX2                !
 ! D53   D(12,3,13,4)           30.5078         estimate D2E/DX2                !
 ! D54   D(17,3,13,4)          150.2954         estimate D2E/DX2                !
 ! D55   D(2,4,13,3)           -67.7014         estimate D2E/DX2                !
 ! D56   D(18,4,13,3)          170.9382         estimate D2E/DX2                !
 ! D57   D(19,4,13,3)           54.892          estimate D2E/DX2                !
 ! D58   D(2,5,12,3)           -61.6477         estimate D2E/DX2                !
 ! D59   D(2,5,12,30)           58.7806         estimate D2E/DX2                !
 ! D60   D(2,5,12,31)          177.8711         estimate D2E/DX2                !
 ! D61   D(20,5,12,3)           59.0115         estimate D2E/DX2                !
 ! D62   D(20,5,12,30)         179.4398         estimate D2E/DX2                !
 ! D63   D(20,5,12,31)         -61.4697         estimate D2E/DX2                !
 ! D64   D(21,5,12,3)          175.9366         estimate D2E/DX2                !
 ! D65   D(21,5,12,30)         -63.6351         estimate D2E/DX2                !
 ! D66   D(21,5,12,31)          55.4554         estimate D2E/DX2                !
 ! D67   D(1,6,10,8)           -51.989          estimate D2E/DX2                !
 ! D68   D(1,6,10,28)         -173.169          estimate D2E/DX2                !
 ! D69   D(1,6,10,29)           68.4126         estimate D2E/DX2                !
 ! D70   D(22,6,10,8)         -173.7973         estimate D2E/DX2                !
 ! D71   D(22,6,10,28)          65.0227         estimate D2E/DX2                !
 ! D72   D(22,6,10,29)         -53.3958         estimate D2E/DX2                !
 ! D73   D(23,6,10,8)           67.6058         estimate D2E/DX2                !
 ! D74   D(23,6,10,28)         -53.5742         estimate D2E/DX2                !
 ! D75   D(23,6,10,29)        -171.9926         estimate D2E/DX2                !
 ! D76   D(1,7,9,8)             63.7763         estimate D2E/DX2                !
 ! D77   D(24,7,9,8)          -175.075          estimate D2E/DX2                !
 ! D78   D(25,7,9,8)           -57.683          estimate D2E/DX2                !
 ! D79   D(10,8,9,7)           -61.1103         estimate D2E/DX2                !
 ! D80   D(26,8,9,7)            60.8379         estimate D2E/DX2                !
 ! D81   D(27,8,9,7)           177.5111         estimate D2E/DX2                !
 ! D82   D(9,8,10,6)            53.4395         estimate D2E/DX2                !
 ! D83   D(9,8,10,28)          175.1774         estimate D2E/DX2                !
 ! D84   D(9,8,10,29)          -67.439          estimate D2E/DX2                !
 ! D85   D(26,8,10,6)          -67.4674         estimate D2E/DX2                !
 ! D86   D(26,8,10,28)          54.2704         estimate D2E/DX2                !
 ! D87   D(26,8,10,29)         171.6541         estimate D2E/DX2                !
 ! D88   D(27,8,10,6)          171.6105         estimate D2E/DX2                !
 ! D89   D(27,8,10,28)         -66.6516         estimate D2E/DX2                !
 ! D90   D(27,8,10,29)          50.732          estimate D2E/DX2                !
 --------------------------------------------------------------------------------
 Trust Radius=3.00D-01 FncErr=1.00D-07 GrdErr=1.00D-06 EigMax=2.50D+02 EigMin=1.00D-04
 Number of steps in this run=    186 maximum allowed number of steps=    186.
 GradGradGradGradGradGradGradGradGradGradGradGradGradGradGradGradGradGrad

                          Input orientation:                          
 ---------------------------------------------------------------------
 Center     Atomic      Atomic             Coordinates (Angstroms)
 Number     Number       Type             X           Y           Z
 ---------------------------------------------------------------------
      1          6           0        1.182478    0.153870   -0.473460
      2          6           0       -3.932231   -0.397287   -0.318502
      3          6           0       -1.115032    0.163661    0.416366
      4          6           0       -2.679819   -0.832441   -1.081500
      5          6           0       -3.546233    0.492299    0.877294
      6          6           0        2.211878    1.277817   -0.446628
      7          6           0        1.534636   -0.862481    0.616206
      8          6           0        3.847448   -0.379704    0.465296
      9          8           0        2.832341   -1.363407    0.376385
     10          6           0        3.627467    0.711541   -0.568384
     11          8           0       -0.103569    0.749402   -0.349123
     12          6           0       -2.220276    1.197936    0.599988
     13          8           0       -1.592993   -1.012787   -0.187200
     14          1           0        1.218497   -0.360038   -1.428364
     15          1           0       -4.480830   -1.267775    0.026469
     16          1           0       -4.582706    0.140795   -1.002042
     17          1           0       -0.729866   -0.146699    1.374483
     18          1           0       -2.822595   -1.781516   -1.578173
     19          1           0       -2.406374   -0.102025   -1.834561
     20          1           0       -3.444687   -0.114964    1.772362
     21          1           0       -4.324326    1.220115    1.080026
     22          1           0        2.010656    1.979862   -1.249999
     23          1           0        2.106193    1.816330    0.492179
     24          1           0        0.874653   -1.716620    0.606519
     25          1           0        1.501632   -0.403362    1.600565
     26          1           0        3.849008    0.036604    1.469980
     27          1           0        4.784622   -0.895470    0.307369
     28          1           0        4.363905    1.497198   -0.429043
     29          1           0        3.777135    0.297178   -1.562064
     30          1           0       -2.300367    1.802693   -0.298106
     31          1           0       -1.942675    1.860765    1.411861
 ---------------------------------------------------------------------
                    Distance matrix (angstroms):
                    1          2          3          4          5
     1  C    0.000000
     2  C    5.146653   0.000000
     3  C    2.463826   2.965013   0.000000
     4  C    4.032352   1.529726   2.384194   0.000000
     5  C    4.929481   1.539573   2.496236   2.518429   0.000000
     6  C    1.524349   6.369652   3.613092   5.365161   5.960340
     7  C    1.531129   5.565673   2.848446   4.543648   5.264867
     8  C    2.875418   7.819083   4.992379   6.723300   7.456316
     9  O    2.397168   6.868456   4.232646   5.726365   6.661889
    10  C    2.509577   7.644670   4.874546   6.513757   7.321204
    11  O    1.422686   3.996809   1.397184   3.110573   3.663623
    12  C    3.717674   2.513792   1.524797   2.676007   1.527411
    13  O    3.024281   2.422419   1.405976   1.418974   2.685810
    14  H    1.085007   5.269078   3.020372   3.942125   5.361454
    15  H    5.860381   1.085226   3.678264   2.158877   2.166849
    16  H    5.789380   1.086221   3.746621   2.138804   2.174795
    17  H    2.676246   3.630996   1.078269   3.210048   2.930433
    18  H    4.583309   2.175811   3.267671   1.080654   3.423917
    19  H    3.846809   2.171141   2.608606   1.084150   3.001109
    20  H    5.150402   2.165437   2.709917   3.040448   1.086382
    21  H    5.820231   2.173846   3.443270   3.404348   1.084548
    22  H    2.150148   6.468109   3.980614   5.471562   6.133289
    23  H    2.132951   6.482273   3.621236   5.691956   5.818186
    24  H    2.181707   5.069757   2.744169   4.033045   4.949432
    25  H    2.171162   5.762788   2.927588   4.986192   5.177477
    26  H    3.301680   7.995912   5.076213   7.063347   7.432935
    27  H    3.832264   8.753481   5.994961   7.592813   8.464860
    28  H    3.453691   8.510415   5.701911   7.447615   8.080014
    29  H    2.817417   7.839838   5.278760   6.572613   7.721416
    30  H    3.857405   2.739217   2.145207   2.775179   2.156590
    31  H    4.029207   3.471497   2.134518   3.743473   2.174824
                    6          7          8          9         10
     6  C    0.000000
     7  C    2.483777   0.000000
     8  C    2.500814   2.367477   0.000000
     9  O    2.835205   1.411552   1.416340   0.000000
    10  C    1.529505   2.874150   1.519112   2.414585   0.000000
    11  O    2.376978   2.492738   4.189116   3.689159   3.737665
    12  C    4.554753   4.283100   6.270914   5.669164   5.983124
    13  O    4.448732   3.232664   5.515881   4.474834   5.511063
    14  H    2.152482   2.129004   3.240018   2.620756   2.773262
    15  H    7.176085   6.057878   8.386981   7.322162   8.367558
    16  H    6.911416   6.406806   8.572718   7.690618   8.241405
    17  H    3.741597   2.493050   4.672549   3.894342   4.847438
    18  H    5.998819   4.964412   7.115498   5.997784   6.988441
    19  H    5.015832   4.702777   6.669088   5.824389   6.218708
    20  H    6.233818   5.166153   7.413079   6.550454   7.495169
    21  H    6.712374   6.235365   8.349563   7.641177   8.136763
    22  H    1.085708   3.433399   3.447259   3.807590   2.165021
    23  H    1.087439   2.741913   2.802723   3.263652   2.158617
    24  H    3.444407   1.079456   3.262637   2.002564   3.854134
    25  H    2.742592   1.086666   2.606194   2.047215   3.235201
    26  H    2.809660   2.625567   1.087522   2.046849   2.158599
    27  H    3.451188   3.264794   1.081319   2.008763   2.165280
    28  H    2.163252   3.829542   2.142272   3.343271   1.085824
    29  H    2.157749   3.334437   2.138528   2.721721   1.086967
    30  H    4.545097   4.758820   6.568201   6.068263   6.033480
    31  H    4.588477   4.487853   6.280224   5.853911   6.022339
                   11         12         13         14         15
    11  O    0.000000
    12  C    2.362719   0.000000
    13  O    2.312988   2.429083   0.000000
    14  H    2.035553   4.285634   3.141822   0.000000
    15  H    4.834303   3.393930   2.906936   5.951710   0.000000
    16  H    4.567206   3.043866   3.306524   5.838368   1.747078
    17  H    2.041093   2.151559   1.983419   3.420173   4.140493
    18  H    3.912699   3.739560   2.009396   4.286428   2.364011
    19  H    2.869558   2.766145   2.050579   3.656673   3.020890
    20  H    4.051036   2.144143   2.841609   5.661271   2.334675
    21  H    4.480940   2.158230   3.748585   6.285840   2.706302
    22  H    2.606829   4.683444   4.803309   2.476785   7.369933
    23  H    2.594065   4.371769   4.706319   3.035303   7.288173
    24  H    2.819829   4.251266   2.686010   2.469675   5.405471
    25  H    2.776116   4.173477   3.625494   3.042442   6.246186
    26  H    4.409091   6.240335   5.784708   3.934121   8.554024
    27  H    5.199134   7.316869   6.397838   4.002087   9.277183
    28  H    4.530332   6.670825   6.468628   3.787025   9.278033
    29  H    4.090916   6.438538   5.696010   2.645078   8.553742
    30  H    2.436790   1.085688   2.905100   4.282206   3.779886
    31  H    2.778219   1.084224   3.307049   4.794982   4.260200
                   16         17         18         19         20
    16  H    0.000000
    17  H    4.535956   0.000000
    18  H    2.669307   3.971186   0.000000
    19  H    2.342748   3.620862   1.749190   0.000000
    20  H    3.009621   2.744006   3.793478   3.753419   0.000000
    21  H    2.359385   3.856816   4.281472   3.731141   1.742277
    22  H    6.849531   4.349785   6.133187   4.917939   6.579037
    23  H    7.055599   3.560221   6.443897   5.427436   6.015067
    24  H    5.985000   2.372531   4.294966   4.396695   4.751967
    25  H    6.639943   2.257559   5.540995   5.211852   4.957697
    26  H    8.787238   4.583536   7.556923   7.075946   7.301534
    27  H    9.515001   5.666478   7.887338   7.545054   8.395053
    28  H    9.066973   5.648151   7.982246   7.097159   8.271600
    29  H    8.380037   5.397536   6.919369   6.202371   7.965110
    30  H    2.909725   3.010674   3.841594   2.449466   3.045277
    31  H    3.969255   2.345680   4.793827   3.821887   2.507889
                   21         22         23         24         25
    21  H    0.000000
    22  H    6.792513   0.000000
    23  H    6.484798   1.752442   0.000000
    24  H    5.989825   4.289655   3.743194   0.000000
    25  H    6.070290   3.750277   2.553634   1.762350   0.000000
    26  H    8.267778   3.814980   2.675990   3.558953   2.391819
    27  H    9.383263   4.288102   3.816018   4.006449   3.562660
    28  H    8.822665   2.538644   2.459219   4.855501   3.990494
    29  H    8.571238   2.459524   3.052832   4.145182   3.958648
    30  H    2.516954   4.418417   4.476886   4.825418   4.788197
    31  H    2.488535   4.767443   4.152243   4.624240   4.126152
                   26         27         28         29         30
    26  H    0.000000
    27  H    1.759489   0.000000
    28  H    2.450458   2.538536   0.000000
    29  H    3.044069   2.435615   1.751595   0.000000
    30  H    6.637772   7.605508   6.672555   6.387503   0.000000
    31  H    6.072440   7.353452   6.579822   6.633646   1.747943
                   31
    31  H    0.000000
 Stoichiometry    C10H18O3
 Framework group  C1[X(C10H18O3)]
 Deg. of freedom    87
 Full point group                 C1      NOp   1
 Largest Abelian subgroup         C1      NOp   1
 Largest concise Abelian subgroup C1      NOp   1
                         Standard orientation:                         
 ---------------------------------------------------------------------
 Center     Atomic      Atomic             Coordinates (Angstroms)
 Number     Number       Type             X           Y           Z
 ---------------------------------------------------------------------
      1          6           0       -1.182478    0.153870    0.473460
      2          6           0        3.932231   -0.397287    0.318502
      3          6           0        1.115032    0.163661   -0.416366
      4          6           0        2.679819   -0.832441    1.081500
      5          6           0        3.546233    0.492299   -0.877294
      6          6           0       -2.211878    1.277817    0.446628
      7          6           0       -1.534636   -0.862481   -0.616206
      8          6           0       -3.847448   -0.379704   -0.465296
      9          8           0       -2.832341   -1.363407   -0.376385
     10          6           0       -3.627467    0.711541    0.568384
     11          8           0        0.103569    0.749402    0.349123
     12          6           0        2.220276    1.197936   -0.599988
     13          8           0        1.592993   -1.012787    0.187200
     14          1           0       -1.218497   -0.360038    1.428364
     15          1           0        4.480830   -1.267775   -0.026469
     16          1           0        4.582706    0.140795    1.002042
     17          1           0        0.729866   -0.146699   -1.374483
     18          1           0        2.822595   -1.781516    1.578173
     19          1           0        2.406374   -0.102025    1.834561
     20          1           0        3.444687   -0.114964   -1.772362
     21          1           0        4.324326    1.220115   -1.080026
     22          1           0       -2.010656    1.979862    1.249999
     23          1           0       -2.106193    1.816330   -0.492179
     24          1           0       -0.874653   -1.716620   -0.606519
     25          1           0       -1.501632   -0.403362   -1.600565
     26          1           0       -3.849008    0.036604   -1.469980
     27          1           0       -4.784622   -0.895470   -0.307369
     28          1           0       -4.363905    1.497198    0.429043
     29          1           0       -3.777135    0.297178    1.562064
     30          1           0        2.300367    1.802693    0.298106
     31          1           0        1.942675    1.860765   -1.411861
 ---------------------------------------------------------------------
 Rotational constants (GHZ):           2.2175244           0.3704544           0.3522680
 Standard basis: 6-311++G(2d,2p) (5D, 7F)
 There are   557 symmetry adapted cartesian basis functions of A   symmetry.
 There are   531 symmetry adapted basis functions of A   symmetry.
   531 basis functions,   762 primitive gaussians,   557 cartesian basis functions
    51 alpha electrons       51 beta electrons
       nuclear repulsion energy       884.7549068709 Hartrees.
 NAtoms=   31 NActive=   31 NUniq=   31 SFac= 1.00D+00 NAtFMM=   60 NAOKFM=F Big=F
 Integral buffers will be    131072 words long.
 Raffenetti 2 integral format.
 Two-electron integral symmetry is turned on.
 ------------------------------------------------------------------------------
 Polarizable Continuum Model (PCM)
 =================================
 Model                : PCM.
 Atomic radii         : UFF (Universal Force Field).
 Polarization charges : Total charges.
 Charge compensation  : None.
 Solution method      : On-the-fly selection.
 Cavity type          : Scaled VdW (van der Waals Surface) (Alpha=1.100).
 Cavity algorithm     : GePol (No added spheres)
                        Default sphere list used, NSphG=   31.
                        Lebedev-Laikov grids with approx.  5.0 points / Ang**2.
                        Smoothing algorithm: York/Karplus (Gamma=1.0000).
                        Polarization charges: spherical gaussians, with
                                              point-specific exponents (IZeta= 3).
                        Self-potential: point-specific (ISelfS= 7).
                        Self-field    : sphere-specific E.n sum rule (ISelfD= 2).
 1st derivatives      : Analytical E(r).r(x)/FMM algorithm (CHGder, D1EAlg=3).
                        Cavity 1st derivative terms included.
 Solvent              : Water, Eps=  78.355300 Eps(inf)=   1.777849
 ------------------------------------------------------------------------------
 One-electron integrals computed using PRISM.
 NBasis=   531 RedAO= T EigKep=  4.56D-06  NBF=   531
 NBsUse=   531 1.00D-06 EigRej= -1.00D+00 NBFU=   531
 ExpMin= 3.60D-02 ExpMax= 8.59D+03 ExpMxC= 1.30D+03 IAcc=3 IRadAn=         5 AccDes= 0.00D+00
 Harris functional with IExCor= 1009 and IRadAn=       5 diagonalized for initial guess.
 HarFok:  IExCor= 1009 AccDes= 0.00D+00 IRadAn=         5 IDoV= 1 UseB2=F ITyADJ=14
 ICtDFT=  3500011 ScaDFX=  1.000000  1.000000  1.000000  1.000000
 FoFCou: FMM=F IPFlag=           0 FMFlag=      100000 FMFlg1=           0
         NFxFlg=           0 DoJE=T BraDBF=F KetDBF=T FulRan=T
         wScrn=  0.000000 ICntrl=       500 IOpCl=  0 I1Cent=   200000004 NGrid=           0
         NMat0=    1 NMatS0=      1 NMatT0=    0 NMatD0=    1 NMtDS0=    0 NMtDT0=    0
 Petite list used in FoFCou.
 Requested convergence on RMS density matrix=1.00D-08 within 128 cycles.
 Requested convergence on MAX density matrix=1.00D-06.
 Requested convergence on             energy=1.00D-06.
 No special actions if energy rises.
 Inv3:  Mode=1 IEnd=    12829872.
 Iteration    1 A*A^-1 deviation from unit magnitude is 4.44D-15 for   2050.
 Iteration    1 A*A^-1 deviation from orthogonality  is 2.83D-15 for   2050    853.
 Iteration    1 A^-1*A deviation from unit magnitude is 4.22D-15 for   2050.
 Iteration    1 A^-1*A deviation from orthogonality  is 2.21D-15 for   1648   1628.
 Error on total polarization charges =  0.01494
 SCF Done:  E(RM062X) =  -617.491474754     A.U. after   12 cycles
            NFock= 12  Conv=0.53D-08     -V/T= 2.0035

 **********************************************************************

            Population analysis using the SCF density.

 **********************************************************************

 Orbital symmetries:
       Occupied  (A) (A) (A) (A) (A) (A) (A) (A) (A) (A) (A) (A)
                 (A) (A) (A) (A) (A) (A) (A) (A) (A) (A) (A) (A)
                 (A) (A) (A) (A) (A) (A) (A) (A) (A) (A) (A) (A)
                 (A) (A) (A) (A) (A) (A) (A) (A) (A) (A) (A) (A)
                 (A) (A) (A)
       Virtual   (A) (A) (A) (A) (A) (A) (A) (A) (A) (A) (A) (A)
                 (A) (A) (A) (A) (A) (A) (A) (A) (A) (A) (A) (A)
                 (A) (A) (A) (A) (A) (A) (A) (A) (A) (A) (A) (A)
                 (A) (A) (A) (A) (A) (A) (A) (A) (A) (A) (A) (A)
                 (A) (A) (A) (A) (A) (A) (A) (A) (A) (A) (A) (A)
                 (A) (A) (A) (A) (A) (A) (A) (A) (A) (A) (A) (A)
                 (A) (A) (A) (A) (A) (A) (A) (A) (A) (A) (A) (A)
                 (A) (A) (A) (A) (A) (A) (A) (A) (A) (A) (A) (A)
                 (A) (A) (A) (A) (A) (A) (A) (A) (A) (A) (A) (A)
                 (A) (A) (A) (A) (A) (A) (A) (A) (A) (A) (A) (A)
                 (A) (A) (A) (A) (A) (A) (A) (A) (A) (A) (A) (A)
                 (A) (A) (A) (A) (A) (A) (A) (A) (A) (A) (A) (A)
                 (A) (A) (A) (A) (A) (A) (A) (A) (A) (A) (A) (A)
                 (A) (A) (A) (A) (A) (A) (A) (A) (A) (A) (A) (A)
                 (A) (A) (A) (A) (A) (A) (A) (A) (A) (A) (A) (A)
                 (A) (A) (A) (A) (A) (A) (A) (A) (A) (A) (A) (A)
                 (A) (A) (A) (A) (A) (A) (A) (A) (A) (A) (A) (A)
                 (A) (A) (A) (A) (A) (A) (A) (A) (A) (A) (A) (A)
                 (A) (A) (A) (A) (A) (A) (A) (A) (A) (A) (A) (A)
                 (A) (A) (A) (A) (A) (A) (A) (A) (A) (A) (A) (A)
                 (A) (A) (A) (A) (A) (A) (A) (A) (A) (A) (A) (A)
                 (A) (A) (A) (A) (A) (A) (A) (A) (A) (A) (A) (A)
                 (A) (A) (A) (A) (A) (A) (A) (A) (A) (A) (A) (A)
                 (A) (A) (A) (A) (A) (A) (A) (A) (A) (A) (A) (A)
                 (A) (A) (A) (A) (A) (A) (A) (A) (A) (A) (A) (A)
                 (A) (A) (A) (A) (A) (A) (A) (A) (A) (A) (A) (A)
                 (A) (A) (A) (A) (A) (A) (A) (A) (A) (A) (A) (A)
                 (A) (A) (A) (A) (A) (A) (A) (A) (A) (A) (A) (A)
                 (A) (A) (A) (A) (A) (A) (A) (A) (A) (A) (A) (A)
                 (A) (A) (A) (A) (A) (A) (A) (A) (A) (A) (A) (A)
                 (A) (A) (A) (A) (A) (A) (A) (A) (A) (A) (A) (A)
                 (A) (A) (A) (A) (A) (A) (A) (A) (A) (A) (A) (A)
                 (A) (A) (A) (A) (A) (A) (A) (A) (A) (A) (A) (A)
                 (A) (A) (A) (A) (A) (A) (A) (A) (A) (A) (A) (A)
                 (A) (A) (A) (A) (A) (A) (A) (A) (A) (A) (A) (A)
                 (A) (A) (A) (A) (A) (A) (A) (A) (A) (A) (A) (A)
                 (A) (A) (A) (A) (A) (A) (A) (A) (A) (A) (A) (A)
                 (A) (A) (A) (A) (A) (A) (A) (A) (A) (A) (A) (A)
                 (A) (A) (A) (A) (A) (A) (A) (A) (A) (A) (A) (A)
                 (A) (A) (A) (A) (A) (A) (A) (A) (A) (A) (A) (A)
 The electronic state is 1-A.
 Alpha  occ. eigenvalues --  -19.63063 -19.62951 -19.62733 -10.63546 -10.58830
 Alpha  occ. eigenvalues --  -10.58177 -10.57881 -10.57738 -10.53172 -10.53130
 Alpha  occ. eigenvalues --  -10.53114 -10.53076 -10.52782  -1.19993  -1.16900
 Alpha  occ. eigenvalues --   -1.13649  -0.90918  -0.89796  -0.87275  -0.84802
 Alpha  occ. eigenvalues --   -0.75705  -0.74833  -0.73190  -0.70202  -0.65909
 Alpha  occ. eigenvalues --   -0.62487  -0.61025  -0.59410  -0.57794  -0.56823
 Alpha  occ. eigenvalues --   -0.55638  -0.53160  -0.51807  -0.50892  -0.49520
 Alpha  occ. eigenvalues --   -0.48180  -0.46912  -0.45609  -0.45526  -0.44510
 Alpha  occ. eigenvalues --   -0.44080  -0.43577  -0.40836  -0.40502  -0.39661
 Alpha  occ. eigenvalues --   -0.38663  -0.37425  -0.35879  -0.34683  -0.33699
 Alpha  occ. eigenvalues --   -0.32201
 Alpha virt. eigenvalues --   -0.00137   0.00732   0.00829   0.01137   0.02094
 Alpha virt. eigenvalues --    0.02344   0.02531   0.03605   0.03740   0.04262
 Alpha virt. eigenvalues --    0.04421   0.04520   0.05562   0.05755   0.06974
 Alpha virt. eigenvalues --    0.07216   0.07499   0.07923   0.08912   0.09321
 Alpha virt. eigenvalues --    0.09984   0.10689   0.11131   0.11566   0.11773
 Alpha virt. eigenvalues --    0.12311   0.12418   0.12672   0.13025   0.13420
 Alpha virt. eigenvalues --    0.13472   0.13730   0.14291   0.14544   0.14727
 Alpha virt. eigenvalues --    0.14877   0.15235   0.15708   0.16221   0.16458
 Alpha virt. eigenvalues --    0.16581   0.16749   0.17019   0.17194   0.17823
 Alpha virt. eigenvalues --    0.18199   0.18286   0.18588   0.18978   0.19079
 Alpha virt. eigenvalues --    0.19712   0.20122   0.20260   0.20393   0.21366
 Alpha virt. eigenvalues --    0.22507   0.22754   0.23112   0.23788   0.24543
 Alpha virt. eigenvalues --    0.25148   0.25409   0.25720   0.26479   0.26657
 Alpha virt. eigenvalues --    0.27230   0.27420   0.28206   0.28883   0.29500
 Alpha virt. eigenvalues --    0.29593   0.30924   0.31262   0.31318   0.31840
 Alpha virt. eigenvalues --    0.32298   0.32515   0.33564   0.33902   0.34319
 Alpha virt. eigenvalues --    0.34603   0.34978   0.35532   0.35729   0.36257
 Alpha virt. eigenvalues --    0.36842   0.37394   0.37632   0.37872   0.38310
 Alpha virt. eigenvalues --    0.38985   0.39478   0.40003   0.40262   0.41222
 Alpha virt. eigenvalues --    0.41547   0.42386   0.42903   0.43605   0.45586
 Alpha virt. eigenvalues --    0.45972   0.47052   0.49175   0.50303   0.50691
 Alpha virt. eigenvalues --    0.51478   0.52326   0.52860   0.53440   0.54391
 Alpha virt. eigenvalues --    0.56865   0.57206   0.57517   0.57906   0.58524
 Alpha virt. eigenvalues --    0.59181   0.59793   0.60119   0.61058   0.61104
 Alpha virt. eigenvalues --    0.61615   0.62156   0.62387   0.62902   0.64213
 Alpha virt. eigenvalues --    0.64804   0.65301   0.65777   0.66733   0.67465
 Alpha virt. eigenvalues --    0.68258   0.68785   0.69004   0.69659   0.70171
 Alpha virt. eigenvalues --    0.70715   0.71539   0.71774   0.72240   0.72954
 Alpha virt. eigenvalues --    0.73201   0.74133   0.74527   0.75263   0.75756
 Alpha virt. eigenvalues --    0.76277   0.77159   0.77526   0.78005   0.78472
 Alpha virt. eigenvalues --    0.79685   0.81720   0.83835   0.84779   0.85022
 Alpha virt. eigenvalues --    0.86081   0.86814   0.88037   0.88948   0.89975
 Alpha virt. eigenvalues --    0.90329   0.90720   0.92087   0.93505   0.96178
 Alpha virt. eigenvalues --    0.97376   0.97993   0.98995   0.99207   1.01606
 Alpha virt. eigenvalues --    1.01905   1.03879   1.05234   1.05633   1.08020
 Alpha virt. eigenvalues --    1.08807   1.09242   1.09403   1.10475   1.11501
 Alpha virt. eigenvalues --    1.11836   1.12774   1.14406   1.16146   1.16278
 Alpha virt. eigenvalues --    1.17256   1.18061   1.18413   1.19998   1.20707
 Alpha virt. eigenvalues --    1.21179   1.21523   1.22832   1.23473   1.24587
 Alpha virt. eigenvalues --    1.25518   1.26173   1.26697   1.27079   1.27730
 Alpha virt. eigenvalues --    1.28270   1.28879   1.29752   1.30703   1.31227
 Alpha virt. eigenvalues --    1.31658   1.31859   1.33466   1.33771   1.34633
 Alpha virt. eigenvalues --    1.35743   1.35999   1.36987   1.37290   1.37673
 Alpha virt. eigenvalues --    1.38357   1.39047   1.39855   1.40813   1.41571
 Alpha virt. eigenvalues --    1.42181   1.42971   1.44109   1.44574   1.45758
 Alpha virt. eigenvalues --    1.46102   1.46832   1.47113   1.47677   1.48406
 Alpha virt. eigenvalues --    1.49393   1.49775   1.50108   1.51994   1.52059
 Alpha virt. eigenvalues --    1.52979   1.53015   1.53890   1.54460   1.55086
 Alpha virt. eigenvalues --    1.56138   1.56685   1.57198   1.57805   1.58420
 Alpha virt. eigenvalues --    1.59000   1.59325   1.60478   1.60546   1.61956
 Alpha virt. eigenvalues --    1.62366   1.63497   1.63926   1.65128   1.66215
 Alpha virt. eigenvalues --    1.67586   1.68129   1.68493   1.69583   1.70918
 Alpha virt. eigenvalues --    1.72116   1.73923   1.74534   1.76752   1.77291
 Alpha virt. eigenvalues --    1.77876   1.79701   1.81305   1.83416   1.84473
 Alpha virt. eigenvalues --    1.85022   1.87450   1.88822   1.95276   1.98095
 Alpha virt. eigenvalues --    2.03126   2.03675   2.08935   2.09935   2.20060
 Alpha virt. eigenvalues --    2.22874   2.25329   2.33304   2.35487   2.40268
 Alpha virt. eigenvalues --    2.41099   2.43619   2.45729   2.48305   2.54033
 Alpha virt. eigenvalues --    2.59588   2.75161   2.76799   2.78657   2.80435
 Alpha virt. eigenvalues --    2.86998   2.89353   2.90009   2.92469   2.93265
 Alpha virt. eigenvalues --    2.96665   2.98220   2.99306   3.02481   3.04876
 Alpha virt. eigenvalues --    3.05152   3.07053   3.08269   3.08893   3.11127
 Alpha virt. eigenvalues --    3.13666   3.14562   3.16402   3.17947   3.20799
 Alpha virt. eigenvalues --    3.24774   3.26625   3.30375   3.31975   3.33475
 Alpha virt. eigenvalues --    3.35730   3.36323   3.37888   3.39123   3.40324
 Alpha virt. eigenvalues --    3.40528   3.42900   3.43699   3.45268   3.45974
 Alpha virt. eigenvalues --    3.47369   3.48064   3.48500   3.49831   3.51996
 Alpha virt. eigenvalues --    3.52181   3.53327   3.53814   3.55384   3.56219
 Alpha virt. eigenvalues --    3.56913   3.57667   3.59171   3.59864   3.60775
 Alpha virt. eigenvalues --    3.61345   3.61699   3.62541   3.64378   3.65505
 Alpha virt. eigenvalues --    3.66002   3.66859   3.68029   3.69394   3.69569
 Alpha virt. eigenvalues --    3.70538   3.71168   3.72202   3.72797   3.73710
 Alpha virt. eigenvalues --    3.73747   3.75422   3.76521   3.78013   3.80152
 Alpha virt. eigenvalues --    3.80606   3.81119   3.81622   3.83881   3.85085
 Alpha virt. eigenvalues --    3.85661   3.88428   3.89067   3.89568   3.90904
 Alpha virt. eigenvalues --    3.91802   3.93581   3.95073   3.98174   3.99446
 Alpha virt. eigenvalues --    4.00182   4.02535   4.03119   4.03819   4.04177
 Alpha virt. eigenvalues --    4.05267   4.05513   4.06558   4.07104   4.07537
 Alpha virt. eigenvalues --    4.08435   4.09463   4.10424   4.11122   4.12004
 Alpha virt. eigenvalues --    4.13331   4.14726   4.14992   4.15619   4.16949
 Alpha virt. eigenvalues --    4.17036   4.17491   4.18852   4.19598   4.20388
 Alpha virt. eigenvalues --    4.21320   4.22226   4.24285   4.26867   4.27209
 Alpha virt. eigenvalues --    4.27965   4.28375   4.29517   4.31563   4.32191
 Alpha virt. eigenvalues --    4.33296   4.34677   4.36424   4.36861   4.38320
 Alpha virt. eigenvalues --    4.39650   4.43511   4.44883   4.48617   4.55305
 Alpha virt. eigenvalues --    4.58283   4.58764   4.75088   4.76696   4.82529
 Alpha virt. eigenvalues --    4.84058   4.92714   4.96340   4.99055   5.00665
 Alpha virt. eigenvalues --    5.02775   5.06871   5.08348   5.12179   5.13199
 Alpha virt. eigenvalues --    5.13746   5.14781   5.18127   5.30725   5.38181
 Alpha virt. eigenvalues --    5.38999   5.58705   5.59278   5.65499   5.85682
 Alpha virt. eigenvalues --    5.91385   6.04684   7.02246   7.05236   7.05561
 Alpha virt. eigenvalues --    7.07662   7.09566   7.12158   7.16252   7.18587
 Alpha virt. eigenvalues --    7.28175   7.35985   7.39120   7.44174   7.54312
 Alpha virt. eigenvalues --    7.55413   7.63103  23.95532  23.99017  24.04897
 Alpha virt. eigenvalues --   24.07483  24.10696  24.11833  24.13626  24.14298
 Alpha virt. eigenvalues --   24.16409  24.21663  50.17910  50.18797  50.24385
          Condensed to atoms (all electrons):
               1          2          3          4          5          6
     1  C    7.389438  -0.008258  -0.994879   0.110195  -0.065508  -1.152599
     2  C   -0.008258   5.994555   0.470968  -0.274194  -0.268964  -0.003794
     3  C   -0.994879   0.470968   7.041965  -0.472732  -0.266512   0.233799
     4  C    0.110195  -0.274194  -0.472732   5.826939   0.270040  -0.017301
     5  C   -0.065508  -0.268964  -0.266512   0.270040   5.759527   0.016236
     6  C   -1.152599  -0.003794   0.233799  -0.017301   0.016236   6.757047
     7  C   -0.556545   0.021056   0.253119  -0.010411  -0.025300   0.325633
     8  C    0.134827   0.000898  -0.002177  -0.000858  -0.002265  -0.178596
     9  O    0.036278  -0.000000  -0.010247   0.000635   0.000221  -0.035967
    10  C    0.259572  -0.001277  -0.088128   0.002052  -0.002586  -0.186596
    11  O    0.160956   0.035310   0.347370  -0.017159  -0.031845  -0.210809
    12  C    0.124682  -0.265975  -1.021623  -0.065189   0.238038   0.005264
    13  O   -0.020530   0.001534   0.339344   0.007399  -0.105665   0.023320
    14  H    0.544186  -0.001823  -0.041360   0.002925  -0.004232  -0.064017
    15  H   -0.002393   0.478194  -0.010463  -0.089893  -0.052763   0.001206
    16  H    0.003309   0.480818   0.032931  -0.047822  -0.069730  -0.001299
    17  H   -0.027607   0.048762   0.476045  -0.085476  -0.025887   0.047302
    18  H    0.003908  -0.018952   0.024827   0.442551  -0.002882  -0.002653
    19  H   -0.006464  -0.090485  -0.034980   0.474793  -0.000294   0.005038
    20  H    0.002634  -0.078304   0.004770   0.011466   0.473009  -0.002006
    21  H   -0.002969  -0.053119   0.014358   0.007553   0.450286   0.001329
    22  H   -0.032563   0.000082   0.004342   0.000525   0.000941   0.416479
    23  H    0.022440   0.000499  -0.022935   0.000006  -0.002057   0.473045
    24  H   -0.102902  -0.003289   0.016082   0.001870   0.002114   0.036817
    25  H    0.158880  -0.002894  -0.060177   0.003453  -0.003940  -0.154089
    26  H    0.043468   0.000121  -0.003710   0.000018   0.000356  -0.017705
    27  H    0.004733  -0.000003  -0.001744  -0.000027  -0.000072   0.005664
    28  H    0.002764  -0.000112  -0.000282   0.000107  -0.000024  -0.039919
    29  H   -0.024924   0.000176  -0.006602  -0.000161   0.000020  -0.006196
    30  H    0.001138   0.004450  -0.024932  -0.021045  -0.051332  -0.001810
    31  H    0.002113  -0.003318  -0.014158   0.015805  -0.006708  -0.003695
               7          8          9         10         11         12
     1  C   -0.556545   0.134827   0.036278   0.259572   0.160956   0.124682
     2  C    0.021056   0.000898  -0.000000  -0.001277   0.035310  -0.265975
     3  C    0.253119  -0.002177  -0.010247  -0.088128   0.347370  -1.021623
     4  C   -0.010411  -0.000858   0.000635   0.002052  -0.017159  -0.065189
     5  C   -0.025300  -0.002265   0.000221  -0.002586  -0.031845   0.238038
     6  C    0.325633  -0.178596  -0.035967  -0.186596  -0.210809   0.005264
     7  C    5.992217  -0.153630   0.177161  -0.100380   0.018020  -0.180326
     8  C   -0.153630   5.390920   0.076690   0.099218   0.011269  -0.011721
     9  O    0.177161   0.076690   8.350641  -0.028145   0.005827   0.000658
    10  C   -0.100380   0.099218  -0.028145   5.567549  -0.009262   0.024383
    11  O    0.018020   0.011269   0.005827  -0.009262   8.383505  -0.237904
    12  C   -0.180326  -0.011721   0.000658   0.024383  -0.237904   6.986139
    13  O   -0.067833  -0.000876  -0.000561  -0.003044  -0.037784   0.016767
    14  H   -0.082392   0.007221  -0.010902   0.013249  -0.044269   0.003624
    15  H   -0.002807  -0.000018  -0.000001  -0.000099  -0.000326   0.051820
    16  H    0.002632   0.000027  -0.000015   0.000103   0.001040  -0.036846
    17  H   -0.024347  -0.000725   0.001421  -0.006392  -0.035511  -0.032841
    18  H    0.007451  -0.000054   0.000110   0.000094   0.000382  -0.036083
    19  H   -0.002311  -0.000432  -0.000011   0.000936   0.009025   0.043717
    20  H    0.006828   0.000142   0.000044   0.000311   0.002018  -0.050709
    21  H   -0.002651  -0.000042   0.000010   0.000028  -0.003765  -0.043430
    22  H    0.015759   0.006641  -0.001615  -0.018908  -0.005796  -0.002500
    23  H   -0.037381  -0.013422   0.000570  -0.041848  -0.001084  -0.008528
    24  H    0.464942   0.002047  -0.060758   0.004665  -0.002663  -0.012627
    25  H    0.347947   0.005236  -0.049107   0.039200  -0.002133   0.043836
    26  H   -0.043794   0.470149  -0.034264  -0.040777   0.000717  -0.000438
    27  H    0.011588   0.435250  -0.073912  -0.044720   0.000550  -0.000326
    28  H   -0.000162  -0.036656   0.006994   0.430011  -0.004314   0.000536
    29  H    0.000408  -0.083157  -0.004528   0.502160  -0.000114   0.000808
    30  H    0.000480   0.000570   0.000074  -0.001698  -0.008274   0.473608
    31  H    0.006108  -0.000333   0.000063   0.000645  -0.001762   0.378323
              13         14         15         16         17         18
     1  C   -0.020530   0.544186  -0.002393   0.003309  -0.027607   0.003908
     2  C    0.001534  -0.001823   0.478194   0.480818   0.048762  -0.018952
     3  C    0.339344  -0.041360  -0.010463   0.032931   0.476045   0.024827
     4  C    0.007399   0.002925  -0.089893  -0.047822  -0.085476   0.442551
     5  C   -0.105665  -0.004232  -0.052763  -0.069730  -0.025887  -0.002882
     6  C    0.023320  -0.064017   0.001206  -0.001299   0.047302  -0.002653
     7  C   -0.067833  -0.082392  -0.002807   0.002632  -0.024347   0.007451
     8  C   -0.000876   0.007221  -0.000018   0.000027  -0.000725  -0.000054
     9  O   -0.000561  -0.010902  -0.000001  -0.000015   0.001421   0.000110
    10  C   -0.003044   0.013249  -0.000099   0.000103  -0.006392   0.000094
    11  O   -0.037784  -0.044269  -0.000326   0.001040  -0.035511   0.000382
    12  C    0.016767   0.003624   0.051820  -0.036846  -0.032841  -0.036083
    13  O    8.303555  -0.002839  -0.010195   0.011000  -0.106892  -0.066325
    14  H   -0.002839   0.441552  -0.000560   0.000436   0.000198   0.001199
    15  H   -0.010195  -0.000560   0.513777  -0.022774   0.007790  -0.012164
    16  H    0.011000   0.000436  -0.022774   0.503611  -0.002204   0.000061
    17  H   -0.106892   0.000198   0.007790  -0.002204   0.560656  -0.004150
    18  H   -0.066325   0.001199  -0.012164   0.000061  -0.004150   0.471190
    19  H   -0.027464  -0.003240   0.006533  -0.002492   0.000080  -0.007346
    20  H    0.012864   0.000400  -0.015460   0.007398  -0.019607  -0.000235
    21  H   -0.005626  -0.000078   0.001497  -0.007822   0.002432  -0.000817
    22  H   -0.000657  -0.006613  -0.000014   0.000018  -0.000650   0.000157
    23  H    0.000680   0.006850   0.000003   0.000054   0.003915   0.000006
    24  H    0.005418  -0.004442   0.000062   0.000159  -0.014335  -0.001456
    25  H    0.002907   0.000962  -0.000504   0.000072  -0.021191   0.000303
    26  H   -0.000127   0.000223   0.000007  -0.000012   0.001099   0.000008
    27  H   -0.000016  -0.000875   0.000001   0.000002   0.000054  -0.000005
    28  H    0.000029  -0.002053  -0.000003   0.000007  -0.000354   0.000001
    29  H    0.000221  -0.003621   0.000016  -0.000025   0.000465  -0.000042
    30  H    0.000508   0.000369  -0.003119   0.000646  -0.002652  -0.001925
    31  H    0.009142   0.000688  -0.000538   0.000483  -0.020946   0.001609
              19         20         21         22         23         24
     1  C   -0.006464   0.002634  -0.002969  -0.032563   0.022440  -0.102902
     2  C   -0.090485  -0.078304  -0.053119   0.000082   0.000499  -0.003289
     3  C   -0.034980   0.004770   0.014358   0.004342  -0.022935   0.016082
     4  C    0.474793   0.011466   0.007553   0.000525   0.000006   0.001870
     5  C   -0.000294   0.473009   0.450286   0.000941  -0.002057   0.002114
     6  C    0.005038  -0.002006   0.001329   0.416479   0.473045   0.036817
     7  C   -0.002311   0.006828  -0.002651   0.015759  -0.037381   0.464942
     8  C   -0.000432   0.000142  -0.000042   0.006641  -0.013422   0.002047
     9  O   -0.000011   0.000044   0.000010  -0.001615   0.000570  -0.060758
    10  C    0.000936   0.000311   0.000028  -0.018908  -0.041848   0.004665
    11  O    0.009025   0.002018  -0.003765  -0.005796  -0.001084  -0.002663
    12  C    0.043717  -0.050709  -0.043430  -0.002500  -0.008528  -0.012627
    13  O   -0.027464   0.012864  -0.005626  -0.000657   0.000680   0.005418
    14  H   -0.003240   0.000400  -0.000078  -0.006613   0.006850  -0.004442
    15  H    0.006533  -0.015460   0.001497  -0.000014   0.000003   0.000062
    16  H   -0.002492   0.007398  -0.007822   0.000018   0.000054   0.000159
    17  H    0.000080  -0.019607   0.002432  -0.000650   0.003915  -0.014335
    18  H   -0.007346  -0.000235  -0.000817   0.000157   0.000006  -0.001456
    19  H    0.488458   0.000680  -0.000779  -0.000222  -0.000251   0.000594
    20  H    0.000680   0.496405  -0.014730   0.000027  -0.000084   0.000288
    21  H   -0.000779  -0.014730   0.477799  -0.000088  -0.000063   0.000156
    22  H   -0.000222   0.000027  -0.000088   0.479386  -0.015644  -0.000713
    23  H   -0.000251  -0.000084  -0.000063  -0.015644   0.449778  -0.001061
    24  H    0.000594   0.000288   0.000156  -0.000713  -0.001061   0.464008
    25  H    0.000213   0.001829  -0.000199  -0.002186  -0.004687  -0.026658
    26  H   -0.000015  -0.000010   0.000014  -0.000584  -0.003338  -0.004095
    27  H   -0.000010  -0.000003  -0.000002   0.000697  -0.001085   0.002758
    28  H    0.000023   0.000001  -0.000002  -0.008017  -0.004537   0.002065
    29  H    0.000086  -0.000025   0.000011  -0.007195   0.002516  -0.001174
    30  H   -0.008357   0.004419  -0.004968  -0.000305   0.000502  -0.000208
    31  H   -0.000270   0.002267  -0.010726   0.000292  -0.000440   0.000169
              25         26         27         28         29         30
     1  C    0.158880   0.043468   0.004733   0.002764  -0.024924   0.001138
     2  C   -0.002894   0.000121  -0.000003  -0.000112   0.000176   0.004450
     3  C   -0.060177  -0.003710  -0.001744  -0.000282  -0.006602  -0.024932
     4  C    0.003453   0.000018  -0.000027   0.000107  -0.000161  -0.021045
     5  C   -0.003940   0.000356  -0.000072  -0.000024   0.000020  -0.051332
     6  C   -0.154089  -0.017705   0.005664  -0.039919  -0.006196  -0.001810
     7  C    0.347947  -0.043794   0.011588  -0.000162   0.000408   0.000480
     8  C    0.005236   0.470149   0.435250  -0.036656  -0.083157   0.000570
     9  O   -0.049107  -0.034264  -0.073912   0.006994  -0.004528   0.000074
    10  C    0.039200  -0.040777  -0.044720   0.430011   0.502160  -0.001698
    11  O   -0.002133   0.000717   0.000550  -0.004314  -0.000114  -0.008274
    12  C    0.043836  -0.000438  -0.000326   0.000536   0.000808   0.473608
    13  O    0.002907  -0.000127  -0.000016   0.000029   0.000221   0.000508
    14  H    0.000962   0.000223  -0.000875  -0.002053  -0.003621   0.000369
    15  H   -0.000504   0.000007   0.000001  -0.000003   0.000016  -0.003119
    16  H    0.000072  -0.000012   0.000002   0.000007  -0.000025   0.000646
    17  H   -0.021191   0.001099   0.000054  -0.000354   0.000465  -0.002652
    18  H    0.000303   0.000008  -0.000005   0.000001  -0.000042  -0.001925
    19  H    0.000213  -0.000015  -0.000010   0.000023   0.000086  -0.008357
    20  H    0.001829  -0.000010  -0.000003   0.000001  -0.000025   0.004419
    21  H   -0.000199   0.000014  -0.000002  -0.000002   0.000011  -0.004968
    22  H   -0.002186  -0.000584   0.000697  -0.008017  -0.007195  -0.000305
    23  H   -0.004687  -0.003338  -0.001085  -0.004537   0.002516   0.000502
    24  H   -0.026658  -0.004095   0.002758   0.002065  -0.001174  -0.000208
    25  H    0.502594   0.001573  -0.000127  -0.000612  -0.000540   0.000815
    26  H    0.001573   0.490806  -0.004187   0.003713   0.001934  -0.000028
    27  H   -0.000127  -0.004187   0.470878  -0.008204  -0.002513  -0.000001
    28  H   -0.000612   0.003713  -0.008204   0.494758  -0.008671  -0.000054
    29  H   -0.000540   0.001934  -0.002513  -0.008671   0.472388  -0.000009
    30  H    0.000815  -0.000028  -0.000001  -0.000054  -0.000009   0.446271
    31  H    0.000881  -0.000087   0.000008   0.000055  -0.000003  -0.009002
              31
     1  C    0.002113
     2  C   -0.003318
     3  C   -0.014158
     4  C    0.015805
     5  C   -0.006708
     6  C   -0.003695
     7  C    0.006108
     8  C   -0.000333
     9  O    0.000063
    10  C    0.000645
    11  O   -0.001762
    12  C    0.378323
    13  O    0.009142
    14  H    0.000688
    15  H   -0.000538
    16  H    0.000483
    17  H   -0.020946
    18  H    0.001609
    19  H   -0.000270
    20  H    0.002267
    21  H   -0.010726
    22  H    0.000292
    23  H   -0.000440
    24  H    0.000169
    25  H    0.000881
    26  H   -0.000087
    27  H    0.000008
    28  H    0.000055
    29  H   -0.000003
    30  H   -0.009002
    31  H    0.479269
 Mulliken charges:
               1
     1  C   -0.007380
     2  C   -0.462662
     3  C   -0.182278
     4  C   -0.076066
     5  C   -0.222221
     6  C   -0.269126
     7  C   -0.361079
     8  C   -0.156144
     9  O   -0.347363
    10  C   -0.370321
    11  O   -0.321213
    12  C   -0.385136
    13  O   -0.278251
    14  H    0.249235
    15  H    0.163190
    16  H    0.146233
    17  H    0.281549
    18  H    0.201232
    19  H    0.155246
    20  H    0.153374
    21  H    0.196403
    22  H    0.178926
    23  H    0.197581
    24  H    0.232167
    25  H    0.218344
    26  H    0.138966
    27  H    0.205650
    28  H    0.172915
    29  H    0.168291
    30  H    0.205871
    31  H    0.174065
 Sum of Mulliken charges =  -0.00000
 Mulliken charges with hydrogens summed into heavy atoms:
               1
     1  C    0.241855
     2  C   -0.153238
     3  C    0.099270
     4  C    0.280412
     5  C    0.127555
     6  C    0.107381
     7  C    0.089433
     8  C    0.188472
     9  O   -0.347363
    10  C   -0.029115
    11  O   -0.321213
    12  C   -0.005199
    13  O   -0.278251
 Electronic spatial extent (au):  <R**2>=           3286.2414
 Charge=              0.0000 electrons
 Dipole moment (field-independent basis, Debye):
    X=              0.8496    Y=              2.2222    Z=             -0.6897  Tot=              2.4771
 Quadrupole moment (field-independent basis, Debye-Ang):
   XX=            -68.1989   YY=            -85.8507   ZZ=            -77.2215
   XY=             -4.8776   XZ=              0.9751   YZ=             -1.8398
 Traceless Quadrupole moment (field-independent basis, Debye-Ang):
   XX=              8.8914   YY=             -8.7603   ZZ=             -0.1311
   XY=             -4.8776   XZ=              0.9751   YZ=             -1.8398
 Octapole moment (field-independent basis, Debye-Ang**2):
  XXX=             -6.8906  YYY=              1.7682  ZZZ=              0.3229  XYY=             10.3861
  XXY=             18.7061  XXZ=              5.4371  XZZ=              0.8371  YZZ=             -1.5536
  YYZ=              1.8954  XYZ=             -1.5095
 Hexadecapole moment (field-independent basis, Debye-Ang**3):
 XXXX=          -3355.3164 YYYY=           -502.7726 ZZZZ=           -324.9301 XXXY=            -32.2488
 XXXZ=             26.2455 YYYX=            -19.4453 YYYZ=             -5.4553 ZZZX=              8.1108
 ZZZY=             -1.0462 XXYY=           -694.0547 XXZZ=           -642.4363 YYZZ=           -133.5487
 XXYZ=            -11.5776 YYXZ=              0.0623 ZZXY=             -2.6784
 N-N= 8.847549068709D+02 E-N=-3.211395664753D+03  KE= 6.153338107594D+02
 D1PCM: PCM CHGder 1st derivatives, ID1Alg=3 FixD1E=F DoIter=F DoCFld=F I1PDM=0.
 Calling FoFJK, ICntrl=      2127 FMM=F ISym2X=0 I1Cent= 0 IOpClX= 0 NMat=1 NMatS=1 NMatT=0.
 ***** Axes restored to original set *****
 -------------------------------------------------------------------
 Center     Atomic                   Forces (Hartrees/Bohr)
 Number     Number              X              Y              Z
 -------------------------------------------------------------------
      1        6          -0.002001782   -0.000348789    0.008659395
      2        6           0.001460109    0.000819119    0.000567984
      3        6          -0.003127661    0.000512988   -0.008741317
      4        6          -0.000537329    0.003366274    0.004479532
      5        6           0.001947552   -0.000310387   -0.002986613
      6        6           0.001748109   -0.004126692   -0.003179543
      7        6           0.004117920    0.003681994   -0.005535971
      8        6          -0.005232388    0.002540819   -0.003889206
      9        8           0.001788499   -0.008985538   -0.001566235
     10        6          -0.001464431    0.000498488    0.002315901
     11        8          -0.000604026    0.013552599   -0.000752955
     12        6          -0.000459869   -0.002565415    0.001619148
     13        8           0.003150078   -0.010575208    0.003651615
     14        1           0.001724960   -0.003639549   -0.004811818
     15        1          -0.001169391   -0.002189677    0.000964262
     16        1          -0.001803867    0.001831000   -0.001617210
     17        1           0.002561507   -0.003304315    0.007699518
     18        1          -0.000705316   -0.003667679   -0.002049302
     19        1           0.000919900    0.004469486   -0.003970521
     20        1           0.000875128   -0.002031677    0.002252428
     21        1          -0.001790855    0.001683370    0.000408886
     22        1          -0.001130678    0.001752506   -0.002164900
     23        1          -0.000956242    0.001145128    0.003605538
     24        1          -0.005041120   -0.003800667   -0.000603823
     25        1          -0.001286667    0.004364970    0.005643641
     26        1           0.000029834    0.003421771    0.005169712
     27        1           0.003766482   -0.002085424   -0.000764919
     28        1           0.001882949    0.002343071    0.000089166
     29        1           0.000153636   -0.001769606   -0.002695016
     30        1           0.000491376    0.001435061   -0.003867716
     31        1           0.000693584    0.001981979    0.002070340
 -------------------------------------------------------------------
 Cartesian Forces:  Max     0.013552599 RMS     0.003592326

 GradGradGradGradGradGradGradGradGradGradGradGradGradGradGradGradGradGrad
 Berny optimization.
 FormGI is forming the generalized inverse of G from B-inverse, IUseBI=4.
 Internal  Forces:  Max     0.017443065 RMS     0.002247562
 Search for a local minimum.
 Step number   1 out of a maximum of  186
 All quantities printed in internal units (Hartrees-Bohrs-Radians)
 Mixed Optimization -- RFO/linear search
 Second derivative matrix not updated -- first step.
 ITU=  0
     Eigenvalues ---    0.00392   0.00652   0.00685   0.00721   0.01421
     Eigenvalues ---    0.01445   0.01729   0.02702   0.02785   0.03122
     Eigenvalues ---    0.03206   0.04091   0.04131   0.04634   0.04672
     Eigenvalues ---    0.04861   0.04882   0.05096   0.05109   0.05163
     Eigenvalues ---    0.05191   0.05641   0.05674   0.05937   0.06023
     Eigenvalues ---    0.06222   0.06564   0.06659   0.07671   0.07884
     Eigenvalues ---    0.07908   0.07915   0.07953   0.07975   0.08078
     Eigenvalues ---    0.09242   0.09250   0.09648   0.10729   0.11578
     Eigenvalues ---    0.11600   0.11689   0.11697   0.12479   0.12627
     Eigenvalues ---    0.14531   0.15799   0.16445   0.17287   0.19247
     Eigenvalues ---    0.20520   0.21306   0.22415   0.25000   0.27365
     Eigenvalues ---    0.27542   0.28122   0.28776   0.28780   0.29135
     Eigenvalues ---    0.29539   0.30064   0.35101   0.35110   0.35166
     Eigenvalues ---    0.35201   0.35234   0.35253   0.35300   0.35313
     Eigenvalues ---    0.35316   0.35370   0.35396   0.35450   0.35489
     Eigenvalues ---    0.35498   0.35835   0.35915   0.36060   0.36204
     Eigenvalues ---    0.40054   0.41432   0.42058   0.42175   0.42763
     Eigenvalues ---    0.460901000.000001000.000001000.000001000.00000
     Eigenvalues --- 1000.000001000.000001000.000001000.000001000.00000
     Eigenvalues --- 1000.000001000.000001000.000001000.000001000.00000
     Eigenvalues --- 1000.000001000.000001000.000001000.000001000.00000
     Eigenvalues --- 1000.000001000.000001000.000001000.000001000.00000
     Eigenvalues --- 1000.000001000.000001000.000001000.000001000.00000
     Eigenvalues --- 1000.000001000.000001000.000001000.000001000.00000
     Eigenvalues --- 1000.000001000.000001000.000001000.000001000.00000
     Eigenvalues --- 1000.000001000.000001000.000001000.000001000.00000
     Eigenvalues --- 1000.000001000.000001000.000001000.000001000.00000
     Eigenvalues --- 1000.000001000.000001000.000001000.000001000.00000
     Eigenvalues --- 1000.000001000.000001000.000001000.000001000.00000
     Eigenvalues --- 1000.000001000.000001000.000001000.000001000.00000
     Eigenvalues --- 1000.000001000.000001000.000001000.000001000.00000
     Eigenvalues --- 1000.000001000.000001000.000001000.000001000.00000
     Eigenvalues --- 1000.000001000.000001000.000001000.000001000.00000
     Eigenvalues --- 1000.000001000.000001000.000001000.000001000.00000
     Eigenvalues --- 1000.000001000.000001000.000001000.000001000.00000
     Eigenvalues --- 1000.000001000.000001000.000001000.000001000.00000
     Eigenvalues --- 1000.000001000.000001000.000001000.000001000.00000
 RFO step:  Lambda=-3.81473320D-03 EMin= 3.91874112D-03
 Linear search not attempted -- first point.
 Iteration  1 RMS(Cart)=  0.06434594 RMS(Int)=  0.00092946
 Iteration  2 RMS(Cart)=  0.00275595 RMS(Int)=  0.00005379
 Iteration  3 RMS(Cart)=  0.00000202 RMS(Int)=  0.00005378
 Iteration  4 RMS(Cart)=  0.00000000 RMS(Int)=  0.00005378
 Iteration  1 RMS(Cart)=  0.00002068 RMS(Int)=  0.00000481
 Iteration  2 RMS(Cart)=  0.00001146 RMS(Int)=  0.00000537
 Iteration  3 RMS(Cart)=  0.00000635 RMS(Int)=  0.00000608
 Iteration  4 RMS(Cart)=  0.00000352 RMS(Int)=  0.00000655
 Iteration  5 RMS(Cart)=  0.00000195 RMS(Int)=  0.00000684
 Iteration  6 RMS(Cart)=  0.00000108 RMS(Int)=  0.00000700
 Iteration  7 RMS(Cart)=  0.00000060 RMS(Int)=  0.00000709
 Variable       Old X    -DE/DX   Delta X   Delta X   Delta X     New X
                                 (Linear)    (Quad)   (Total)
    R1        2.88060  -0.00203   0.00000  -0.00673  -0.00677   2.87383
    R2        2.89341  -0.00169   0.00000  -0.00483  -0.00483   2.88858
    R3        2.68849   0.00036   0.00000   0.00086   0.00086   2.68934
    R4        2.05037   0.00602   0.00000   0.01682   0.01682   2.06718
    R5        2.89076   0.00101   0.00000   0.00293   0.00295   2.89372
    R6        2.90937  -0.00036   0.00000  -0.00240  -0.00235   2.90702
    R7        2.05078   0.00265   0.00000   0.00742   0.00742   2.05820
    R8        2.05266   0.00301   0.00000   0.00843   0.00843   2.06110
    R9        2.64030   0.00203   0.00000   0.00437   0.00437   2.64466
   R10        2.88145  -0.00113   0.00000  -0.00239  -0.00240   2.87905
   R11        2.65691   0.00379   0.00000   0.00956   0.00953   2.66644
   R12        2.03763   0.00871   0.00000   0.02380   0.02380   2.06143
   R13        2.68147   0.00332   0.00000   0.00749   0.00747   2.68894
   R14        2.04214   0.00425   0.00000   0.01172   0.01172   2.05386
   R15        2.04875   0.00600   0.00000   0.01673   0.01673   2.06547
   R16        2.88639  -0.00044   0.00000  -0.00253  -0.00253   2.88385
   R17        2.05297   0.00307   0.00000   0.00863   0.00863   2.06159
   R18        2.04950   0.00249   0.00000   0.00695   0.00695   2.05645
   R19        2.89035  -0.00075   0.00000  -0.00238  -0.00241   2.88794
   R20        2.05169   0.00294   0.00000   0.00825   0.00825   2.05994
   R21        2.05496   0.00377   0.00000   0.01063   0.01063   2.06559
   R22        2.66745   0.00326   0.00000   0.00722   0.00724   2.67469
   R23        2.03988   0.00610   0.00000   0.01673   0.01673   2.05660
   R24        2.05350   0.00699   0.00000   0.01966   0.01966   2.07316
   R25        2.67649   0.00371   0.00000   0.00862   0.00866   2.68516
   R26        2.87071   0.00093   0.00000   0.00224   0.00224   2.87295
   R27        2.05512   0.00608   0.00000   0.01715   0.01715   2.07227
   R28        2.04340   0.00437   0.00000   0.01207   0.01207   2.05547
   R29        2.05191   0.00298   0.00000   0.00836   0.00836   2.06027
   R30        2.05407   0.00316   0.00000   0.00889   0.00889   2.06296
   R31        2.05165   0.00396   0.00000   0.01110   0.01110   2.06275
   R32        2.04889   0.00294   0.00000   0.00820   0.00820   2.05709
    A1        1.89820   0.00138   0.00000   0.00207   0.00207   1.90027
    A2        1.87577   0.00055   0.00000   0.00783   0.00782   1.88358
    A3        1.92017  -0.00074   0.00000  -0.00122  -0.00129   1.91888
    A4        2.00818  -0.00198   0.00000  -0.01709  -0.01707   1.99112
    A5        1.88000  -0.00024   0.00000  -0.00567  -0.00562   1.87438
    A6        1.88094   0.00102   0.00000   0.01443   0.01436   1.89529
    A7        1.92464  -0.00003   0.00000  -0.00773  -0.00788   1.91676
    A8        1.92224  -0.00058   0.00000   0.00018   0.00020   1.92244
    A9        1.89370   0.00077   0.00000   0.00500   0.00503   1.89873
   A10        1.92125   0.00085   0.00000   0.00220   0.00226   1.92351
   A11        1.93123  -0.00112   0.00000  -0.00242  -0.00239   1.92884
   A12        1.86990   0.00010   0.00000   0.00314   0.00311   1.87300
   A13        1.88215  -0.00244   0.00000  -0.00960  -0.00960   1.87256
   A14        1.94088   0.00046   0.00000   0.00310   0.00323   1.94411
   A15        1.92720   0.00118   0.00000   0.00686   0.00685   1.93405
   A16        1.95288   0.00279   0.00000   0.00980   0.00967   1.96255
   A17        1.92533   0.00006   0.00000   0.00204   0.00213   1.92746
   A18        1.83593  -0.00194   0.00000  -0.01172  -0.01174   1.82419
   A19        1.92717   0.00127   0.00000   0.00173   0.00153   1.92870
   A20        1.95078  -0.00034   0.00000  -0.00328  -0.00320   1.94757
   A21        1.94046  -0.00096   0.00000  -0.00359  -0.00358   1.93688
   A22        1.85379  -0.00108   0.00000  -0.00049  -0.00044   1.85335
   A23        1.90733   0.00074   0.00000   0.00484   0.00493   1.91226
   A24        1.88154   0.00037   0.00000   0.00110   0.00107   1.88261
   A25        1.92152  -0.00067   0.00000  -0.00633  -0.00655   1.91497
   A26        1.91811   0.00056   0.00000   0.00154   0.00159   1.91971
   A27        1.93165  -0.00021   0.00000   0.00020   0.00025   1.93190
   A28        1.90358   0.00038   0.00000  -0.00069  -0.00063   1.90295
   A29        1.92487  -0.00011   0.00000   0.00102   0.00107   1.92594
   A30        1.86311   0.00010   0.00000   0.00462   0.00458   1.86769
   A31        1.92903   0.00072   0.00000  -0.00548  -0.00555   1.92348
   A32        1.91622  -0.00034   0.00000  -0.00198  -0.00192   1.91429
   A33        1.89094  -0.00097   0.00000  -0.00656  -0.00656   1.88438
   A34        1.93054   0.00047   0.00000   0.00681   0.00681   1.93735
   A35        1.91986  -0.00021   0.00000   0.00327   0.00325   1.92311
   A36        1.87610   0.00029   0.00000   0.00393   0.00388   1.87998
   A37        1.90297   0.00107   0.00000   0.00949   0.00956   1.91253
   A38        1.95868  -0.00096   0.00000  -0.01274  -0.01286   1.94582
   A39        1.93610  -0.00236   0.00000  -0.01621  -0.01632   1.91978
   A40        1.85435   0.00001   0.00000   0.01004   0.01007   1.86442
   A41        1.90897   0.00158   0.00000   0.01076   0.01081   1.91977
   A42        1.90062   0.00085   0.00000   0.00042   0.00015   1.90077
   A43        1.93095   0.00170   0.00000   0.01054   0.01056   1.94151
   A44        1.90170   0.00085   0.00000   0.00662   0.00666   1.90835
   A45        1.85534  -0.00126   0.00000  -0.00444  -0.00444   1.85090
   A46        1.93247  -0.00145   0.00000  -0.00998  -0.01001   1.92246
   A47        1.94847  -0.00037   0.00000  -0.00333  -0.00335   1.94512
   A48        1.89259   0.00055   0.00000   0.00096   0.00092   1.89352
   A49        1.98424  -0.00403   0.00000  -0.02737  -0.02728   1.95696
   A50        1.92390  -0.00107   0.00000  -0.00596  -0.00599   1.91791
   A51        1.92796  -0.00045   0.00000  -0.00063  -0.00062   1.92733
   A52        1.91915   0.00099   0.00000   0.00199   0.00200   1.92114
   A53        1.91158   0.00090   0.00000   0.00458   0.00461   1.91619
   A54        1.90527  -0.00027   0.00000  -0.00258  -0.00259   1.90268
   A55        1.87523  -0.00006   0.00000   0.00281   0.00281   1.87804
   A56        2.12562  -0.01744   0.00000  -0.06872  -0.06872   2.05690
   A57        1.91532   0.00008   0.00000  -0.00627  -0.00636   1.90895
   A58        1.90889  -0.00048   0.00000  -0.00871  -0.00869   1.90020
   A59        1.89575  -0.00017   0.00000   0.00371   0.00375   1.89949
   A60        1.92142   0.00013   0.00000   0.00312   0.00302   1.92444
   A61        1.94846   0.00027   0.00000   0.00465   0.00473   1.95319
   A62        1.87316   0.00015   0.00000   0.00344   0.00341   1.87657
   A63        2.00930  -0.00559   0.00000  -0.03416  -0.03423   1.97506
    D1        0.95151  -0.00019   0.00000   0.00360   0.00361   0.95512
    D2        3.08588   0.00065   0.00000   0.00721   0.00721   3.09309
    D3       -1.15317   0.00025   0.00000   0.00705   0.00705  -1.14612
    D4        3.13599  -0.00142   0.00000  -0.01108  -0.01107   3.12493
    D5       -1.01282  -0.00058   0.00000  -0.00748  -0.00747  -1.02029
    D6        1.03132  -0.00098   0.00000  -0.00764  -0.00763   1.02369
    D7       -1.10379  -0.00028   0.00000   0.00994   0.00994  -1.09385
[...]
 298,-0.00695253,-0.00362846,0.00026608,0.00012994,0.00004364,-0.001073
 28,0.00047208,0.00123851,-0.00007244,-0.00013770,0.00038957,0.00006691
 ,0.00006008,0.00037098,-0.00055634,0.00354297,-0.00270997,0.00000099,0
 .00000242,0.00000156,-0.00000174,-0.00000141,0.00000267,-0.00021528,-0
 .00022934,0.00104804,0.00003036,-0.00000244,0.00002611,0.00000745,-0.0
 0000499,0.00000340,-0.00000877,0.00000458,-0.00000200,-0.00000039,-0.0
 0000113,-0.00000088,-0.00022265,0.00018749,0.00047359,0.00055739,0.000
 85796,0.00042579,-0.00076403,0.00064986,0.00168684,0.00549372,0.106854
 06,0.27221279,-0.00049529,0.00020072,0.00018287,0.,-0.00000055,-0.0000
 0055,0.00004844,0.00001777,-0.00006200,0.00000052,0.00000349,0.0000007
 2,0.00000010,-0.00000139,0.00000100,0.00026145,-0.00076117,-0.00063714
 ,0.00392051,-0.00320278,-0.00421536,-0.05341097,0.00761215,0.00544288,
 -0.01243908,-0.02130451,-0.02418781,0.00105087,-0.00027621,-0.00407262
 ,-0.00009928,0.00027553,-0.00006612,-0.00000494,-0.00000173,0.00001067
 ,0.00000755,0.00000130,0.00000679,-0.00002393,-0.00001321,0.00020364,-
 0.00000007,0.00000004,-0.00000015,0.00000016,0.,0.00000003,-0.00000301
 ,-0.00000527,0.00002104,0.00000011,-0.00000001,0.00000097,-0.00000051,
 -0.00000032,0.00000009,-0.00000092,-0.00000010,0.00000037,0.00000001,-
 0.00000002,0.00000029,0.00005282,-0.00001557,0.00013509,0.00008866,0.0
 0013299,-0.00000725,0.00012971,0.00008191,0.00026124,0.00037523,0.0006
 3405,0.00090936,0.05709522,-0.00018545,-0.00026664,0.00057213,-0.00000
 212,0.00000388,-0.00000590,0.00020664,0.00008887,-0.00003305,0.0000432
 6,-0.00000065,0.00004739,-0.00000298,0.00001721,0.00000026,-0.00092684
 ,0.00131961,0.00014554,0.00415082,-0.00036721,-0.00047178,0.00454870,-
 0.08331735,-0.08432091,-0.01562007,-0.02006302,-0.02380056,0.00060647,
 0.00930245,0.02373939,-0.00030763,0.00027507,-0.00011684,-0.00001700,-
 0.00002221,-0.00001813,-0.00011727,-0.00005185,-0.00005605,0.00001966,
 -0.00008800,-0.00006524,-0.00000338,-0.00000304,-0.00000019,-0.0000068
 3,0.00000222,0.00000020,0.00000697,-0.00000495,-0.00003171,-0.00000637
 ,-0.00000386,-0.00000669,-0.00000283,0.00000594,-0.00000339,0.00000082
 ,-0.00000260,0.00000133,-0.00001035,-0.00000183,0.00000184,-0.00021927
 ,-0.00003640,-0.00027581,0.00000717,-0.00021089,-0.00044741,-0.0000256
 2,0.00009710,0.00039763,-0.00055118,0.00080839,0.00069622,0.00669066,0
 .09959743,0.00013458,-0.00005631,0.00015285,-0.00000082,0.00000285,-0.
 00000430,0.00014448,0.00012537,-0.00007899,0.00003492,-0.00000271,0.00
 003514,-0.00000344,0.00001762,0.00000092,0.00050081,-0.00118726,0.0008
 9529,0.00097288,0.00090416,0.00123291,0.00246421,-0.08537781,-0.261358
 82,-0.00560158,-0.00635249,0.00246036,0.00181670,-0.00839807,-0.023126
 06,-0.00044113,0.00004795,0.00004786,-0.00001890,-0.00002538,-0.000002
 49,-0.00008591,-0.00006490,-0.00003483,0.00014862,-0.00003137,-0.00008
 933,-0.00000290,-0.00000257,-0.00000010,-0.00000485,0.00000197,0.00000
 020,-0.00001121,-0.00000700,-0.00001248,-0.00000506,-0.00000316,-0.000
 00467,-0.00000101,0.00000428,-0.00000188,0.00000004,-0.00000244,0.0000
 0122,-0.00000956,-0.00000285,0.00000168,0.00011387,0.00028004,0.000350
 52,-0.00078569,0.00041263,0.00031034,-0.00019946,0.00019494,0.00037174
 ,-0.00129462,0.00031122,-0.00018365,0.00201295,0.09638394,0.28408157,0
 .00021109,-0.00055579,0.00068481,-0.00001010,0.00000910,-0.00001952,0.
 00031731,0.00010074,-0.00002140,0.00007920,0.00001056,0.00011271,-0.00
 000077,0.00002816,-0.00000237,0.00104332,0.00016897,-0.00036461,-0.000
 05709,-0.00511169,-0.00170369,-0.23608891,0.11527360,0.03447951,-0.032
 63523,0.00714677,0.00544703,-0.00054763,0.00251040,0.00014337,-0.00037
 528,0.00029839,-0.00007024,-0.00002259,-0.00003134,-0.00003047,-0.0002
 5401,-0.00005333,-0.00013433,-0.00001540,0.00002687,-0.00005455,-0.000
 00664,-0.00000563,0.00000025,-0.00001532,0.00000502,0.00000201,-0.0000
 0620,-0.00000412,-0.00006383,-0.00001236,-0.00000903,-0.00001227,-0.00
 000848,0.00001166,-0.00000948,0.00000176,-0.00000417,0.00000209,-0.000
 01843,-0.00000376,0.00000362,-0.00008933,0.00001777,0.00014805,-0.0000
 5236,0.00000264,0.00008004,-0.00128194,0.00063297,0.00009886,0.0001206
 0,0.00013736,0.00016180,0.00208713,0.00068429,0.00078979,0.26758617,-0
 .00091157,-0.00077146,0.00042475,-0.00000564,0.00000314,-0.00000793,-0
 .00002664,-0.00013417,0.00017354,0.00000593,0.00001242,0.00002705,0.00
 000588,-0.00000749,-0.00000306,-0.00091699,-0.00265730,0.00467533,-0.0
 0296290,-0.00297586,-0.00076695,0.12695786,-0.12485451,-0.02526205,-0.
 02961509,0.01161230,0.00506392,0.02002255,-0.01068373,-0.00536898,0.00
 026692,0.00038441,-0.00033347,0.00001501,0.00002547,-0.00004285,-0.000
 03541,0.00008847,-0.00005124,0.00005629,0.00008031,-0.00001413,-0.0000
 0034,-0.00000008,0.00000055,-0.00000405,0.00000072,0.00000147,-0.00000
 309,0.00001805,-0.00007206,-0.00000091,-0.00000160,-0.00000114,-0.0000
 0503,0.00000158,-0.00000521,0.00000098,0.00000046,-0.00000002,0.000001
 71,0.00000210,0.00000001,0.00173411,-0.00043872,0.00004925,-0.00041192
 ,0.00020603,-0.00003512,-0.00107889,0.00047891,0.00015974,-0.00003429,
 0.00008790,0.00024267,0.00971038,-0.00503029,-0.00111817,-0.12169111,0
 .13302441,0.00056878,0.00018614,-0.00003019,0.00000114,0.00000015,-0.0
 0000076,0.00007941,0.00010766,-0.00008242,0.00001521,-0.00000516,0.000
 00942,-0.00000232,0.00000851,0.00000160,0.00028373,0.00300268,-0.00302
 422,-0.00013440,0.00035143,0.00018876,0.03850612,-0.02433938,-0.059587
 75,-0.00210557,0.00092549,0.00103559,-0.02104766,0.01267135,0.00379751
 ,-0.00025456,-0.00007552,0.00015538,-0.00001257,-0.00001374,0.00000955
 ,-0.00002650,-0.00006503,0.00000373,-0.00006061,-0.00006146,0.00000915
 ,-0.00000109,-0.00000107,-0.00000016,-0.00000105,0.00000065,-0.0000002
 7,-0.00002843,-0.00000288,0.00001359,-0.00000250,-0.00000146,-0.000001
 69,0.00000119,0.00000161,0.00000084,0.00000012,-0.00000122,0.00000054,
 -0.00000453,-0.00000153,0.00000061,-0.00119850,0.00059941,0.00017897,-
 0.00016808,0.00020574,0.00021634,0.00015430,0.00003092,0.00033991,-0.0
 0033380,0.00028270,0.00035414,0.02442675,-0.01503354,-0.00337636,-0.03
 910698,0.02264382,0.05806832,-0.00141948,0.00553165,0.00054101,0.00000
 455,0.00000635,-0.00001210,0.00039783,0.00088676,-0.00080567,0.0001311
 3,-0.00001716,0.00012832,-0.00003056,0.00009923,0.00001395,-0.02210595
 ,-0.02188518,-0.00280978,-0.00008932,0.00067470,-0.00052728,0.00282433
 ,0.00317544,0.00143262,0.00156281,0.00121871,-0.00077199,-0.18049181,-
 0.13299753,-0.01994521,-0.00306916,-0.00135082,0.00127874,-0.00012918,
 -0.00017263,0.00012194,-0.00033852,-0.00040215,-0.00010291,0.00014975,
 -0.00002336,-0.00020166,-0.00001098,-0.00001042,-0.00000188,-0.0000166
 1,0.00000746,-0.00000105,-0.00001095,-0.00006695,0.00007812,-0.0000207
 3,-0.00001287,-0.00001791,0.00000009,0.00001914,-0.00000144,0.00000168
 ,-0.00000946,0.00000456,-0.00004790,-0.00001899,0.00000713,0.00120787,
 0.00000116,-0.00051104,0.00124213,-0.00007921,0.00034620,0.00008070,-0
 .00015759,0.00005121,0.00009692,-0.00002201,0.00010276,0.00028998,-0.0
 0028416,0.00026746,-0.00005774,-0.00048871,0.00058066,0.19771844,0.002
 20088,-0.00150149,-0.00013273,-0.00000428,-0.00000023,-0.00000213,0.00
 011361,-0.00022913,0.00024294,-0.00000956,0.00000802,-0.00000176,0.000
 01103,-0.00002113,-0.00000640,0.01230720,0.01235067,0.00143425,0.00174
 429,-0.00067999,-0.00038058,-0.01692663,-0.01338302,-0.00690643,-0.001
 66641,-0.00530382,0.00527817,-0.13349392,-0.17830653,-0.01797356,0.001
 21099,0.00055582,-0.00044672,0.00004145,0.00004058,-0.00005941,0.00001
 216,0.00009291,-0.00001609,0.00002398,0.00010054,0.00009127,0.00000129
 ,0.00000108,0.00000065,-0.00000020,-0.00000071,0.00000067,0.00000075,0
 .00001982,-0.00004577,0.00000254,0.00000149,0.00000071,-0.00000258,-0.
 00000190,-0.00000340,-0.00000024,0.00000132,-0.00000064,0.00000973,0.0
 0000500,-0.00000087,-0.00095293,0.00054148,0.00018188,-0.00079833,0.00
 052542,0.00003581,-0.00019407,0.00012165,-0.00000318,-0.00025394,0.000
 12242,0.00003952,0.00010799,0.00094258,0.00015627,0.00059622,0.0003470
 4,-0.00046406,0.14378852,0.19246112,0.00018495,-0.00047949,0.00053234,
 0.00000149,-0.00000111,0.00000322,-0.00004317,0.00007721,0.00005096,-0
 .00001103,-0.00000119,-0.00001719,-0.00000274,0.00000197,0.00000118,0.
 00353661,0.00252884,-0.00091142,-0.00133011,0.00032195,0.00014067,0.01
 768801,0.01294849,0.00371655,0.00138031,0.00601061,-0.00292453,-0.0214
 0358,-0.01970766,-0.05202189,0.00011553,-0.00012352,0.00026686,-0.0000
 0993,-0.00001596,0.00001200,0.00003996,0.00000894,0.00001473,0.0002409
 4,0.00045931,0.00009362,0.00000066,0.00000057,-0.00000015,0.00000220,-
 0.00000071,-0.00000057,-0.00000930,0.00000208,0.00001376,0.00000183,0.
 00000127,0.00000173,0.00000144,-0.00000199,0.00000129,-0.00000004,0.00
 000062,-0.00000018,0.00000043,-0.00000098,-0.00000025,-0.00023051,-0.0
 0028554,-0.00003477,-0.00012379,0.00045908,0.00027649,0.00014486,-0.00
 013361,-0.00001208,0.00006885,-0.00009924,-0.00003651,0.00012391,-0.00
 111979,0.00051016,-0.00043937,-0.00039579,0.00060247,0.02116477,0.0198
 7150,0.05173721,0.00120782,0.00083823,0.00126498,-0.00000044,-0.000000
 91,-0.00000094,0.00018366,0.00001116,-0.00013218,0.00001431,-0.0000032
 9,0.00001295,0.00000269,-0.00000310,-0.00000192,-0.00342982,0.01309853
 ,0.02874419,-0.00051034,0.00022868,0.00016887,-0.00101988,-0.00309333,
 -0.00596211,0.00065515,0.00034292,0.00080331,-0.05044395,0.00764211,0.
 01972430,-0.00030406,-0.00019199,-0.00063804,0.00001938,0.00001157,-0.
 00000977,-0.00005442,-0.00006115,0.00000451,-0.00036172,-0.00039710,-0
 .00030195,-0.00000099,-0.00000025,0.00000024,-0.00000126,0.00000099,-0
 .00000011,0.00000430,-0.00000283,0.00001861,-0.00000311,-0.00000152,-0
 .00000146,0.00000110,0.00000247,0.00000188,-0.00000009,-0.00000032,0.0
 0000026,-0.00000016,0.00000061,0.00000011,0.00136298,-0.00037947,-0.00
 056476,-0.00527242,0.00198116,0.00058271,0.00005653,-0.00007217,0.0000
 5033,-0.00005956,-0.00004882,-0.00018228,0.00106809,0.00133363,-0.0009
 2881,0.00013123,-0.00056936,-0.00012721,0.00214156,-0.00786784,-0.0211
 0012,0.05461215,-0.00088127,-0.00003784,0.00020219,0.00000104,-0.00000
 083,0.00000290,-0.00013020,-0.00004828,0.00014146,-0.00002804,0.000004
 40,-0.00002768,0.00000023,-0.00000782,0.00000056,0.00194126,-0.0073056
 2,-0.01319935,-0.00004799,-0.00007540,0.00014873,-0.00171873,0.0086474
 1,0.02556677,0.00123631,0.00203637,-0.00164501,0.00689558,-0.09089493,
 -0.09780228,0.00014548,0.00009774,0.00015310,0.00000607,0.00001075,-0.
 00000369,0.00008127,0.00006824,0.00000616,0.00008712,0.00048834,0.0001
 6074,0.00000203,0.00000161,0.00000016,0.00000365,-0.00000162,-0.000000
 05,-0.00000457,0.00000608,-0.00000770,0.00000417,0.00000269,0.00000336
 ,-0.00000055,-0.00000432,0.00000011,-0.00000009,0.00000150,-0.00000068
 ,0.00000576,0.00000149,-0.00000115,-0.00048078,0.00020162,0.00010509,0
 .00314855,-0.00008698,0.00001202,-0.00001709,0.00003998,-0.00006866,0.
 00004891,-0.00009815,-0.00006255,0.00011732,-0.00299528,0.00378505,-0.
 00020265,0.00117490,-0.00095156,0.00258387,-0.00881222,-0.02032326,-0.
 01279746,0.09758693,-0.00038933,-0.00028543,-0.00013403,0.00000110,-0.
 00000243,0.00000262,-0.00002743,0.00001397,0.00008532,-0.00001541,0.00
 000182,-0.00002114,-0.00000018,-0.00000502,-0.00000097,0.00065946,-0.0
 0106747,-0.00212758,-0.00021435,0.00023446,0.00008441,-0.00000356,-0.0
 0963594,-0.02410243,0.00071620,-0.00048987,0.00275272,0.02063372,-0.09
 567727,-0.26501582,0.00012645,0.00009496,0.00006649,0.00000666,0.00000
 275,-0.00000194,0.00006080,0.00004042,0.00001462,0.00038636,0.00037702
 ,0.00001364,0.00000108,0.00000135,0.00000015,0.00000250,-0.00000107,-0
 .00000012,-0.00001104,0.00000214,0.00000404,0.00000253,0.00000203,0.00
 000245,0.00000072,-0.00000352,0.00000168,0.00000011,0.00000098,-0.0000
 0035,0.00000348,0.00000083,-0.00000058,0.00039476,-0.00005930,0.000607
 38,0.00026593,-0.00015104,0.00111086,0.00003715,0.00001624,-0.00001193
 ,-0.00016061,-0.00016188,-0.00005679,-0.00049411,0.00381604,-0.0021831
 3,-0.00012863,0.00001353,0.00111389,-0.00042833,-0.00088432,-0.0020126
 4,-0.02142852,0.10380818,0.28981134,0.00011308,-0.00002278,-0.00005060
 ,0.00159711,0.00089879,0.00069057,-0.00613480,0.01329234,-0.02444082,0
 .00032753,-0.00002485,-0.00081419,0.00144790,-0.01762487,0.02594325,0.
 00003502,-0.00008561,0.00001481,0.00005549,0.00011310,-0.00022477,0.00
 002531,0.00008128,-0.00000100,-0.00013258,-0.00007156,0.00014048,0.000
 01746,0.00002577,-0.00000711,0.00196037,-0.00015551,-0.00077522,-0.047
 24406,0.00986055,-0.01492449,0.00036431,0.00034215,0.00141095,0.000057
 76,-0.00005216,-0.00001050,0.00007112,0.00033735,0.00004587,-0.0000488
 6,0.00027409,-0.00028784,-0.00330243,0.00283027,0.00144170,0.00000765,
 0.00001748,0.00007689,0.00030160,-0.00034689,0.00009894,-0.00501643,-0
 .00339132,0.00064891,0.00112645,0.00101080,-0.00020480,-0.00001549,-0.
 00000886,0.00000316,0.00000109,0.00000823,-0.00000216,-0.00001204,-0.0
 0012243,0.00001206,0.00001555,0.00004615,0.00012779,0.00000206,-0.0000
 0760,-0.00000281,-0.00001693,-0.00001648,0.00000069,0.00001378,-0.0000
 0900,0.00000427,0.00000051,-0.00000078,0.00000078,0.05534008,0.0000053
 3,0.00014591,-0.00027533,0.00029028,0.00053899,0.00048606,0.00252909,-
 0.01197381,0.02126611,0.00030852,-0.00083163,0.00088751,-0.00015078,-0
 .00978867,0.01316931,-0.00003861,0.00004311,-0.00000281,-0.00019416,-0
 .00003447,0.00025355,-0.00000478,-0.00003282,0.00000146,0.00003158,0.0
 0009315,-0.00014065,-0.00000248,-0.00002459,0.00000454,-0.00319515,0.0
 0125477,-0.00019195,0.01248458,-0.12502630,0.11604480,0.00032807,-0.00
 053571,-0.00187534,-0.00003298,0.00003804,0.00001030,0.00010142,0.0002
 4231,-0.00010910,-0.00022515,-0.00018832,-0.00022337,0.00227810,-0.001
 52321,-0.00082301,-0.00003020,0.00025504,-0.00020040,0.00017259,-0.000
 53385,-0.00096181,-0.00289248,-0.00068227,0.00047549,0.00006278,0.0005
 4232,-0.00042230,0.00000871,-0.00000132,0.00000019,-0.00000079,-0.0000
 0678,-0.00000120,-0.00000074,0.00006523,0.00001055,-0.00000259,-0.0000
 5736,-0.00008898,-0.00000380,0.00000235,0.00000088,0.00000569,0.000006
 64,-0.00000197,-0.00001133,0.00000503,-0.00000200,-0.00000060,0.000000
 48,-0.00000024,-0.01071979,0.13591662,0.00008587,-0.00023791,0.0004317
 3,0.00049830,-0.00073414,0.00066201,0.00001177,-0.00151431,0.00090746,
 -0.00015671,-0.00071318,-0.00081720,0.00065622,0.00236725,-0.00354055,
 0.00001187,0.00002303,0.00000403,0.00021752,-0.00002392,-0.00012143,0.
 00000058,0.00000040,0.00000740,-0.00000208,-0.00006121,0.00004823,-0.0
 0001612,-0.00000304,-0.00000292,0.00045586,-0.00089841,0.00091655,-0.0
 1750913,0.11883315,-0.23399310,-0.00000616,0.00050813,0.00010796,-0.00
 005965,0.00002334,0.00000340,-0.00000695,0.00005000,0.00004337,0.00012
 732,0.00068225,0.00009116,0.00034992,0.00029853,0.00089879,-0.00002452
 ,-0.00013961,0.00030087,-0.00019563,-0.00107864,-0.00015438,0.00084848
 ,-0.00015279,0.00113601,0.00028999,-0.00005107,0.00005796,-0.00000047,
 0.00000375,0.00000700,-0.00000202,0.00000085,-0.00000128,-0.00000634,-
 0.00002107,-0.00002612,0.00000594,0.00003104,-0.00000381,0.00000188,0.
 00000017,-0.00000058,-0.00000033,0.00000215,0.00000151,-0.00000328,-0.
 00000115,-0.00000154,0.00000108,-0.00000063,-0.00000095,0.01610063,-0.
 13034927,0.25280514,-0.00020272,-0.00052584,-0.00034280,-0.00458545,-0
 .00351532,0.00273488,0.00596957,0.01424336,0.02018160,-0.00174486,0.00
 019535,-0.00024616,-0.00502369,-0.01662829,-0.02408279,-0.00011943,0.0
 0013157,0.00003687,0.00002911,0.00002276,0.00004336,0.00001334,0.00001
 093,0.00001148,-0.00004901,0.00000766,-0.00002230,-0.00003296,-0.00006
 001,-0.00001200,-0.00059025,0.00013589,-0.00055402,-0.05765645,-0.0333
 6192,-0.04095079,-0.00183876,0.00553276,0.00162245,0.00008778,-0.00000
 675,-0.00000997,-0.00046952,-0.00113897,-0.00146300,-0.00005853,0.0000
 6555,-0.00022537,0.00111130,-0.00027138,-0.00004896,0.00018887,-0.0000
 4054,0.00003093,0.00015441,0.00014783,0.00007593,0.00121343,0.00044369
 ,0.00044036,0.00105399,0.00101057,-0.00025507,0.00000640,-0.00000151,0
 .00000326,0.00000420,-0.00000493,-0.00001640,0.00000808,-0.00002319,0.
 00000877,-0.00000681,-0.00001058,-0.00002249,-0.00000062,-0.00000214,-
 0.00000355,-0.00000506,0.00000075,-0.00000172,-0.00002467,0.00000732,0
 .00000268,0.00000078,0.00000160,0.00000173,-0.00095762,-0.00110033,-0.
 00167384,0.06352516,0.00010222,0.00024336,0.00007767,-0.00226406,-0.00
 048470,0.00137011,-0.00676414,-0.01343343,-0.01569724,0.00065627,0.000
 30356,0.00179857,-0.00217677,-0.00898881,-0.01113765,0.00007556,-0.000
 07930,-0.00003214,-0.00003559,-0.00001673,-0.00002198,-0.00001182,-0.0
 0001442,-0.00001246,0.00004954,0.00000332,0.00001880,0.00001554,0.0000
 4189,0.00000828,0.00062332,0.00006789,0.00028816,-0.03161937,-0.151110
 05,-0.12678652,0.00327454,-0.00456731,-0.00176422,-0.00003515,-0.00000
 530,0.00000237,-0.00019483,-0.00032845,-0.00075286,-0.00021646,-0.0001
 5326,-0.00016663,-0.00051356,0.00059203,0.00035912,-0.00003401,0.00005
 266,-0.00017141,0.00004452,0.00023099,-0.00019372,0.00057130,0.0001858
 5,0.00000595,0.00018886,0.00073285,0.00026617,-0.00000085,0.00000446,-
 0.00000141,0.00000353,0.00000094,0.00000206,-0.00003878,0.00003374,-0.
 00001681,0.00002117,0.00000147,0.00001114,0.00000036,0.00000298,0.0000
 0332,0.00000543,-0.00000003,0.00000132,0.00001754,-0.00000383,-0.00000
 061,-0.00000056,-0.00000124,-0.00000192,0.00352214,0.01209111,0.013156
 30,0.03473412,0.16459780,-0.00005160,0.00021410,0.00022661,0.00136254,
 0.00046430,0.00066087,-0.00282483,0.00110258,-0.00257519,0.00007262,0.
 00032303,-0.00019203,0.00130390,0.00529079,0.00602528,0.00008408,-0.00
 009233,-0.00002642,0.00002719,0.00003151,-0.00006288,-0.00003011,-0.00
 002595,-0.00001577,0.00009177,-0.00004365,0.00002492,0.00001130,0.0000
 5054,0.00000452,0.00125069,-0.00006987,0.00009899,-0.04002236,-0.13007
 354,-0.20684404,-0.00015775,0.00057558,0.00099087,0.00001801,-0.000016
 68,-0.00002004,0.00009310,0.00008577,0.00014142,0.00007940,0.00019590,
 0.00013518,0.00038098,0.00046141,0.00098633,-0.00001044,-0.00019408,0.
 00012950,-0.00016067,-0.00014729,0.00030712,-0.00062879,-0.00032333,0.
 00040605,-0.00063700,-0.00026827,0.00022955,-0.00000224,0.00000739,-0.
 00000548,0.00000179,-0.00000197,0.00000551,-0.00001180,0.00001510,0.00
 000034,0.00000610,-0.00000676,-0.00000303,0.00000057,0.00000490,0.0000
 0489,0.00000811,0.00000039,0.00000201,0.00002209,-0.00000444,-0.000001
 52,0.00000186,-0.00000235,-0.00000122,-0.00501544,-0.01694100,-0.01976
 672,0.04473693,0.13938823,0.21913437\\0.00029261,0.00119992,-0.0027085
 5,0.00000739,-0.00000342,-0.00001111,0.00130864,0.00182051,0.00291553,
 -0.00002304,0.00000066,-0.00000917,0.00001065,0.00000068,0.00000772,0.
 00024297,-0.00027469,0.00309391,0.00000772,0.00001262,0.00000085,-0.00
 000145,0.00000100,0.00000681,-0.00000049,0.00000289,-0.00000317,0.0000
 0108,-0.00000211,-0.00000380,-0.00182105,-0.00275240,-0.00329642,-0.00
 000855,-0.00000076,-0.00000379,-0.00000211,-0.00000440,0.00001960,-0.0
 0000313,0.00000091,0.00000069,0.00000133,0.00000010,0.00000790,-0.0000
 0341,-0.00000554,0.00000025,-0.00000066,0.00000279,-0.00000448,-0.0000
 0086,-0.00000166,0.00000201,-0.00000073,0.00000083,0.00000595,-0.00000
 190,0.00000654,0.00000324,0.00000316,0.00000854,-0.00000603,-0.0000014
 3,-0.00000588,-0.00000522,-0.00000181,-0.00000009,-0.00000290,-0.00000
 250,-0.00000309,0.00000071,0.00000202,0.00000122,-0.00000156,0.0000002
 2,-0.00000020,-0.00000237,-0.00000178,-0.00000259,-0.00000166,-0.00000
 393,0.00000129,-0.00000569,0.00000165,-0.00000516,-0.00000269,0.000004
 81,0.00000320,-0.00000159,-0.00000541,-0.00000174,0.00000503\\\@


 I WANT IT ALL - RICH, THIN, AND CHOCOLATE.
 Job cpu time:       0 days 13 hours 51 minutes  2.1 seconds.
 Elapsed time:       0 days  0 hours 51 minutes 57.9 seconds.
 File lengths (MBytes):  RWF=    692 Int=      0 D2E=      0 Chk=     33 Scr=      1
 Normal termination of Gaussian 16 at Mon Nov  5 02:23:34 2018.
