 Entering Gaussian System, Link 0=g16
 Initial command:
 /apps/gaussian/g16a03/g16/l1.exe "/jobfs/local/2011871.r-man2/Gau-21504.inp" -scrdir="/jobfs/local/2011871.r-man2/"
 Entering Link 1 = /apps/gaussian/g16a03/g16/l1.exe PID=     21505.
  
 Copyright (c) 1988,1990,1992,1993,1995,1998,2003,2009,2016,
            Gaussian, Inc.  All Rights Reserved.
  
 This is part of the Gaussian(R) 16 program.  It is based on
 the Gaussian(R) 09 system (copyright 2009, Gaussian, Inc.),
 the Gaussian(R) 03 system (copyright 2003, Gaussian, Inc.),
 the Gaussian(R) 98 system (copyright 1998, Gaussian, Inc.),
 the Gaussian(R) 94 system (copyright 1995, Gaussian, Inc.),
 the Gaussian 92(TM) system (copyright 1992, Gaussian, Inc.),
 the Gaussian 90(TM) system (copyright 1990, Gaussian, Inc.),
 the Gaussian 88(TM) system (copyright 1988, Gaussian, Inc.),
 the Gaussian 86(TM) system (copyright 1986, Carnegie Mellon
 University), and the Gaussian 82(TM) system (copyright 1983,
 Carnegie Mellon University). Gaussian is a federally registered
 trademark of Gaussian, Inc.
  
 This software contains proprietary and confidential information,
 including trade secrets, belonging to Gaussian, Inc.
  
 This software is provided under written license and may be
 used, copied, transmitted, or stored only in accord with that
 written license.
  
 The following legend is applicable only to US Government
 contracts under FAR:
  
                    RESTRICTED RIGHTS LEGEND
  
 Use, reproduction and disclosure by the US Government is
 subject to restrictions as set forth in subparagraphs (a)
 and (c) of the Commercial Computer Software - Restricted
 Rights clause in FAR 52.227-19.
  
 Gaussian, Inc.
 340 Quinnipiac St., Bldg. 40, Wallingford CT 06492
  
  
 ---------------------------------------------------------------
 Warning -- This program may not be used in any manner that
 competes with the business of Gaussian, Inc. or will provide
 assistance to any competitor of Gaussian, Inc.  The licensee
 of this program is prohibited from giving any competitor of
 Gaussian, Inc. access to this program.  By using this program,
 the user acknowledges that Gaussian, Inc. is engaged in the
 business of creating and licensing software in the field of
 computational chemistry and represents and warrants to the
 licensee that it is not a competitor of Gaussian, Inc. and that
 it will not use this program in any manner prohibited above.
 ---------------------------------------------------------------
  

 Cite this work as:
 Gaussian 16, Revision A.03,
 M. J. Frisch, G. W. Trucks, H. B. Schlegel, G. E. Scuseria, 
 M. A. Robb, J. R. Cheeseman, G. Scalmani, V. Barone, 
 G. A. Petersson, H. Nakatsuji, X. Li, M. Caricato, A. V. Marenich, 
 J. Bloino, B. G. Janesko, R. Gomperts, B. Mennucci, H. P. Hratchian, 
 J. V. Ortiz, A. F. Izmaylov, J. L. Sonnenberg, D. Williams-Young, 
 F. Ding, F. Lipparini, F. Egidi, J. Goings, B. Peng, A. Petrone, 
 T. Henderson, D. Ranasinghe, V. G. Zakrzewski, J. Gao, N. Rega, 
 G. Zheng, W. Liang, M. Hada, M. Ehara, K. Toyota, R. Fukuda, 
 J. Hasegawa, M. Ishida, T. Nakajima, Y. Honda, O. Kitao, H. Nakai, 
 T. Vreven, K. Throssell, J. A. Montgomery, Jr., J. E. Peralta, 
 F. Ogliaro, M. J. Bearpark, J. J. Heyd, E. N. Brothers, K. N. Kudin, 
 V. N. Staroverov, T. A. Keith, R. Kobayashi, J. Normand, 
 K. Raghavachari, A. P. Rendell, J. C. Burant, S. S. Iyengar, 
 J. Tomasi, M. Cossi, J. M. Millam, M. Klene, C. Adamo, R. Cammi, 
 J. W. Ochterski, R. L. Martin, K. Morokuma, O. Farkas, 
 J. B. Foresman, and D. J. Fox, Gaussian, Inc., Wallingford CT, 2016.
 
 ******************************************
 Gaussian 16:  ES64L-G16RevA.03 25-Dec-2016
                 5-Nov-2018 
 ******************************************
 %mem=6000mb
 %nproc=24
 Will use up to   24 processors via shared memory.
 %chk=2SO_1_e4_D_PSI.inp_extract_9.chk
 ----------------------------------------------------------------------
 #M062X/6-311++G(2d,2p) opt=ModRedundant freq=noraman SCRF=(Solvent=Wat
 er)
 ----------------------------------------------------------------------
 1/18=120,19=15,26=3,38=1/1,3;
 2/9=110,12=2,17=6,18=5,40=1/2;
 3/5=4,6=6,7=1212,11=2,25=1,30=1,70=2201,71=1,72=1,74=-55/1,2,3;
 4//1;
 5/5=2,38=5,53=1/2;
 6/7=2,8=2,9=2,10=2,28=1/1;
 7//1,2,3,16;
 1/18=20,19=15,26=3/3(2);
 2/9=110/2;
 99//99;
 2/9=110/2;
 3/5=4,6=6,7=1212,11=2,25=1,30=1,70=2205,71=1,72=1,74=-55/1,2,3;
 4/5=5,16=3,69=1/1;
 5/5=2,38=5,53=1/2;
 7//1,2,3,16;
 1/18=20,19=15,26=3/3(-5);
 2/9=110/2;
 6/7=2,8=2,9=2,10=2,19=2,28=1/1;
 99/9=1/99;
 ----------------------------
 2SO_1_e4_D_PSI.inp_extract_9
 ----------------------------
 Symbolic Z-matrix:
 Charge =  0 Multiplicity = 1
 C                     1.24798   0.182    -0.73836 
 C                    -3.85512  -0.50843   0.14951 
 C                    -1.01921   0.36232   0.1657 
 C                    -2.6597   -1.25509  -0.44509 
 C                    -3.41025   0.86089   0.69474 
 C                     2.00945   1.33318  -0.08829 
 C                     1.51348  -1.1333   -0.00599 
 C                     3.64033  -0.39045   0.71625 
 O                     2.90454  -1.37822   0.01677 
 C                     3.48965   0.96672   0.04925 
 O                    -0.12795   0.4921   -0.90618 
 C                    -2.1675    1.34207  -0.05095 
 O                    -1.47852  -0.95958   0.28325 
 H                     1.61215   0.05974  -1.75116 
 H                    -4.30665  -1.09663   0.94189 
 H                    -4.60589  -0.38661  -0.62603 
 H                    -0.51264   0.57032   1.09615 
 H                    -2.78832  -2.32656  -0.38865 
 H                    -2.5132   -0.99348  -1.487 
 H                    -3.18017   0.78061   1.75347 
 H                    -4.20978   1.588     0.60283 
 H                     1.88881   2.2299   -0.68784 
 H                     1.59273   1.53866   0.89475 
 H                     1.0589   -1.96436  -0.52518 
 H                     1.13965  -1.1101    1.01237 
 H                     3.29364  -0.35371   1.74656 
 H                     4.67006  -0.72061   0.71434 
 H                     4.01563   1.71705   0.63192 
 H                     3.95524   0.93179  -0.93249 
 H                    -2.37713   1.41903  -1.11362 
 H                    -1.85213   2.32316   0.28644 
 
 The following ModRedundant input section has been read:
 D       6       1      11       3 F                                           
 

 GradGradGradGradGradGradGradGradGradGradGradGradGradGradGradGradGradGrad
 Berny optimization.
 Initialization pass.
                           ----------------------------
                           !    Initial Parameters    !
                           ! (Angstroms and Degrees)  !
 --------------------------                            --------------------------
 ! Name  Definition              Value          Derivative Info.                !
 --------------------------------------------------------------------------------
 ! R1    R(1,6)                  1.5257         estimate D2E/DX2                !
 ! R2    R(1,7)                  1.5287         estimate D2E/DX2                !
 ! R3    R(1,11)                 1.4204         estimate D2E/DX2                !
 ! R4    R(1,14)                 1.0832         estimate D2E/DX2                !
 ! R5    R(2,4)                  1.5297         estimate D2E/DX2                !
 ! R6    R(2,5)                  1.5395         estimate D2E/DX2                !
 ! R7    R(2,15)                 1.0852         estimate D2E/DX2                !
 ! R8    R(2,16)                 1.0863         estimate D2E/DX2                !
 ! R9    R(3,11)                 1.4            estimate D2E/DX2                !
 ! R10   R(3,12)                 1.5249         estimate D2E/DX2                !
 ! R11   R(3,13)                 1.4043         estimate D2E/DX2                !
 ! R12   R(3,17)                 1.0796         estimate D2E/DX2                !
 ! R13   R(4,13)                 1.4188         estimate D2E/DX2                !
 ! R14   R(4,18)                 1.0806         estimate D2E/DX2                !
 ! R15   R(4,19)                 1.0842         estimate D2E/DX2                !
 ! R16   R(5,12)                 1.5271         estimate D2E/DX2                !
 ! R17   R(5,20)                 1.0864         estimate D2E/DX2                !
 ! R18   R(5,21)                 1.0846         estimate D2E/DX2                !
 ! R19   R(6,10)                 1.5311         estimate D2E/DX2                !
 ! R20   R(6,22)                 1.0854         estimate D2E/DX2                !
 ! R21   R(6,23)                 1.0873         estimate D2E/DX2                !
 ! R22   R(7,9)                  1.4126         estimate D2E/DX2                !
 ! R23   R(7,24)                 1.0802         estimate D2E/DX2                !
 ! R24   R(7,25)                 1.0851         estimate D2E/DX2                !
 ! R25   R(8,9)                  1.4165         estimate D2E/DX2                !
 ! R26   R(8,10)                 1.5197         estimate D2E/DX2                !
 ! R27   R(8,26)                 1.0877         estimate D2E/DX2                !
 ! R28   R(8,27)                 1.0814         estimate D2E/DX2                !
 ! R29   R(10,28)                1.0859         estimate D2E/DX2                !
 ! R30   R(10,29)                1.0871         estimate D2E/DX2                !
 ! R31   R(12,30)                1.0859         estimate D2E/DX2                !
 ! R32   R(12,31)                1.0844         estimate D2E/DX2                !
 ! A1    A(6,1,7)              111.0021         estimate D2E/DX2                !
 ! A2    A(6,1,11)             111.66           estimate D2E/DX2                !
 ! A3    A(6,1,14)             108.407          estimate D2E/DX2                !
 ! A4    A(7,1,11)             114.3742         estimate D2E/DX2                !
 ! A5    A(7,1,14)             107.0039         estimate D2E/DX2                !
 ! A6    A(11,1,14)            103.8773         estimate D2E/DX2                !
 ! A7    A(4,2,5)              110.2417         estimate D2E/DX2                !
 ! A8    A(4,2,15)             110.1447         estimate D2E/DX2                !
 ! A9    A(4,2,16)             108.5019         estimate D2E/DX2                !
 ! A10   A(5,2,15)             110.1035         estimate D2E/DX2                !
 ! A11   A(5,2,16)             110.6595         estimate D2E/DX2                !
 ! A12   A(15,2,16)            107.1279         estimate D2E/DX2                !
 ! A13   A(11,3,12)            108.1219         estimate D2E/DX2                !
 ! A14   A(11,3,13)            111.0729         estimate D2E/DX2                !
 ! A15   A(11,3,17)            110.0755         estimate D2E/DX2                !
 ! A16   A(12,3,13)            111.7386         estimate D2E/DX2                !
 ! A17   A(12,3,17)            110.6082         estimate D2E/DX2                !
 ! A18   A(13,3,17)            105.228          estimate D2E/DX2                !
 ! A19   A(2,4,13)             110.4489         estimate D2E/DX2                !
 ! A20   A(2,4,18)             111.7556         estimate D2E/DX2                !
 ! A21   A(2,4,19)             111.1835         estimate D2E/DX2                !
 ! A22   A(13,4,18)            106.1883         estimate D2E/DX2                !
 ! A23   A(13,4,19)            109.3039         estimate D2E/DX2                !
 ! A24   A(18,4,19)            107.7896         estimate D2E/DX2                !
 ! A25   A(2,5,12)             110.0279         estimate D2E/DX2                !
 ! A26   A(2,5,20)             109.9136         estimate D2E/DX2                !
 ! A27   A(2,5,21)             110.6864         estimate D2E/DX2                !
 ! A28   A(12,5,20)            109.0743         estimate D2E/DX2                !
 ! A29   A(12,5,21)            110.3211         estimate D2E/DX2                !
 ! A30   A(20,5,21)            106.7517         estimate D2E/DX2                !
 ! A31   A(1,6,10)             109.8893         estimate D2E/DX2                !
 ! A32   A(1,6,22)             109.4228         estimate D2E/DX2                !
 ! A33   A(1,6,23)             109.6661         estimate D2E/DX2                !
 ! A34   A(10,6,22)            110.7819         estimate D2E/DX2                !
 ! A35   A(10,6,23)            109.5443         estimate D2E/DX2                !
 ! A36   A(22,6,23)            107.498          estimate D2E/DX2                !
 ! A37   A(1,7,9)              109.1426         estimate D2E/DX2                !
 ! A38   A(1,7,24)             111.0144         estimate D2E/DX2                !
 ! A39   A(1,7,25)             111.8023         estimate D2E/DX2                !
 ! A40   A(9,7,24)             106.7833         estimate D2E/DX2                !
 ! A41   A(9,7,25)             109.1378         estimate D2E/DX2                !
 ! A42   A(24,7,25)            108.8181         estimate D2E/DX2                !
 ! A43   A(9,8,10)             110.764          estimate D2E/DX2                !
 ! A44   A(9,8,26)             109.0112         estimate D2E/DX2                !
 ! A45   A(9,8,27)             106.3119         estimate D2E/DX2                !
 ! A46   A(10,8,26)            110.7307         estimate D2E/DX2                !
 ! A47   A(10,8,27)            111.488          estimate D2E/DX2                !
 ! A48   A(26,8,27)            108.3917         estimate D2E/DX2                !
 ! A49   A(7,9,8)              113.4892         estimate D2E/DX2                !
 ! A50   A(6,10,8)             110.4283         estimate D2E/DX2                !
 ! A51   A(6,10,28)            110.5546         estimate D2E/DX2                !
 ! A52   A(6,10,29)            109.9147         estimate D2E/DX2                !
 ! A53   A(8,10,28)            109.4839         estimate D2E/DX2                !
 ! A54   A(8,10,29)            108.9779         estimate D2E/DX2                !
 ! A55   A(28,10,29)           107.4168         estimate D2E/DX2                !
 ! A56   A(1,11,3)             120.3961         estimate D2E/DX2                !
 ! A57   A(3,12,5)             109.937          estimate D2E/DX2                !
 ! A58   A(3,12,30)            109.2651         estimate D2E/DX2                !
 ! A59   A(3,12,31)            108.5477         estimate D2E/DX2                !
 ! A60   A(5,12,30)            110.0655         estimate D2E/DX2                !
 ! A61   A(5,12,31)            111.7059         estimate D2E/DX2                !
 ! A62   A(30,12,31)           107.248          estimate D2E/DX2                !
 ! A63   A(3,13,4)             115.1741         estimate D2E/DX2                !
 ! D1    D(7,1,6,10)            52.1379         estimate D2E/DX2                !
 ! D2    D(7,1,6,22)           173.9849         estimate D2E/DX2                !
 ! D3    D(7,1,6,23)           -68.3321         estimate D2E/DX2                !
 ! D4    D(11,1,6,10)         -178.9512         estimate D2E/DX2                !
 ! D5    D(11,1,6,22)          -57.1042         estimate D2E/DX2                !
 ! D6    D(11,1,6,23)           60.5787         estimate D2E/DX2                !
 ! D7    D(14,1,6,10)          -65.1136         estimate D2E/DX2                !
 ! D8    D(14,1,6,22)           56.7333         estimate D2E/DX2                !
 ! D9    D(14,1,6,23)          174.4163         estimate D2E/DX2                !
 ! D10   D(6,1,7,9)            -56.6339         estimate D2E/DX2                !
 ! D11   D(6,1,7,24)          -174.071          estimate D2E/DX2                !
 ! D12   D(6,1,7,25)            64.2045         estimate D2E/DX2                !
 ! D13   D(11,1,7,9)           175.922          estimate D2E/DX2                !
 ! D14   D(11,1,7,24)           58.4848         estimate D2E/DX2                !
 ! D15   D(11,1,7,25)          -63.2397         estimate D2E/DX2                !
 ! D16   D(14,1,7,9)            61.4717         estimate D2E/DX2                !
 ! D17   D(14,1,7,24)          -55.9655         estimate D2E/DX2                !
 ! D18   D(14,1,7,25)         -177.69           estimate D2E/DX2                !
 ! D19   D(6,1,11,3)           -81.0082         Frozen                          !
 ! D20   D(7,1,11,3)            46.0984         estimate D2E/DX2                !
 ! D21   D(14,1,11,3)          162.3709         estimate D2E/DX2                !
 ! D22   D(5,2,4,13)            34.038          estimate D2E/DX2                !
 ! D23   D(5,2,4,18)           152.0181         estimate D2E/DX2                !
 ! D24   D(5,2,4,19)           -87.4878         estimate D2E/DX2                !
 ! D25   D(15,2,4,13)          -87.6628         estimate D2E/DX2                !
 ! D26   D(15,2,4,18)           30.3173         estimate D2E/DX2                !
 ! D27   D(15,2,4,19)          150.8114         estimate D2E/DX2                !
 ! D28   D(16,2,4,13)          155.3656         estimate D2E/DX2                !
 ! D29   D(16,2,4,18)          -86.6543         estimate D2E/DX2                !
 ! D30   D(16,2,4,19)           33.8398         estimate D2E/DX2                !
 ! D31   D(4,2,5,12)            26.2723         estimate D2E/DX2                !
 ! D32   D(4,2,5,20)           -93.8602         estimate D2E/DX2                !
 ! D33   D(4,2,5,21)           148.4638         estimate D2E/DX2                !
 ! D34   D(15,2,5,12)          147.9976         estimate D2E/DX2                !
 ! D35   D(15,2,5,20)           27.865          estimate D2E/DX2                !
 ! D36   D(15,2,5,21)          -89.811          estimate D2E/DX2                !
 ! D37   D(16,2,5,12)          -93.7616         estimate D2E/DX2                !
 ! D38   D(16,2,5,20)          146.1058         estimate D2E/DX2                !
 ! D39   D(16,2,5,21)           28.4298         estimate D2E/DX2                !
 ! D40   D(12,3,11,1)          152.8011         estimate D2E/DX2                !
 ! D41   D(13,3,11,1)          -84.2603         estimate D2E/DX2                !
 ! D42   D(17,3,11,1)           31.8765         estimate D2E/DX2                !
 ! D43   D(11,3,12,5)          155.8217         estimate D2E/DX2                !
 ! D44   D(11,3,12,30)          34.9315         estimate D2E/DX2                !
 ! D45   D(11,3,12,31)         -81.7206         estimate D2E/DX2                !
 ! D46   D(13,3,12,5)           33.2891         estimate D2E/DX2                !
 ! D47   D(13,3,12,30)         -87.601          estimate D2E/DX2                !
 ! D48   D(13,3,12,31)         155.7468         estimate D2E/DX2                !
 ! D49   D(17,3,12,5)          -83.5856         estimate D2E/DX2                !
 ! D50   D(17,3,12,30)         155.5243         estimate D2E/DX2                !
 ! D51   D(17,3,12,31)          38.8722         estimate D2E/DX2                !
 ! D52   D(11,3,13,4)          -90.225          estimate D2E/DX2                !
 ! D53   D(12,3,13,4)           30.6049         estimate D2E/DX2                !
 ! D54   D(17,3,13,4)          150.6879         estimate D2E/DX2                !
 ! D55   D(2,4,13,3)           -67.8345         estimate D2E/DX2                !
 ! D56   D(18,4,13,3)          170.8229         estimate D2E/DX2                !
 ! D57   D(19,4,13,3)           54.7973         estimate D2E/DX2                !
 ! D58   D(2,5,12,3)           -61.582          estimate D2E/DX2                !
 ! D59   D(2,5,12,30)           58.8254         estimate D2E/DX2                !
 ! D60   D(2,5,12,31)          177.8483         estimate D2E/DX2                !
 ! D61   D(20,5,12,3)           59.0572         estimate D2E/DX2                !
 ! D62   D(20,5,12,30)         179.4646         estimate D2E/DX2                !
 ! D63   D(20,5,12,31)         -61.5124         estimate D2E/DX2                !
 ! D64   D(21,5,12,3)          176.0104         estimate D2E/DX2                !
 ! D65   D(21,5,12,30)         -63.5822         estimate D2E/DX2                !
 ! D66   D(21,5,12,31)          55.4407         estimate D2E/DX2                !
 ! D67   D(1,6,10,8)           -50.873          estimate D2E/DX2                !
 ! D68   D(1,6,10,28)         -172.191          estimate D2E/DX2                !
 ! D69   D(1,6,10,29)           69.3944         estimate D2E/DX2                !
 ! D70   D(22,6,10,8)         -171.9063         estimate D2E/DX2                !
 ! D71   D(22,6,10,28)          66.7757         estimate D2E/DX2                !
 ! D72   D(22,6,10,29)         -51.639          estimate D2E/DX2                !
 ! D73   D(23,6,10,8)           69.6707         estimate D2E/DX2                !
 ! D74   D(23,6,10,28)         -51.6473         estimate D2E/DX2                !
 ! D75   D(23,6,10,29)        -170.062          estimate D2E/DX2                !
 ! D76   D(1,7,9,8)             62.2131         estimate D2E/DX2                !
 ! D77   D(24,7,9,8)          -177.7095         estimate D2E/DX2                !
 ! D78   D(25,7,9,8)           -60.2393         estimate D2E/DX2                !
 ! D79   D(10,8,9,7)           -62.1326         estimate D2E/DX2                !
 ! D80   D(26,8,9,7)            59.9431         estimate D2E/DX2                !
 ! D81   D(27,8,9,7)           176.5931         estimate D2E/DX2                !
 ! D82   D(9,8,10,6)            54.9363         estimate D2E/DX2                !
 ! D83   D(9,8,10,28)          176.8876         estimate D2E/DX2                !
 ! D84   D(9,8,10,29)          -65.8915         estimate D2E/DX2                !
 ! D85   D(26,8,10,6)          -66.1278         estimate D2E/DX2                !
 ! D86   D(26,8,10,28)          55.8234         estimate D2E/DX2                !
 ! D87   D(26,8,10,29)         173.0444         estimate D2E/DX2                !
 ! D88   D(27,8,10,6)          173.1051         estimate D2E/DX2                !
 ! D89   D(27,8,10,28)         -64.9436         estimate D2E/DX2                !
 ! D90   D(27,8,10,29)          52.2773         estimate D2E/DX2                !
 --------------------------------------------------------------------------------
 Trust Radius=3.00D-01 FncErr=1.00D-07 GrdErr=1.00D-06 EigMax=2.50D+02 EigMin=1.00D-04
 Number of steps in this run=    186 maximum allowed number of steps=    186.
 GradGradGradGradGradGradGradGradGradGradGradGradGradGradGradGradGradGrad

                          Input orientation:                          
 ---------------------------------------------------------------------
 Center     Atomic      Atomic             Coordinates (Angstroms)
 Number     Number       Type             X           Y           Z
 ---------------------------------------------------------------------
      1          6           0        1.247975    0.182002   -0.738362
      2          6           0       -3.855115   -0.508429    0.149508
      3          6           0       -1.019211    0.362318    0.165696
      4          6           0       -2.659701   -1.255092   -0.445093
      5          6           0       -3.410253    0.860885    0.694736
      6          6           0        2.009448    1.333178   -0.088293
      7          6           0        1.513476   -1.133304   -0.005991
      8          6           0        3.640334   -0.390448    0.716252
      9          8           0        2.904538   -1.378223    0.016771
     10          6           0        3.489646    0.966720    0.049245
     11          8           0       -0.127948    0.492103   -0.906182
     12          6           0       -2.167504    1.342065   -0.050947
     13          8           0       -1.478524   -0.959578    0.283254
     14          1           0        1.612145    0.059736   -1.751164
     15          1           0       -4.306645   -1.096630    0.941893
     16          1           0       -4.605893   -0.386610   -0.626028
     17          1           0       -0.512638    0.570316    1.096151
     18          1           0       -2.788321   -2.326557   -0.388653
     19          1           0       -2.513198   -0.993483   -1.486995
     20          1           0       -3.180169    0.780612    1.753473
     21          1           0       -4.209775    1.588001    0.602832
     22          1           0        1.888807    2.229900   -0.687843
     23          1           0        1.592728    1.538661    0.894752
     24          1           0        1.058899   -1.964358   -0.525181
     25          1           0        1.139654   -1.110104    1.012371
     26          1           0        3.293642   -0.353706    1.746563
     27          1           0        4.670063   -0.720608    0.714336
     28          1           0        4.015629    1.717054    0.631916
     29          1           0        3.955239    0.931792   -0.932491
     30          1           0       -2.377135    1.419030   -1.113620
     31          1           0       -1.852131    2.323160    0.286441
 ---------------------------------------------------------------------
                    Distance matrix (angstroms):
                    1          2          3          4          5
     1  C    0.000000
     2  C    5.225566   0.000000
     3  C    2.447441   2.966617   0.000000
     4  C    4.173868   1.529729   2.383335   0.000000
     5  C    4.920746   1.539544   2.499107   2.517915   0.000000
     6  C    1.525660   6.151517   3.190588   5.350458   5.496304
     7  C    1.528688   5.407071   2.946331   4.197982   5.358257
     8  C    2.857793   7.517771   4.751960   6.464269   7.160801
     9  O    2.397651   6.816676   4.295052   5.584732   6.734228
    10  C    2.502238   7.492105   4.550676   6.557079   6.930834
    11  O    1.420384   4.000915   1.400042   3.110477   3.670486
    12  C    3.672027   2.512477   1.524931   2.672608   1.527090
    13  O    3.127411   2.422727   1.404349   1.418801   2.686071
    14  H    1.083207   5.816038   3.269548   4.656529   5.643470
    15  H    5.942387   1.085234   3.679434   2.158996   2.167134
    16  H    5.882492   1.086261   3.748601   2.138846   2.174906
    17  H    2.572155   3.637578   1.079642   3.212075   2.939683
    18  H    4.765171   2.175605   3.266053   1.080632   3.423495
    19  H    4.011065   2.171212   2.607984   1.084187   3.000556
    20  H    5.116252   2.165614   2.713991   3.041163   1.086419
    21  H    5.793330   2.174007   3.445734   3.403536   1.084610
    22  H    2.146417   6.418118   3.559910   5.735244   5.644977
    23  H    2.150916   5.867279   2.955931   5.261501   5.052643
    24  H    2.165192   5.169378   3.195195   3.786484   5.426188
    25  H    2.178609   5.104338   2.746922   4.071894   4.968636
    26  H    3.262911   7.326612   4.648928   6.407663   6.893749
    27  H    3.825666   8.546503   5.817351   7.440120   8.233651
    28  H    3.448761   8.193540   5.234719   7.386043   7.475339
    29  H    2.815875   8.015397   5.125960   6.984085   7.543432
    30  H    3.848698   2.737703   2.144119   2.770866   2.156156
    31  H    3.904540   3.471108   2.133831   3.740481   2.175476
                    6          7          8          9         10
     6  C    0.000000
     7  C    2.517200   0.000000
     8  C    2.505587   2.365797   0.000000
     9  O    2.857257   1.412642   1.416464   0.000000
    10  C    1.531076   2.884164   1.519707   2.417057   0.000000
    11  O    2.438198   2.479227   4.196563   3.680480   3.771616
    12  C    4.177128   4.436112   6.109106   5.755881   5.670473
    13  O    4.190552   3.010965   5.168569   4.411067   5.333676
    14  H    2.131817   2.116296   3.225579   2.619847   2.754833
    15  H    6.845311   5.896918   7.981484   7.275734   8.113962
    16  H    6.856352   6.195859   8.354759   7.602832   8.235609
    17  H    2.888907   2.867434   4.279552   4.079088   4.155890
    18  H    6.041727   4.480596   6.804185   5.785529   7.102837
    19  H    5.274850   4.292671   6.563833   5.635708   6.498966
    20  H    5.534398   5.365547   6.997605   6.685833   6.886615
    21  H    6.262693   6.366456   8.096378   7.730162   7.744258
    22  H    1.085415   3.452092   3.450442   3.814019   2.168319
    23  H    1.087316   2.820818   2.818868   3.316611   2.154135
    24  H    3.459503   1.080208   3.268357   2.010883   3.850937
    25  H    2.817380   1.085054   2.618968   2.043997   3.280743
    26  H    2.803824   2.616908   1.087698   2.047735   2.159359
    27  H    3.455593   3.263929   1.081365   2.009013   2.163979
    28  H    2.165831   3.846068   2.142317   3.345694   1.085894
    29  H    2.158676   3.329449   2.136782   2.709472   1.087107
    30  H    4.505638   4.783106   6.544660   6.082637   5.997996
    31  H    4.004033   4.833215   6.141301   6.033147   5.516409
                   11         12         13         14         15
    11  O    0.000000
    12  C    2.369314   0.000000
    13  O    2.312183   2.425684   0.000000
    14  H    1.982135   4.338301   3.837980   0.000000
    15  H    4.837454   3.392475   2.907036   6.604681   0.000000
    16  H    4.571938   3.043810   3.306890   6.334757   1.747013
    17  H    2.040451   2.156389   1.983510   3.589234   4.146926
    18  H    3.910277   3.736074   2.008895   5.187960   2.363976
    19  H    2.869447   2.763426   2.050727   4.265854   3.021024
    20  H    4.058701   2.143980   2.843484   5.980670   2.334876
    21  H    4.487697   2.158421   3.748603   6.463099   2.707691
    22  H    2.671125   4.200898   4.738641   2.432448   7.218412
    23  H    2.701735   3.882311   4.005960   3.031249   6.461392
    24  H    2.754627   4.644029   2.846342   2.430241   5.629771
    25  H    2.802629   4.252184   2.721971   3.037910   5.446772
    26  H    4.411318   5.994230   5.028113   3.902879   7.678788
    27  H    5.207462   7.182799   6.168311   4.004808   8.987461
    28  H    4.586445   6.232018   6.121408   3.768622   8.790515
    29  H    4.106877   6.199470   5.880569   2.630741   8.711288
    30  H    2.441530   1.085883   2.901126   4.262452   3.778450
    31  H    2.783510   1.084361   3.303931   4.612606   4.260190
                   16         17         18         19         20
    16  H    0.000000
    17  H    4.542724   0.000000
    18  H    2.668953   3.971807   0.000000
    19  H    2.342847   3.622202   1.749038   0.000000
    20  H    3.009505   2.755362   3.794305   3.754051   0.000000
    21  H    2.359257   3.866247   4.281044   3.729586   1.742395
    22  H    7.002219   3.421080   6.536539   5.514208   5.809903
    23  H    6.666509   2.326117   5.981691   5.379879   4.908420
    24  H    5.881269   3.394557   3.866643   3.824600   5.540471
    25  H    6.018231   2.358156   4.344147   4.427613   4.773354
    26  H    8.248207   3.970468   6.741036   6.677170   6.572439
    27  H    9.378246   5.354686   7.708641   7.517949   8.059752
    28  H    8.963173   4.694222   7.980356   7.379863   7.342637
    29  H    8.667473   4.920160   7.509208   6.771620   7.625700
    30  H    2.909544   3.013263   3.837196   2.445024   3.045105
    31  H    3.969718   2.349965   4.790832   3.818665   2.509048
                   21         22         23         24         25
    21  H    0.000000
    22  H    6.266624   0.000000
    23  H    5.810051   1.752165   0.000000
    24  H    6.453727   4.278669   3.817372   0.000000
    25  H    6.005321   3.821987   2.689808   1.760778   0.000000
    26  H    7.834514   3.817711   2.683234   3.570588   2.398091
    27  H    9.175709   4.290337   3.821889   4.015448   3.564312
    28  H    8.226468   2.555024   2.443636   4.861473   4.050778
    29  H    8.333983   2.452566   3.047715   4.116111   3.984890
    30  H    2.516610   4.363148   4.450582   4.857973   4.825366
    31  H    2.489789   3.866852   3.585043   5.245535   4.611405
                   26         27         28         29         30
    26  H    0.000000
    27  H    1.759160   0.000000
    28  H    2.460031   2.525326   0.000000
    29  H    3.044264   2.439967   1.751472   0.000000
    30  H    6.594009   7.588312   6.633487   6.353674   0.000000
    31  H    5.981350   7.210176   5.909088   6.094854   1.747355
                   31
    31  H    0.000000
 Stoichiometry    C10H18O3
 Framework group  C1[X(C10H18O3)]
 Deg. of freedom    87
 Full point group                 C1      NOp   1
 Largest Abelian subgroup         C1      NOp   1
 Largest concise Abelian subgroup C1      NOp   1
                         Standard orientation:                         
 ---------------------------------------------------------------------
 Center     Atomic      Atomic             Coordinates (Angstroms)
 Number     Number       Type             X           Y           Z
 ---------------------------------------------------------------------
      1          6           0       -1.247975    0.182002    0.738362
      2          6           0        3.855115   -0.508429   -0.149508
      3          6           0        1.019211    0.362318   -0.165696
      4          6           0        2.659701   -1.255092    0.445093
      5          6           0        3.410253    0.860885   -0.694736
      6          6           0       -2.009448    1.333178    0.088293
      7          6           0       -1.513476   -1.133304    0.005991
      8          6           0       -3.640334   -0.390448   -0.716252
      9          8           0       -2.904538   -1.378223   -0.016771
     10          6           0       -3.489646    0.966720   -0.049245
     11          8           0        0.127948    0.492103    0.906182
     12          6           0        2.167504    1.342065    0.050947
     13          8           0        1.478524   -0.959578   -0.283254
     14          1           0       -1.612145    0.059736    1.751164
     15          1           0        4.306645   -1.096630   -0.941893
     16          1           0        4.605893   -0.386610    0.626028
     17          1           0        0.512638    0.570316   -1.096151
     18          1           0        2.788321   -2.326557    0.388653
     19          1           0        2.513198   -0.993483    1.486995
     20          1           0        3.180169    0.780612   -1.753473
     21          1           0        4.209775    1.588001   -0.602832
     22          1           0       -1.888807    2.229900    0.687843
     23          1           0       -1.592728    1.538661   -0.894752
     24          1           0       -1.058899   -1.964358    0.525181
     25          1           0       -1.139654   -1.110104   -1.012371
     26          1           0       -3.293642   -0.353706   -1.746563
     27          1           0       -4.670063   -0.720608   -0.714336
     28          1           0       -4.015629    1.717054   -0.631916
     29          1           0       -3.955239    0.931792    0.932491
     30          1           0        2.377135    1.419030    1.113620
     31          1           0        1.852131    2.323160   -0.286441
 ---------------------------------------------------------------------
 Rotational constants (GHZ):           2.0616290           0.3992943           0.3613923
 Standard basis: 6-311++G(2d,2p) (5D, 7F)
 There are   557 symmetry adapted cartesian basis functions of A   symmetry.
 There are   531 symmetry adapted basis functions of A   symmetry.
   531 basis functions,   762 primitive gaussians,   557 cartesian basis functions
    51 alpha electrons       51 beta electrons
       nuclear repulsion energy       890.0469261555 Hartrees.
 NAtoms=   31 NActive=   31 NUniq=   31 SFac= 1.00D+00 NAtFMM=   60 NAOKFM=F Big=F
 Integral buffers will be    131072 words long.
 Raffenetti 2 integral format.
 Two-electron integral symmetry is turned on.
 ------------------------------------------------------------------------------
 Polarizable Continuum Model (PCM)
 =================================
 Model                : PCM.
 Atomic radii         : UFF (Universal Force Field).
 Polarization charges : Total charges.
 Charge compensation  : None.
 Solution method      : On-the-fly selection.
 Cavity type          : Scaled VdW (van der Waals Surface) (Alpha=1.100).
 Cavity algorithm     : GePol (No added spheres)
                        Default sphere list used, NSphG=   31.
                        Lebedev-Laikov grids with approx.  5.0 points / Ang**2.
                        Smoothing algorithm: York/Karplus (Gamma=1.0000).
                        Polarization charges: spherical gaussians, with
                                              point-specific exponents (IZeta= 3).
                        Self-potential: point-specific (ISelfS= 7).
                        Self-field    : sphere-specific E.n sum rule (ISelfD= 2).
 1st derivatives      : Analytical E(r).r(x)/FMM algorithm (CHGder, D1EAlg=3).
                        Cavity 1st derivative terms included.
 Solvent              : Water, Eps=  78.355300 Eps(inf)=   1.777849
 ------------------------------------------------------------------------------
 One-electron integrals computed using PRISM.
 NBasis=   531 RedAO= T EigKep=  5.84D-06  NBF=   531
 NBsUse=   531 1.00D-06 EigRej= -1.00D+00 NBFU=   531
 ExpMin= 3.60D-02 ExpMax= 8.59D+03 ExpMxC= 1.30D+03 IAcc=3 IRadAn=         5 AccDes= 0.00D+00
 Harris functional with IExCor= 1009 and IRadAn=       5 diagonalized for initial guess.
 HarFok:  IExCor= 1009 AccDes= 0.00D+00 IRadAn=         5 IDoV= 1 UseB2=F ITyADJ=14
 ICtDFT=  3500011 ScaDFX=  1.000000  1.000000  1.000000  1.000000
 FoFCou: FMM=F IPFlag=           0 FMFlag=      100000 FMFlg1=           0
         NFxFlg=           0 DoJE=T BraDBF=F KetDBF=T FulRan=T
         wScrn=  0.000000 ICntrl=       500 IOpCl=  0 I1Cent=   200000004 NGrid=           0
         NMat0=    1 NMatS0=      1 NMatT0=    0 NMatD0=    1 NMtDS0=    0 NMtDT0=    0
 Petite list used in FoFCou.
 Requested convergence on RMS density matrix=1.00D-08 within 128 cycles.
 Requested convergence on MAX density matrix=1.00D-06.
 Requested convergence on             energy=1.00D-06.
 No special actions if energy rises.
 Inv3:  Mode=1 IEnd=    12607500.
 Iteration    1 A*A^-1 deviation from unit magnitude is 4.00D-15 for   2045.
 Iteration    1 A*A^-1 deviation from orthogonality  is 1.89D-15 for   1531    419.
 Iteration    1 A^-1*A deviation from unit magnitude is 3.77D-15 for   2037.
 Iteration    1 A^-1*A deviation from orthogonality  is 1.60D-15 for   1971   1918.
 Error on total polarization charges =  0.01481
 SCF Done:  E(RM062X) =  -617.493113532     A.U. after   12 cycles
            NFock= 12  Conv=0.52D-08     -V/T= 2.0035

 **********************************************************************

            Population analysis using the SCF density.

 **********************************************************************

 Orbital symmetries:
       Occupied  (A) (A) (A) (A) (A) (A) (A) (A) (A) (A) (A) (A)
                 (A) (A) (A) (A) (A) (A) (A) (A) (A) (A) (A) (A)
                 (A) (A) (A) (A) (A) (A) (A) (A) (A) (A) (A) (A)
                 (A) (A) (A) (A) (A) (A) (A) (A) (A) (A) (A) (A)
                 (A) (A) (A)
       Virtual   (A) (A) (A) (A) (A) (A) (A) (A) (A) (A) (A) (A)
                 (A) (A) (A) (A) (A) (A) (A) (A) (A) (A) (A) (A)
                 (A) (A) (A) (A) (A) (A) (A) (A) (A) (A) (A) (A)
                 (A) (A) (A) (A) (A) (A) (A) (A) (A) (A) (A) (A)
                 (A) (A) (A) (A) (A) (A) (A) (A) (A) (A) (A) (A)
                 (A) (A) (A) (A) (A) (A) (A) (A) (A) (A) (A) (A)
                 (A) (A) (A) (A) (A) (A) (A) (A) (A) (A) (A) (A)
                 (A) (A) (A) (A) (A) (A) (A) (A) (A) (A) (A) (A)
                 (A) (A) (A) (A) (A) (A) (A) (A) (A) (A) (A) (A)
                 (A) (A) (A) (A) (A) (A) (A) (A) (A) (A) (A) (A)
                 (A) (A) (A) (A) (A) (A) (A) (A) (A) (A) (A) (A)
                 (A) (A) (A) (A) (A) (A) (A) (A) (A) (A) (A) (A)
                 (A) (A) (A) (A) (A) (A) (A) (A) (A) (A) (A) (A)
                 (A) (A) (A) (A) (A) (A) (A) (A) (A) (A) (A) (A)
                 (A) (A) (A) (A) (A) (A) (A) (A) (A) (A) (A) (A)
                 (A) (A) (A) (A) (A) (A) (A) (A) (A) (A) (A) (A)
                 (A) (A) (A) (A) (A) (A) (A) (A) (A) (A) (A) (A)
                 (A) (A) (A) (A) (A) (A) (A) (A) (A) (A) (A) (A)
                 (A) (A) (A) (A) (A) (A) (A) (A) (A) (A) (A) (A)
                 (A) (A) (A) (A) (A) (A) (A) (A) (A) (A) (A) (A)
                 (A) (A) (A) (A) (A) (A) (A) (A) (A) (A) (A) (A)
                 (A) (A) (A) (A) (A) (A) (A) (A) (A) (A) (A) (A)
                 (A) (A) (A) (A) (A) (A) (A) (A) (A) (A) (A) (A)
                 (A) (A) (A) (A) (A) (A) (A) (A) (A) (A) (A) (A)
                 (A) (A) (A) (A) (A) (A) (A) (A) (A) (A) (A) (A)
                 (A) (A) (A) (A) (A) (A) (A) (A) (A) (A) (A) (A)
                 (A) (A) (A) (A) (A) (A) (A) (A) (A) (A) (A) (A)
                 (A) (A) (A) (A) (A) (A) (A) (A) (A) (A) (A) (A)
                 (A) (A) (A) (A) (A) (A) (A) (A) (A) (A) (A) (A)
                 (A) (A) (A) (A) (A) (A) (A) (A) (A) (A) (A) (A)
                 (A) (A) (A) (A) (A) (A) (A) (A) (A) (A) (A) (A)
                 (A) (A) (A) (A) (A) (A) (A) (A) (A) (A) (A) (A)
                 (A) (A) (A) (A) (A) (A) (A) (A) (A) (A) (A) (A)
                 (A) (A) (A) (A) (A) (A) (A) (A) (A) (A) (A) (A)
                 (A) (A) (A) (A) (A) (A) (A) (A) (A) (A) (A) (A)
                 (A) (A) (A) (A) (A) (A) (A) (A) (A) (A) (A) (A)
                 (A) (A) (A) (A) (A) (A) (A) (A) (A) (A) (A) (A)
                 (A) (A) (A) (A) (A) (A) (A) (A) (A) (A) (A) (A)
                 (A) (A) (A) (A) (A) (A) (A) (A) (A) (A) (A) (A)
                 (A) (A) (A) (A) (A) (A) (A) (A) (A) (A) (A) (A)
 The electronic state is 1-A.
 Alpha  occ. eigenvalues --  -19.63023 -19.62888 -19.62710 -10.63503 -10.58777
 Alpha  occ. eigenvalues --  -10.57896 -10.57859 -10.57734 -10.53151 -10.53140
 Alpha  occ. eigenvalues --  -10.53104 -10.53100 -10.52774  -1.20002  -1.16730
 Alpha  occ. eigenvalues --   -1.13747  -0.90701  -0.89771  -0.87335  -0.84705
 Alpha  occ. eigenvalues --   -0.75468  -0.74556  -0.73648  -0.70477  -0.66056
 Alpha  occ. eigenvalues --   -0.62318  -0.60903  -0.59065  -0.57757  -0.56731
 Alpha  occ. eigenvalues --   -0.55134  -0.53223  -0.52432  -0.50070  -0.49027
 Alpha  occ. eigenvalues --   -0.49003  -0.46990  -0.45897  -0.45529  -0.44376
 Alpha  occ. eigenvalues --   -0.44023  -0.42660  -0.41995  -0.40555  -0.39201
 Alpha  occ. eigenvalues --   -0.38750  -0.37723  -0.35572  -0.34797  -0.33981
 Alpha  occ. eigenvalues --   -0.31677
 Alpha virt. eigenvalues --   -0.00134   0.00705   0.00822   0.01154   0.02115
 Alpha virt. eigenvalues --    0.02423   0.02536   0.03443   0.03667   0.04230
 Alpha virt. eigenvalues --    0.04566   0.04679   0.05465   0.05926   0.07147
 Alpha virt. eigenvalues --    0.07249   0.07606   0.07960   0.08841   0.09295
 Alpha virt. eigenvalues --    0.10057   0.11095   0.11359   0.11472   0.11966
 Alpha virt. eigenvalues --    0.12019   0.12439   0.12964   0.13169   0.13543
 Alpha virt. eigenvalues --    0.13640   0.13779   0.14016   0.14437   0.14695
 Alpha virt. eigenvalues --    0.15100   0.15216   0.15388   0.15983   0.16315
 Alpha virt. eigenvalues --    0.16619   0.16978   0.17058   0.17506   0.17745
 Alpha virt. eigenvalues --    0.18096   0.18520   0.18650   0.18830   0.19291
 Alpha virt. eigenvalues --    0.19581   0.19683   0.20046   0.20581   0.20998
 Alpha virt. eigenvalues --    0.21559   0.22156   0.23012   0.23918   0.24417
 Alpha virt. eigenvalues --    0.25251   0.25521   0.26242   0.26526   0.27086
 Alpha virt. eigenvalues --    0.27288   0.27968   0.28242   0.28615   0.28915
 Alpha virt. eigenvalues --    0.29905   0.30363   0.30806   0.31521   0.32477
 Alpha virt. eigenvalues --    0.32694   0.32919   0.33974   0.34109   0.34403
 Alpha virt. eigenvalues --    0.34788   0.35245   0.35689   0.35993   0.36278
 Alpha virt. eigenvalues --    0.36518   0.36836   0.37293   0.37561   0.38323
 Alpha virt. eigenvalues --    0.38941   0.39380   0.39919   0.40867   0.41454
 Alpha virt. eigenvalues --    0.41743   0.42369   0.42786   0.43914   0.44835
 Alpha virt. eigenvalues --    0.45495   0.47261   0.49002   0.49649   0.51010
 Alpha virt. eigenvalues --    0.51537   0.52217   0.52426   0.53485   0.54218
 Alpha virt. eigenvalues --    0.54714   0.56330   0.57436   0.57849   0.58172
 Alpha virt. eigenvalues --    0.59660   0.60349   0.60532   0.60872   0.61377
 Alpha virt. eigenvalues --    0.61922   0.62490   0.63234   0.63611   0.63835
 Alpha virt. eigenvalues --    0.64603   0.65099   0.65979   0.66521   0.67469
 Alpha virt. eigenvalues --    0.67698   0.68309   0.69280   0.69889   0.70616
 Alpha virt. eigenvalues --    0.71211   0.71496   0.71966   0.72719   0.73285
 Alpha virt. eigenvalues --    0.73522   0.74309   0.74821   0.75061   0.75593
 Alpha virt. eigenvalues --    0.76871   0.77343   0.77584   0.78239   0.78686
 Alpha virt. eigenvalues --    0.79832   0.81143   0.84197   0.84653   0.85664
 Alpha virt. eigenvalues --    0.86625   0.87110   0.87861   0.88890   0.89981
 Alpha virt. eigenvalues --    0.90875   0.91828   0.92747   0.93635   0.93873
 Alpha virt. eigenvalues --    0.95632   0.96965   0.98775   0.99503   1.01727
 Alpha virt. eigenvalues --    1.02311   1.04116   1.05497   1.07448   1.08029
 Alpha virt. eigenvalues --    1.08398   1.09052   1.09543   1.10188   1.11649
 Alpha virt. eigenvalues --    1.12512   1.13296   1.14548   1.15877   1.16726
 Alpha virt. eigenvalues --    1.17462   1.18105   1.19686   1.19929   1.20493
 Alpha virt. eigenvalues --    1.20702   1.22179   1.22485   1.23686   1.24567
 Alpha virt. eigenvalues --    1.25171   1.25941   1.26248   1.26834   1.27190
 Alpha virt. eigenvalues --    1.27945   1.29168   1.29813   1.30061   1.30531
 Alpha virt. eigenvalues --    1.31132   1.32393   1.32893   1.33646   1.33839
 Alpha virt. eigenvalues --    1.35128   1.35553   1.36155   1.36841   1.38317
 Alpha virt. eigenvalues --    1.38881   1.39805   1.40786   1.41376   1.41792
 Alpha virt. eigenvalues --    1.42388   1.42865   1.43749   1.44794   1.45884
 Alpha virt. eigenvalues --    1.46333   1.46718   1.47876   1.48788   1.48841
 Alpha virt. eigenvalues --    1.49873   1.50295   1.50761   1.52215   1.52316
 Alpha virt. eigenvalues --    1.52812   1.53565   1.53735   1.54709   1.55381
 Alpha virt. eigenvalues --    1.56185   1.56900   1.57627   1.58203   1.58702
 Alpha virt. eigenvalues --    1.58815   1.59869   1.60163   1.61665   1.62561
 Alpha virt. eigenvalues --    1.63543   1.64039   1.64689   1.65445   1.67304
 Alpha virt. eigenvalues --    1.67943   1.68241   1.69152   1.70468   1.70935
 Alpha virt. eigenvalues --    1.71654   1.73431   1.76225   1.76954   1.77595
 Alpha virt. eigenvalues --    1.79557   1.80877   1.81564   1.82272   1.83428
 Alpha virt. eigenvalues --    1.85273   1.86678   1.91031   1.94313   1.99177
 Alpha virt. eigenvalues --    2.00759   2.03186   2.07898   2.12305   2.20239
 Alpha virt. eigenvalues --    2.21865   2.25370   2.33593   2.35836   2.38944
 Alpha virt. eigenvalues --    2.42296   2.44094   2.47160   2.48705   2.52031
 Alpha virt. eigenvalues --    2.57643   2.75798   2.76564   2.80056   2.80959
 Alpha virt. eigenvalues --    2.87832   2.88803   2.90946   2.92304   2.93969
 Alpha virt. eigenvalues --    2.95440   2.96221   2.99608   3.02936   3.03960
 Alpha virt. eigenvalues --    3.06482   3.07490   3.08796   3.09427   3.11207
 Alpha virt. eigenvalues --    3.12601   3.14457   3.15926   3.19834   3.22025
 Alpha virt. eigenvalues --    3.23453   3.27918   3.30137   3.32109   3.33211
 Alpha virt. eigenvalues --    3.35139   3.36698   3.37428   3.39544   3.40870
 Alpha virt. eigenvalues --    3.41895   3.43003   3.43967   3.44977   3.46024
 Alpha virt. eigenvalues --    3.47604   3.49189   3.49653   3.50204   3.51803
 Alpha virt. eigenvalues --    3.52972   3.53734   3.54774   3.54971   3.56212
 Alpha virt. eigenvalues --    3.56691   3.57401   3.58740   3.59567   3.60119
 Alpha virt. eigenvalues --    3.61449   3.62558   3.63652   3.63770   3.64766
 Alpha virt. eigenvalues --    3.66667   3.66962   3.67352   3.69368   3.70287
 Alpha virt. eigenvalues --    3.70639   3.71049   3.72527   3.73568   3.74421
 Alpha virt. eigenvalues --    3.75081   3.76237   3.76642   3.77927   3.79194
 Alpha virt. eigenvalues --    3.80772   3.82035   3.82390   3.83986   3.86415
 Alpha virt. eigenvalues --    3.87086   3.87740   3.89517   3.90450   3.91387
 Alpha virt. eigenvalues --    3.92749   3.93644   3.95128   3.97009   3.98290
 Alpha virt. eigenvalues --    3.99764   4.02359   4.03184   4.03594   4.04254
 Alpha virt. eigenvalues --    4.05092   4.05271   4.06027   4.07043   4.07628
 Alpha virt. eigenvalues --    4.09464   4.09603   4.10829   4.11281   4.11642
 Alpha virt. eigenvalues --    4.12754   4.14568   4.14770   4.15649   4.16003
 Alpha virt. eigenvalues --    4.17343   4.18274   4.19259   4.20456   4.20821
 Alpha virt. eigenvalues --    4.21952   4.22937   4.25036   4.25597   4.26432
 Alpha virt. eigenvalues --    4.27712   4.28222   4.30913   4.31253   4.32383
 Alpha virt. eigenvalues --    4.33356   4.34976   4.36976   4.37137   4.38727
 Alpha virt. eigenvalues --    4.41317   4.42370   4.44125   4.47466   4.51173
 Alpha virt. eigenvalues --    4.57265   4.57628   4.75047   4.76633   4.82496
 Alpha virt. eigenvalues --    4.84550   4.92269   4.95404   4.99532   5.00844
 Alpha virt. eigenvalues --    5.02735   5.06510   5.08523   5.12153   5.12421
 Alpha virt. eigenvalues --    5.13612   5.16336   5.18228   5.30988   5.39430
 Alpha virt. eigenvalues --    5.39930   5.58010   5.59547   5.68400   5.85238
 Alpha virt. eigenvalues --    5.91833   6.01823   7.02244   7.04566   7.05203
 Alpha virt. eigenvalues --    7.08026   7.09664   7.12450   7.13328   7.20318
 Alpha virt. eigenvalues --    7.28178   7.36643   7.39255   7.45181   7.54534
 Alpha virt. eigenvalues --    7.54821   7.62503  23.96227  23.98736  24.04770
 Alpha virt. eigenvalues --   24.07728  24.10995  24.11400  24.13128  24.14865
 Alpha virt. eigenvalues --   24.16395  24.22165  50.17955  50.19743  50.24531
          Condensed to atoms (all electrons):
               1          2          3          4          5          6
     1  C    8.036314   0.057671  -0.546881  -0.044900  -0.134194  -1.385559
     2  C    0.057671   6.043367   0.450437  -0.252505  -0.377123  -0.005757
     3  C   -0.546881   0.450437   6.854132  -0.482127  -0.230782  -0.006392
     4  C   -0.044900  -0.252505  -0.482127   5.753261   0.334455   0.034267
     5  C   -0.134194  -0.377123  -0.230782   0.334455   5.952645   0.003155
     6  C   -1.385559  -0.005757  -0.006392   0.034267   0.003155   6.721007
     7  C   -0.613243  -0.013721   0.138077   0.019330   0.022081   0.354495
     8  C    0.085348   0.000556   0.040768  -0.004044  -0.001391  -0.104872
     9  O   -0.004355  -0.000362  -0.008696   0.002327   0.000419  -0.032108
    10  C    0.079681   0.000351  -0.071018   0.003450  -0.007269  -0.058713
    11  O   -0.108921   0.013548   0.445265   0.013775  -0.000136  -0.022592
    12  C    0.152103  -0.203593  -0.979084  -0.043244   0.061941   0.011095
    13  O   -0.081411   0.014661   0.321955  -0.002527  -0.111944   0.013806
    14  H    0.606952   0.002521  -0.053802   0.001425  -0.003831  -0.079226
    15  H   -0.003921   0.458166   0.001152  -0.069944  -0.035671  -0.001459
    16  H    0.003229   0.481612   0.019011  -0.055084  -0.065888   0.000902
    17  H    0.091178   0.022458   0.519928  -0.042572  -0.026098  -0.062871
    18  H    0.002570   0.000597   0.017844   0.419911  -0.014254   0.005359
    19  H   -0.006527  -0.095505  -0.027100   0.476704   0.005863  -0.007426
    20  H    0.007230  -0.072386  -0.031906   0.002286   0.462351   0.002557
    21  H   -0.003769  -0.057356   0.011065   0.014802   0.456788  -0.001779
    22  H   -0.041250   0.000334   0.013317  -0.002303  -0.001724   0.411184
    23  H    0.057071  -0.001961  -0.035505   0.003304  -0.000904   0.458950
    24  H   -0.107005  -0.004822   0.033343   0.004173   0.000023   0.023526
    25  H    0.229718   0.006096  -0.072229  -0.008140  -0.004487  -0.154434
    26  H    0.045719  -0.000413  -0.007672   0.000738   0.000111  -0.022429
    27  H   -0.006629   0.000020   0.002593  -0.000112   0.000013   0.011321
    28  H    0.004381   0.000056  -0.004465   0.000178  -0.000377  -0.039266
    29  H   -0.013652  -0.000036  -0.007178   0.000334   0.000204  -0.031348
    30  H   -0.001710   0.009171  -0.065227  -0.021450  -0.069808   0.008862
    31  H    0.007062   0.007904  -0.025294   0.001944  -0.019393   0.004428
               7          8          9         10         11         12
     1  C   -0.613243   0.085348  -0.004355   0.079681  -0.108921   0.152103
     2  C   -0.013721   0.000556  -0.000362   0.000351   0.013548  -0.203593
     3  C    0.138077   0.040768  -0.008696  -0.071018   0.445265  -0.979084
     4  C    0.019330  -0.004044   0.002327   0.003450   0.013775  -0.043244
     5  C    0.022081  -0.001391   0.000419  -0.007269  -0.000136   0.061941
     6  C    0.354495  -0.104872  -0.032108  -0.058713  -0.022592   0.011095
     7  C    5.764228  -0.183268   0.165120   0.007365   0.057578  -0.090984
     8  C   -0.183268   5.370385   0.102080   0.081782  -0.002085   0.018051
     9  O    0.165120   0.102080   8.351363  -0.024127   0.004806   0.001218
    10  C    0.007365   0.081782  -0.024127   5.562976  -0.008988   0.007404
    11  O    0.057578  -0.002085   0.004806  -0.008988   8.355065  -0.243090
    12  C   -0.090984   0.018051   0.001218   0.007404  -0.243090   6.807348
    13  O   -0.005189   0.003469  -0.000484  -0.001833  -0.059693  -0.002001
    14  H   -0.118172   0.011069   0.003871   0.001187  -0.090746   0.017375
    15  H    0.001366   0.000073  -0.000023  -0.000283  -0.000107   0.028376
    16  H   -0.000538  -0.000105   0.000005   0.000243   0.000423  -0.018974
    17  H   -0.008816  -0.007342  -0.001527  -0.000701  -0.043277  -0.080802
    18  H   -0.002473  -0.000354   0.000617   0.000323   0.000369  -0.018141
    19  H    0.007499  -0.000062  -0.000205  -0.000405   0.010396   0.034667
    20  H   -0.001570   0.000038   0.000068   0.000278   0.001144  -0.009827
    21  H    0.000599   0.000163  -0.000003  -0.000178  -0.003254  -0.050944
    22  H    0.008261   0.009516  -0.001316  -0.003696   0.000789  -0.002795
    23  H   -0.050636  -0.007110   0.001215  -0.051790  -0.015293   0.021190
    24  H    0.489452  -0.004784  -0.071185   0.014410   0.013592  -0.024125
    25  H    0.328627  -0.000178  -0.032111   0.011163  -0.017399   0.014573
    26  H   -0.033752   0.468312  -0.039145  -0.044878  -0.000509   0.001483
    27  H    0.019333   0.429487  -0.072439  -0.045608   0.000540   0.000245
    28  H    0.002300  -0.040530   0.008152   0.436852  -0.002594  -0.000722
    29  H    0.003895  -0.079254  -0.009517   0.505981   0.001432   0.000284
    30  H   -0.003129   0.000387   0.000101  -0.000202  -0.009700   0.514703
    31  H   -0.000678  -0.000483  -0.000028   0.000028   0.001256   0.405948
              13         14         15         16         17         18
     1  C   -0.081411   0.606952  -0.003921   0.003229   0.091178   0.002570
     2  C    0.014661   0.002521   0.458166   0.481612   0.022458   0.000597
     3  C    0.321955  -0.053802   0.001152   0.019011   0.519928   0.017844
     4  C   -0.002527   0.001425  -0.069944  -0.055084  -0.042572   0.419911
     5  C   -0.111944  -0.003831  -0.035671  -0.065888  -0.026098  -0.014254
     6  C    0.013806  -0.079226  -0.001459   0.000902  -0.062871   0.005359
     7  C   -0.005189  -0.118172   0.001366  -0.000538  -0.008816  -0.002473
     8  C    0.003469   0.011069   0.000073  -0.000105  -0.007342  -0.000354
     9  O   -0.000484   0.003871  -0.000023   0.000005  -0.001527   0.000617
    10  C   -0.001833   0.001187  -0.000283   0.000243  -0.000701   0.000323
    11  O   -0.059693  -0.090746  -0.000107   0.000423  -0.043277   0.000369
    12  C   -0.002001   0.017375   0.028376  -0.018974  -0.080802  -0.018141
    13  O    8.362255  -0.002082  -0.008832   0.010439  -0.094468  -0.066312
    14  H   -0.002082   0.446324  -0.000337   0.000273  -0.006019   0.000911
    15  H   -0.008832  -0.000337   0.512013  -0.020009   0.004878  -0.011618
    16  H    0.010439   0.000273  -0.020009   0.497856  -0.000391  -0.000703
    17  H   -0.094468  -0.006019   0.004878  -0.000391   0.498174  -0.002087
    18  H   -0.066312   0.000911  -0.011618  -0.000703  -0.002087   0.476424
    19  H   -0.029015  -0.001721   0.005688  -0.002147  -0.000486  -0.007447
    20  H    0.012628   0.000600  -0.014049   0.005900  -0.012009   0.000051
    21  H   -0.004816  -0.000125  -0.000954  -0.004783  -0.000083  -0.000342
    22  H    0.000042  -0.008265   0.000060   0.000005   0.004553  -0.000138
    23  H   -0.000605   0.009300  -0.000294   0.000080  -0.014976   0.000284
    24  H   -0.012907  -0.011415  -0.000061   0.000463   0.003199  -0.001076
    25  H   -0.000187   0.015989  -0.000380  -0.000040  -0.020443  -0.001015
    26  H    0.000251   0.002317  -0.000035   0.000011  -0.002363   0.000073
    27  H    0.000247  -0.002726   0.000009  -0.000006   0.000647  -0.000031
    28  H    0.000028  -0.001203  -0.000016   0.000013  -0.000618   0.000019
    29  H   -0.000190   0.000527   0.000005  -0.000004   0.000532   0.000020
    30  H    0.001462  -0.000393  -0.003426   0.000889   0.000119  -0.000870
    31  H    0.006875   0.001241   0.000335  -0.000404  -0.017292   0.000958
              19         20         21         22         23         24
     1  C   -0.006527   0.007230  -0.003769  -0.041250   0.057071  -0.107005
     2  C   -0.095505  -0.072386  -0.057356   0.000334  -0.001961  -0.004822
     3  C   -0.027100  -0.031906   0.011065   0.013317  -0.035505   0.033343
     4  C    0.476704   0.002286   0.014802  -0.002303   0.003304   0.004173
     5  C    0.005863   0.462351   0.456788  -0.001724  -0.000904   0.000023
     6  C   -0.007426   0.002557  -0.001779   0.411184   0.458950   0.023526
     7  C    0.007499  -0.001570   0.000599   0.008261  -0.050636   0.489452
     8  C   -0.000062   0.000038   0.000163   0.009516  -0.007110  -0.004784
     9  O   -0.000205   0.000068  -0.000003  -0.001316   0.001215  -0.071185
    10  C   -0.000405   0.000278  -0.000178  -0.003696  -0.051790   0.014410
    11  O    0.010396   0.001144  -0.003254   0.000789  -0.015293   0.013592
    12  C    0.034667  -0.009827  -0.050944  -0.002795   0.021190  -0.024125
    13  O   -0.029015   0.012628  -0.004816   0.000042  -0.000605  -0.012907
    14  H   -0.001721   0.000600  -0.000125  -0.008265   0.009300  -0.011415
    15  H    0.005688  -0.014049  -0.000954   0.000060  -0.000294  -0.000061
    16  H   -0.002147   0.005900  -0.004783   0.000005   0.000080   0.000463
    17  H   -0.000486  -0.012009  -0.000083   0.004553  -0.014976   0.003199
    18  H   -0.007447   0.000051  -0.000342  -0.000138   0.000284  -0.001076
    19  H    0.485583   0.000525  -0.000663   0.000431  -0.000391  -0.000146
    20  H    0.000525   0.495228  -0.012218  -0.000037   0.001401  -0.000171
    21  H   -0.000663  -0.012218   0.475120  -0.000016  -0.000117  -0.000209
    22  H    0.000431  -0.000037  -0.000016   0.475039  -0.022384  -0.000434
    23  H   -0.000391   0.001401  -0.000117  -0.022384   0.487814  -0.001657
    24  H   -0.000146  -0.000171  -0.000209  -0.000434  -0.001657   0.472088
    25  H    0.000880   0.000908   0.000210  -0.002967   0.004065  -0.034897
    26  H    0.000077   0.000075  -0.000007  -0.000425  -0.004085  -0.002768
    27  H   -0.000001  -0.000022   0.000007   0.001110  -0.002261   0.002880
    28  H   -0.000033   0.000039  -0.000035  -0.009909  -0.003151   0.001855
    29  H   -0.000039  -0.000027   0.000005  -0.008112   0.001760  -0.001034
    30  H   -0.008394   0.005644  -0.005573   0.000434   0.001424  -0.000122
    31  H    0.000448   0.000351  -0.009319  -0.001102  -0.000778  -0.000317
              25         26         27         28         29         30
     1  C    0.229718   0.045719  -0.006629   0.004381  -0.013652  -0.001710
     2  C    0.006096  -0.000413   0.000020   0.000056  -0.000036   0.009171
     3  C   -0.072229  -0.007672   0.002593  -0.004465  -0.007178  -0.065227
     4  C   -0.008140   0.000738  -0.000112   0.000178   0.000334  -0.021450
     5  C   -0.004487   0.000111   0.000013  -0.000377   0.000204  -0.069808
     6  C   -0.154434  -0.022429   0.011321  -0.039266  -0.031348   0.008862
     7  C    0.328627  -0.033752   0.019333   0.002300   0.003895  -0.003129
     8  C   -0.000178   0.468312   0.429487  -0.040530  -0.079254   0.000387
     9  O   -0.032111  -0.039145  -0.072439   0.008152  -0.009517   0.000101
    10  C    0.011163  -0.044878  -0.045608   0.436852   0.505981  -0.000202
    11  O   -0.017399  -0.000509   0.000540  -0.002594   0.001432  -0.009700
    12  C    0.014573   0.001483   0.000245  -0.000722   0.000284   0.514703
    13  O   -0.000187   0.000251   0.000247   0.000028  -0.000190   0.001462
    14  H    0.015989   0.002317  -0.002726  -0.001203   0.000527  -0.000393
    15  H   -0.000380  -0.000035   0.000009  -0.000016   0.000005  -0.003426
    16  H   -0.000040   0.000011  -0.000006   0.000013  -0.000004   0.000889
    17  H   -0.020443  -0.002363   0.000647  -0.000618   0.000532   0.000119
    18  H   -0.001015   0.000073  -0.000031   0.000019   0.000020  -0.000870
    19  H    0.000880   0.000077  -0.000001  -0.000033  -0.000039  -0.008394
    20  H    0.000908   0.000075  -0.000022   0.000039  -0.000027   0.005644
    21  H    0.000210  -0.000007   0.000007  -0.000035   0.000005  -0.005573
    22  H   -0.002967  -0.000425   0.001110  -0.009909  -0.008112   0.000434
    23  H    0.004065  -0.004085  -0.002261  -0.003151   0.001760   0.001424
    24  H   -0.034897  -0.002768   0.002880   0.001855  -0.001034  -0.000122
    25  H    0.519699   0.005250  -0.002927  -0.001866   0.000063  -0.000716
    26  H    0.005250   0.494554  -0.007793   0.006545   0.000133  -0.000053
    27  H   -0.002927  -0.007793   0.468265  -0.010187  -0.002662   0.000022
    28  H   -0.001866   0.006545  -0.010187   0.496726  -0.009242   0.000017
    29  H    0.000063   0.000133  -0.002662  -0.009242   0.469894  -0.000041
    30  H   -0.000716  -0.000053   0.000022   0.000017  -0.000041   0.449705
    31  H    0.001694   0.000251  -0.000079   0.000224   0.000023  -0.012508
              31
     1  C    0.007062
     2  C    0.007904
     3  C   -0.025294
     4  C    0.001944
     5  C   -0.019393
     6  C    0.004428
     7  C   -0.000678
     8  C   -0.000483
     9  O   -0.000028
    10  C    0.000028
    11  O    0.001256
    12  C    0.405948
    13  O    0.006875
    14  H    0.001241
    15  H    0.000335
    16  H   -0.000404
    17  H   -0.017292
    18  H    0.000958
    19  H    0.000448
    20  H    0.000351
    21  H   -0.009319
    22  H   -0.001102
    23  H   -0.000778
    24  H   -0.000317
    25  H    0.001694
    26  H    0.000251
    27  H   -0.000079
    28  H    0.000224
    29  H    0.000023
    30  H   -0.012508
    31  H    0.486285
 Mulliken charges:
               1
     1  C   -0.362301
     2  C   -0.483987
     3  C   -0.213529
     4  C   -0.057711
     5  C   -0.194776
     6  C   -0.048684
     7  C   -0.263439
     8  C   -0.185621
     9  O   -0.343732
    10  C   -0.393784
    11  O   -0.291592
    12  C   -0.329677
    13  O   -0.263622
    14  H    0.258183
    15  H    0.159297
    16  H    0.147722
    17  H    0.299576
    18  H    0.200533
    19  H    0.158955
    20  H    0.154918
    21  H    0.197784
    22  H    0.181796
    23  H    0.166039
    24  H    0.220130
    25  H    0.215481
    26  H    0.140425
    27  H    0.216745
    28  H    0.166827
    29  H    0.177243
    30  H    0.210384
    31  H    0.160419
 Sum of Mulliken charges =  -0.00000
 Mulliken charges with hydrogens summed into heavy atoms:
               1
     1  C   -0.104118
     2  C   -0.176969
     3  C    0.086047
     4  C    0.301776
     5  C    0.157926
     6  C    0.299151
     7  C    0.172172
     8  C    0.171548
     9  O   -0.343732
    10  C   -0.049714
    11  O   -0.291592
    12  C    0.041126
    13  O   -0.263622
 Electronic spatial extent (au):  <R**2>=           3165.1581
 Charge=             -0.0000 electrons
 Dipole moment (field-independent basis, Debye):
    X=              1.1907    Y=              2.4866    Z=             -1.2123  Tot=              3.0117
 Quadrupole moment (field-independent basis, Debye-Ang):
   XX=            -71.1655   YY=            -82.5111   ZZ=            -80.1783
   XY=             -6.3326   XZ=              3.2696   YZ=             -2.2169
 Traceless Quadrupole moment (field-independent basis, Debye-Ang):
   XX=              6.7861   YY=             -4.5595   ZZ=             -2.2266
   XY=             -6.3326   XZ=              3.2696   YZ=             -2.2169
 Octapole moment (field-independent basis, Debye-Ang**2):
  XXX=              7.8474  YYY=             -0.4237  ZZZ=              0.1302  XYY=             13.2132
  XXY=             17.5821  XXZ=             -3.9730  XZZ=             -4.6072  YZZ=             -2.0833
  YYZ=              1.2129  XYZ=             -3.8359
 Hexadecapole moment (field-independent basis, Debye-Ang**3):
 XXXX=          -3208.8076 YYYY=           -604.3636 ZZZZ=           -254.3413 XXXY=            -55.3786
 XXXZ=             52.4118 YYYX=            -24.9652 YYYZ=             -4.1402 ZZZX=             -0.3612
 ZZZY=              0.9504 XXYY=           -680.8202 XXZZ=           -593.9405 YYZZ=           -146.2706
 XXYZ=              5.5554 YYXZ=              2.5649 ZZXY=             -0.5271
 N-N= 8.900469261555D+02 E-N=-3.221940482591D+03  KE= 6.153360907136D+02
 D1PCM: PCM CHGder 1st derivatives, ID1Alg=3 FixD1E=F DoIter=F DoCFld=F I1PDM=0.
 Calling FoFJK, ICntrl=      2127 FMM=F ISym2X=0 I1Cent= 0 IOpClX= 0 NMat=1 NMatS=1 NMatT=0.
 ***** Axes restored to original set *****
 -------------------------------------------------------------------
 Center     Atomic                   Forces (Hartrees/Bohr)
 Number     Number              X              Y              Z
 -------------------------------------------------------------------
      1        6          -0.002681780    0.001575084    0.006443673
      2        6           0.001398064    0.001052702   -0.000070991
      3        6          -0.002715777    0.000981559   -0.005548733
      4        6          -0.000379423    0.005203063    0.002203726
      5        6           0.001534259   -0.001671916   -0.002627380
      6        6           0.002550234   -0.004587341   -0.000255111
      7        6           0.004519163    0.005758995   -0.002468966
      8        6          -0.004466832    0.002835633   -0.004466837
      9        8           0.004616182   -0.007240361   -0.003680336
     10        6          -0.001964229   -0.000308561    0.002434265
     11        8          -0.004405918    0.002866132   -0.009540973
     12        6          -0.000275350   -0.001547840    0.002912587
     13        8           0.004922721   -0.007477406    0.007859935
     14        1           0.002977621   -0.001130483   -0.004889519
     15        1          -0.000888790   -0.001443996    0.002052174
     16        1          -0.002048478    0.000770585   -0.002075588
     17        1           0.003686940    0.001316961    0.007867069
     18        1          -0.000646582   -0.004214154    0.000135689
     19        1           0.000204047    0.001854888   -0.005689597
     20        1           0.001229931   -0.000656978    0.002810616
     21        1          -0.001855484    0.001641985   -0.000258054
     22        1          -0.000882110    0.002243781   -0.001741321
     23        1          -0.001979710    0.000006697    0.004035978
     24        1          -0.003379353   -0.003215526   -0.002301779
     25        1          -0.004583305    0.001512797    0.006304598
     26        1          -0.002015864    0.001396060    0.005734790
     27        1           0.004203143   -0.001245879   -0.000118689
     28        1           0.001419453    0.002316610    0.001340154
     29        1           0.000953125   -0.000719863   -0.002992928
     30        1           0.000064836   -0.000661199   -0.004118191
     31        1           0.000889266    0.002787970    0.000709737
 -------------------------------------------------------------------
 Cartesian Forces:  Max     0.009540973 RMS     0.003379761

 GradGradGradGradGradGradGradGradGradGradGradGradGradGradGradGradGradGrad
 Berny optimization.
 FormGI is forming the generalized inverse of G from B-inverse, IUseBI=4.
 Internal  Forces:  Max     0.018885762 RMS     0.002317891
 Search for a local minimum.
 Step number   1 out of a maximum of  186
 All quantities printed in internal units (Hartrees-Bohrs-Radians)
 Mixed Optimization -- RFO/linear search
 Second derivative matrix not updated -- first step.
 ITU=  0
     Eigenvalues ---    0.00393   0.00626   0.00686   0.00713   0.01426
     Eigenvalues ---    0.01446   0.01691   0.02657   0.02700   0.03112
     Eigenvalues ---    0.03208   0.03838   0.04089   0.04607   0.04666
     Eigenvalues ---    0.04846   0.04883   0.05101   0.05141   0.05156
     Eigenvalues ---    0.05205   0.05638   0.05673   0.05932   0.06092
     Eigenvalues ---    0.06309   0.06572   0.06640   0.07676   0.07873
     Eigenvalues ---    0.07899   0.07909   0.07920   0.07978   0.08062
     Eigenvalues ---    0.09270   0.09526   0.09670   0.10712   0.11571
     Eigenvalues ---    0.11603   0.11695   0.11701   0.12532   0.12631
     Eigenvalues ---    0.14926   0.15802   0.16579   0.17931   0.19240
     Eigenvalues ---    0.20524   0.21422   0.22412   0.25000   0.27372
     Eigenvalues ---    0.27541   0.28278   0.28679   0.28792   0.29067
     Eigenvalues ---    0.29541   0.30069   0.35080   0.35125   0.35149
     Eigenvalues ---    0.35230   0.35248   0.35292   0.35293   0.35348
     Eigenvalues ---    0.35369   0.35391   0.35443   0.35473   0.35493
     Eigenvalues ---    0.35610   0.35830   0.35918   0.35969   0.36038
     Eigenvalues ---    0.40081   0.41399   0.42057   0.42403   0.42997
     Eigenvalues ---    0.456141000.000001000.000001000.000001000.00000
     Eigenvalues --- 1000.000001000.000001000.000001000.000001000.00000
     Eigenvalues --- 1000.000001000.000001000.000001000.000001000.00000
     Eigenvalues --- 1000.000001000.000001000.000001000.000001000.00000
     Eigenvalues --- 1000.000001000.000001000.000001000.000001000.00000
     Eigenvalues --- 1000.000001000.000001000.000001000.000001000.00000
     Eigenvalues --- 1000.000001000.000001000.000001000.000001000.00000
     Eigenvalues --- 1000.000001000.000001000.000001000.000001000.00000
     Eigenvalues --- 1000.000001000.000001000.000001000.000001000.00000
     Eigenvalues --- 1000.000001000.000001000.000001000.000001000.00000
     Eigenvalues --- 1000.000001000.000001000.000001000.000001000.00000
     Eigenvalues --- 1000.000001000.000001000.000001000.000001000.00000
     Eigenvalues --- 1000.000001000.000001000.000001000.000001000.00000
     Eigenvalues --- 1000.000001000.000001000.000001000.000001000.00000
     Eigenvalues --- 1000.000001000.000001000.000001000.000001000.00000
     Eigenvalues --- 1000.000001000.000001000.000001000.000001000.00000
     Eigenvalues --- 1000.000001000.000001000.000001000.000001000.00000
     Eigenvalues --- 1000.000001000.000001000.000001000.000001000.00000
     Eigenvalues --- 1000.000001000.000001000.000001000.000001000.00000
     Eigenvalues --- 1000.000001000.000001000.000001000.000001000.00000
 RFO step:  Lambda=-4.24670701D-03 EMin= 3.92748336D-03
 Linear search not attempted -- first point.
 Iteration  1 RMS(Cart)=  0.08551845 RMS(Int)=  0.00147591
 Iteration  2 RMS(Cart)=  0.00422346 RMS(Int)=  0.00006066
 Iteration  3 RMS(Cart)=  0.00000463 RMS(Int)=  0.00006059
 Iteration  4 RMS(Cart)=  0.00000000 RMS(Int)=  0.00006059
 Iteration  1 RMS(Cart)=  0.00000318 RMS(Int)=  0.00000074
 Iteration  2 RMS(Cart)=  0.00000176 RMS(Int)=  0.00000083
 Iteration  3 RMS(Cart)=  0.00000098 RMS(Int)=  0.00000093
 Variable       Old X    -DE/DX   Delta X   Delta X   Delta X     New X
                                 (Linear)    (Quad)   (Total)
    R1        2.88308  -0.00122   0.00000  -0.00447  -0.00446   2.87862
    R2        2.88880  -0.00083   0.00000  -0.00268  -0.00267   2.88613
    R3        2.68414  -0.00012   0.00000  -0.00028  -0.00028   2.68385
    R4        2.04696   0.00570   0.00000   0.01582   0.01582   2.06278
    R5        2.89077   0.00114   0.00000   0.00329   0.00331   2.89408
    R6        2.90932  -0.00028   0.00000  -0.00216  -0.00213   2.90719
    R7        2.05080   0.00265   0.00000   0.00741   0.00741   2.05820
    R8        2.05274   0.00298   0.00000   0.00836   0.00836   2.06110
    R9        2.64570   0.00165   0.00000   0.00358   0.00358   2.64927
   R10        2.88170  -0.00122   0.00000  -0.00269  -0.00270   2.87900
   R11        2.65384   0.00362   0.00000   0.00911   0.00909   2.66292
   R12        2.04023   0.00876   0.00000   0.02403   0.02403   2.06426
   R13        2.68115   0.00337   0.00000   0.00764   0.00763   2.68877
   R14        2.04210   0.00426   0.00000   0.01173   0.01173   2.05383
   R15        2.04882   0.00594   0.00000   0.01654   0.01654   2.06536
   R16        2.88578  -0.00039   0.00000  -0.00227  -0.00227   2.88351
   R17        2.05303   0.00305   0.00000   0.00855   0.00855   2.06158
   R18        2.04962   0.00249   0.00000   0.00694   0.00694   2.05656
   R19        2.89331  -0.00073   0.00000  -0.00248  -0.00251   2.89080
   R20        2.05114   0.00291   0.00000   0.00815   0.00815   2.05928
   R21        2.05473   0.00441   0.00000   0.01240   0.01240   2.06713
   R22        2.66951   0.00392   0.00000   0.00888   0.00892   2.67842
   R23        2.04130   0.00500   0.00000   0.01374   0.01374   2.05504
   R24        2.05045   0.00753   0.00000   0.02102   0.02102   2.07148
   R25        2.67673   0.00318   0.00000   0.00763   0.00763   2.68436
   R26        2.87183   0.00047   0.00000   0.00148   0.00147   2.87330
   R27        2.05545   0.00612   0.00000   0.01725   0.01725   2.07270
   R28        2.04348   0.00438   0.00000   0.01209   0.01209   2.05557
   R29        2.05204   0.00301   0.00000   0.00842   0.00842   2.06046
   R30        2.05434   0.00313   0.00000   0.00881   0.00881   2.06314
   R31        2.05202   0.00397   0.00000   0.01112   0.01112   2.06314
   R32        2.04914   0.00300   0.00000   0.00836   0.00836   2.05750
    A1        1.93735  -0.00055   0.00000  -0.00665  -0.00676   1.93059
    A2        1.94883   0.00081   0.00000   0.00010  -0.00023   1.94861
    A3        1.89206   0.00090   0.00000   0.00635   0.00633   1.89839
    A4        1.99621  -0.00214   0.00000  -0.02046  -0.02052   1.97569
    A5        1.86757   0.00009   0.00000   0.00513   0.00520   1.87278
    A6        1.81300   0.00115   0.00000   0.01910   0.01914   1.83214
    A7        1.92408   0.00004   0.00000  -0.00685  -0.00698   1.91710
    A8        1.92239  -0.00062   0.00000  -0.00024  -0.00022   1.92217
    A9        1.89372   0.00074   0.00000   0.00469   0.00472   1.89844
   A10        1.92167   0.00084   0.00000   0.00213   0.00218   1.92385
   A11        1.93137  -0.00113   0.00000  -0.00255  -0.00252   1.92885
   A12        1.86974   0.00012   0.00000   0.00315   0.00313   1.87286
   A13        1.88708  -0.00191   0.00000  -0.00663  -0.00663   1.88045
   A14        1.93859  -0.00005   0.00000   0.00030   0.00041   1.93899
   A15        1.92118   0.00099   0.00000   0.00476   0.00474   1.92592
   A16        1.95021   0.00299   0.00000   0.01166   0.01154   1.96175
   A17        1.93048  -0.00007   0.00000   0.00159   0.00167   1.93215
   A18        1.83658  -0.00189   0.00000  -0.01145  -0.01147   1.82511
   A19        1.92770   0.00122   0.00000   0.00227   0.00210   1.92980
   A20        1.95050  -0.00031   0.00000  -0.00330  -0.00323   1.94727
   A21        1.94052  -0.00094   0.00000  -0.00352  -0.00352   1.93700
   A22        1.85333  -0.00109   0.00000  -0.00096  -0.00092   1.85241
   A23        1.90771   0.00077   0.00000   0.00494   0.00502   1.91273
   A24        1.88128   0.00035   0.00000   0.00084   0.00081   1.88210
   A25        1.92035  -0.00078   0.00000  -0.00613  -0.00632   1.91403
   A26        1.91835   0.00056   0.00000   0.00110   0.00115   1.91951
   A27        1.93184  -0.00017   0.00000   0.00029   0.00034   1.93218
   A28        1.90371   0.00041   0.00000  -0.00087  -0.00081   1.90289
   A29        1.92547  -0.00007   0.00000   0.00131   0.00135   1.92682
   A30        1.86317   0.00009   0.00000   0.00463   0.00460   1.86776
   A31        1.91793   0.00143   0.00000  -0.00155  -0.00156   1.91637
   A32        1.90979  -0.00079   0.00000  -0.00246  -0.00248   1.90731
   A33        1.91403  -0.00079   0.00000  -0.00592  -0.00591   1.90813
   A34        1.93351   0.00032   0.00000   0.00696   0.00698   1.94049
   A35        1.91191  -0.00063   0.00000  -0.00027  -0.00032   1.91159
   A36        1.87619   0.00040   0.00000   0.00321   0.00319   1.87939
   A37        1.90490   0.00168   0.00000   0.01125   0.01133   1.91622
   A38        1.93757  -0.00085   0.00000  -0.00882  -0.00899   1.92857
   A39        1.95132  -0.00251   0.00000  -0.01922  -0.01936   1.93196
   A40        1.86372  -0.00026   0.00000   0.00839   0.00839   1.87211
   A41        1.90481   0.00164   0.00000   0.01562   0.01571   1.92052
   A42        1.89923   0.00045   0.00000  -0.00552  -0.00581   1.89342
   A43        1.93320   0.00204   0.00000   0.00928   0.00932   1.94252
   A44        1.90260   0.00061   0.00000   0.00664   0.00665   1.90926
   A45        1.85549  -0.00118   0.00000  -0.00337  -0.00336   1.85213
   A46        1.93262  -0.00174   0.00000  -0.01019  -0.01022   1.92239
   A47        1.94583  -0.00028   0.00000  -0.00303  -0.00305   1.94278
   A48        1.89179   0.00059   0.00000   0.00107   0.00104   1.89283
   A49        1.98076  -0.00438   0.00000  -0.02583  -0.02573   1.95503
   A50        1.92734  -0.00117   0.00000  -0.00648  -0.00655   1.92079
   A51        1.92954  -0.00018   0.00000   0.00052   0.00055   1.93009
   A52        1.91837   0.00070   0.00000   0.00023   0.00023   1.91860
   A53        1.91085   0.00066   0.00000   0.00456   0.00456   1.91542
   A54        1.90202   0.00007   0.00000  -0.00182  -0.00180   1.90022
   A55        1.87478  -0.00005   0.00000   0.00326   0.00325   1.87802
   A56        2.10131  -0.01889   0.00000  -0.07428  -0.07428   2.02703
   A57        1.91876   0.00004   0.00000  -0.00625  -0.00634   1.91242
   A58        1.90704  -0.00050   0.00000  -0.00908  -0.00905   1.89798
   A59        1.89451  -0.00021   0.00000   0.00307   0.00311   1.89762
   A60        1.92101   0.00013   0.00000   0.00349   0.00339   1.92440
   A61        1.94964   0.00039   0.00000   0.00542   0.00548   1.95512
   A62        1.87183   0.00013   0.00000   0.00325   0.00323   1.87506
   A63        2.01017  -0.00572   0.00000  -0.03443  -0.03447   1.97569
    D1        0.90998   0.00041   0.00000   0.00850   0.00848   0.91846
    D2        3.03661   0.00122   0.00000   0.01456   0.01455   3.05116
    D3       -1.19262   0.00079   0.00000   0.01354   0.01353  -1.17909
    D4       -3.12329  -0.00226   0.00000  -0.02447  -0.02452   3.13538
    D5       -0.99666  -0.00145   0.00000  -0.01842  -0.01845  -1.01511
    D6        1.05730  -0.00189   0.00000  -0.01944  -0.01947   1.03783
    D7       -1.13645   0.00007   0.00000   0.00225   0.00224  -1.13421
    D8        0.99018   0.00088   0.00000   0.00831   0.00831   0.99849
    D9        3.04414   0.00044   0.00000   0.00729   0.00729   3.05143
   D10       -0.98845  -0.00150   0.00000  -0.01567  -0.01562  -1.00407
[...]
 165,0.00009441,0.00040858,0.00108013,-0.00035658,0.00099328,-0.0003464
 2,0.00307768,-0.00039914,0.00001519,0.00000997,-0.00001348,0.00008191,
 -0.00002823,-0.00002131,0.00026952,-0.00000420,0.00070870,0.00002377,0
 .00005018,0.00000259,0.00006767,0.00000211,0.00009135,-0.00001515,0.00
 000034,-0.00000257,0.00002061,-0.00001314,-0.00000558,-0.00026187,0.00
 006650,0.00024846,0.00045999,0.00070124,0.00060545,0.00389500,-0.00024
 582,-0.01262263,-0.08472472,0.01380405,0.29833115,-0.00052233,0.000149
 71,0.00001175,0.00000508,0.00000066,0.00000766,-0.00008394,0.00000787,
 -0.00001077,-0.00003520,-0.00002649,-0.00003080,0.00000009,-0.00000410
 ,0.00000632,0.00063930,-0.00027767,-0.00084503,0.00412411,-0.00119208,
 -0.00396166,-0.08653507,0.00716092,0.08438335,0.00199884,-0.00735449,-
 0.02285234,0.00074897,0.00107356,-0.00133228,0.00009608,0.00015641,0.0
 0000149,-0.00000098,0.00001061,0.00000712,0.00011689,0.00002451,0.0000
 3280,-0.00011106,-0.00007904,0.00018981,0.00000247,0.00000128,-0.00000
 149,0.00000611,-0.00000173,-0.00000087,0.00002953,0.00000436,0.0000469
 5,0.00000403,0.00000495,0.00000156,0.00000436,-0.00000140,0.00000496,-
 0.00000036,0.00000064,-0.00000116,0.00000473,-0.00000036,-0.00000203,0
 .00004436,-0.00010934,0.00005852,0.00040075,0.00005809,0.00003527,0.00
 015107,0.00001283,0.00013582,0.00045625,0.00005260,0.00109392,0.085583
 61,-0.00031222,-0.00041497,0.00028060,-0.00000426,-0.00000001,-0.00000
 757,0.00010656,0.00000434,-0.00005435,0.00004124,0.00002713,0.00003338
 ,-0.00000261,0.00000881,-0.00000467,-0.00111501,0.00155042,-0.00013764
 ,0.00421916,-0.00004241,-0.00006632,0.00491430,-0.04877636,-0.00483892
 ,-0.00168611,-0.00988360,-0.03275702,-0.01083611,0.00069728,0.03003039
 ,-0.00013606,0.00033599,-0.00003865,-0.00001164,-0.00001941,0.00000179
 ,-0.00010647,-0.00002194,-0.00000095,-0.00002899,-0.00008787,-0.000045
 25,-0.00000243,-0.00000184,0.00000170,-0.00000632,0.00000204,0.0000003
 8,-0.00000364,-0.00001287,-0.00001503,-0.00000426,-0.00000488,-0.00000
 184,-0.00000370,0.00000061,-0.00000521,0.00000054,-0.00000044,0.000001
 47,-0.00000685,-0.00000059,0.00000257,-0.00011225,-0.00001022,-0.00044
 162,0.00039050,-0.00009933,-0.00048000,-0.00004209,-0.00006256,0.00024
 709,-0.00039845,0.00033964,0.00093689,-0.00011758,0.06001960,-0.000155
 77,-0.00025150,0.00022287,-0.00000519,-0.00000092,-0.00000873,0.000183
 40,0.00003573,-0.00024775,0.00005210,0.00003182,0.00004393,-0.00000696
 ,0.00001656,-0.00000965,0.00019890,-0.00109961,0.00040952,0.00345239,0
 .00019813,0.00071667,0.08071439,-0.00553665,-0.26180107,-0.00525851,-0
 .01442879,-0.02210190,0.00732969,0.00089880,-0.01423734,-0.00053242,0.
 00026136,-0.00001771,-0.00002198,-0.00002294,0.00002564,-0.00015276,-0
 .00005982,0.00002961,0.00014706,-0.00003377,-0.00000914,-0.00000368,-0
 .00000266,0.00000233,-0.00000786,0.00000291,0.00000042,-0.00003454,0.0
 0000344,-0.00000625,-0.00000593,-0.00000701,-0.00000193,-0.00000244,0.
 00000294,-0.00000441,0.00000079,-0.00000135,0.00000318,-0.00001097,-0.
 00000126,0.00000471,-0.00006181,0.00012613,0.00033434,-0.00071239,0.00
 026380,-0.00000189,-0.00033350,0.00001506,0.00047290,-0.00132599,0.000
 38758,0.00019771,-0.08438448,0.01543525,0.29416745,0.00020532,-0.00060
 314,0.00044745,-0.00001085,-0.00000104,-0.00001664,0.00023401,-0.00001
 843,-0.00019288,0.00010386,0.00005904,0.00007833,-0.00000606,0.0000198
 4,-0.00001378,0.00115672,0.00007000,-0.00007950,0.00198160,-0.00338931
 ,-0.00253932,-0.28501270,0.08788824,0.00136114,-0.02437052,0.00006253,
 -0.00358178,0.00124147,0.00081767,0.00086639,-0.00033627,0.00035483,0.
 00002839,-0.00002010,-0.00003123,0.00002013,-0.00026565,-0.00003663,0.
 00003136,-0.00000251,0.00002891,-0.00002902,-0.00000526,-0.00000383,0.
 00000365,-0.00001390,0.00000475,0.00000036,0.00000706,-0.00001469,-0.0
 0000686,-0.00000952,-0.00001218,-0.00000459,-0.00000732,0.00000285,-0.
 00001149,0.00000187,-0.00000190,0.00000275,-0.00001507,-0.00000096,0.0
 0000624,-0.00008634,-0.00008926,0.00003228,0.00007247,-0.00009315,0.00
 002418,-0.00107998,0.00036104,-0.00028631,0.00019467,0.00004815,0.0000
 5936,-0.00849805,0.00431815,0.00106859,0.31421359,-0.00102875,-0.00107
 342,-0.00023353,-0.00000903,-0.00000082,-0.00000973,-0.00010118,-0.000
 19070,0.00010447,0.00002335,0.00003383,0.00002408,0.00000256,-0.000008
 60,0.00000252,-0.00156815,-0.00513556,0.00361651,-0.00138335,-0.003043
 66,-0.00286091,0.09726034,-0.08321150,0.00023006,-0.03185413,0.0058253
 8,-0.00262909,0.02882062,-0.00883133,-0.00095366,0.00036695,0.00056796
 ,-0.00009615,0.00000578,0.00001748,-0.00000681,-0.00009065,0.00013031,
 0.00000742,0.00004562,0.00008821,0.00003823,0.00000032,0.00000087,0.00
 000067,-0.00000433,0.00000167,0.00000148,-0.00001885,-0.00000960,0.000
 01467,0.00000336,-0.00000114,0.00000051,-0.00000364,-0.00000305,-0.000
 00627,-0.00000085,0.00000059,-0.00000100,0.00000361,0.00000214,-0.0000
 0144,0.00203620,-0.00041616,0.00044324,-0.00031711,0.00011932,-0.00016
 443,-0.00124041,0.00034214,-0.00025534,0.00004799,-0.00003070,0.000143
 74,0.00067981,0.00052134,0.00060695,-0.09053600,0.09217857,0.00026230,
 -0.00030557,0.00025073,-0.00000664,-0.00000134,-0.00001107,0.00015170,
 -0.00000348,-0.00017275,0.00005736,0.00003174,0.00004919,-0.00000310,0
 .00001236,-0.00000797,0.00034551,0.00235288,-0.00065042,-0.00005328,-0
 .00197781,-0.00166294,0.00892751,-0.00142950,-0.05219943,-0.02299281,0
 .00257025,-0.00162174,-0.01467014,0.00664262,-0.00019936,-0.00027664,0
 .00020640,0.00003722,-0.00001250,-0.00001516,0.00002552,-0.00018336,-0
 .00003085,0.00003994,-0.00003465,-0.00002409,-0.00003802,-0.00000291,-
 0.00000219,0.00000198,-0.00000791,0.00000256,0.00000026,-0.00001716,0.
 00000370,0.00000276,-0.00000547,-0.00000709,-0.00000247,-0.00000221,0.
 00000255,-0.00000635,0.00000069,-0.00000128,0.00000180,-0.00000880,-0.
 00000096,0.00000344,-0.00070091,0.00027050,0.00013816,-0.00038107,0.00
 015579,0.00017900,-0.00076254,0.00016187,0.00024232,-0.00045881,0.0001
 0878,0.00044120,0.02753646,-0.01029837,0.00170482,0.00337169,0.0027157
 3,0.05247308,-0.00264137,0.00513952,0.00166700,0.00000031,-0.00000129,
 -0.00001010,0.00077421,0.00030869,-0.00125616,0.00015397,0.00004716,0.
 00010324,-0.00002282,0.00006613,-0.00002657,-0.01800787,-0.02315112,-0
 .01658436,-0.00004410,0.00076843,-0.00027934,-0.00004676,0.00122598,0.
 00220266,0.00158957,0.00083163,-0.00019147,-0.11599478,-0.09334283,-0.
 07196525,-0.00356040,-0.00134607,-0.00049338,-0.00005359,-0.00006330,0
 .00011887,-0.00034923,-0.00038905,0.00017817,0.00017083,-0.00000954,-0
 .00020709,-0.00001133,-0.00000899,0.00000549,-0.00001711,0.00000620,-0
 .00000213,0.00003541,-0.00001168,0.00010178,-0.00002218,-0.00002113,-0
 .00000542,0.00000287,0.00001885,-0.00000196,0.00000108,-0.00000578,0.0
 0000861,-0.00003806,-0.00000728,0.00001672,0.00130847,0.00028171,-0.00
 002653,0.00138576,-0.00026527,0.00047318,0.00008338,-0.00016360,0.0000
 1084,0.00008850,-0.00004265,0.00009453,0.00019013,-0.00011524,0.000094
 18,-0.00004489,-0.00052125,0.00029539,0.12811038,0.00198560,-0.0005218
 6,0.00007872,-0.00000613,-0.00000041,-0.00000693,-0.00001972,-0.000074
 53,0.00019126,0.00001491,0.00002052,0.00001766,0.00000248,-0.00000627,
 -0.00000198,0.00607266,0.00874010,0.00646099,0.00226127,-0.00023523,0.
 00010727,-0.01510116,-0.01468468,-0.01879337,-0.00218669,-0.00871893,0
 .00256672,-0.09374223,-0.17147291,-0.09414041,0.00101738,0.00052670,0.
 00019120,0.00000966,-0.00000642,-0.00002723,-0.00005610,0.00005987,-0.
 00003939,-0.00002680,-0.00009984,-0.00000518,0.,-0.00000016,0.00000054
 ,-0.00000350,0.00000122,0.00000082,-0.00000192,-0.00000140,-0.00003180
 ,0.00000036,-0.00000137,-0.00000117,-0.00000439,-0.00000370,-0.0000053
 8,0.00000075,0.00000075,-0.00000022,0.00000116,0.00000176,-0.00000061,
 -0.00081886,0.00038755,0.00006973,-0.00066286,0.00033305,-0.00003929,-
 0.00024919,0.00010747,-0.00005049,-0.00028317,0.00009749,0.00001131,-0
 .00014927,0.00114451,0.00042898,0.00073962,0.00068629,-0.00021346,0.10
 104361,0.18480992,0.00000962,0.00060887,0.00089274,0.00000151,-0.00000
 025,-0.00000259,0.00009341,0.00008435,-0.00026502,0.00003546,0.0000069
 8,0.00002460,-0.00000741,0.00002086,-0.00000733,0.00029996,-0.00066589
 ,-0.00152547,-0.00066587,0.00027628,-0.00027509,0.00903348,0.00856227,
 0.00806884,0.00070901,0.00445418,0.00046740,-0.07324745,-0.09591518,-0
 .12365011,-0.00053352,-0.00031185,0.00035006,-0.00001924,-0.00002281,0
 .00003714,-0.00007790,-0.00011356,0.00003016,0.00015916,0.00040699,0.0
 0026275,-0.00000247,-0.00000246,0.00000125,-0.00000389,0.00000131,-0.0
 0000070,0.00001276,0.00000031,-0.00000292,-0.00000641,-0.00000489,-0.0
 0000194,0.00000055,0.00000424,-0.00000208,0.00000095,-0.00000174,0.000
 00216,-0.00001043,-0.00000293,0.00000490,-0.00003231,-0.00006861,-0.00
 020575,-0.00009470,0.00041666,0.00058210,0.00011952,-0.00011521,-0.000
 00326,0.00002377,-0.00005375,0.00000469,0.00019378,-0.00098407,0.00031
 113,-0.00029676,-0.00062404,0.00036703,0.07948402,0.10380408,0.1290713
 0,0.00098452,0.00073584,0.00191606,0.00000092,0.00000164,-0.00000206,0
 .00024206,0.00013086,0.00015905,0.00005443,-0.00001367,0.00003277,0.00
 000535,0.00000527,-0.00001144,-0.01486712,0.00277601,0.02946168,-0.000
 46075,0.00006538,-0.00001277,0.00071964,-0.00063224,-0.00377790,0.0000
 2911,0.00002215,0.00033036,-0.09156810,0.00586992,0.09617684,0.0000172
 8,0.00001017,-0.00056270,0.00001600,-0.00004347,-0.00007180,-0.0001268
 2,-0.00010991,-0.00008154,-0.00015281,-0.00047425,-0.00062178,-0.00000
 344,-0.00000312,0.00000166,-0.00000568,0.00000117,-0.00000121,0.000063
 64,0.00002208,-0.00018353,-0.00001522,-0.00000951,-0.00000659,-0.00000
 458,0.00000295,-0.00000369,0.00000365,-0.00000128,0.00000200,-0.000008
 94,-0.00000002,0.00000278,0.00150529,-0.00003384,-0.00034034,-0.005834
 65,0.00122742,-0.00085707,0.00004149,-0.00010349,0.00004277,0.00000569
 ,0.00007171,-0.00011719,0.00117215,0.00106740,-0.00022183,0.00038306,-
 0.00061457,-0.00036684,0.00696318,0.00016806,-0.01517677,0.10085933,-0
 .00083537,-0.00012554,0.00010182,-0.00000108,-0.00000051,0.00000113,-0
 .00016071,-0.00011630,-0.00005512,-0.00003632,0.00000282,-0.00001713,-
 0.00000132,-0.00000783,0.00000710,0.00521129,-0.00186939,-0.00945794,-
 0.00006890,-0.00015014,0.00007226,-0.01256032,-0.00053779,0.03118980,0
 .00122909,0.00306006,-0.00113720,0.00547640,-0.04927195,-0.01843552,0.
 00013623,-0.00000107,0.00007869,-0.00000146,0.00001983,0.00001235,0.00
 007929,0.00008063,0.00002837,-0.00015698,0.00025115,0.00018546,0.00000
 252,0.00000219,-0.00000091,0.00000387,-0.00000056,0.00000057,0.0000126
 2,0.00000501,0.00007166,0.00000915,0.00000534,0.00000425,0.00000202,-0
 .00000175,0.00000221,-0.00000170,0.00000098,-0.00000122,0.00000714,0.0
 0000055,-0.00000242,-0.00043458,0.00021694,-0.00024543,0.00244044,0.00
 039991,0.00049207,-0.00000915,0.00004632,-0.00004923,0.00011788,-0.000
 00964,-0.00004515,-0.00007886,-0.00521720,0.00272655,0.00004805,0.0014
 3951,-0.00093112,0.00972139,-0.00109310,-0.01976265,-0.01015811,0.0528
 7877,-0.00044446,-0.00002507,0.00028572,0.00000103,-0.00000045,0.00000
 214,-0.00018878,-0.00006349,0.00006249,-0.00003245,-0.00001412,-0.0000
 1853,0.00000049,-0.00000715,0.00000324,-0.00122240,-0.00014787,0.00345
 575,-0.00042769,0.00013715,0.00009132,0.00518051,-0.00125740,-0.016966
 29,0.00037979,-0.00046712,0.00257757,0.09670545,-0.01607994,-0.2651196
 4,0.00037655,0.00007300,0.00015588,0.00000336,0.00000525,-0.00001108,0
 .00005693,0.00004221,-0.00001709,0.00024631,0.00035266,0.00007479,0.00
 000165,0.00000150,-0.00000090,0.00000359,-0.00000086,0.00000038,0.0000
 3554,0.00001551,-0.00000658,0.00000303,0.00000341,0.00000108,0.0000010
 0,-0.00000204,0.00000275,-0.00000021,0.00000104,-0.00000059,0.00000528
 ,0.00000017,-0.00000173,0.00051704,-0.00018953,0.00057921,-0.00095293,
 0.00002242,0.00109348,0.00005276,0.00001799,0.00000854,-0.00009349,-0.
 00011765,-0.00020274,-0.00032381,0.00320596,-0.00020366,-0.00034324,-0
 .00010598,0.00061118,0.00616842,-0.00056557,-0.01453850,-0.10571027,0.
 01516672,0.28808355,0.00013725,-0.00012342,-0.00014611,0.00158977,0.00
 100664,0.00006247,-0.00989195,-0.00117362,-0.02810539,0.00018915,-0.00
 052774,-0.00083912,0.00516107,-0.00178203,0.02913185,0.00004648,-0.000
 08459,-0.00011107,0.00015051,0.00009766,-0.00020323,0.00001943,0.00001
 732,-0.00000005,-0.00006227,-0.00003503,0.00012609,0.00001845,0.000025
 93,0.00008694,0.00228859,-0.00068199,-0.00072736,-0.05549983,0.0020310
 7,-0.04865768,0.00047749,0.00116334,0.00108674,0.00003680,-0.00001299,
 0.00001858,0.00004312,0.00029629,-0.00012804,-0.00006144,0.00017926,-0
 .00041183,-0.00349163,0.00339407,0.00023052,0.00002070,0.00005044,0.00
 011297,0.00031472,-0.00026174,0.00031293,-0.00437063,-0.00251404,0.002
 91126,0.00106686,0.00075514,-0.00078683,-0.00002432,-0.00001120,0.0000
 2709,0.00004319,0.00007330,0.00010026,-0.00002178,0.00000018,0.0000300
 3,0.00001627,-0.00008996,0.00016291,0.00000680,-0.00000396,0.00000117,
 -0.00000547,0.00000005,-0.00000023,0.00001347,-0.00000756,0.00000226,-
 0.00003074,0.00001181,-0.00000105,0.06378211,-0.00000341,0.00007615,0.
 00007227,0.00049641,0.00037708,0.00056847,0.00488287,0.00000529,0.0213
 8367,0.00029735,-0.00073409,0.00079188,0.00160990,-0.00127843,0.011658
 28,-0.00000801,0.00006066,0.00006843,-0.00011413,-0.00006414,0.0001228
 1,0.00000148,0.00000287,0.00001362,-0.00000714,0.00003950,-0.00007473,
 -0.00001377,-0.00002965,-0.00005874,-0.00258298,0.00066850,0.00021145,
 0.00266356,-0.04995283,0.00677375,0.00014188,-0.00097108,-0.00131091,-
 0.00004415,0.00001668,-0.00000471,0.00006202,0.00015558,-0.00018395,-0
 .00012991,0.00011006,-0.00021914,0.00220413,-0.00114997,0.00010036,-0.
 00004621,0.00011164,-0.00007082,0.00002336,-0.00131832,-0.00027337,-0.
 00187977,-0.00007135,0.00143300,0.00012849,0.00020828,-0.00052538,0.00
 001156,0.00000154,-0.00000762,0.00000742,-0.00004257,-0.00007591,0.000
 01731,0.00000652,-0.00001857,-0.00001111,0.00003399,-0.00006912,-0.000
 00304,0.00000092,-0.00000188,-0.00000016,-0.00000152,-0.00000127,-0.00
 001302,0.00000466,-0.00000261,0.00001702,-0.00000494,0.00000126,-0.002
 25195,0.05167381,0.00003405,-0.00011094,0.00050561,0.00023447,-0.00068
 783,0.00065722,-0.00157115,-0.00079255,-0.00744100,-0.00042166,-0.0007
 7629,-0.00077760,-0.00149264,0.00123408,-0.01566730,0.00013242,-0.0000
 6310,-0.00006450,0.00023471,0.00004210,-0.00012118,-0.00000172,0.00000
 448,-0.00000684,-0.00002259,-0.00006977,0.00002800,0.00000493,0.000035
 59,0.00001785,0.00183250,-0.00043302,0.00136561,-0.05202159,0.00941760
 ,-0.29954842,-0.00022049,0.00104304,0.00040955,-0.00008470,0.00001616,
 -0.00002342,-0.00005190,-0.00004335,0.00013959,0.00018976,0.00064426,-
 0.00014729,-0.00036055,0.00104102,0.00054557,0.00004772,-0.00003821,0.
 00043788,-0.00025730,-0.00040781,0.00065003,0.00283471,0.00089869,-0.0
 0013021,0.00014707,-0.00023194,0.00047144,-0.00001504,0.00000595,0.000
 01672,0.00001061,0.00001575,0.00002803,-0.00001663,-0.00001365,0.00001
 182,0.00001161,0.00000150,0.00004801,0.00000050,-0.00000133,0.00000182
 ,-0.00000264,0.00000042,0.00000108,0.00000870,-0.00000408,-0.00000076,
 -0.00000481,0.00000317,0.00000035,0.05268859,-0.01082321,0.32750573,-0
 .00019094,-0.00047792,0.00004139,-0.00369807,-0.00156182,0.00451217,0.
 00706268,0.02366573,0.00933186,-0.00185119,-0.00001861,-0.00022627,-0.
 00601159,-0.02470713,-0.01085256,-0.00002297,0.00006354,0.00009737,0.0
 0010761,-0.00002120,-0.00002276,0.00001941,0.00002011,0.00002414,-0.00
 006101,-0.00001981,0.00000572,-0.00003515,-0.00005026,-0.00005073,-0.0
 0041081,-0.00036040,-0.00062378,-0.06207529,-0.05982663,-0.01991913,-0
 .00213879,0.00606580,-0.00119325,-0.00005272,0.00000040,0.00000156,-0.
 00050912,-0.00163476,-0.00056758,-0.00006465,-0.00003104,-0.00021754,0
 .00116729,-0.00015686,-0.00003099,0.00020459,-0.00003044,0.00005653,0.
 00014054,0.00016552,0.00002091,0.00110028,0.00058545,0.00006880,0.0008
 5380,0.00066110,-0.00077620,0.00000681,-0.00001945,0.00001227,0.000032
 55,-0.00002290,-0.00005679,0.00000910,-0.00001416,-0.00003005,-0.00000
 180,0.00002543,0.00001826,0.00000129,-0.00000160,-0.00000366,-0.000005
 23,-0.00000429,-0.00000064,-0.00001703,0.00000204,-0.00000407,0.000012
 05,-0.00000433,0.00000206,-0.00196216,-0.00545599,-0.00186694,0.068390
 52,-0.00002641,0.00012215,-0.00014608,-0.00106567,0.00062619,0.0015431
 6,-0.00796314,-0.01714435,-0.00619792,0.00072711,0.00110514,0.00094948
 ,-0.00155844,-0.00769371,-0.00286355,0.00014961,-0.00006364,0.00002110
 ,-0.00007098,0.00002830,-0.00001690,-0.00001897,-0.00003248,-0.0000381
 2,0.00011087,-0.00000391,0.00002609,-0.00001229,0.00004664,0.00001334,
 0.00124878,0.00050895,0.00028080,-0.05752676,-0.27860585,-0.07774075,0
 .00283712,-0.00369500,0.00066316,0.00010103,-0.00000976,-0.00001154,-0
 .00016085,-0.00049618,-0.00035521,-0.00015243,-0.00006842,-0.00003088,
 -0.00024280,0.00103271,0.00035430,-0.00003404,-0.00009077,-0.00003937,
 -0.00005692,0.00010046,-0.00005702,0.00018356,0.00010301,0.00016805,-0
 .00016319,0.00058554,0.00007322,0.00000729,-0.00000098,-0.00000377,0.0
 0005700,-0.00001577,-0.00002864,-0.00000178,0.00002085,0.00002983,-0.0
 0001860,-0.00000785,-0.00002130,-0.00000335,0.00000388,0.00000615,0.00
 000824,0.00000213,0.00000579,0.00001979,-0.00000103,0.00000513,0.00000
 242,-0.00000232,-0.00000202,0.00045932,0.00206514,0.00009327,0.0631645
 0,0.30158091,-0.00007171,0.00020657,0.00012116,0.00270837,0.00068305,-
 0.00126343,0.00016324,0.00689245,-0.00023042,-0.00015487,-0.00044892,-
 0.00092888,0.00349781,0.01650551,0.00571518,0.00011331,-0.00007170,0.0
 0001666,-0.00000885,0.00004166,-0.00001137,-0.00001056,-0.00000153,-0.
 00001295,0.00003063,-0.00003122,0.00001183,0.00000693,0.00004391,0.000
 00714,0.00072668,-0.00008106,-0.00015197,-0.02006204,-0.08061995,-0.07
 425947,-0.00153275,0.00257761,0.00044296,0.00001803,-0.00001192,-0.000
 00949,0.00027518,0.00066071,0.00035573,0.00018876,0.00031899,0.0000583
 3,0.00050758,0.00043019,0.00046096,0.00001488,-0.00006050,0.00026447,-
 0.00012885,-0.00006039,0.00046238,-0.00090216,-0.00022046,0.00057848,-
 0.00069584,-0.00057316,0.00052429,0.00000117,0.00000760,-0.00001140,0.
 00000358,-0.00001960,-0.00001720,0.00000404,-0.00000807,-0.00001034,0.
 00000690,0.00000420,0.00000027,-0.00000135,0.00000135,0.00000240,0.000
 00254,-0.00000231,0.00000183,0.00001797,-0.00000275,0.00000326,0.00000
 615,-0.00000315,-0.00000209,-0.00697467,-0.02947731,-0.00891339,0.0222
 4990,0.08332021,0.07679508\\-0.00055270,-0.00132707,0.00147787,0.00000
 573,-0.00001245,-0.00001523,-0.00029340,-0.00141097,-0.00043902,-0.000
 01961,-0.00001479,-0.00001305,0.00001308,0.00000579,0.00000662,0.00028
 459,0.00050048,-0.00118654,-0.00001158,0.00000029,0.00000493,-0.000002
 11,-0.00000208,0.00001402,0.00000589,0.00000297,-0.00000290,0.00000923
 ,-0.00000151,-0.00000139,0.00057989,0.00224602,0.00013797,-0.00001192,
 0.00000347,0.00000621,-0.00001269,0.00000364,0.00001926,-0.00000145,0.
 00000505,0.00000690,0.00000210,-0.00000213,-0.00000332,-0.00000179,-0.
 00000437,-0.00000103,-0.00000013,-0.00000521,-0.00000809,0.00000274,0.
 00000036,-0.00000894,0.00000170,0.00000685,0.00000392,-0.00000379,0.00
 000018,-0.00000423,0.00000274,0.00000250,-0.00000749,0.00000228,-0.000
 00160,0.00000276,-0.00000147,-0.00000382,0.00000053,0.00000553,0.00000
 153,-0.00000395,0.00000241,-0.00000099,-0.00000579,0.00000149,-0.00000
 340,-0.00000484,-0.00000160,-0.00000066,-0.00000152,-0.00000496,0.0000
 0290,0.00000422,0.00000141,0.00000309,0.00000638,0.00000764,0.00000313
 ,0.00000430,-0.00000922,0.00000280,0.00001145\\\@


 ... FOR AFTERWARDS A MAN FINDS PLEASURE IN HIS PAINS,
 WHEN HE HAS SUFFERED LONG AND WANDERED FAR.

                                    -- HOMER
 Job cpu time:       0 days 15 hours  6 minutes 18.8 seconds.
 Elapsed time:       0 days  0 hours 56 minutes 40.3 seconds.
 File lengths (MBytes):  RWF=    692 Int=      0 D2E=      0 Chk=     33 Scr=      1
 Normal termination of Gaussian 16 at Mon Nov  5 02:29:49 2018.
