 Entering Gaussian System, Link 0=g16
 Initial command:
 /apps/gaussian/g16a03/g16/l1.exe "/jobfs/local/2011861.r-man2/Gau-7054.inp" -scrdir="/jobfs/local/2011861.r-man2/"
 Entering Link 1 = /apps/gaussian/g16a03/g16/l1.exe PID=      7055.
  
 Copyright (c) 1988,1990,1992,1993,1995,1998,2003,2009,2016,
            Gaussian, Inc.  All Rights Reserved.
  
 This is part of the Gaussian(R) 16 program.  It is based on
 the Gaussian(R) 09 system (copyright 2009, Gaussian, Inc.),
 the Gaussian(R) 03 system (copyright 2003, Gaussian, Inc.),
 the Gaussian(R) 98 system (copyright 1998, Gaussian, Inc.),
 the Gaussian(R) 94 system (copyright 1995, Gaussian, Inc.),
 the Gaussian 92(TM) system (copyright 1992, Gaussian, Inc.),
 the Gaussian 90(TM) system (copyright 1990, Gaussian, Inc.),
 the Gaussian 88(TM) system (copyright 1988, Gaussian, Inc.),
 the Gaussian 86(TM) system (copyright 1986, Carnegie Mellon
 University), and the Gaussian 82(TM) system (copyright 1983,
 Carnegie Mellon University). Gaussian is a federally registered
 trademark of Gaussian, Inc.
  
 This software contains proprietary and confidential information,
 including trade secrets, belonging to Gaussian, Inc.
  
 This software is provided under written license and may be
 used, copied, transmitted, or stored only in accord with that
 written license.
  
 The following legend is applicable only to US Government
 contracts under FAR:
  
                    RESTRICTED RIGHTS LEGEND
  
 Use, reproduction and disclosure by the US Government is
 subject to restrictions as set forth in subparagraphs (a)
 and (c) of the Commercial Computer Software - Restricted
 Rights clause in FAR 52.227-19.
  
 Gaussian, Inc.
 340 Quinnipiac St., Bldg. 40, Wallingford CT 06492
  
  
 ---------------------------------------------------------------
 Warning -- This program may not be used in any manner that
 competes with the business of Gaussian, Inc. or will provide
 assistance to any competitor of Gaussian, Inc.  The licensee
 of this program is prohibited from giving any competitor of
 Gaussian, Inc. access to this program.  By using this program,
 the user acknowledges that Gaussian, Inc. is engaged in the
 business of creating and licensing software in the field of
 computational chemistry and represents and warrants to the
 licensee that it is not a competitor of Gaussian, Inc. and that
 it will not use this program in any manner prohibited above.
 ---------------------------------------------------------------
  

 Cite this work as:
 Gaussian 16, Revision A.03,
 M. J. Frisch, G. W. Trucks, H. B. Schlegel, G. E. Scuseria, 
 M. A. Robb, J. R. Cheeseman, G. Scalmani, V. Barone, 
 G. A. Petersson, H. Nakatsuji, X. Li, M. Caricato, A. V. Marenich, 
 J. Bloino, B. G. Janesko, R. Gomperts, B. Mennucci, H. P. Hratchian, 
 J. V. Ortiz, A. F. Izmaylov, J. L. Sonnenberg, D. Williams-Young, 
 F. Ding, F. Lipparini, F. Egidi, J. Goings, B. Peng, A. Petrone, 
 T. Henderson, D. Ranasinghe, V. G. Zakrzewski, J. Gao, N. Rega, 
 G. Zheng, W. Liang, M. Hada, M. Ehara, K. Toyota, R. Fukuda, 
 J. Hasegawa, M. Ishida, T. Nakajima, Y. Honda, O. Kitao, H. Nakai, 
 T. Vreven, K. Throssell, J. A. Montgomery, Jr., J. E. Peralta, 
 F. Ogliaro, M. J. Bearpark, J. J. Heyd, E. N. Brothers, K. N. Kudin, 
 V. N. Staroverov, T. A. Keith, R. Kobayashi, J. Normand, 
 K. Raghavachari, A. P. Rendell, J. C. Burant, S. S. Iyengar, 
 J. Tomasi, M. Cossi, J. M. Millam, M. Klene, C. Adamo, R. Cammi, 
 J. W. Ochterski, R. L. Martin, K. Morokuma, O. Farkas, 
 J. B. Foresman, and D. J. Fox, Gaussian, Inc., Wallingford CT, 2016.
 
 ******************************************
 Gaussian 16:  ES64L-G16RevA.03 25-Dec-2016
                 5-Nov-2018 
 ******************************************
 %mem=6000mb
 %nproc=24
 Will use up to   24 processors via shared memory.
 %chk=2SO_1_e4_D_PSI.inp_extract_23.chk
 ----------------------------------------------------------------------
 #M062X/6-311++G(2d,2p) opt=ModRedundant freq=noraman SCRF=(Solvent=Wat
 er)
 ----------------------------------------------------------------------
 1/18=120,19=15,26=3,38=1/1,3;
 2/9=110,12=2,17=6,18=5,40=1/2;
 3/5=4,6=6,7=1212,11=2,25=1,30=1,70=2201,71=1,72=1,74=-55/1,2,3;
 4//1;
 5/5=2,38=5,53=1/2;
 6/7=2,8=2,9=2,10=2,28=1/1;
 7//1,2,3,16;
 1/18=20,19=15,26=3/3(2);
 2/9=110/2;
 99//99;
 2/9=110/2;
 3/5=4,6=6,7=1212,11=2,25=1,30=1,70=2205,71=1,72=1,74=-55/1,2,3;
 4/5=5,16=3,69=1/1;
 5/5=2,38=5,53=1/2;
 7//1,2,3,16;
 1/18=20,19=15,26=3/3(-5);
 2/9=110/2;
 6/7=2,8=2,9=2,10=2,19=2,28=1/1;
 99/9=1/99;
 -----------------------------
 2SO_1_e4_D_PSI.inp_extract_23
 -----------------------------
 Symbolic Z-matrix:
 Charge =  0 Multiplicity = 1
 C                     1.13624   0.07395   0.10612 
 C                    -3.91411  -0.65157   0.00237 
 C                    -1.21196   0.53289   0.27732 
 C                    -2.57953  -1.39953   0.01147 
 C                    -3.67538   0.86839   0.05851 
 C                     1.78701  -1.13691  -0.54701 
 C                     2.04723   1.29078   0.00215 
 C                     3.9942   -0.04301  -0.07736 
 O                     3.31183   1.01886   0.56599 
 C                     3.19805  -1.33531   0.01284 
 O                    -0.08836   0.37814  -0.53986 
 C                    -2.30991   1.2077   -0.53576 
 O                    -1.6275   -0.70265   0.80009 
 H                     0.95145  -0.13751   1.15304 
 H                    -4.52322  -0.96393   0.84447 
 H                    -4.45415  -0.92135  -0.90065 
 H                    -0.9468    1.12786   1.14067 
 H                    -2.67388  -2.38229   0.45068 
 H                    -2.1917   -1.52117  -0.99355 
 H                    -3.70805   1.20986   1.08929 
 H                    -4.45891   1.39875  -0.47157 
 H                     1.17684  -2.01951  -0.38369 
 H                     1.83842  -0.96765  -1.62035 
 H                     1.63244   2.12942   0.54494 
 H                     2.16252   1.575    -1.04149 
 H                     4.1694    0.22741  -1.11626 
 H                     4.95115  -0.13332   0.41808 
 H                     3.71761  -2.1164   -0.53404 
 H                     3.14446  -1.64729   1.0529 
 H                    -2.25633   0.86612  -1.56506 
 H                    -2.13008   2.2769   -0.54106 
 
 The following ModRedundant input section has been read:
 D       6       1      11       3 F                                           
 

 GradGradGradGradGradGradGradGradGradGradGradGradGradGradGradGradGradGrad
 Berny optimization.
 Initialization pass.
                           ----------------------------
                           !    Initial Parameters    !
                           ! (Angstroms and Degrees)  !
 --------------------------                            --------------------------
 ! Name  Definition              Value          Derivative Info.                !
 --------------------------------------------------------------------------------
 ! R1    R(1,6)                  1.5219         estimate D2E/DX2                !
 ! R2    R(1,7)                  1.5236         estimate D2E/DX2                !
 ! R3    R(1,11)                 1.4176         estimate D2E/DX2                !
 ! R4    R(1,14)                 1.0839         estimate D2E/DX2                !
 ! R5    R(2,4)                  1.5299         estimate D2E/DX2                !
 ! R6    R(2,5)                  1.5396         estimate D2E/DX2                !
 ! R7    R(2,15)                 1.0852         estimate D2E/DX2                !
 ! R8    R(2,16)                 1.0862         estimate D2E/DX2                !
 ! R9    R(3,11)                 1.3979         estimate D2E/DX2                !
 ! R10   R(3,12)                 1.5238         estimate D2E/DX2                !
 ! R11   R(3,13)                 1.4045         estimate D2E/DX2                !
 ! R12   R(3,17)                 1.0815         estimate D2E/DX2                !
 ! R13   R(4,13)                 1.4191         estimate D2E/DX2                !
 ! R14   R(4,18)                 1.0806         estimate D2E/DX2                !
 ! R15   R(4,19)                 1.0841         estimate D2E/DX2                !
 ! R16   R(5,12)                 1.5273         estimate D2E/DX2                !
 ! R17   R(5,20)                 1.0864         estimate D2E/DX2                !
 ! R18   R(5,21)                 1.0845         estimate D2E/DX2                !
 ! R19   R(6,10)                 1.531          estimate D2E/DX2                !
 ! R20   R(6,22)                 1.0853         estimate D2E/DX2                !
 ! R21   R(6,23)                 1.0878         estimate D2E/DX2                !
 ! R22   R(7,9)                  1.4111         estimate D2E/DX2                !
 ! R23   R(7,24)                 1.0817         estimate D2E/DX2                !
 ! R24   R(7,25)                 1.0878         estimate D2E/DX2                !
 ! R25   R(8,9)                  1.4167         estimate D2E/DX2                !
 ! R26   R(8,10)                 1.5205         estimate D2E/DX2                !
 ! R27   R(8,26)                 1.0877         estimate D2E/DX2                !
 ! R28   R(8,27)                 1.0814         estimate D2E/DX2                !
 ! R29   R(10,28)                1.0859         estimate D2E/DX2                !
 ! R30   R(10,29)                1.0872         estimate D2E/DX2                !
 ! R31   R(12,30)                1.0858         estimate D2E/DX2                !
 ! R32   R(12,31)                1.0842         estimate D2E/DX2                !
 ! A1    A(6,1,7)              110.5156         estimate D2E/DX2                !
 ! A2    A(6,1,11)             110.1546         estimate D2E/DX2                !
 ! A3    A(6,1,14)             109.4005         estimate D2E/DX2                !
 ! A4    A(7,1,11)             108.3039         estimate D2E/DX2                !
 ! A5    A(7,1,14)             108.8839         estimate D2E/DX2                !
 ! A6    A(11,1,14)            109.5562         estimate D2E/DX2                !
 ! A7    A(4,2,5)              110.314          estimate D2E/DX2                !
 ! A8    A(4,2,15)             110.138          estimate D2E/DX2                !
 ! A9    A(4,2,16)             108.4951         estimate D2E/DX2                !
 ! A10   A(5,2,15)             110.0529         estimate D2E/DX2                !
 ! A11   A(5,2,16)             110.6464         estimate D2E/DX2                !
 ! A12   A(15,2,16)            107.1311         estimate D2E/DX2                !
 ! A13   A(11,3,12)            108.436          estimate D2E/DX2                !
 ! A14   A(11,3,13)            110.9779         estimate D2E/DX2                !
 ! A15   A(11,3,17)            109.2986         estimate D2E/DX2                !
 ! A16   A(12,3,13)            112.0245         estimate D2E/DX2                !
 ! A17   A(12,3,17)            111.0379         estimate D2E/DX2                !
 ! A18   A(13,3,17)            105.0324         estimate D2E/DX2                !
 ! A19   A(2,4,13)             110.392          estimate D2E/DX2                !
 ! A20   A(2,4,18)             111.77           estimate D2E/DX2                !
 ! A21   A(2,4,19)             111.1867         estimate D2E/DX2                !
 ! A22   A(13,4,18)            106.22           estimate D2E/DX2                !
 ! A23   A(13,4,19)            109.2857         estimate D2E/DX2                !
 ! A24   A(18,4,19)            107.8178         estimate D2E/DX2                !
 ! A25   A(2,5,12)             110.1057         estimate D2E/DX2                !
 ! A26   A(2,5,20)             109.8917         estimate D2E/DX2                !
 ! A27   A(2,5,21)             110.6671         estimate D2E/DX2                !
 ! A28   A(12,5,20)            109.0404         estimate D2E/DX2                !
 ! A29   A(12,5,21)            110.309          estimate D2E/DX2                !
 ! A30   A(20,5,21)            106.7578         estimate D2E/DX2                !
 ! A31   A(1,6,10)             109.8939         estimate D2E/DX2                !
 ! A32   A(1,6,22)             110.0007         estimate D2E/DX2                !
 ! A33   A(1,6,23)             108.6538         estimate D2E/DX2                !
 ! A34   A(10,6,22)            110.9613         estimate D2E/DX2                !
 ! A35   A(10,6,23)            109.7198         estimate D2E/DX2                !
 ! A36   A(22,6,23)            107.5521         estimate D2E/DX2                !
 ! A37   A(1,7,9)              110.7742         estimate D2E/DX2                !
 ! A38   A(1,7,24)             110.8352         estimate D2E/DX2                !
 ! A39   A(1,7,25)             109.7255         estimate D2E/DX2                !
 ! A40   A(9,7,24)             107.0122         estimate D2E/DX2                !
 ! A41   A(9,7,25)             109.8004         estimate D2E/DX2                !
 ! A42   A(24,7,25)            108.6331         estimate D2E/DX2                !
 ! A43   A(9,8,10)             110.9706         estimate D2E/DX2                !
 ! A44   A(9,8,26)             108.9638         estimate D2E/DX2                !
 ! A45   A(9,8,27)             106.3073         estimate D2E/DX2                !
 ! A46   A(10,8,26)            110.6272         estimate D2E/DX2                !
 ! A47   A(10,8,27)            111.4194         estimate D2E/DX2                !
 ! A48   A(26,8,27)            108.4099         estimate D2E/DX2                !
 ! A49   A(7,9,8)              113.2442         estimate D2E/DX2                !
 ! A50   A(6,10,8)             110.5332         estimate D2E/DX2                !
 ! A51   A(6,10,28)            110.49           estimate D2E/DX2                !
 ! A52   A(6,10,29)            109.9742         estimate D2E/DX2                !
 ! A53   A(8,10,28)            109.3264         estimate D2E/DX2                !
 ! A54   A(8,10,29)            109.0535         estimate D2E/DX2                !
 ! A55   A(28,10,29)           107.3959         estimate D2E/DX2                !
 ! A56   A(1,11,3)             116.854          estimate D2E/DX2                !
 ! A57   A(3,12,5)             109.7662         estimate D2E/DX2                !
 ! A58   A(3,12,30)            109.3267         estimate D2E/DX2                !
 ! A59   A(3,12,31)            108.6517         estimate D2E/DX2                !
 ! A60   A(5,12,30)            110.0631         estimate D2E/DX2                !
 ! A61   A(5,12,31)            111.6697         estimate D2E/DX2                !
 ! A62   A(30,12,31)           107.3011         estimate D2E/DX2                !
 ! A63   A(3,13,4)             115.0649         estimate D2E/DX2                !
 ! D1    D(7,1,6,10)            52.0264         estimate D2E/DX2                !
 ! D2    D(7,1,6,22)           174.4772         estimate D2E/DX2                !
 ! D3    D(7,1,6,23)           -68.0327         estimate D2E/DX2                !
 ! D4    D(11,1,6,10)          171.6657         estimate D2E/DX2                !
 ! D5    D(11,1,6,22)          -65.8836         estimate D2E/DX2                !
 ! D6    D(11,1,6,23)           51.6065         estimate D2E/DX2                !
 ! D7    D(14,1,6,10)          -67.8512         estimate D2E/DX2                !
 ! D8    D(14,1,6,22)           54.5995         estimate D2E/DX2                !
 ! D9    D(14,1,6,23)          172.0896         estimate D2E/DX2                !
 ! D10   D(6,1,7,9)            -56.0251         estimate D2E/DX2                !
 ! D11   D(6,1,7,24)          -174.6571         estimate D2E/DX2                !
 ! D12   D(6,1,7,25)            65.3676         estimate D2E/DX2                !
 ! D13   D(11,1,7,9)          -176.7738         estimate D2E/DX2                !
 ! D14   D(11,1,7,24)           64.5942         estimate D2E/DX2                !
 ! D15   D(11,1,7,25)          -55.3811         estimate D2E/DX2                !
 ! D16   D(14,1,7,9)            64.1628         estimate D2E/DX2                !
 ! D17   D(14,1,7,24)          -54.4692         estimate D2E/DX2                !
 ! D18   D(14,1,7,25)         -174.4445         estimate D2E/DX2                !
 ! D19   D(6,1,11,3)           128.9918         Frozen                          !
 ! D20   D(7,1,11,3)          -110.0356         estimate D2E/DX2                !
 ! D21   D(14,1,11,3)            8.6024         estimate D2E/DX2                !
 ! D22   D(5,2,4,13)            33.849          estimate D2E/DX2                !
 ! D23   D(5,2,4,18)           151.8409         estimate D2E/DX2                !
 ! D24   D(5,2,4,19)           -87.617          estimate D2E/DX2                !
 ! D25   D(15,2,4,13)          -87.8316         estimate D2E/DX2                !
 ! D26   D(15,2,4,18)           30.1603         estimate D2E/DX2                !
 ! D27   D(15,2,4,19)          150.7024         estimate D2E/DX2                !
 ! D28   D(16,2,4,13)          155.2007         estimate D2E/DX2                !
 ! D29   D(16,2,4,18)          -86.8074         estimate D2E/DX2                !
 ! D30   D(16,2,4,19)           33.7347         estimate D2E/DX2                !
 ! D31   D(4,2,5,12)            26.4763         estimate D2E/DX2                !
 ! D32   D(4,2,5,20)           -93.6494         estimate D2E/DX2                !
 ! D33   D(4,2,5,21)           148.6923         estimate D2E/DX2                !
 ! D34   D(15,2,5,12)          148.2074         estimate D2E/DX2                !
 ! D35   D(15,2,5,20)           28.0816         estimate D2E/DX2                !
 ! D36   D(15,2,5,21)          -89.5767         estimate D2E/DX2                !
 ! D37   D(16,2,5,12)          -93.5876         estimate D2E/DX2                !
 ! D38   D(16,2,5,20)          146.2866         estimate D2E/DX2                !
 ! D39   D(16,2,5,21)           28.6283         estimate D2E/DX2                !
 ! D40   D(12,3,11,1)          165.0667         estimate D2E/DX2                !
 ! D41   D(13,3,11,1)          -71.4863         estimate D2E/DX2                !
 ! D42   D(17,3,11,1)           43.8909         estimate D2E/DX2                !
 ! D43   D(11,3,12,5)          155.8234         estimate D2E/DX2                !
 ! D44   D(11,3,12,30)          35.004          estimate D2E/DX2                !
 ! D45   D(11,3,12,31)         -81.8041         estimate D2E/DX2                !
 ! D46   D(13,3,12,5)           33.0082         estimate D2E/DX2                !
 ! D47   D(13,3,12,30)         -87.8113         estimate D2E/DX2                !
 ! D48   D(13,3,12,31)         155.3807         estimate D2E/DX2                !
 ! D49   D(17,3,12,5)          -84.0795         estimate D2E/DX2                !
 ! D50   D(17,3,12,30)         155.1011         estimate D2E/DX2                !
 ! D51   D(17,3,12,31)          38.293          estimate D2E/DX2                !
 ! D52   D(11,3,13,4)          -90.5642         estimate D2E/DX2                !
 ! D53   D(12,3,13,4)           30.7989         estimate D2E/DX2                !
 ! D54   D(17,3,13,4)          151.4363         estimate D2E/DX2                !
 ! D55   D(2,4,13,3)           -67.7267         estimate D2E/DX2                !
 ! D56   D(18,4,13,3)          170.9262         estimate D2E/DX2                !
 ! D57   D(19,4,13,3)           54.8598         estimate D2E/DX2                !
 ! D58   D(2,5,12,3)           -61.4572         estimate D2E/DX2                !
 ! D59   D(2,5,12,30)           58.9165         estimate D2E/DX2                !
 ! D60   D(2,5,12,31)          177.9811         estimate D2E/DX2                !
 ! D61   D(20,5,12,3)           59.1818         estimate D2E/DX2                !
 ! D62   D(20,5,12,30)         179.5555         estimate D2E/DX2                !
 ! D63   D(20,5,12,31)         -61.3799         estimate D2E/DX2                !
 ! D64   D(21,5,12,3)          176.1154         estimate D2E/DX2                !
 ! D65   D(21,5,12,30)         -63.511          estimate D2E/DX2                !
 ! D66   D(21,5,12,31)          55.5537         estimate D2E/DX2                !
 ! D67   D(1,6,10,8)           -51.6643         estimate D2E/DX2                !
 ! D68   D(1,6,10,28)         -172.8112         estimate D2E/DX2                !
 ! D69   D(1,6,10,29)           68.8026         estimate D2E/DX2                !
 ! D70   D(22,6,10,8)         -173.5445         estimate D2E/DX2                !
 ! D71   D(22,6,10,28)          65.3086         estimate D2E/DX2                !
 ! D72   D(22,6,10,29)         -53.0776         estimate D2E/DX2                !
 ! D73   D(23,6,10,8)           67.7453         estimate D2E/DX2                !
 ! D74   D(23,6,10,28)         -53.4015         estimate D2E/DX2                !
 ! D75   D(23,6,10,29)        -171.7877         estimate D2E/DX2                !
 ! D76   D(1,7,9,8)             60.7628         estimate D2E/DX2                !
 ! D77   D(24,7,9,8)          -178.314          estimate D2E/DX2                !
 ! D78   D(25,7,9,8)           -60.5857         estimate D2E/DX2                !
 ! D79   D(10,8,9,7)           -60.4599         estimate D2E/DX2                !
 ! D80   D(26,8,9,7)            61.5881         estimate D2E/DX2                !
 ! D81   D(27,8,9,7)           178.2333         estimate D2E/DX2                !
 ! D82   D(9,8,10,6)            55.0818         estimate D2E/DX2                !
 ! D83   D(9,8,10,28)          176.9166         estimate D2E/DX2                !
 ! D84   D(9,8,10,29)          -65.9338         estimate D2E/DX2                !
 ! D85   D(26,8,10,6)          -65.9914         estimate D2E/DX2                !
 ! D86   D(26,8,10,28)          55.8433         estimate D2E/DX2                !
 ! D87   D(26,8,10,29)         172.993          estimate D2E/DX2                !
 ! D88   D(27,8,10,6)          173.335          estimate D2E/DX2                !
 ! D89   D(27,8,10,28)         -64.8302         estimate D2E/DX2                !
 ! D90   D(27,8,10,29)          52.3194         estimate D2E/DX2                !
 --------------------------------------------------------------------------------
 Trust Radius=3.00D-01 FncErr=1.00D-07 GrdErr=1.00D-06 EigMax=2.50D+02 EigMin=1.00D-04
 Number of steps in this run=    186 maximum allowed number of steps=    186.
 GradGradGradGradGradGradGradGradGradGradGradGradGradGradGradGradGradGrad

                          Input orientation:                          
 ---------------------------------------------------------------------
 Center     Atomic      Atomic             Coordinates (Angstroms)
 Number     Number       Type             X           Y           Z
 ---------------------------------------------------------------------
      1          6           0        1.136240    0.073953    0.106120
      2          6           0       -3.914111   -0.651573    0.002366
      3          6           0       -1.211957    0.532892    0.277321
      4          6           0       -2.579526   -1.399525    0.011472
      5          6           0       -3.675380    0.868391    0.058508
      6          6           0        1.787006   -1.136906   -0.547005
      7          6           0        2.047232    1.290779    0.002150
      8          6           0        3.994202   -0.043005   -0.077356
      9          8           0        3.311830    1.018858    0.565988
     10          6           0        3.198050   -1.335312    0.012841
     11          8           0       -0.088360    0.378136   -0.539862
     12          6           0       -2.309908    1.207697   -0.535755
     13          8           0       -1.627501   -0.702649    0.800086
     14          1           0        0.951452   -0.137514    1.153043
     15          1           0       -4.523220   -0.963930    0.844465
     16          1           0       -4.454148   -0.921351   -0.900652
     17          1           0       -0.946802    1.127861    1.140673
     18          1           0       -2.673884   -2.382293    0.450675
     19          1           0       -2.191699   -1.521171   -0.993545
     20          1           0       -3.708049    1.209855    1.089288
     21          1           0       -4.458909    1.398754   -0.471574
     22          1           0        1.176841   -2.019513   -0.383686
     23          1           0        1.838417   -0.967649   -1.620346
     24          1           0        1.632435    2.129424    0.544937
     25          1           0        2.162517    1.574998   -1.041489
     26          1           0        4.169404    0.227413   -1.116260
     27          1           0        4.951153   -0.133321    0.418077
     28          1           0        3.717607   -2.116403   -0.534037
     29          1           0        3.144461   -1.647293    1.052903
     30          1           0       -2.256335    0.866121   -1.565063
     31          1           0       -2.130084    2.276895   -0.541063
 ---------------------------------------------------------------------
                    Distance matrix (angstroms):
                    1          2          3          4          5
     1  C    0.000000
     2  C    5.103254   0.000000
     3  C    2.398742   2.963139   0.000000
     4  C    3.998376   1.529912   2.382259   0.000000
     5  C    4.876996   1.539622   2.495775   2.519236   0.000000
     6  C    1.521923   5.748051   3.530088   4.409928   5.850258
     7  C    1.523608   6.269796   3.357443   5.352075   5.738456
     8  C    2.866233   7.932095   5.249909   6.712819   7.724739
     9  O    2.416095   7.437892   4.558963   6.392507   7.007231
    10  C    2.499158   7.144959   4.796697   5.777933   7.218201
    11  O    1.417556   3.998835   1.397930   3.109655   3.669483
    12  C    3.684198   2.513946   1.523795   2.677640   1.527348
    13  O    2.953466   2.422303   1.404465   1.419119   2.685501
    14  H    1.083934   5.026133   2.428306   3.919651   4.859776
    15  H    5.801021   1.085224   3.677851   2.159066   2.166555
    16  H    5.766859   1.086214   3.743561   2.138885   2.174774
    17  H    2.553446   3.642396   1.081514   3.213808   2.946785
    18  H    4.546307   2.175899   3.265821   1.080572   3.423994
    19  H    3.850826   2.171346   2.606563   1.084097   3.003020
    20  H    5.071886   2.165358   2.710728   3.040414   1.086357
    21  H    5.778799   2.173767   3.442856   3.405258   1.084523
    22  H    2.150386   5.285649   3.557816   3.827640   5.663883
    23  H    2.135105   5.985372   3.893269   4.729436   6.049095
    24  H    2.159567   6.228363   3.272781   5.520750   5.477200
    25  H    2.150206   6.555354   3.769923   5.695918   5.982502
    26  H    3.273812   8.207750   5.567264   7.033261   7.958113
    27  H    3.833255   8.890124   6.200611   7.647204   8.691938
    28  H    3.445420   7.789517   5.654880   6.361240   7.994771
    29  H    2.809277   7.205451   4.932860   5.823229   7.336738
    30  H    3.863929   2.740155   2.143862   2.779041   2.156311
    31  H    3.992577   3.471886   2.134070   3.744777   2.175157
                    6          7          8          9         10
     6  C    0.000000
     7  C    2.502587   0.000000
     8  C    2.507769   2.361354   0.000000
     9  O    2.865512   1.411050   1.416713   0.000000
    10  C    1.530960   2.867203   1.520543   2.420957   0.000000
    11  O    2.410892   2.384837   4.130204   3.632454   3.747249
    12  C    4.720381   4.391004   6.443306   5.731792   6.091425
    13  O    3.696227   4.256069   5.727877   5.235970   4.930107
    14  H    2.141751   2.136658   3.283465   2.693179   2.789621
    15  H    6.464137   6.997431   8.616515   8.086842   7.774801
    16  H    6.254881   6.926508   8.533694   8.137927   7.717640
    17  H    3.930793   3.207338   5.221881   4.298615   4.951669
    18  H    4.737710   5.998464   7.086216   6.885485   5.980592
    19  H    4.022083   5.183339   6.425710   6.258812   5.486051
    20  H    6.195189   5.857617   7.890208   7.041947   7.438469
    21  H    6.741418   6.524258   8.584239   7.848901   8.144863
    22  H    1.085343   3.444486   3.455133   3.832983   2.170403
    23  H    1.087820   2.788655   2.807703   3.301093   2.156636
    24  H    3.447483   1.081665   3.268737   2.013496   3.839098
    25  H    2.782076   1.087775   2.627272   2.052850   3.264023
    26  H    2.803790   2.623967   1.087724   2.047383   2.158821
    27  H    3.456934   3.260953   1.081372   2.009172   2.163878
    28  H    2.164902   3.832302   2.141038   3.347323   1.085872
    29  H    2.159371   3.307606   2.138524   2.715412   1.087167
    30  H    4.625707   4.599693   6.489144   5.963989   6.089861
    31  H    5.195928   4.326370   6.565351   5.694089   6.460949
                   11         12         13         14         15
    11  O    0.000000
    12  C    2.371384   0.000000
    13  O    2.309223   2.428904   0.000000
    14  H    2.052567   3.911279   2.663636   0.000000
    15  H    4.835854   3.394071   2.907821   5.545288   0.000000
    16  H    4.569348   3.043643   3.306096   5.835458   1.747002
    17  H    2.030568   2.162138   1.982452   2.281380   4.153805
    18  H    3.909740   3.740795   2.009530   4.321506   2.363656
    19  H    2.870058   2.769524   2.050710   4.049907   3.020726
    20  H    4.055618   2.143728   2.840773   4.850816   2.334477
    21  H    4.488655   2.158432   3.748318   5.854187   2.705249
    22  H    2.715483   4.753465   3.316592   2.440135   5.925648
    23  H    2.586707   4.808021   4.235718   3.027791   6.822443
    24  H    2.684201   4.190411   4.325843   2.443878   6.895698
    25  H    2.598183   4.515890   4.789918   3.035679   7.396084
    26  H    4.299245   6.578710   6.175881   3.954507   8.990298
    27  H    5.155184   7.445209   6.614284   4.066669   9.520266
    28  H    4.550620   6.883355   5.687597   3.796558   8.434435
    29  H    4.134053   6.358061   4.871128   2.664348   7.700894
    30  H    2.447301   1.085827   2.906957   4.322647   3.780698
    31  H    2.788176   1.084227   3.305897   4.265587   4.260251
                   16         17         18         19         20
    16  H    0.000000
    17  H    4.546180   0.000000
    18  H    2.670164   3.972416   0.000000
    19  H    2.342454   3.622434   1.749230   0.000000
    20  H    3.009745   2.762942   3.792209   3.754466   0.000000
    21  H    2.359453   3.873967   4.281726   3.733451   1.742344
    22  H    5.760317   4.091393   3.956747   3.459384   6.038263
    23  H    6.333757   4.446553   5.162481   4.115957   6.545756
    24  H    6.960133   2.830281   6.237697   5.506158   5.446347
    25  H    7.073320   3.824870   6.424755   5.343010   6.255964
    26  H    8.702402   5.663931   7.489756   6.598199   8.239169
    27  H    9.529938   6.074422   7.949851   7.412094   8.788426
    28  H    8.266809   5.923395   6.472365   5.956958   8.296960
    29  H    7.879228   4.944453   5.895426   5.716508   7.424386
    30  H    2.909790   3.017348   3.845743   2.455600   3.044865
    31  H    3.969805   2.355562   4.794507   3.825420   2.507308
                   21         22         23         24         25
    21  H    0.000000
    22  H    6.591961   0.000000
    23  H    6.824651   1.753120   0.000000
    24  H    6.218653   4.275931   3.784540   0.000000
    25  H    6.648244   3.784808   2.627769   1.762136   0.000000
    26  H    8.731291   3.813237   2.667541   3.579586   2.418506
    27  H    9.575385   4.294878   3.813187   4.018706   3.581226
    28  H    8.900317   2.547054   2.455821   4.851719   4.037605
    29  H    8.331487   2.464521   3.051873   4.099737   3.966592
    30  H    2.516098   4.637805   4.486955   4.601148   4.505873
    31  H    2.489857   5.423988   5.238408   3.918889   4.378300
                   26         27         28         29         30
    26  H    0.000000
    27  H    1.759389   0.000000
    28  H    2.456945   2.522057   0.000000
    29  H    3.044717   2.441158   1.751268   0.000000
    30  H    6.472982   7.541857   6.756215   6.506888   0.000000
    31  H    6.649419   7.541420   7.314137   6.764673   1.747798
                   31
    31  H    0.000000
 Stoichiometry    C10H18O3
 Framework group  C1[X(C10H18O3)]
 Deg. of freedom    87
 Full point group                 C1      NOp   1
 Largest Abelian subgroup         C1      NOp   1
 Largest concise Abelian subgroup C1      NOp   1
                         Standard orientation:                         
 ---------------------------------------------------------------------
 Center     Atomic      Atomic             Coordinates (Angstroms)
 Number     Number       Type             X           Y           Z
 ---------------------------------------------------------------------
      1          6           0        1.136240   -0.073953   -0.106120
      2          6           0       -3.914111    0.651573   -0.002366
      3          6           0       -1.211957   -0.532892   -0.277321
      4          6           0       -2.579526    1.399525   -0.011472
      5          6           0       -3.675380   -0.868391   -0.058508
      6          6           0        1.787006    1.136906    0.547005
      7          6           0        2.047232   -1.290779   -0.002150
      8          6           0        3.994202    0.043005    0.077356
      9          8           0        3.311830   -1.018858   -0.565988
     10          6           0        3.198050    1.335312   -0.012841
     11          8           0       -0.088360   -0.378136    0.539862
     12          6           0       -2.309908   -1.207697    0.535755
     13          8           0       -1.627501    0.702649   -0.800086
     14          1           0        0.951452    0.137514   -1.153043
     15          1           0       -4.523220    0.963930   -0.844465
     16          1           0       -4.454148    0.921351    0.900652
     17          1           0       -0.946802   -1.127861   -1.140673
     18          1           0       -2.673884    2.382293   -0.450675
     19          1           0       -2.191699    1.521171    0.993545
     20          1           0       -3.708049   -1.209855   -1.089288
     21          1           0       -4.458909   -1.398754    0.471574
     22          1           0        1.176841    2.019513    0.383686
     23          1           0        1.838417    0.967649    1.620346
     24          1           0        1.632435   -2.129424   -0.544937
     25          1           0        2.162517   -1.574998    1.041489
     26          1           0        4.169404   -0.227413    1.116260
     27          1           0        4.951153    0.133321   -0.418077
     28          1           0        3.717607    2.116403    0.534037
     29          1           0        3.144461    1.647293   -1.052903
     30          1           0       -2.256335   -0.866121    1.565063
     31          1           0       -2.130084   -2.276895    0.541063
 ---------------------------------------------------------------------
 Rotational constants (GHZ):           2.2260870           0.3702762           0.3363998
 Standard basis: 6-311++G(2d,2p) (5D, 7F)
 There are   557 symmetry adapted cartesian basis functions of A   symmetry.
 There are   531 symmetry adapted basis functions of A   symmetry.
   531 basis functions,   762 primitive gaussians,   557 cartesian basis functions
    51 alpha electrons       51 beta electrons
       nuclear repulsion energy       881.0669441820 Hartrees.
 NAtoms=   31 NActive=   31 NUniq=   31 SFac= 1.00D+00 NAtFMM=   60 NAOKFM=F Big=F
 Integral buffers will be    131072 words long.
 Raffenetti 2 integral format.
 Two-electron integral symmetry is turned on.
 ------------------------------------------------------------------------------
 Polarizable Continuum Model (PCM)
 =================================
 Model                : PCM.
 Atomic radii         : UFF (Universal Force Field).
 Polarization charges : Total charges.
 Charge compensation  : None.
 Solution method      : On-the-fly selection.
 Cavity type          : Scaled VdW (van der Waals Surface) (Alpha=1.100).
 Cavity algorithm     : GePol (No added spheres)
                        Default sphere list used, NSphG=   31.
                        Lebedev-Laikov grids with approx.  5.0 points / Ang**2.
                        Smoothing algorithm: York/Karplus (Gamma=1.0000).
                        Polarization charges: spherical gaussians, with
                                              point-specific exponents (IZeta= 3).
                        Self-potential: point-specific (ISelfS= 7).
                        Self-field    : sphere-specific E.n sum rule (ISelfD= 2).
 1st derivatives      : Analytical E(r).r(x)/FMM algorithm (CHGder, D1EAlg=3).
                        Cavity 1st derivative terms included.
 Solvent              : Water, Eps=  78.355300 Eps(inf)=   1.777849
 ------------------------------------------------------------------------------
 One-electron integrals computed using PRISM.
 NBasis=   531 RedAO= T EigKep=  5.46D-06  NBF=   531
 NBsUse=   531 1.00D-06 EigRej= -1.00D+00 NBFU=   531
 ExpMin= 3.60D-02 ExpMax= 8.59D+03 ExpMxC= 1.30D+03 IAcc=3 IRadAn=         5 AccDes= 0.00D+00
 Harris functional with IExCor= 1009 and IRadAn=       5 diagonalized for initial guess.
 HarFok:  IExCor= 1009 AccDes= 0.00D+00 IRadAn=         5 IDoV= 1 UseB2=F ITyADJ=14
 ICtDFT=  3500011 ScaDFX=  1.000000  1.000000  1.000000  1.000000
 FoFCou: FMM=F IPFlag=           0 FMFlag=      100000 FMFlg1=           0
         NFxFlg=           0 DoJE=T BraDBF=F KetDBF=T FulRan=T
         wScrn=  0.000000 ICntrl=       500 IOpCl=  0 I1Cent=   200000004 NGrid=           0
         NMat0=    1 NMatS0=      1 NMatT0=    0 NMatD0=    1 NMtDS0=    0 NMtDT0=    0
 Petite list used in FoFCou.
 Requested convergence on RMS density matrix=1.00D-08 within 128 cycles.
 Requested convergence on MAX density matrix=1.00D-06.
 Requested convergence on             energy=1.00D-06.
 No special actions if energy rises.
 Inv3:  Mode=1 IEnd=    13204812.
 Iteration    1 A*A^-1 deviation from unit magnitude is 3.89D-15 for   2086.
 Iteration    1 A*A^-1 deviation from orthogonality  is 2.33D-15 for   2068   1830.
 Iteration    1 A^-1*A deviation from unit magnitude is 3.89D-15 for   2086.
 Iteration    1 A^-1*A deviation from orthogonality  is 1.28D-15 for   1632    465.
 Error on total polarization charges =  0.01503
 SCF Done:  E(RM062X) =  -617.496558022     A.U. after   12 cycles
            NFock= 12  Conv=0.48D-08     -V/T= 2.0035

 **********************************************************************

            Population analysis using the SCF density.

 **********************************************************************

 Orbital symmetries:
       Occupied  (A) (A) (A) (A) (A) (A) (A) (A) (A) (A) (A) (A)
                 (A) (A) (A) (A) (A) (A) (A) (A) (A) (A) (A) (A)
                 (A) (A) (A) (A) (A) (A) (A) (A) (A) (A) (A) (A)
                 (A) (A) (A) (A) (A) (A) (A) (A) (A) (A) (A) (A)
                 (A) (A) (A)
       Virtual   (A) (A) (A) (A) (A) (A) (A) (A) (A) (A) (A) (A)
                 (A) (A) (A) (A) (A) (A) (A) (A) (A) (A) (A) (A)
                 (A) (A) (A) (A) (A) (A) (A) (A) (A) (A) (A) (A)
                 (A) (A) (A) (A) (A) (A) (A) (A) (A) (A) (A) (A)
                 (A) (A) (A) (A) (A) (A) (A) (A) (A) (A) (A) (A)
                 (A) (A) (A) (A) (A) (A) (A) (A) (A) (A) (A) (A)
                 (A) (A) (A) (A) (A) (A) (A) (A) (A) (A) (A) (A)
                 (A) (A) (A) (A) (A) (A) (A) (A) (A) (A) (A) (A)
                 (A) (A) (A) (A) (A) (A) (A) (A) (A) (A) (A) (A)
                 (A) (A) (A) (A) (A) (A) (A) (A) (A) (A) (A) (A)
                 (A) (A) (A) (A) (A) (A) (A) (A) (A) (A) (A) (A)
                 (A) (A) (A) (A) (A) (A) (A) (A) (A) (A) (A) (A)
                 (A) (A) (A) (A) (A) (A) (A) (A) (A) (A) (A) (A)
                 (A) (A) (A) (A) (A) (A) (A) (A) (A) (A) (A) (A)
                 (A) (A) (A) (A) (A) (A) (A) (A) (A) (A) (A) (A)
                 (A) (A) (A) (A) (A) (A) (A) (A) (A) (A) (A) (A)
                 (A) (A) (A) (A) (A) (A) (A) (A) (A) (A) (A) (A)
                 (A) (A) (A) (A) (A) (A) (A) (A) (A) (A) (A) (A)
                 (A) (A) (A) (A) (A) (A) (A) (A) (A) (A) (A) (A)
                 (A) (A) (A) (A) (A) (A) (A) (A) (A) (A) (A) (A)
                 (A) (A) (A) (A) (A) (A) (A) (A) (A) (A) (A) (A)
                 (A) (A) (A) (A) (A) (A) (A) (A) (A) (A) (A) (A)
                 (A) (A) (A) (A) (A) (A) (A) (A) (A) (A) (A) (A)
                 (A) (A) (A) (A) (A) (A) (A) (A) (A) (A) (A) (A)
                 (A) (A) (A) (A) (A) (A) (A) (A) (A) (A) (A) (A)
                 (A) (A) (A) (A) (A) (A) (A) (A) (A) (A) (A) (A)
                 (A) (A) (A) (A) (A) (A) (A) (A) (A) (A) (A) (A)
                 (A) (A) (A) (A) (A) (A) (A) (A) (A) (A) (A) (A)
                 (A) (A) (A) (A) (A) (A) (A) (A) (A) (A) (A) (A)
                 (A) (A) (A) (A) (A) (A) (A) (A) (A) (A) (A) (A)
                 (A) (A) (A) (A) (A) (A) (A) (A) (A) (A) (A) (A)
                 (A) (A) (A) (A) (A) (A) (A) (A) (A) (A) (A) (A)
                 (A) (A) (A) (A) (A) (A) (A) (A) (A) (A) (A) (A)
                 (A) (A) (A) (A) (A) (A) (A) (A) (A) (A) (A) (A)
                 (A) (A) (A) (A) (A) (A) (A) (A) (A) (A) (A) (A)
                 (A) (A) (A) (A) (A) (A) (A) (A) (A) (A) (A) (A)
                 (A) (A) (A) (A) (A) (A) (A) (A) (A) (A) (A) (A)
                 (A) (A) (A) (A) (A) (A) (A) (A) (A) (A) (A) (A)
                 (A) (A) (A) (A) (A) (A) (A) (A) (A) (A) (A) (A)
                 (A) (A) (A) (A) (A) (A) (A) (A) (A) (A) (A) (A)
 The electronic state is 1-A.
 Alpha  occ. eigenvalues --  -19.63138 -19.62895 -19.62794 -10.63538 -10.58581
 Alpha  occ. eigenvalues --  -10.57861 -10.57798 -10.57764 -10.53195 -10.53157
 Alpha  occ. eigenvalues --  -10.53128 -10.53077 -10.52804  -1.20273  -1.16747
 Alpha  occ. eigenvalues --   -1.13869  -0.90940  -0.89774  -0.87414  -0.84440
 Alpha  occ. eigenvalues --   -0.75355  -0.74184  -0.73705  -0.70486  -0.65853
 Alpha  occ. eigenvalues --   -0.62783  -0.60580  -0.59199  -0.58438  -0.56901
 Alpha  occ. eigenvalues --   -0.55424  -0.52995  -0.52665  -0.49733  -0.49465
 Alpha  occ. eigenvalues --   -0.47832  -0.47318  -0.45907  -0.45736  -0.44522
 Alpha  occ. eigenvalues --   -0.44430  -0.42769  -0.40696  -0.40498  -0.38998
 Alpha  occ. eigenvalues --   -0.38584  -0.38244  -0.35972  -0.35294  -0.34069
 Alpha  occ. eigenvalues --   -0.31704
 Alpha virt. eigenvalues --   -0.00103   0.00754   0.00851   0.01055   0.02104
 Alpha virt. eigenvalues --    0.02425   0.02550   0.03611   0.03669   0.04142
 Alpha virt. eigenvalues --    0.04300   0.04699   0.05641   0.05783   0.06888
 Alpha virt. eigenvalues --    0.07158   0.07653   0.07868   0.08478   0.09052
 Alpha virt. eigenvalues --    0.10001   0.10320   0.10998   0.11538   0.12033
 Alpha virt. eigenvalues --    0.12309   0.12358   0.13017   0.13099   0.13234
 Alpha virt. eigenvalues --    0.13512   0.13956   0.14116   0.14529   0.14926
 Alpha virt. eigenvalues --    0.15146   0.15206   0.15385   0.15920   0.16176
 Alpha virt. eigenvalues --    0.16496   0.16767   0.17050   0.17279   0.17806
 Alpha virt. eigenvalues --    0.17966   0.18057   0.18734   0.19096   0.19490
 Alpha virt. eigenvalues --    0.19859   0.20139   0.20582   0.20853   0.21689
 Alpha virt. eigenvalues --    0.22171   0.22558   0.22972   0.23418   0.23991
 Alpha virt. eigenvalues --    0.24729   0.25386   0.25752   0.26629   0.27002
 Alpha virt. eigenvalues --    0.27408   0.27714   0.28147   0.28842   0.28983
 Alpha virt. eigenvalues --    0.29757   0.30007   0.30646   0.31009   0.31480
 Alpha virt. eigenvalues --    0.32004   0.32479   0.33226   0.33712   0.34400
 Alpha virt. eigenvalues --    0.34450   0.35134   0.35433   0.35950   0.36265
 Alpha virt. eigenvalues --    0.36493   0.36787   0.37396   0.37681   0.37917
 Alpha virt. eigenvalues --    0.39068   0.39515   0.40111   0.40393   0.40834
 Alpha virt. eigenvalues --    0.41577   0.42599   0.43027   0.43578   0.44050
 Alpha virt. eigenvalues --    0.45342   0.48018   0.48657   0.49737   0.50496
 Alpha virt. eigenvalues --    0.51705   0.52330   0.53109   0.53847   0.54714
 Alpha virt. eigenvalues --    0.55702   0.55904   0.57137   0.57983   0.58858
 Alpha virt. eigenvalues --    0.59462   0.59751   0.60677   0.60975   0.61606
 Alpha virt. eigenvalues --    0.61944   0.62420   0.62902   0.63055   0.63820
 Alpha virt. eigenvalues --    0.64164   0.64354   0.65567   0.66249   0.66953
 Alpha virt. eigenvalues --    0.67829   0.68241   0.69133   0.69858   0.69997
 Alpha virt. eigenvalues --    0.70697   0.70897   0.71269   0.72646   0.73006
 Alpha virt. eigenvalues --    0.73877   0.74335   0.74564   0.75393   0.75797
 Alpha virt. eigenvalues --    0.76037   0.76384   0.77082   0.77743   0.78350
 Alpha virt. eigenvalues --    0.80247   0.81542   0.84053   0.84176   0.84844
 Alpha virt. eigenvalues --    0.86554   0.87073   0.87616   0.88391   0.89209
 Alpha virt. eigenvalues --    0.90596   0.91108   0.91949   0.92853   0.95199
 Alpha virt. eigenvalues --    0.96273   0.97653   0.98416   1.00453   1.02302
 Alpha virt. eigenvalues --    1.02907   1.03737   1.05557   1.06206   1.07162
 Alpha virt. eigenvalues --    1.07608   1.08632   1.09239   1.10343   1.11470
 Alpha virt. eigenvalues --    1.12269   1.13576   1.14011   1.15723   1.16479
 Alpha virt. eigenvalues --    1.17562   1.17867   1.18021   1.18750   1.20173
 Alpha virt. eigenvalues --    1.20860   1.22056   1.22711   1.23121   1.24380
 Alpha virt. eigenvalues --    1.25304   1.25516   1.25793   1.26534   1.28000
 Alpha virt. eigenvalues --    1.28734   1.29192   1.29463   1.30720   1.31469
 Alpha virt. eigenvalues --    1.31934   1.32214   1.32485   1.33244   1.33735
 Alpha virt. eigenvalues --    1.34081   1.35271   1.35598   1.37194   1.37749
 Alpha virt. eigenvalues --    1.38095   1.38501   1.39204   1.40226   1.40790
 Alpha virt. eigenvalues --    1.41874   1.42444   1.42734   1.43457   1.45371
 Alpha virt. eigenvalues --    1.45672   1.45960   1.47113   1.47811   1.48260
 Alpha virt. eigenvalues --    1.48945   1.49567   1.49925   1.51286   1.51559
 Alpha virt. eigenvalues --    1.52386   1.52833   1.53276   1.53752   1.54612
 Alpha virt. eigenvalues --    1.56026   1.56391   1.56801   1.57215   1.58320
 Alpha virt. eigenvalues --    1.58756   1.59219   1.60108   1.60561   1.62205
 Alpha virt. eigenvalues --    1.62776   1.63286   1.64376   1.65438   1.66472
 Alpha virt. eigenvalues --    1.67145   1.67706   1.68880   1.69771   1.70969
 Alpha virt. eigenvalues --    1.71460   1.73581   1.75258   1.75812   1.76812
 Alpha virt. eigenvalues --    1.78062   1.79016   1.79922   1.82440   1.83027
 Alpha virt. eigenvalues --    1.87053   1.87784   1.89451   1.93885   1.98150
 Alpha virt. eigenvalues --    2.00214   2.02903   2.09212   2.11201   2.18445
 Alpha virt. eigenvalues --    2.23895   2.25606   2.31992   2.35802   2.38453
 Alpha virt. eigenvalues --    2.41338   2.43415   2.45142   2.45620   2.51899
 Alpha virt. eigenvalues --    2.57070   2.75597   2.76288   2.79935   2.80612
 Alpha virt. eigenvalues --    2.87367   2.88386   2.90444   2.92379   2.93058
 Alpha virt. eigenvalues --    2.93560   2.96582   3.00624   3.01353   3.02809
 Alpha virt. eigenvalues --    3.05502   3.07337   3.07696   3.09327   3.10304
 Alpha virt. eigenvalues --    3.12944   3.13605   3.17181   3.18654   3.22013
 Alpha virt. eigenvalues --    3.25414   3.28544   3.30682   3.30701   3.33362
 Alpha virt. eigenvalues --    3.35295   3.36426   3.36747   3.39704   3.40583
 Alpha virt. eigenvalues --    3.41612   3.42220   3.43891   3.44748   3.45842
 Alpha virt. eigenvalues --    3.46792   3.48069   3.48440   3.49686   3.51117
 Alpha virt. eigenvalues --    3.51598   3.53926   3.54276   3.55015   3.55968
 Alpha virt. eigenvalues --    3.56866   3.57921   3.58237   3.58875   3.60584
 Alpha virt. eigenvalues --    3.61170   3.61503   3.62825   3.63337   3.64522
 Alpha virt. eigenvalues --    3.64947   3.65442   3.67859   3.68547   3.69557
 Alpha virt. eigenvalues --    3.70505   3.71263   3.71632   3.73039   3.73686
 Alpha virt. eigenvalues --    3.74192   3.75109   3.76113   3.76873   3.78215
 Alpha virt. eigenvalues --    3.79465   3.80742   3.82347   3.84595   3.85829
 Alpha virt. eigenvalues --    3.86112   3.87146   3.89112   3.90619   3.91391
 Alpha virt. eigenvalues --    3.93028   3.94158   3.94894   3.98259   3.98795
 Alpha virt. eigenvalues --    3.99483   4.01258   4.02738   4.03065   4.03682
 Alpha virt. eigenvalues --    4.04606   4.05034   4.05877   4.06584   4.07377
 Alpha virt. eigenvalues --    4.08084   4.08744   4.09696   4.10371   4.11507
 Alpha virt. eigenvalues --    4.12233   4.12605   4.13929   4.15135   4.16109
 Alpha virt. eigenvalues --    4.16917   4.17454   4.18734   4.19247   4.20006
 Alpha virt. eigenvalues --    4.20589   4.21651   4.25128   4.25312   4.25430
 Alpha virt. eigenvalues --    4.26628   4.28163   4.28590   4.30742   4.31866
 Alpha virt. eigenvalues --    4.32982   4.33121   4.34932   4.36780   4.38331
 Alpha virt. eigenvalues --    4.41501   4.43727   4.44843   4.45811   4.48235
 Alpha virt. eigenvalues --    4.57229   4.58885   4.75215   4.76676   4.82656
 Alpha virt. eigenvalues --    4.84411   4.92404   4.95264   4.99707   5.00628
 Alpha virt. eigenvalues --    5.02838   5.06486   5.08515   5.11988   5.12836
 Alpha virt. eigenvalues --    5.13531   5.14839   5.18136   5.30287   5.38957
 Alpha virt. eigenvalues --    5.41815   5.57225   5.58902   5.64647   5.86094
 Alpha virt. eigenvalues --    5.87572   6.06233   7.02354   7.05012   7.05718
 Alpha virt. eigenvalues --    7.07337   7.09615   7.12285   7.13625   7.19947
 Alpha virt. eigenvalues --    7.27274   7.34870   7.38158   7.41481   7.52873
 Alpha virt. eigenvalues --    7.55572   7.64969  23.96213  23.99294  24.04632
 Alpha virt. eigenvalues --   24.07011  24.10903  24.12576  24.13152  24.15522
 Alpha virt. eigenvalues --   24.15682  24.20970  50.17225  50.17555  50.23757
          Condensed to atoms (all electrons):
               1          2          3          4          5          6
     1  C    8.103815   0.045814  -0.460324   0.064743  -0.056375  -1.622159
     2  C    0.045814   6.141703   0.489290  -0.326214  -0.369828  -0.021622
     3  C   -0.460324   0.489290   6.618189  -0.504432  -0.301935  -0.051837
     4  C    0.064743  -0.326214  -0.504432   5.787340   0.334115   0.029563
     5  C   -0.056375  -0.369828  -0.301935   0.334115   5.899276  -0.018557
     6  C   -1.622159  -0.021622  -0.051837   0.029563  -0.018557   7.542798
     7  C   -0.509964  -0.021688   0.027970   0.018434   0.032494  -0.205599
     8  C    0.212708   0.002466  -0.018400   0.000549  -0.002589  -0.105222
     9  O   -0.002127  -0.000034   0.001286  -0.000059  -0.000440  -0.011216
    10  C   -0.223843  -0.006463  -0.080606   0.010186  -0.000373   0.060773
    11  O    0.263479   0.021813   0.346945  -0.000506  -0.015985  -0.133175
    12  C   -0.103541  -0.190919  -0.398975  -0.154794   0.132058  -0.087419
    13  O    0.047322  -0.013926   0.279703   0.052656  -0.102036  -0.104762
    14  H    0.412042   0.006647  -0.018070  -0.003757  -0.009786   0.084899
    15  H    0.003419   0.479918  -0.006818  -0.088086  -0.049882  -0.005286
    16  H   -0.002654   0.476851   0.012022  -0.048713  -0.072763   0.005390
    17  H    0.049789   0.022994   0.489601  -0.051098  -0.028039  -0.022273
    18  H   -0.010452  -0.006643   0.020980   0.425364  -0.010326   0.015900
    19  H    0.002087  -0.092538  -0.045654   0.476582   0.002591  -0.011669
    20  H    0.000934  -0.071291  -0.030378   0.002783   0.460541   0.006060
    21  H   -0.001161  -0.055056   0.015265   0.008929   0.450309  -0.002497
    22  H   -0.073720  -0.009104   0.008053   0.008667   0.002189   0.402402
    23  H    0.017549   0.001996   0.010521  -0.002576   0.000670   0.471547
    24  H   -0.093578  -0.000905   0.010533   0.002195  -0.000453   0.055795
    25  H   -0.013971   0.000872   0.008932  -0.002592  -0.002761  -0.012209
    26  H    0.045183   0.000009   0.005783  -0.000452  -0.000095  -0.030986
    27  H   -0.000688   0.000072  -0.003015   0.000099  -0.000082   0.011993
    28  H   -0.023802  -0.000201  -0.005905   0.000627  -0.000082   0.005062
    29  H   -0.015588  -0.000085   0.008252  -0.000687   0.000356  -0.032735
    30  H   -0.010569   0.008232  -0.058625  -0.028157  -0.068328   0.008834
    31  H   -0.017327  -0.003524  -0.027554   0.015438   0.002071   0.007403
               7          8          9         10         11         12
     1  C   -0.509964   0.212708  -0.002127  -0.223843   0.263479  -0.103541
     2  C   -0.021688   0.002466  -0.000034  -0.006463   0.021813  -0.190919
     3  C    0.027970  -0.018400   0.001286  -0.080606   0.346945  -0.398975
     4  C    0.018434   0.000549  -0.000059   0.010186  -0.000506  -0.154794
     5  C    0.032494  -0.002589  -0.000440  -0.000373  -0.015985   0.132058
     6  C   -0.205599  -0.105222  -0.011216   0.060773  -0.133175  -0.087419
     7  C    6.248781  -0.246318   0.176200   0.176768  -0.199684   0.105477
     8  C   -0.246318   5.394567   0.099648   0.059619   0.016825  -0.010449
     9  O    0.176200   0.099648   8.327383  -0.032893   0.003008   0.001741
    10  C    0.176768   0.059619  -0.032893   5.652393   0.002816   0.011379
    11  O   -0.199684   0.016825   0.003008   0.002816   8.255566  -0.256874
    12  C    0.105477  -0.010449   0.001741   0.011379  -0.256874   6.318268
    13  O    0.032534  -0.000025   0.000138  -0.002459  -0.016840  -0.004693
    14  H   -0.078778   0.010394  -0.010651  -0.011720  -0.013782  -0.025872
    15  H    0.000373   0.000008  -0.000006  -0.000262   0.000161   0.045781
    16  H   -0.000293   0.000013   0.000006   0.000350   0.000755  -0.012941
    17  H   -0.033908   0.002235   0.000749  -0.010182  -0.039623   0.020844
    18  H   -0.000891   0.000207   0.000011   0.001164  -0.001281  -0.023812
    19  H    0.005757  -0.001090  -0.000057  -0.001801   0.011951   0.049549
    20  H   -0.001866  -0.000049   0.000015   0.000143   0.000158  -0.011604
    21  H    0.001533  -0.000051  -0.000006  -0.000046  -0.003355  -0.049026
    22  H    0.028073  -0.010181  -0.001158   0.028911   0.002267   0.010418
    23  H   -0.033855  -0.006773  -0.000091  -0.091310  -0.004622  -0.000785
    24  H    0.433511   0.004172  -0.077892   0.015181  -0.001440  -0.010493
    25  H    0.380019   0.003868  -0.036773  -0.010911   0.008284   0.008238
    26  H   -0.038603   0.458044  -0.043955  -0.039864  -0.000119   0.000797
    27  H    0.013124   0.433369  -0.072215  -0.046020   0.001134  -0.000328
    28  H   -0.010948  -0.031694   0.006995   0.422325  -0.001485  -0.001062
    29  H    0.009620  -0.084490  -0.000444   0.487128  -0.000513   0.002775
    30  H   -0.003916  -0.000005  -0.000045   0.000050  -0.014096   0.530727
    31  H    0.004787  -0.000511   0.000307   0.000539   0.000444   0.389362
              13         14         15         16         17         18
     1  C    0.047322   0.412042   0.003419  -0.002654   0.049789  -0.010452
     2  C   -0.013926   0.006647   0.479918   0.476851   0.022994  -0.006643
     3  C    0.279703  -0.018070  -0.006818   0.012022   0.489601   0.020980
     4  C    0.052656  -0.003757  -0.088086  -0.048713  -0.051098   0.425364
     5  C   -0.102036  -0.009786  -0.049882  -0.072763  -0.028039  -0.010326
     6  C   -0.104762   0.084899  -0.005286   0.005390  -0.022273   0.015900
     7  C    0.032534  -0.078778   0.000373  -0.000293  -0.033908  -0.000891
     8  C   -0.000025   0.010394   0.000008   0.000013   0.002235   0.000207
     9  O    0.000138  -0.010651  -0.000006   0.000006   0.000749   0.000011
    10  C   -0.002459  -0.011720  -0.000262   0.000350  -0.010182   0.001164
    11  O   -0.016840  -0.013782   0.000161   0.000755  -0.039623  -0.001281
    12  C   -0.004693  -0.025872   0.045781  -0.012941   0.020844  -0.023812
    13  O    8.290140  -0.009224  -0.009412   0.012983  -0.096955  -0.066748
    14  H   -0.009224   0.439042  -0.000428   0.000440  -0.009698   0.001359
    15  H   -0.009412  -0.000428   0.511463  -0.022434   0.003743  -0.012248
    16  H    0.012983   0.000440  -0.022434   0.503835  -0.001287   0.000530
    17  H   -0.096955  -0.009698   0.003743  -0.001287   0.480034  -0.002711
    18  H   -0.066748   0.001359  -0.012248   0.000530  -0.002711   0.473777
    19  H   -0.023332  -0.001635   0.006470  -0.002073   0.000192  -0.008289
    20  H    0.010961   0.001625  -0.014226   0.007062  -0.005359  -0.000099
    21  H   -0.004740  -0.000597  -0.000388  -0.005547   0.000888  -0.000209
    22  H    0.006940  -0.008319   0.000067   0.000271   0.000304  -0.001588
    23  H    0.000057   0.003598   0.000026  -0.000194  -0.000142  -0.000106
    24  H    0.000864  -0.000058  -0.000131   0.000039  -0.008834   0.000258
    25  H   -0.000556  -0.005606   0.000031   0.000024   0.004392  -0.000123
    26  H    0.000038  -0.003085   0.000004  -0.000006   0.000672  -0.000058
    27  H    0.000002   0.000113  -0.000000   0.000002  -0.000044   0.000023
    28  H   -0.000828   0.001393  -0.000036   0.000034  -0.000404   0.000270
    29  H    0.000677  -0.008761   0.000025  -0.000033   0.001046  -0.000248
    30  H    0.001672  -0.000234  -0.003563   0.001020   0.001987  -0.001456
    31  H    0.009590   0.000785   0.000033   0.000141  -0.016775   0.001395
              19         20         21         22         23         24
     1  C    0.002087   0.000934  -0.001161  -0.073720   0.017549  -0.093578
     2  C   -0.092538  -0.071291  -0.055056  -0.009104   0.001996  -0.000905
     3  C   -0.045654  -0.030378   0.015265   0.008053   0.010521   0.010533
     4  C    0.476582   0.002783   0.008929   0.008667  -0.002576   0.002195
     5  C    0.002591   0.460541   0.450309   0.002189   0.000670  -0.000453
     6  C   -0.011669   0.006060  -0.002497   0.402402   0.471547   0.055795
     7  C    0.005757  -0.001866   0.001533   0.028073  -0.033855   0.433511
     8  C   -0.001090  -0.000049  -0.000051  -0.010181  -0.006773   0.004172
     9  O   -0.000057   0.000015  -0.000006  -0.001158  -0.000091  -0.077892
    10  C   -0.001801   0.000143  -0.000046   0.028911  -0.091310   0.015181
    11  O    0.011951   0.000158  -0.003355   0.002267  -0.004622  -0.001440
    12  C    0.049549  -0.011604  -0.049026   0.010418  -0.000785  -0.010493
    13  O   -0.023332   0.010961  -0.004740   0.006940   0.000057   0.000864
    14  H   -0.001635   0.001625  -0.000597  -0.008319   0.003598  -0.000058
    15  H    0.006470  -0.014226  -0.000388   0.000067   0.000026  -0.000131
    16  H   -0.002073   0.007062  -0.005547   0.000271  -0.000194   0.000039
    17  H    0.000192  -0.005359   0.000888   0.000304  -0.000142  -0.008834
    18  H   -0.008289  -0.000099  -0.000209  -0.001588  -0.000106   0.000258
    19  H    0.498852   0.000290  -0.000673   0.000279   0.000219  -0.000493
    20  H    0.000290   0.491218  -0.010751  -0.000025   0.000041   0.000555
    21  H   -0.000673  -0.010751   0.477506   0.000146  -0.000022  -0.000137
    22  H    0.000279  -0.000025   0.000146   0.489360  -0.016324  -0.000813
    23  H    0.000219   0.000041  -0.000022  -0.016324   0.458529  -0.001805
    24  H   -0.000493   0.000555  -0.000137  -0.000813  -0.001805   0.505116
    25  H    0.000278  -0.000109   0.000052  -0.000409  -0.003312  -0.024511
    26  H    0.000180  -0.000019   0.000008   0.001211  -0.005904  -0.005569
    27  H   -0.000095   0.000002  -0.000003   0.000612  -0.000655   0.002868
    28  H   -0.000261   0.000032  -0.000008  -0.014095  -0.004579   0.003051
    29  H    0.000391  -0.000036   0.000014  -0.000886   0.002986  -0.002859
    30  H   -0.008450   0.005205  -0.003557   0.000591  -0.000486   0.001289
    31  H    0.000289   0.000144  -0.008985  -0.000129  -0.000055  -0.000500
              25         26         27         28         29         30
     1  C   -0.013971   0.045183  -0.000688  -0.023802  -0.015588  -0.010569
     2  C    0.000872   0.000009   0.000072  -0.000201  -0.000085   0.008232
     3  C    0.008932   0.005783  -0.003015  -0.005905   0.008252  -0.058625
     4  C   -0.002592  -0.000452   0.000099   0.000627  -0.000687  -0.028157
     5  C   -0.002761  -0.000095  -0.000082  -0.000082   0.000356  -0.068328
     6  C   -0.012209  -0.030986   0.011993   0.005062  -0.032735   0.008834
     7  C    0.380019  -0.038603   0.013124  -0.010948   0.009620  -0.003916
     8  C    0.003868   0.458044   0.433369  -0.031694  -0.084490  -0.000005
     9  O   -0.036773  -0.043955  -0.072215   0.006995  -0.000444  -0.000045
    10  C   -0.010911  -0.039864  -0.046020   0.422325   0.487128   0.000050
    11  O    0.008284  -0.000119   0.001134  -0.001485  -0.000513  -0.014096
    12  C    0.008238   0.000797  -0.000328  -0.001062   0.002775   0.530727
    13  O   -0.000556   0.000038   0.000002  -0.000828   0.000677   0.001672
    14  H   -0.005606  -0.003085   0.000113   0.001393  -0.008761  -0.000234
    15  H    0.000031   0.000004  -0.000000  -0.000036   0.000025  -0.003563
    16  H    0.000024  -0.000006   0.000002   0.000034  -0.000033   0.001020
    17  H    0.004392   0.000672  -0.000044  -0.000404   0.001046   0.001987
    18  H   -0.000123  -0.000058   0.000023   0.000270  -0.000248  -0.001456
    19  H    0.000278   0.000180  -0.000095  -0.000261   0.000391  -0.008450
    20  H   -0.000109  -0.000019   0.000002   0.000032  -0.000036   0.005205
    21  H    0.000052   0.000008  -0.000003  -0.000008   0.000014  -0.003557
    22  H   -0.000409   0.001211   0.000612  -0.014095  -0.000886   0.000591
    23  H   -0.003312  -0.005904  -0.000655  -0.004579   0.002986  -0.000486
    24  H   -0.024511  -0.005569   0.002868   0.003051  -0.002859   0.001289
    25  H    0.496353   0.012334  -0.002928  -0.002568   0.002905   0.000347
    26  H    0.012334   0.500478  -0.006969   0.001796   0.003445   0.000056
    27  H   -0.002928  -0.006969   0.472810  -0.008265  -0.004408  -0.000003
    28  H   -0.002568   0.001796  -0.008265   0.491878  -0.009289  -0.000016
    29  H    0.002905   0.003445  -0.004408  -0.009289   0.477164   0.000074
    30  H    0.000347   0.000056  -0.000003  -0.000016   0.000074   0.451886
    31  H   -0.000578  -0.000023  -0.000027   0.000036  -0.000016  -0.011911
              31
     1  C   -0.017327
     2  C   -0.003524
     3  C   -0.027554
     4  C    0.015438
     5  C    0.002071
     6  C    0.007403
     7  C    0.004787
     8  C   -0.000511
     9  O    0.000307
    10  C    0.000539
    11  O    0.000444
    12  C    0.389362
    13  O    0.009590
    14  H    0.000785
    15  H    0.000033
    16  H    0.000141
    17  H   -0.016775
    18  H    0.001395
    19  H    0.000289
    20  H    0.000144
    21  H   -0.008985
    22  H   -0.000129
    23  H   -0.000055
    24  H   -0.000500
    25  H   -0.000578
    26  H   -0.000023
    27  H   -0.000027
    28  H    0.000036
    29  H   -0.000016
    30  H   -0.011911
    31  H    0.478818
 Mulliken charges:
               1
     1  C   -0.027042
     2  C   -0.508635
     3  C   -0.340799
     4  C   -0.026147
     5  C   -0.205956
     6  C   -0.229198
     7  C   -0.309144
     8  C   -0.180845
     9  O   -0.327423
    10  C   -0.370972
    11  O   -0.232225
    12  C   -0.283825
    13  O   -0.289742
    14  H    0.257725
    15  H    0.161685
    16  H    0.147169
    17  H    0.247863
    18  H    0.206049
    19  H    0.142153
    20  H    0.158043
    21  H    0.192165
    22  H    0.145992
    23  H    0.205855
    24  H    0.195043
    25  H    0.192987
    26  H    0.145669
    27  H    0.209522
    28  H    0.182030
    29  H    0.164221
    30  H    0.201448
    31  H    0.176333
 Sum of Mulliken charges =  -0.00000
 Mulliken charges with hydrogens summed into heavy atoms:
               1
     1  C    0.230683
     2  C   -0.199781
     3  C   -0.092936
     4  C    0.322055
     5  C    0.144253
     6  C    0.122649
     7  C    0.078885
     8  C    0.174346
     9  O   -0.327423
    10  C   -0.024720
    11  O   -0.232225
    12  C    0.093956
    13  O   -0.289742
 Electronic spatial extent (au):  <R**2>=           3346.1797
 Charge=             -0.0000 electrons
 Dipole moment (field-independent basis, Debye):
    X=             -1.5766    Y=              0.8015    Z=              1.3134  Tot=              2.2029
 Quadrupole moment (field-independent basis, Debye-Ang):
   XX=            -72.9913   YY=            -78.0621   ZZ=            -82.7483
   XY=              6.2703   XZ=              2.3402   YZ=              0.7326
 Traceless Quadrupole moment (field-independent basis, Debye-Ang):
   XX=              4.9426   YY=             -0.1283   ZZ=             -4.8144
   XY=              6.2703   XZ=              2.3402   YZ=              0.7326
 Octapole moment (field-independent basis, Debye-Ang**2):
  XXX=            -13.6609  YYY=              0.7520  ZZZ=              0.3005  XYY=             -8.8390
  XXY=             26.3385  XXZ=             20.4963  XZZ=              0.3981  YZZ=             -0.6670
  YYZ=             -0.3617  XYZ=             -6.1046
 Hexadecapole moment (field-independent basis, Debye-Ang**3):
 XXXX=          -3514.7194 YYYY=           -590.7997 ZZZZ=           -223.9151 XXXY=             70.8039
 XXXZ=             32.1443 YYYX=            -11.1653 YYYZ=             -1.5778 ZZZX=              0.1364
 ZZZY=              1.4869 XXYY=           -714.7357 XXZZ=           -647.5662 YYZZ=           -138.7631
 XXYZ=            -21.4643 YYXZ=              8.1895 ZZXY=              1.3934
 N-N= 8.810669441820D+02 E-N=-3.204006305616D+03  KE= 6.153491246002D+02
 D1PCM: PCM CHGder 1st derivatives, ID1Alg=3 FixD1E=F DoIter=F DoCFld=F I1PDM=0.
 Calling FoFJK, ICntrl=      2127 FMM=F ISym2X=0 I1Cent= 0 IOpClX= 0 NMat=1 NMatS=1 NMatT=0.
 ***** Axes restored to original set *****
 -------------------------------------------------------------------
 Center     Atomic                   Forces (Hartrees/Bohr)
 Number     Number              X              Y              Z
 -------------------------------------------------------------------
      1        6          -0.000580628   -0.000036629   -0.003451455
      2        6           0.001362774    0.001158012   -0.000138095
      3        6          -0.003297540   -0.003113817   -0.005693608
      4        6          -0.000976481    0.005636579   -0.000049025
      5        6           0.002250877   -0.002379848   -0.001383300
      6        6           0.002758723    0.002589501    0.003403785
      7        6           0.002739121   -0.006882117    0.001366644
      8        6          -0.006542392   -0.001884812    0.001194492
      9        8           0.003441113    0.004610182    0.007352749
     10        6          -0.000645500    0.001530848   -0.002394043
     11        8          -0.000879762    0.001333799   -0.011290341
     12        6          -0.000670524   -0.000416653    0.003072805
     13        8           0.002285721   -0.002854539    0.010349549
     14        1          -0.000198757   -0.001745334    0.006570861
     15        1          -0.001319314   -0.000715224    0.002196136
     16        1          -0.001506879   -0.000329897   -0.002617070
     17        1           0.001188835    0.004215134    0.006971537
     18        1          -0.000480761   -0.003932738    0.001610043
     19        1           0.001656114   -0.000395183   -0.005948755
     20        1           0.000503727    0.000594928    0.003055468
     21        1          -0.001786764    0.001193827   -0.001273691
     22        1          -0.002469496   -0.002122740    0.000568994
     23        1          -0.000054599    0.001615524   -0.003504530
     24        1          -0.002517393    0.003594857    0.002415289
     25        1          -0.001016647    0.000567854   -0.006453141
     26        1           0.000561235    0.000419707   -0.006152025
     27        1           0.003803333   -0.000412682    0.002097665
     28        1           0.001180391   -0.002390113   -0.001415191
     29        1          -0.000253881   -0.000252298    0.003215383
     30        1           0.001014828   -0.002100447   -0.003423735
     31        1           0.000450528    0.002904318   -0.000253396
 -------------------------------------------------------------------
 Cartesian Forces:  Max     0.011290341 RMS     0.003279637

 GradGradGradGradGradGradGradGradGradGradGradGradGradGradGradGradGradGrad
 Berny optimization.
 FormGI is forming the generalized inverse of G from B-inverse, IUseBI=4.
 Internal  Forces:  Max     0.010093668 RMS     0.001940104
 Search for a local minimum.
 Step number   1 out of a maximum of  186
 All quantities printed in internal units (Hartrees-Bohrs-Radians)
 Mixed Optimization -- RFO/linear search
 Second derivative matrix not updated -- first step.
 ITU=  0
     Eigenvalues ---    0.00392   0.00646   0.00691   0.00743   0.01424
     Eigenvalues ---    0.01447   0.01719   0.02703   0.02767   0.03158
     Eigenvalues ---    0.03205   0.04086   0.04222   0.04632   0.04663
     Eigenvalues ---    0.04860   0.04882   0.05088   0.05128   0.05139
     Eigenvalues ---    0.05171   0.05631   0.05741   0.05925   0.06160
     Eigenvalues ---    0.06379   0.06497   0.06614   0.07671   0.07878
     Eigenvalues ---    0.07893   0.07910   0.07919   0.08000   0.08098
     Eigenvalues ---    0.09302   0.09330   0.09700   0.10874   0.11603
     Eigenvalues ---    0.11611   0.11698   0.11709   0.12506   0.12633
     Eigenvalues ---    0.14620   0.15880   0.16279   0.17535   0.19251
     Eigenvalues ---    0.20556   0.21167   0.22416   0.25000   0.27367
     Eigenvalues ---    0.27556   0.28472   0.28704   0.28818   0.29388
     Eigenvalues ---    0.29559   0.30180   0.35066   0.35071   0.35077
     Eigenvalues ---    0.35142   0.35237   0.35254   0.35294   0.35299
     Eigenvalues ---    0.35356   0.35370   0.35453   0.35488   0.35504
     Eigenvalues ---    0.35523   0.35794   0.35812   0.35829   0.35925
     Eigenvalues ---    0.40043   0.41381   0.42312   0.42831   0.42973
     Eigenvalues ---    0.459651000.000001000.000001000.000001000.00000
     Eigenvalues --- 1000.000001000.000001000.000001000.000001000.00000
     Eigenvalues --- 1000.000001000.000001000.000001000.000001000.00000
     Eigenvalues --- 1000.000001000.000001000.000001000.000001000.00000
     Eigenvalues --- 1000.000001000.000001000.000001000.000001000.00000
     Eigenvalues --- 1000.000001000.000001000.000001000.000001000.00000
     Eigenvalues --- 1000.000001000.000001000.000001000.000001000.00000
     Eigenvalues --- 1000.000001000.000001000.000001000.000001000.00000
     Eigenvalues --- 1000.000001000.000001000.000001000.000001000.00000
     Eigenvalues --- 1000.000001000.000001000.000001000.000001000.00000
     Eigenvalues --- 1000.000001000.000001000.000001000.000001000.00000
     Eigenvalues --- 1000.000001000.000001000.000001000.000001000.00000
     Eigenvalues --- 1000.000001000.000001000.000001000.000001000.00000
     Eigenvalues --- 1000.000001000.000001000.000001000.000001000.00000
     Eigenvalues --- 1000.000001000.000001000.000001000.000001000.00000
     Eigenvalues --- 1000.000001000.000001000.000001000.000001000.00000
     Eigenvalues --- 1000.000001000.000001000.000001000.000001000.00000
     Eigenvalues --- 1000.000001000.000001000.000001000.000001000.00000
     Eigenvalues --- 1000.000001000.000001000.000001000.000001000.00000
     Eigenvalues --- 1000.000001000.000001000.000001000.000001000.00000
 RFO step:  Lambda=-2.85646417D-03 EMin= 3.91580729D-03
 Linear search not attempted -- first point.
 Iteration  1 RMS(Cart)=  0.04163604 RMS(Int)=  0.00043566
 Iteration  2 RMS(Cart)=  0.00133184 RMS(Int)=  0.00005542
 Iteration  3 RMS(Cart)=  0.00000047 RMS(Int)=  0.00005542
 Iteration  1 RMS(Cart)=  0.00000405 RMS(Int)=  0.00000093
 Iteration  2 RMS(Cart)=  0.00000224 RMS(Int)=  0.00000104
 Iteration  3 RMS(Cart)=  0.00000123 RMS(Int)=  0.00000117
 Iteration  4 RMS(Cart)=  0.00000068 RMS(Int)=  0.00000127
 Variable       Old X    -DE/DX   Delta X   Delta X   Delta X     New X
                                 (Linear)    (Quad)   (Total)
    R1        2.87602  -0.00214   0.00000  -0.00724  -0.00726   2.86876
    R2        2.87920   0.00006   0.00000   0.00015   0.00015   2.87935
    R3        2.67879   0.00254   0.00000   0.00588   0.00588   2.68468
    R4        2.04834   0.00672   0.00000   0.01877   0.01877   2.06711
    R5        2.89112   0.00104   0.00000   0.00287   0.00290   2.89402
    R6        2.90946  -0.00041   0.00000  -0.00266  -0.00260   2.90687
    R7        2.05078   0.00265   0.00000   0.00744   0.00744   2.05821
    R8        2.05265   0.00301   0.00000   0.00846   0.00846   2.06111
    R9        2.64170   0.00319   0.00000   0.00689   0.00689   2.64859
   R10        2.87955  -0.00114   0.00000  -0.00236  -0.00237   2.87718
   R11        2.65405   0.00321   0.00000   0.00825   0.00821   2.66226
   R12        2.04376   0.00818   0.00000   0.02265   0.02265   2.06641
   R13        2.68175   0.00320   0.00000   0.00725   0.00721   2.68895
   R14        2.04198   0.00427   0.00000   0.01180   0.01180   2.05379
   R15        2.04865   0.00615   0.00000   0.01719   0.01719   2.06584
   R16        2.88627  -0.00047   0.00000  -0.00249  -0.00249   2.88378
   R17        2.05292   0.00307   0.00000   0.00865   0.00865   2.06156
   R18        2.04945   0.00250   0.00000   0.00699   0.00699   2.05644
   R19        2.89309  -0.00065   0.00000  -0.00238  -0.00240   2.89069
   R20        2.05100   0.00320   0.00000   0.00898   0.00898   2.05998
   R21        2.05568   0.00371   0.00000   0.01049   0.01049   2.06617
   R22        2.66650   0.00325   0.00000   0.00748   0.00751   2.67400
   R23        2.04405   0.00497   0.00000   0.01376   0.01376   2.05781
   R24        2.05560   0.00623   0.00000   0.01763   0.01763   2.07322
   R25        2.67720   0.00332   0.00000   0.00785   0.00787   2.68507
   R26        2.87341   0.00025   0.00000   0.00089   0.00090   2.87431
   R27        2.05550   0.00607   0.00000   0.01717   0.01717   2.07267
   R28        2.04350   0.00436   0.00000   0.01208   0.01208   2.05557
   R29        2.05200   0.00300   0.00000   0.00842   0.00842   2.06042
   R30        2.05445   0.00316   0.00000   0.00892   0.00892   2.06337
   R31        2.05191   0.00396   0.00000   0.01112   0.01112   2.06303
   R32        2.04889   0.00294   0.00000   0.00822   0.00822   2.05711
    A1        1.92886  -0.00043   0.00000  -0.00457  -0.00461   1.92425
    A2        1.92256  -0.00094   0.00000  -0.00379  -0.00377   1.91879
    A3        1.90940   0.00042   0.00000  -0.00352  -0.00351   1.90589
    A4        1.89026   0.00088   0.00000   0.00569   0.00569   1.89595
    A5        1.90038  -0.00020   0.00000  -0.00011  -0.00014   1.90025
    A6        1.91212   0.00028   0.00000   0.00652   0.00650   1.91862
    A7        1.92534  -0.00004   0.00000  -0.00856  -0.00873   1.91661
    A8        1.92227  -0.00057   0.00000  -0.00003   0.00001   1.92228
    A9        1.89360   0.00073   0.00000   0.00512   0.00516   1.89876
   A10        1.92078   0.00085   0.00000   0.00227   0.00233   1.92311
   A11        1.93114  -0.00109   0.00000  -0.00186  -0.00182   1.92933
   A12        1.86979   0.00011   0.00000   0.00345   0.00342   1.87321
   A13        1.89257  -0.00260   0.00000  -0.01178  -0.01177   1.88079
   A14        1.93693   0.00024   0.00000   0.00020   0.00036   1.93729
   A15        1.90762   0.00158   0.00000   0.01157   0.01155   1.91917
   A16        1.95520   0.00277   0.00000   0.00812   0.00793   1.96313
   A17        1.93798  -0.00021   0.00000   0.00065   0.00076   1.93874
   A18        1.83316  -0.00169   0.00000  -0.00807  -0.00809   1.82507
   A19        1.92670   0.00129   0.00000   0.00117   0.00091   1.92762
   A20        1.95075  -0.00038   0.00000  -0.00337  -0.00328   1.94748
   A21        1.94057  -0.00084   0.00000  -0.00255  -0.00254   1.93804
   A22        1.85389  -0.00108   0.00000  -0.00046  -0.00040   1.85349
   A23        1.90740   0.00068   0.00000   0.00466   0.00477   1.91217
   A24        1.88178   0.00033   0.00000   0.00081   0.00078   1.88256
   A25        1.92171  -0.00088   0.00000  -0.00736  -0.00761   1.91410
   A26        1.91797   0.00064   0.00000   0.00155   0.00162   1.91959
   A27        1.93151  -0.00016   0.00000   0.00052   0.00057   1.93208
   A28        1.90311   0.00044   0.00000  -0.00032  -0.00026   1.90286
   A29        1.92526  -0.00004   0.00000   0.00111   0.00118   1.92644
   A30        1.86328   0.00006   0.00000   0.00490   0.00486   1.86813
   A31        1.91801   0.00143   0.00000  -0.00182  -0.00186   1.91615
   A32        1.91987  -0.00080   0.00000  -0.00487  -0.00485   1.91503
   A33        1.89637  -0.00108   0.00000  -0.00752  -0.00751   1.88885
   A34        1.93664   0.00014   0.00000   0.00657   0.00658   1.94322
   A35        1.91497  -0.00017   0.00000   0.00348   0.00346   1.91843
   A36        1.87714   0.00043   0.00000   0.00400   0.00394   1.88108
   A37        1.93337   0.00193   0.00000   0.00896   0.00898   1.94236
   A38        1.93444  -0.00073   0.00000  -0.00677  -0.00682   1.92762
   A39        1.91507  -0.00240   0.00000  -0.01623  -0.01630   1.89877
   A40        1.86772  -0.00076   0.00000   0.00140   0.00141   1.86913
   A41        1.91638   0.00126   0.00000   0.01245   0.01251   1.92889
   A42        1.89601   0.00075   0.00000   0.00077   0.00063   1.89663
   A43        1.93680   0.00186   0.00000   0.00851   0.00851   1.94531
   A44        1.90178   0.00069   0.00000   0.00695   0.00698   1.90876
   A45        1.85541  -0.00117   0.00000  -0.00363  -0.00363   1.85178
   A46        1.93081  -0.00163   0.00000  -0.00991  -0.00993   1.92088
   A47        1.94464  -0.00028   0.00000  -0.00277  -0.00278   1.94185
   A48        1.89211   0.00057   0.00000   0.00126   0.00123   1.89334
   A49        1.97648  -0.00456   0.00000  -0.02634  -0.02626   1.95022
   A50        1.92917  -0.00081   0.00000  -0.00640  -0.00645   1.92272
   A51        1.92842  -0.00036   0.00000   0.00018   0.00020   1.92861
   A52        1.91941   0.00073   0.00000   0.00115   0.00115   1.92056
   A53        1.90811   0.00070   0.00000   0.00492   0.00494   1.91305
   A54        1.90334  -0.00022   0.00000  -0.00279  -0.00279   1.90055
   A55        1.87441  -0.00000   0.00000   0.00320   0.00319   1.87760
   A56        2.03949  -0.01009   0.00000  -0.03992  -0.03992   1.99957
   A57        1.91578   0.00017   0.00000  -0.00555  -0.00569   1.91010
   A58        1.90811  -0.00046   0.00000  -0.00926  -0.00922   1.89889
   A59        1.89633  -0.00023   0.00000   0.00402   0.00406   1.90039
   A60        1.92096   0.00001   0.00000   0.00203   0.00192   1.92289
   A61        1.94900   0.00032   0.00000   0.00532   0.00542   1.95443
   A62        1.87276   0.00016   0.00000   0.00335   0.00333   1.87609
   A63        2.00826  -0.00558   0.00000  -0.03484  -0.03497   1.97329
    D1        0.90803  -0.00035   0.00000   0.00648   0.00647   0.91450
    D2        3.04520   0.00024   0.00000   0.01030   0.01028   3.05548
    D3       -1.18739  -0.00033   0.00000   0.00794   0.00794  -1.17946
    D4        2.99613  -0.00014   0.00000   0.00822   0.00822   3.00435
    D5       -1.14989   0.00046   0.00000   0.01203   0.01203  -1.13786
    D6        0.90070  -0.00011   0.00000   0.00968   0.00969   0.91039
    D7       -1.18423  -0.00011   0.00000   0.01168   0.01167  -1.17256
    D8        0.95294   0.00049   0.00000   0.01549   0.01548   0.96843
    D9        3.00353  -0.00009   0.00000   0.01314   0.01314   3.01667
   D10       -0.97782  -0.00119   0.00000  -0.01548  -0.01548  -0.99331
[...]
 0976,-0.00035223,0.00009411,0.00013352,0.00113830,-0.00042394,0.001401
 58,0.00003865,0.00002661,-0.00003126,-0.00005528,0.00004882,0.00004810
 ,-0.00004127,0.00057511,0.00084603,0.00000492,0.00000226,-0.00000152,0
 .00000483,-0.00000023,0.00000254,-0.00008824,0.00001366,-0.00000145,0.
 00000505,0.00000797,-0.00000103,0.00000539,-0.00000270,0.00000032,-0.0
 0000038,0.00000047,-0.00000335,0.00001585,0.00000306,-0.00000402,0.000
 08314,0.00001998,0.00019210,-0.00037447,0.00048410,0.00035441,0.003627
 03,0.00382779,-0.01354259,-0.03412767,-0.06537045,0.30285658,-0.000329
 35,0.00008286,-0.00019472,0.00000101,0.00000092,0.00000002,0.00000598,
 0.00000295,-0.00003061,-0.00000104,-0.00000287,-0.00000028,-0.00000122
 ,0.00000158,-0.00000020,0.00100765,0.00051963,0.00124925,0.00188767,-0
 .00139183,0.00401681,-0.05979876,-0.01083904,0.02880172,-0.00590253,0.
 00558001,0.01918312,-0.00263116,-0.00732109,0.01775906,-0.00017144,-0.
 00006616,-0.00011074,-0.00000326,0.00000187,0.00000341,0.00000670,-0.0
 0000310,0.00000222,0.00009038,0.00006761,-0.00008871,0.00000029,0.0000
 0003,-0.00000007,0.00000011,-0.00000026,0.00000011,0.00000392,0.000001
 03,0.00000346,0.00000029,0.00000021,0.00000021,0.00000029,0.00000035,0
 .,0.00000008,-0.00000006,0.00000008,-0.00000040,-0.00000030,-0.0000000
 6,0.00020596,0.00006373,-0.00027914,-0.00016244,-0.00002573,-0.0004026
 8,0.00008426,0.00003003,-0.00026079,0.00024678,0.00002374,-0.00069307,
 0.05994302,0.00018017,-0.00052471,0.00024825,-0.00000009,-0.00000003,0
 .00000086,-0.00004281,0.00003345,0.00004712,-0.00000222,-0.00000198,-0
 .00000353,-0.00000053,-0.00000119,-0.00000050,0.00135023,0.00094185,0.
 00027135,-0.00343767,0.00205324,-0.00368177,-0.01039354,-0.06782690,0.
 06997831,0.01363957,-0.00257422,-0.03422648,-0.00480653,-0.00848486,0.
 02828001,0.00017503,0.00024825,0.00010426,-0.00000072,-0.00000315,0.00
 000053,0.00000986,0.00001256,-0.00001248,0.00001498,-0.00012711,0.0000
 1499,0.00000028,0.00000029,0.00000004,0.00000009,-0.00000011,0.0000000
 4,-0.00000675,-0.00000179,-0.00000384,0.00000134,0.00000075,-0.0000010
 1,-0.00000066,-0.00000125,0.00000055,0.00000025,-0.00000026,-0.0000002
 8,0.00000043,0.00000038,-0.00000023,0.00021608,-0.00002620,-0.00035035
 ,-0.00037561,0.00024723,-0.00061242,-0.00015882,-0.00006171,0.00015661
 ,-0.00058797,0.00008638,0.00119046,0.00877711,0.07934046,-0.00025373,-
 0.00042709,0.00008836,-0.00000049,0.00000218,0.00000306,-0.00026046,-0
 .00000887,0.00025970,-0.00003430,-0.00003560,-0.00003197,0.00000514,-0
 .00001466,0.00001681,-0.00006716,-0.00060040,0.00061534,-0.00308305,0.
 00137680,0.00079257,0.03201169,0.06733404,-0.26935785,0.01096677,-0.01
 079683,-0.02126737,-0.00099930,0.00182881,-0.00171971,0.00068220,0.000
 02426,-0.00001767,0.00003007,0.00001067,-0.00003637,0.00011271,0.00009
 325,-0.00004392,-0.00007722,0.00007611,-0.00013403,0.00000385,0.000002
 26,-0.00000169,0.00000568,-0.00000082,0.00000284,0.00000254,-0.0000082
 4,-0.00002197,0.00000527,0.00000731,0.00000040,0.00000099,-0.00000293,
 0.00000212,-0.00000012,0.00000044,-0.00000268,0.00001259,0.00000166,-0
 .00000284,0.00007359,0.00005477,0.00019780,0.00056654,-0.00012002,0.00
 006072,0.00012865,-0.00026352,0.00049068,0.00132514,-0.00031896,0.0006
 9744,-0.04288768,-0.06404645,0.30043392,0.00085361,0.00005873,-0.00015
 374,0.00000033,-0.00000345,-0.00000300,0.00036125,0.00001670,-0.000303
 45,0.00005364,0.00004970,0.00003939,-0.00000653,0.00001751,-0.00002232
 ,-0.00034148,-0.00351137,0.00092689,0.00166794,0.00127317,0.00324986,-
 0.25502907,0.02711563,-0.10889101,-0.01777286,0.00918645,-0.00472148,-
 0.01432497,0.00126332,-0.00883247,-0.00062170,0.00003555,0.00000377,-0
 .00003655,-0.00001844,0.00004301,-0.00016343,-0.00011035,0.00005618,-0
 .00004273,0.00002110,0.00002342,-0.00000633,-0.00000221,0.00000272,-0.
 00000755,0.00000099,-0.00000361,-0.00000221,0.00000588,0.00002297,-0.0
 0000722,-0.00001132,-0.00000089,-0.00000185,0.00000362,0.00000169,0.00
 000008,-0.00000039,0.00000402,-0.00001623,-0.00000173,0.00000321,-0.00
 094757,0.00032609,-0.00040406,0.00008757,0.00006678,-0.00011823,-0.000
 83815,0.00017691,-0.00035349,0.00000280,-0.00000493,-0.00025405,0.0061
 6202,-0.00112839,0.00150040,0.28020984,0.00023779,-0.00133789,-0.00016
 768,-0.00000050,0.00000053,0.00000360,-0.00004340,0.00004260,0.0000405
 6,0.00000855,0.00000633,-0.00000870,-0.00000284,-0.00000101,-0.0000018
 2,-0.00232725,-0.00523362,0.00143656,0.00050353,-0.00309419,-0.0040414
 3,0.02103901,-0.05077511,0.01317632,0.03210238,-0.01112408,0.01123513,
 -0.02555566,0.00537450,-0.01372987,0.00019370,0.00054142,0.00012692,-0
 .00000570,-0.00000619,0.00000458,-0.00000225,0.00003926,-0.00001377,-0
 .00001846,0.00009660,0.00003245,-0.00000150,0.00000113,0.00000037,-0.0
 0000006,-0.00000003,-0.00000016,-0.00003333,-0.00000430,0.00001086,0.0
 0000267,-0.00000088,0.00000054,0.00000084,-0.00000107,0.00000702,0.000
 00024,0.00000002,-0.00000017,-0.00000037,0.00000052,-0.00000016,-0.001
 82070,0.00039138,-0.00050896,0.00023833,-0.00001232,-0.00006398,0.0015
 9166,-0.00024341,0.00031128,-0.00021033,0.00003643,0.00002504,0.007255
 62,-0.00005929,0.00489398,-0.03509862,0.06348099,0.00000821,-0.0004394
 6,-0.00009759,-0.00000017,0.00000016,0.00000069,-0.00002087,0.00001464
 ,0.00003092,-0.00000211,-0.00000134,-0.00000448,-0.00000035,-0.0000011
 5,-0.00000077,0.00029058,-0.00022383,0.00092119,0.00131931,-0.00182043
 ,-0.00127514,-0.11785319,0.01876243,-0.11478782,0.01978175,-0.00605915
 ,0.00862951,0.00366501,0.00076192,0.00127455,0.00011503,0.00021292,0.0
 0008754,-0.00000058,-0.00000252,-0.00000021,0.00001474,0.00001822,-0.0
 0001355,0.00000230,-0.00000401,0.00000562,-0.00000011,0.00000030,-0.00
 000006,0.00000020,0.00000007,0.00000002,-0.00000832,-0.00000309,0.0000
 0233,0.00000106,0.00000076,-0.00000033,-0.00000095,-0.00000061,0.00000
 166,-0.00000003,0.00000031,-0.00000031,0.00000030,0.00000016,-0.000000
 04,-0.00019320,0.00011445,0.00022705,0.00038321,-0.00006410,0.00032037
 ,0.00055147,-0.00025753,0.00047263,0.00022186,-0.00020344,0.00048925,-
 0.02607762,0.00306555,-0.01241374,0.11789933,-0.01299922,0.11540448,-0
 .00310120,-0.00244299,-0.00418083,0.00000552,-0.00000484,-0.00000862,0
 .00077468,0.00049189,-0.00106185,0.00011218,0.00010705,0.00008976,-0.0
 0003592,0.00006847,-0.00008513,-0.01414023,0.02400760,0.01595307,-0.00
 135231,-0.00033184,-0.00037343,0.00993614,-0.01103541,-0.01023709,-0.0
 0040913,-0.00617456,-0.00045496,-0.10123876,0.08856213,0.06205304,-0.0
 0261457,0.00231563,0.00077452,-0.00018835,-0.00008700,0.00021378,-0.00
 029185,-0.00033058,0.00015076,0.00009295,-0.00026757,0.00002196,-0.000
 01204,-0.00000916,0.00000567,-0.00001702,0.00000078,-0.00000841,-0.000
 06594,0.00002250,0.00009730,-0.00001682,-0.00002510,-0.00000314,-0.000
 00436,0.00000603,-0.00000606,0.00000099,-0.00000165,0.00000996,-0.0000
 5264,-0.00001091,0.00001342,0.00099429,-0.00068963,0.00059715,0.001409
 46,-0.00034996,-0.00014152,0.00024485,0.00009037,0.00012080,0.00022518
 ,0.00001405,0.00002146,0.00058595,0.00069838,0.00035976,0.00021917,0.0
 0109704,-0.00025105,0.11078678,-0.00016390,0.00164515,0.00091223,-0.00
 000146,0.00000269,0.00000231,-0.00030466,-0.00010028,0.00033049,-0.000
 04357,-0.00003910,-0.00003422,0.00000640,-0.00002036,0.00002625,0.0021
 0134,-0.00331678,-0.00121405,-0.00175718,0.00102567,-0.00070433,0.0156
 2188,-0.01612635,-0.01390453,-0.00249869,-0.00791935,-0.00044287,0.087
 77199,-0.19416894,-0.09812651,0.00061746,-0.00020495,-0.00032446,0.000
 04070,0.00002361,-0.00005816,0.00011915,0.00010978,-0.00004702,0.00003
 292,-0.00011542,-0.00016129,0.00000514,0.00000262,-0.00000212,0.000006
 53,-0.00000072,0.00000326,0.00001048,-0.00000583,-0.00002951,0.0000061
 7,0.00000964,0.00000127,0.00000276,-0.00000297,0.00000023,-0.00000035,
 0.00000024,-0.00000341,0.00001624,0.00000285,-0.00000441,0.00020309,0.
 00037684,0.00029400,-0.00005669,0.00007798,0.00006328,0.00021222,-0.00
 006093,0.00004146,0.00017679,-0.00004641,0.00016036,0.00025360,0.00086
 971,0.00073716,-0.00033123,0.00075170,-0.00019670,-0.09724499,0.209531
 28,-0.00205846,-0.00051277,-0.00093695,0.00000195,0.00000081,-0.000000
 95,0.00004845,0.00020014,-0.00027226,0.00001702,0.00001184,0.00001413,
 -0.00001461,0.00001595,-0.00002384,-0.00711486,0.01254676,0.00682702,-
 0.00022709,0.00003491,-0.00027031,-0.00120683,0.00270531,-0.00068217,0
 .00006735,-0.00015563,0.00160377,0.06242366,-0.10025803,-0.11522145,-0
 .00091006,0.00057855,0.00046418,-0.00005874,-0.00002445,0.00005999,-0.
 00002618,-0.00006932,0.00002913,-0.00010715,0.00024548,0.00032622,-0.0
 0000192,-0.00000219,0.00000074,-0.00000217,-0.00000026,-0.00000142,-0.
 00000219,0.00000608,0.00001953,-0.00000270,-0.00000451,-0.00000098,-0.
 00000097,0.00000085,-0.00000058,0.00000070,-0.00000021,0.00000158,-0.0
 0001338,-0.00000318,0.00000365,0.00072135,-0.00036194,0.00020074,0.000
 75654,0.00006140,0.00070057,0.00002686,-0.00000750,-0.00001984,0.00011
 281,-0.00003704,0.00001388,-0.00035554,-0.00038635,0.00016859,-0.00011
 854,-0.00009954,0.00006538,-0.06503498,0.10842585,0.12148908,0.0013005
 8,-0.00056330,-0.00110434,0.00000063,-0.00000086,0.00000133,0.00006706
 ,0.00006532,0.00000634,0.00000723,0.00000314,0.00000168,-0.00000060,0.
 00000208,-0.00000477,0.00170111,0.00868270,-0.03110583,-0.00051274,0.0
 0011291,-0.00025892,-0.00415678,-0.00587216,0.02140413,0.00115436,0.00
 143817,-0.00129388,-0.04977116,-0.00527558,0.02156668,-0.00027073,-0.0
 0018529,0.00047851,0.00000602,-0.00000138,0.00000750,-0.00000621,-0.00
 003008,0.00001388,-0.00020741,0.00015921,0.00047886,-0.00000142,0.0000
 0014,0.00000042,-0.00000031,0.00000013,-0.00000036,-0.00002778,0.00000
 750,0.00002586,-0.00000208,-0.00000227,-0.00000037,0.00000178,0.000000
 48,0.00000129,0.00000058,0.00000011,0.00000042,-0.00000283,-0.00000069
 ,0.00000022,0.00133000,-0.00058731,0.00061171,-0.00532285,0.00176234,-
 0.00209500,0.00010679,0.00006053,0.00000406,-0.00013487,-0.00000405,0.
 00014001,-0.00122901,-0.00412362,-0.00013401,0.00055299,0.00084745,0.0
 0015206,-0.00185556,-0.00480355,0.01307558,0.05727392,-0.00023618,-0.0
 0005295,0.00088269,-0.00000091,-0.00000069,-0.00000124,0.00003974,-0.0
 0002552,-0.00002859,0.00000344,0.00000699,0.00000620,0.00000060,0.0000
 0132,-0.00000042,-0.00062631,-0.00197987,0.00441636,0.00010025,-0.0001
 7254,0.00003088,-0.00443821,-0.01033680,0.02848134,0.00064338,0.003079
 56,-0.00042587,-0.00392609,-0.06859056,0.06703593,0.00008617,0.0000726
 7,-0.00017017,-0.00000621,-0.00000276,-0.00000191,-0.00001609,-0.00001
 190,0.00000005,0.00024059,-0.00010204,-0.00000893,-0.00000001,-0.00000
 048,0.00000020,-0.00000116,0.00000032,-0.00000029,0.00000493,-0.000006
 48,-0.00000662,-0.00000134,-0.00000051,0.00000064,0.00000025,0.0000001
 9,-0.00000231,-0.00000016,-0.00000030,0.00000029,-0.00000090,-0.000000
 23,0.00000019,0.00012678,0.00032275,-0.00038837,0.00065162,0.00068382,
 0.00033215,0.00001205,-0.00001107,-0.00002349,-0.00006731,0.00009750,-
 0.00005734,-0.00301328,-0.00413858,0.00020410,0.00059848,0.00113213,-0
 .00067318,0.00152075,0.00770223,-0.02290990,0.00830736,0.07233305,0.00
 083576,-0.00059550,-0.00009280,0.00000052,-0.00000122,0.00000043,0.000
 14428,0.00011652,-0.00016701,0.00002379,0.00001977,0.00001175,-0.00000
 517,0.00000979,-0.00001497,-0.00007365,0.00307976,-0.01250404,0.000118
 02,-0.00002565,0.00014758,0.00094171,-0.00063467,-0.00222671,-0.001183
 33,0.00065697,0.00143148,0.02233143,0.06891391,-0.28764659,-0.00040204
 ,-0.00001737,0.00042249,-0.00002371,-0.00001232,0.00002616,-0.00005863
 ,-0.00005899,0.00003038,-0.00020433,0.00050847,0.00038675,-0.00000341,
 -0.00000117,0.00000139,-0.00000264,0.00000036,-0.00000161,-0.00002421,
 0.00000594,0.00002070,-0.00000390,-0.00000624,0.00000036,0.00000045,0.
 00000217,0.00000235,0.00000045,0.00000018,0.00000219,-0.00000900,-0.00
 000181,0.00000238,-0.00007588,-0.00027093,0.00048637,-0.00252821,0.000
 46253,0.00036368,0.00001076,0.00008623,-0.00000969,0.00004952,-0.00010
 253,-0.00015586,0.00036084,-0.00003113,0.00122490,0.00039952,0.0003309
 1,0.00066220,0.00135479,0.00425739,-0.01455785,-0.02197134,-0.07669335
 ,0.31215262,0.00003123,0.00008111,-0.00028501,0.00137283,0.00121653,-0
 .00024916,-0.00185178,-0.01143230,-0.02534539,0.00048311,-0.00042862,-
 0.00041419,-0.00323698,0.00994776,0.03039747,0.00005479,-0.00001343,0.
 00016814,0.00003291,-0.00007750,0.00001136,-0.00001187,0.00000282,0.00
 000173,0.00005811,0.00003165,0.00002567,0.00002070,-0.00003589,-0.0000
 2472,0.00172081,-0.00056589,-0.00036691,-0.04690623,0.00714799,0.01857
 749,0.00010323,0.00131955,0.00056469,-0.00002239,-0.00001766,0.0002276
 6,0.00007706,0.00022898,-0.00023532,-0.00001863,-0.00016009,-0.0003274
 6,-0.00340304,0.00228239,-0.00176468,0.00000655,0.00004763,-0.00001770
 ,0.00032376,-0.00002843,0.00026525,-0.00524400,-0.00222624,0.00235706,
 0.00113829,0.00056911,-0.00081908,0.00000342,-0.00000442,-0.00000552,-
 0.00002648,0.00003715,0.00001505,0.00003068,0.00002907,-0.00000330,-0.
 00001588,-0.00000677,0.00000713,-0.00000105,0.00000016,-0.00000139,0.0
 0000106,0.00000115,0.00000116,0.00001391,-0.00000322,0.00000326,0.0000
 0141,-0.00000178,0.00000028,0.05562839,0.00006701,0.00001976,0.0002913
 1,0.00051247,0.00061575,0.00081622,-0.00111316,0.00449970,0.01250423,0
 .00011306,-0.00068734,0.00071714,-0.00082757,0.00269095,0.00956793,-0.
 00006886,0.00000999,-0.00010940,0.00002064,0.00003171,0.00000140,0.000
 01083,0.00000196,-0.00000751,-0.00003898,-0.00001638,-0.00001064,-0.00
 000851,0.00002679,0.00002814,-0.00136680,0.00030488,-0.00000246,0.0070
 0003,-0.07958493,-0.08386358,0.00044554,-0.00071554,-0.00058001,0.0000
 3484,-0.00000964,-0.00005569,0.00006695,0.00011917,-0.00018920,-0.0000
 1591,0.00019112,-0.00043498,0.00123809,0.00015269,0.00063913,-0.000058
 63,0.00011809,0.00002990,0.00005227,-0.00108219,0.00050018,-0.00181116
 ,0.00025742,0.00126148,0.00043129,0.00010305,-0.00040725,-0.00000540,-
 0.00000148,0.00000232,0.00000880,-0.00001339,-0.00000322,-0.00000378,-
 0.00001169,-0.00000154,-0.00000007,0.00000101,0.00000273,0.00000011,-0
 .00000040,0.00000301,-0.00000233,-0.00000182,-0.00000085,-0.00001446,0
 .00000358,-0.00000411,-0.00000044,0.00000028,-0.00000139,-0.00711363,0
 .08283058,0.00009000,0.00027115,0.00045063,0.00025883,-0.00028324,0.00
 067354,0.00054371,-0.00910123,-0.01961055,-0.00009785,-0.00095939,-0.0
 0093852,0.00232395,-0.00314280,-0.01139967,-0.00003994,0.00000396,0.00
 003104,0.00006040,-0.00012515,0.00007913,-0.00001415,0.00001114,0.0000
 1124,0.00008715,0.00004704,0.00000246,-0.00000434,-0.00000515,-0.00001
 491,0.00259837,-0.00019576,0.00170223,0.01477180,-0.08152214,-0.279021
 70,-0.00051513,0.00192499,0.00032054,0.00025688,-0.00010862,0.00009942
 ,-0.00009971,0.00001239,0.00015425,0.00023307,0.00053821,-0.00032002,-
 0.00211359,0.00183992,-0.00080221,-0.00005016,0.00010499,0.00041633,-0
 .00033162,0.00032249,0.00055693,0.00215940,0.00058720,0.00042879,0.000
 18355,0.00008481,0.00052736,-0.00000189,-0.00000559,-0.00000946,-0.000
 01238,0.00000466,-0.00000565,0.00002027,0.00002474,0.00000076,-0.00000
 845,0.00000370,-0.00000156,0.00000081,-0.00000156,-0.00000264,0.000002
 99,-0.00000042,-0.00000087,0.00000665,-0.00000107,-0.00000127,-0.00000
 172,0.00000052,0.00000018,-0.01986585,0.08971585,0.30511878,-0.0001538
 6,-0.00067478,0.00016745,-0.00519494,-0.00062614,0.00380248,0.00367754
 ,0.02467743,0.00201993,-0.00167939,-0.00021025,-0.00041537,-0.00172597
 ,-0.03084637,-0.00178018,0.00006275,-0.00001495,-0.00000723,-0.0000337
 2,0.00018099,-0.00006156,0.00002479,-0.00002033,-0.00002083,-0.0001372
 1,-0.00005082,-0.00002421,0.00000848,0.00000054,0.00000292,-0.00087828
 ,-0.00047641,-0.00032621,-0.04945851,-0.02494953,0.00023619,-0.0017602
 5,0.00401235,-0.00351284,0.00002619,0.00001883,-0.00003786,-0.00026981
 ,-0.00189793,-0.00003689,-0.00003421,-0.00017935,-0.00018247,0.0009700
 9,-0.00023694,0.00017867,0.00018498,0.00001842,0.00003099,0.00017686,0
 .00013840,-0.00010365,0.00123072,0.00072643,-0.00002045,0.00117746,0.0
 0054209,-0.00085665,-0.00000067,0.00000150,0.00000684,-0.00000119,0.00
 000117,0.00000197,0.00001466,-0.00002180,-0.00001291,-0.00000246,-0.00
 000133,0.00001094,-0.00000067,0.00000196,0.00000534,-0.00000588,0.0000
 0102,0.00000096,-0.00000538,0.00000465,0.00000086,-0.00000211,-0.00000
 043,-0.00000265,-0.00036391,0.00244779,-0.00044106,0.05415391,0.000027
 08,0.00027285,-0.00012162,-0.00104800,0.00102462,0.00114226,-0.0043700
 5,-0.01166189,-0.00179002,0.00013742,0.00102767,0.00020075,-0.00023820
 ,-0.00563338,-0.00041721,0.00003841,0.00000874,0.00004781,0.00002012,-
 0.00012155,0.00003929,-0.00002197,0.00001418,0.00002656,0.00010888,0.0
 0003221,0.00000490,-0.00000443,-0.00002037,-0.00003039,0.00129989,0.00
 024782,0.00030267,-0.02364027,-0.31872127,0.00352792,0.00164144,-0.000
 96167,0.00148550,0.00001056,-0.00001446,-0.00000309,-0.00001799,-0.000
 55852,-0.00011458,-0.00007034,0.00002021,-0.00007245,-0.00001876,0.001
 17336,0.00008483,-0.00000973,-0.00007539,0.00009569,-0.00010361,0.0001
 1004,0.00003751,-0.00008070,0.00023240,0.00029386,-0.00031561,0.000413
 10,-0.00010459,0.00000070,0.00000561,-0.00000277,0.00000136,0.00000057
 ,-0.00000727,0.00000856,-0.00000589,0.00000508,0.00001074,0.00000566,-
 0.00001054,0.00000072,-0.00000079,-0.00000641,0.00000814,-0.00000033,-
 0.00000125,0.00001799,-0.00000716,0.00000302,0.00000101,0.00000046,0.0
 0000336,-0.00082717,-0.00985370,-0.00004563,0.02743378,0.34304688,-0.0
 0006472,-0.00003881,0.00004103,0.00211246,0.00010840,-0.00018233,0.002
 65929,0.01870459,-0.00180903,-0.00042523,-0.00127344,-0.00095674,0.000
 63470,0.01296387,-0.00058479,0.00001617,0.00001501,0.00000090,-0.00001
 224,-0.00000221,0.00004269,-0.00000034,0.00000114,0.00000218,0.0000150
 6,-0.00000140,-0.00000834,0.00000188,-0.00000465,-0.00000691,0.0001126
 9,-0.00025958,0.00003226,-0.00018471,0.00002463,-0.04744417,-0.0030473
 0,0.00409025,-0.00267645,0.00003734,0.00002033,-0.00000085,0.00008032,
 0.00052733,0.00018534,0.00018462,0.00031990,-0.00005401,0.00068351,0.0
 0014590,0.00041735,0.00000421,0.00007826,0.00025451,-0.00016945,0.0000
 9384,0.00037696,-0.00072191,-0.00001365,0.00032573,-0.00039228,-0.0004
 9782,0.00037078,-0.00000271,-0.00000601,-0.00000076,0.00000061,-0.0000
 0456,-0.00000147,-0.00000607,-0.00000633,0.00000146,-0.00000062,-0.000
 00147,-0.00000500,0.00000078,-0.00000053,-0.00000079,0.00000095,-0.000
 00024,-0.00000052,0.00000321,-0.00000088,0.00000171,0.,0.00000043,0.00
 000079,-0.00289774,-0.03040913,0.00155543,0.00137750,-0.00457314,0.050
 12304\\0.00010262,0.00004027,-0.00008580,0.00001223,-0.00001542,-0.000
 00306,-0.00000677,-0.00013864,-0.00001743,-0.00002873,-0.00001364,-0.0
 0002555,0.00000512,0.00001178,0.00000365,-0.00007962,-0.00007913,0.000
 06671,-0.00000836,0.00000836,-0.00002162,0.00001454,-0.00000576,-0.000
 01699,-0.00000194,0.00000207,0.00000451,0.00000012,0.00000155,-0.00000
 153,0.00000475,0.00017990,0.00005381,-0.00000570,-0.00000273,-0.000006
 26,-0.00000693,0.00001035,0.00002422,-0.00000348,0.00000376,-0.0000173
 6,0.00000218,0.00000531,0.00000159,-0.00000221,-0.00000410,0.00000794,
 -0.00000077,-0.00001698,-0.00001419,0.00000794,0.00000557,-0.00000592,
 -0.00000108,0.00000521,0.00001118,-0.00000248,-0.00000382,-0.00000246,
 0.00000533,-0.00000424,0.00000116,0.00000502,0.00000490,-0.00000062,-0
 .00000100,-0.00000037,0.00000777,0.00000578,-0.00000955,0.00000030,-0.
 00000045,-0.00000002,0.00001470,-0.00000257,0.00000183,0.00001266,-0.0
 0000873,0.00000403,-0.00000335,-0.00000263,0.00000273,0.00000358,0.000
 00178,0.00000097,-0.00000442,0.00000347,0.00000811,0.00000794,-0.00000
 743,-0.00000230,0.00000485\\\@


 LOVE IS BLIND, THAT'S WHY ALL THE WORLD LOVES A LOUVER.
 Job cpu time:       0 days 14 hours 29 minutes 52.9 seconds.
 Elapsed time:       0 days  0 hours 54 minutes 23.4 seconds.
 File lengths (MBytes):  RWF=    688 Int=      0 D2E=      0 Chk=     33 Scr=      1
 Normal termination of Gaussian 16 at Mon Nov  5 02:15:36 2018.
