 Entering Gaussian System, Link 0=g16
 Initial command:
 /apps/gaussian/g16a03/g16/l1.exe "/jobfs/local/2011857.r-man2/Gau-23603.inp" -scrdir="/jobfs/local/2011857.r-man2/"
 Entering Link 1 = /apps/gaussian/g16a03/g16/l1.exe PID=     23604.
  
 Copyright (c) 1988,1990,1992,1993,1995,1998,2003,2009,2016,
            Gaussian, Inc.  All Rights Reserved.
  
 This is part of the Gaussian(R) 16 program.  It is based on
 the Gaussian(R) 09 system (copyright 2009, Gaussian, Inc.),
 the Gaussian(R) 03 system (copyright 2003, Gaussian, Inc.),
 the Gaussian(R) 98 system (copyright 1998, Gaussian, Inc.),
 the Gaussian(R) 94 system (copyright 1995, Gaussian, Inc.),
 the Gaussian 92(TM) system (copyright 1992, Gaussian, Inc.),
 the Gaussian 90(TM) system (copyright 1990, Gaussian, Inc.),
 the Gaussian 88(TM) system (copyright 1988, Gaussian, Inc.),
 the Gaussian 86(TM) system (copyright 1986, Carnegie Mellon
 University), and the Gaussian 82(TM) system (copyright 1983,
 Carnegie Mellon University). Gaussian is a federally registered
 trademark of Gaussian, Inc.
  
 This software contains proprietary and confidential information,
 including trade secrets, belonging to Gaussian, Inc.
  
 This software is provided under written license and may be
 used, copied, transmitted, or stored only in accord with that
 written license.
  
 The following legend is applicable only to US Government
 contracts under FAR:
  
                    RESTRICTED RIGHTS LEGEND
  
 Use, reproduction and disclosure by the US Government is
 subject to restrictions as set forth in subparagraphs (a)
 and (c) of the Commercial Computer Software - Restricted
 Rights clause in FAR 52.227-19.
  
 Gaussian, Inc.
 340 Quinnipiac St., Bldg. 40, Wallingford CT 06492
  
  
 ---------------------------------------------------------------
 Warning -- This program may not be used in any manner that
 competes with the business of Gaussian, Inc. or will provide
 assistance to any competitor of Gaussian, Inc.  The licensee
 of this program is prohibited from giving any competitor of
 Gaussian, Inc. access to this program.  By using this program,
 the user acknowledges that Gaussian, Inc. is engaged in the
 business of creating and licensing software in the field of
 computational chemistry and represents and warrants to the
 licensee that it is not a competitor of Gaussian, Inc. and that
 it will not use this program in any manner prohibited above.
 ---------------------------------------------------------------
  

 Cite this work as:
 Gaussian 16, Revision A.03,
 M. J. Frisch, G. W. Trucks, H. B. Schlegel, G. E. Scuseria, 
 M. A. Robb, J. R. Cheeseman, G. Scalmani, V. Barone, 
 G. A. Petersson, H. Nakatsuji, X. Li, M. Caricato, A. V. Marenich, 
 J. Bloino, B. G. Janesko, R. Gomperts, B. Mennucci, H. P. Hratchian, 
 J. V. Ortiz, A. F. Izmaylov, J. L. Sonnenberg, D. Williams-Young, 
 F. Ding, F. Lipparini, F. Egidi, J. Goings, B. Peng, A. Petrone, 
 T. Henderson, D. Ranasinghe, V. G. Zakrzewski, J. Gao, N. Rega, 
 G. Zheng, W. Liang, M. Hada, M. Ehara, K. Toyota, R. Fukuda, 
 J. Hasegawa, M. Ishida, T. Nakajima, Y. Honda, O. Kitao, H. Nakai, 
 T. Vreven, K. Throssell, J. A. Montgomery, Jr., J. E. Peralta, 
 F. Ogliaro, M. J. Bearpark, J. J. Heyd, E. N. Brothers, K. N. Kudin, 
 V. N. Staroverov, T. A. Keith, R. Kobayashi, J. Normand, 
 K. Raghavachari, A. P. Rendell, J. C. Burant, S. S. Iyengar, 
 J. Tomasi, M. Cossi, J. M. Millam, M. Klene, C. Adamo, R. Cammi, 
 J. W. Ochterski, R. L. Martin, K. Morokuma, O. Farkas, 
 J. B. Foresman, and D. J. Fox, Gaussian, Inc., Wallingford CT, 2016.
 
 ******************************************
 Gaussian 16:  ES64L-G16RevA.03 25-Dec-2016
                 4-Nov-2018 
 ******************************************
 %mem=6000mb
 %nproc=24
 Will use up to   24 processors via shared memory.
 %chk=2SO_1_e4_D_PSI.inp_extract_1.chk
 ----------------------------------------------------------------------
 #M062X/6-311++G(2d,2p) opt=ModRedundant freq=noraman SCRF=(Solvent=Wat
 er)
 ----------------------------------------------------------------------
 1/18=120,19=15,26=3,38=1/1,3;
 2/9=110,12=2,17=6,18=5,40=1/2;
 3/5=4,6=6,7=1212,11=2,25=1,30=1,70=2201,71=1,72=1,74=-55/1,2,3;
 4//1;
 5/5=2,38=5,53=1/2;
 6/7=2,8=2,9=2,10=2,28=1/1;
 7//1,2,3,16;
 1/18=20,19=15,26=3/3(2);
 2/9=110/2;
 99//99;
 2/9=110/2;
 3/5=4,6=6,7=1212,11=2,25=1,30=1,70=2205,71=1,72=1,74=-55/1,2,3;
 4/5=5,16=3,69=1/1;
 5/5=2,38=5,53=1/2;
 7//1,2,3,16;
 1/18=20,19=15,26=3/3(-5);
 2/9=110/2;
 6/7=2,8=2,9=2,10=2,19=2,28=1/1;
 99/9=1/99;
 ----------------------------
 2SO_1_e4_D_PSI.inp_extract_1
 ----------------------------
 Symbolic Z-matrix:
 Charge =  0 Multiplicity = 1
 C                     1.145     0.15095  -0.06252 
 C                    -3.98252   0.49794  -0.13772 
 C                    -1.17767  -0.46028  -0.14494 
 C                    -2.72234   1.34475  -0.32668 
 C                    -3.60401  -0.96513   0.15617 
 C                     2.01016   1.10783   0.745 
 C                     1.85505  -1.19627  -0.18683 
 C                     3.99661  -0.21075  -0.02718 
 O                     3.12409  -1.03212  -0.78206 
 C                     3.41554   1.18319   0.14427 
 O                    -0.09088  -0.00686   0.61207 
 C                    -2.2235   -1.02937   0.80621 
 O                    -1.69698   0.5773   -0.93771 
 H                     0.97039   0.55797  -1.05263 
 H                    -4.60466   0.55032  -1.02536 
 H                    -4.55901   0.91645   0.68226 
 H                    -0.84905  -1.20927  -0.84973 
 H                    -2.89976   2.18649  -0.98066 
 H                    -2.36435   1.73102   0.62092 
 H                    -3.58767  -1.53566  -0.76818 
 H                    -4.34416  -1.43057   0.79786 
 H                     1.5491    2.09018   0.77182 
 H                     2.06583   0.7439    1.76839 
 H                     1.30801  -1.88407  -0.81541 
 H                     1.96484  -1.64114   0.79969 
 H                     4.17006  -0.67559   0.94074 
 H                     4.9333   -0.18564  -0.56693 
 H                     4.06937   1.77002   0.78236 
 H                     3.37884   1.67518  -0.82436 
 H                    -2.21892  -0.45641   1.72862 
 H                    -1.946    -2.04696   1.05755 
 
 The following ModRedundant input section has been read:
 D       6       1      11       3 F                                           
 

 GradGradGradGradGradGradGradGradGradGradGradGradGradGradGradGradGradGrad
 Berny optimization.
 Initialization pass.
                           ----------------------------
                           !    Initial Parameters    !
                           ! (Angstroms and Degrees)  !
 --------------------------                            --------------------------
 ! Name  Definition              Value          Derivative Info.                !
 --------------------------------------------------------------------------------
 ! R1    R(1,6)                  1.5219         estimate D2E/DX2                !
 ! R2    R(1,7)                  1.5279         estimate D2E/DX2                !
 ! R3    R(1,11)                 1.4168         estimate D2E/DX2                !
 ! R4    R(1,14)                 1.0847         estimate D2E/DX2                !
 ! R5    R(2,4)                  1.53           estimate D2E/DX2                !
 ! R6    R(2,5)                  1.5396         estimate D2E/DX2                !
 ! R7    R(2,15)                 1.0852         estimate D2E/DX2                !
 ! R8    R(2,16)                 1.0862         estimate D2E/DX2                !
 ! R9    R(3,11)                 1.3999         estimate D2E/DX2                !
 ! R10   R(3,12)                 1.5239         estimate D2E/DX2                !
 ! R11   R(3,13)                 1.4053         estimate D2E/DX2                !
 ! R12   R(3,17)                 1.0797         estimate D2E/DX2                !
 ! R13   R(4,13)                 1.419          estimate D2E/DX2                !
 ! R14   R(4,18)                 1.0806         estimate D2E/DX2                !
 ! R15   R(4,19)                 1.0841         estimate D2E/DX2                !
 ! R16   R(5,12)                 1.5272         estimate D2E/DX2                !
 ! R17   R(5,20)                 1.0864         estimate D2E/DX2                !
 ! R18   R(5,21)                 1.0845         estimate D2E/DX2                !
 ! R19   R(6,10)                 1.5302         estimate D2E/DX2                !
 ! R20   R(6,22)                 1.0855         estimate D2E/DX2                !
 ! R21   R(6,23)                 1.0876         estimate D2E/DX2                !
 ! R22   R(7,9)                  1.4113         estimate D2E/DX2                !
 ! R23   R(7,24)                 1.0805         estimate D2E/DX2                !
 ! R24   R(7,25)                 1.0877         estimate D2E/DX2                !
 ! R25   R(8,9)                  1.4163         estimate D2E/DX2                !
 ! R26   R(8,10)                 1.5199         estimate D2E/DX2                !
 ! R27   R(8,26)                 1.0877         estimate D2E/DX2                !
 ! R28   R(8,27)                 1.0814         estimate D2E/DX2                !
 ! R29   R(10,28)                1.0858         estimate D2E/DX2                !
 ! R30   R(10,29)                1.087          estimate D2E/DX2                !
 ! R31   R(12,30)                1.0859         estimate D2E/DX2                !
 ! R32   R(12,31)                1.0843         estimate D2E/DX2                !
 ! A1    A(6,1,7)              109.4729         estimate D2E/DX2                !
 ! A2    A(6,1,11)             108.2563         estimate D2E/DX2                !
 ! A3    A(6,1,14)             109.8727         estimate D2E/DX2                !
 ! A4    A(7,1,11)             110.2362         estimate D2E/DX2                !
 ! A5    A(7,1,14)             109.3543         estimate D2E/DX2                !
 ! A6    A(11,1,14)            109.6333         estimate D2E/DX2                !
 ! A7    A(4,2,5)              110.3072         estimate D2E/DX2                !
 ! A8    A(4,2,15)             110.1489         estimate D2E/DX2                !
 ! A9    A(4,2,16)             108.4888         estimate D2E/DX2                !
 ! A10   A(5,2,15)             110.0568         estimate D2E/DX2                !
 ! A11   A(5,2,16)             110.6422         estimate D2E/DX2                !
 ! A12   A(15,2,16)            107.1339         estimate D2E/DX2                !
 ! A13   A(11,3,12)            108.4343         estimate D2E/DX2                !
 ! A14   A(11,3,13)            110.6591         estimate D2E/DX2                !
 ! A15   A(11,3,17)            109.9615         estimate D2E/DX2                !
 ! A16   A(12,3,13)            111.9769         estimate D2E/DX2                !
 ! A17   A(12,3,17)            110.9314         estimate D2E/DX2                !
 ! A18   A(13,3,17)            104.8583         estimate D2E/DX2                !
 ! A19   A(2,4,13)             110.4257         estimate D2E/DX2                !
 ! A20   A(2,4,18)             111.7553         estimate D2E/DX2                !
 ! A21   A(2,4,19)             111.1765         estimate D2E/DX2                !
 ! A22   A(13,4,18)            106.2191         estimate D2E/DX2                !
 ! A23   A(13,4,19)            109.2964         estimate D2E/DX2                !
 ! A24   A(18,4,19)            107.799          estimate D2E/DX2                !
 ! A25   A(2,5,12)             110.0877         estimate D2E/DX2                !
 ! A26   A(2,5,20)             109.8985         estimate D2E/DX2                !
 ! A27   A(2,5,21)             110.6706         estimate D2E/DX2                !
 ! A28   A(12,5,20)            109.0548         estimate D2E/DX2                !
 ! A29   A(12,5,21)            110.3043         estimate D2E/DX2                !
 ! A30   A(20,5,21)            106.7568         estimate D2E/DX2                !
 ! A31   A(1,6,10)             110.1666         estimate D2E/DX2                !
 ! A32   A(1,6,22)             109.9159         estimate D2E/DX2                !
 ! A33   A(1,6,23)             108.5412         estimate D2E/DX2                !
 ! A34   A(10,6,22)            110.8071         estimate D2E/DX2                !
 ! A35   A(10,6,23)            109.8077         estimate D2E/DX2                !
 ! A36   A(22,6,23)            107.5364         estimate D2E/DX2                !
 ! A37   A(1,7,9)              110.4651         estimate D2E/DX2                !
 ! A38   A(1,7,24)             111.9209         estimate D2E/DX2                !
 ! A39   A(1,7,25)             109.4951         estimate D2E/DX2                !
 ! A40   A(9,7,24)             106.4956         estimate D2E/DX2                !
 ! A41   A(9,7,25)             109.8361         estimate D2E/DX2                !
 ! A42   A(24,7,25)            108.5643         estimate D2E/DX2                !
 ! A43   A(9,8,10)             110.8851         estimate D2E/DX2                !
 ! A44   A(9,8,26)             108.9485         estimate D2E/DX2                !
 ! A45   A(9,8,27)             106.3241         estimate D2E/DX2                !
 ! A46   A(10,8,26)            110.6425         estimate D2E/DX2                !
 ! A47   A(10,8,27)            111.4791         estimate D2E/DX2                !
 ! A48   A(26,8,27)            108.4194         estimate D2E/DX2                !
 ! A49   A(7,9,8)              113.3673         estimate D2E/DX2                !
 ! A50   A(6,10,8)             110.5013         estimate D2E/DX2                !
 ! A51   A(6,10,28)            110.4219         estimate D2E/DX2                !
 ! A52   A(6,10,29)            109.9435         estimate D2E/DX2                !
 ! A53   A(8,10,28)            109.3746         estimate D2E/DX2                !
 ! A54   A(8,10,29)            109.1157         estimate D2E/DX2                !
 ! A55   A(28,10,29)           107.4198         estimate D2E/DX2                !
 ! A56   A(1,11,3)             117.1157         estimate D2E/DX2                !
 ! A57   A(3,12,5)             109.8146         estimate D2E/DX2                !
 ! A58   A(3,12,30)            109.2838         estimate D2E/DX2                !
 ! A59   A(3,12,31)            108.6339         estimate D2E/DX2                !
 ! A60   A(5,12,30)            110.0701         estimate D2E/DX2                !
 ! A61   A(5,12,31)            111.6831         estimate D2E/DX2                !
 ! A62   A(30,12,31)           107.2897         estimate D2E/DX2                !
 ! A63   A(3,13,4)             115.0511         estimate D2E/DX2                !
 ! D1    D(7,1,6,10)            53.1921         estimate D2E/DX2                !
 ! D2    D(7,1,6,22)           175.5739         estimate D2E/DX2                !
 ! D3    D(7,1,6,23)           -67.0687         estimate D2E/DX2                !
 ! D4    D(11,1,6,10)          173.3883         estimate D2E/DX2                !
 ! D5    D(11,1,6,22)          -64.23           estimate D2E/DX2                !
 ! D6    D(11,1,6,23)           53.1274         estimate D2E/DX2                !
 ! D7    D(14,1,6,10)          -66.9125         estimate D2E/DX2                !
 ! D8    D(14,1,6,22)           55.4692         estimate D2E/DX2                !
 ! D9    D(14,1,6,23)          172.8266         estimate D2E/DX2                !
 ! D10   D(6,1,7,9)            -57.3094         estimate D2E/DX2                !
 ! D11   D(6,1,7,24)          -175.7905         estimate D2E/DX2                !
 ! D12   D(6,1,7,25)            63.7774         estimate D2E/DX2                !
 ! D13   D(11,1,7,9)          -176.288          estimate D2E/DX2                !
 ! D14   D(11,1,7,24)           65.2309         estimate D2E/DX2                !
 ! D15   D(11,1,7,25)          -55.2012         estimate D2E/DX2                !
 ! D16   D(14,1,7,9)            63.1118         estimate D2E/DX2                !
 ! D17   D(14,1,7,24)          -55.3693         estimate D2E/DX2                !
 ! D18   D(14,1,7,25)         -175.8015         estimate D2E/DX2                !
 ! D19   D(6,1,11,3)           158.9917         Frozen                          !
 ! D20   D(7,1,11,3)           -81.2904         estimate D2E/DX2                !
 ! D21   D(14,1,11,3)           39.1422         estimate D2E/DX2                !
 ! D22   D(5,2,4,13)            33.7776         estimate D2E/DX2                !
 ! D23   D(5,2,4,18)           151.7809         estimate D2E/DX2                !
 ! D24   D(5,2,4,19)           -87.7181         estimate D2E/DX2                !
 ! D25   D(15,2,4,13)          -87.9106         estimate D2E/DX2                !
 ! D26   D(15,2,4,18)           30.0927         estimate D2E/DX2                !
 ! D27   D(15,2,4,19)          150.5937         estimate D2E/DX2                !
 ! D28   D(16,2,4,13)          155.1159         estimate D2E/DX2                !
 ! D29   D(16,2,4,18)          -86.8808         estimate D2E/DX2                !
 ! D30   D(16,2,4,19)           33.6202         estimate D2E/DX2                !
 ! D31   D(4,2,5,12)            26.5552         estimate D2E/DX2                !
 ! D32   D(4,2,5,20)           -93.5814         estimate D2E/DX2                !
 ! D33   D(4,2,5,21)           148.7553         estimate D2E/DX2                !
 ! D34   D(15,2,5,12)          148.298          estimate D2E/DX2                !
 ! D35   D(15,2,5,20)           28.1614         estimate D2E/DX2                !
 ! D36   D(15,2,5,21)          -89.5019         estimate D2E/DX2                !
 ! D37   D(16,2,5,12)          -93.4937         estimate D2E/DX2                !
 ! D38   D(16,2,5,20)          146.3697         estimate D2E/DX2                !
 ! D39   D(16,2,5,21)           28.7064         estimate D2E/DX2                !
 ! D40   D(12,3,11,1)          159.9579         estimate D2E/DX2                !
 ! D41   D(13,3,11,1)          -76.8626         estimate D2E/DX2                !
 ! D42   D(17,3,11,1)           38.5109         estimate D2E/DX2                !
 ! D43   D(11,3,12,5)          155.334          estimate D2E/DX2                !
 ! D44   D(11,3,12,30)          34.5027         estimate D2E/DX2                !
 ! D45   D(11,3,12,31)         -82.258          estimate D2E/DX2                !
 ! D46   D(13,3,12,5)           32.9531         estimate D2E/DX2                !
 ! D47   D(13,3,12,30)         -87.8782         estimate D2E/DX2                !
 ! D48   D(13,3,12,31)         155.3611         estimate D2E/DX2                !
 ! D49   D(17,3,12,5)          -83.8174         estimate D2E/DX2                !
 ! D50   D(17,3,12,30)         155.3513         estimate D2E/DX2                !
 ! D51   D(17,3,12,31)          38.5906         estimate D2E/DX2                !
 ! D52   D(11,3,13,4)          -90.2398         estimate D2E/DX2                !
 ! D53   D(12,3,13,4)           30.8642         estimate D2E/DX2                !
 ! D54   D(17,3,13,4)          151.2377         estimate D2E/DX2                !
 ! D55   D(2,4,13,3)           -67.7306         estimate D2E/DX2                !
 ! D56   D(18,4,13,3)          170.9215         estimate D2E/DX2                !
 ! D57   D(19,4,13,3)           54.8722         estimate D2E/DX2                !
 ! D58   D(2,5,12,3)           -61.4902         estimate D2E/DX2                !
 ! D59   D(2,5,12,30)           58.8656         estimate D2E/DX2                !
 ! D60   D(2,5,12,31)          177.9292         estimate D2E/DX2                !
 ! D61   D(20,5,12,3)           59.1552         estimate D2E/DX2                !
 ! D62   D(20,5,12,30)         179.5109         estimate D2E/DX2                !
 ! D63   D(20,5,12,31)         -61.4254         estimate D2E/DX2                !
 ! D64   D(21,5,12,3)          176.0933         estimate D2E/DX2                !
 ! D65   D(21,5,12,30)         -63.5509         estimate D2E/DX2                !
 ! D66   D(21,5,12,31)          55.5127         estimate D2E/DX2                !
 ! D67   D(1,6,10,8)           -52.1175         estimate D2E/DX2                !
 ! D68   D(1,6,10,28)         -173.2585         estimate D2E/DX2                !
 ! D69   D(1,6,10,29)           68.3866         estimate D2E/DX2                !
 ! D70   D(22,6,10,8)         -173.9723         estimate D2E/DX2                !
 ! D71   D(22,6,10,28)          64.8866         estimate D2E/DX2                !
 ! D72   D(22,6,10,29)         -53.4683         estimate D2E/DX2                !
 ! D73   D(23,6,10,8)           67.3767         estimate D2E/DX2                !
 ! D74   D(23,6,10,28)         -53.7643         estimate D2E/DX2                !
 ! D75   D(23,6,10,29)        -172.1192         estimate D2E/DX2                !
 ! D76   D(1,7,9,8)             61.7476         estimate D2E/DX2                !
 ! D77   D(24,7,9,8)          -176.5105         estimate D2E/DX2                !
 ! D78   D(25,7,9,8)           -59.1363         estimate D2E/DX2                !
 ! D79   D(10,8,9,7)           -60.2124         estimate D2E/DX2                !
 ! D80   D(26,8,9,7)            61.7894         estimate D2E/DX2                !
 ! D81   D(27,8,9,7)           178.447          estimate D2E/DX2                !
 ! D82   D(9,8,10,6)            54.3564         estimate D2E/DX2                !
 ! D83   D(9,8,10,28)          176.1173         estimate D2E/DX2                !
 ! D84   D(9,8,10,29)          -66.6412         estimate D2E/DX2                !
 ! D85   D(26,8,10,6)          -66.6505         estimate D2E/DX2                !
 ! D86   D(26,8,10,28)          55.1104         estimate D2E/DX2                !
 ! D87   D(26,8,10,29)         172.3519         estimate D2E/DX2                !
 ! D88   D(27,8,10,6)          172.6135         estimate D2E/DX2                !
 ! D89   D(27,8,10,28)         -65.6256         estimate D2E/DX2                !
 ! D90   D(27,8,10,29)          51.6159         estimate D2E/DX2                !
 --------------------------------------------------------------------------------
 Trust Radius=3.00D-01 FncErr=1.00D-07 GrdErr=1.00D-06 EigMax=2.50D+02 EigMin=1.00D-04
 Number of steps in this run=    186 maximum allowed number of steps=    186.
 GradGradGradGradGradGradGradGradGradGradGradGradGradGradGradGradGradGrad

                          Input orientation:                          
 ---------------------------------------------------------------------
 Center     Atomic      Atomic             Coordinates (Angstroms)
 Number     Number       Type             X           Y           Z
 ---------------------------------------------------------------------
      1          6           0        1.145003    0.150952   -0.062521
      2          6           0       -3.982523    0.497940   -0.137724
      3          6           0       -1.177672   -0.460277   -0.144940
      4          6           0       -2.722340    1.344754   -0.326676
      5          6           0       -3.604007   -0.965134    0.156168
      6          6           0        2.010164    1.107830    0.745000
      7          6           0        1.855053   -1.196265   -0.186831
      8          6           0        3.996608   -0.210750   -0.027178
      9          8           0        3.124093   -1.032124   -0.782062
     10          6           0        3.415542    1.183189    0.144271
     11          8           0       -0.090880   -0.006856    0.612071
     12          6           0       -2.223496   -1.029370    0.806208
     13          8           0       -1.696983    0.577304   -0.937708
     14          1           0        0.970391    0.557967   -1.052630
     15          1           0       -4.604660    0.550315   -1.025363
     16          1           0       -4.559010    0.916448    0.682258
     17          1           0       -0.849047   -1.209272   -0.849734
     18          1           0       -2.899758    2.186487   -0.980660
     19          1           0       -2.364345    1.731015    0.620916
     20          1           0       -3.587674   -1.535662   -0.768179
     21          1           0       -4.344162   -1.430573    0.797860
     22          1           0        1.549100    2.090177    0.771819
     23          1           0        2.065834    0.743902    1.768392
     24          1           0        1.308007   -1.884072   -0.815409
     25          1           0        1.964837   -1.641139    0.799692
     26          1           0        4.170063   -0.675588    0.940742
     27          1           0        4.933296   -0.185636   -0.566926
     28          1           0        4.069365    1.770018    0.782359
     29          1           0        3.378843    1.675175   -0.824362
     30          1           0       -2.218918   -0.456409    1.728615
     31          1           0       -1.946001   -2.046958    1.057551
 ---------------------------------------------------------------------
                    Distance matrix (angstroms):
                    1          2          3          4          5
     1  C    0.000000
     2  C    5.139803   0.000000
     3  C    2.403167   2.964021   0.000000
     4  C    4.056018   1.529986   2.382680   0.000000
     5  C    4.883295   1.539556   2.496527   2.519138   0.000000
     6  C    1.521910   6.087977   3.662411   4.858108   6.013553
     7  C    1.527946   6.078654   3.121034   5.237257   5.474706
     8  C    2.874670   8.011304   5.181632   6.903155   7.640161
     9  O    2.415410   7.297963   4.386128   6.327535   6.793533
    10  C    2.502723   7.435083   4.886946   6.158043   7.340947
    11  O    1.416822   3.995234   1.399919   3.103655   3.669905
    12  C    3.673505   2.513535   1.523909   2.677450   1.527249
    13  O    3.004099   2.422801   1.405254   1.419048   2.685595
    14  H    1.084650   5.037064   2.544582   3.844776   4.970528
    15  H    5.843388   1.085219   3.679767   2.159265   2.166543
    16  H    5.803141   1.086212   3.743404   2.138867   2.174661
    17  H    2.538927   3.638709   1.079686   3.210275   2.943000
    18  H    4.620224   2.175801   3.266400   1.080596   3.423603
    19  H    3.908863   2.171292   2.607008   1.084107   3.003660
    20  H    5.073544   2.165391   2.711640   3.039823   1.086364
    21  H    5.776886   2.173767   3.443400   3.405485   1.084542
    22  H    2.149421   5.827636   3.844548   4.472980   6.022330
    23  H    2.133486   6.346369   3.953633   5.260888   6.137358
    24  H    2.175944   5.841485   2.941993   5.187280   5.090804
    25  H    2.151076   6.389483   3.487424   5.670440   5.646515
    26  H    3.292521   8.306920   5.461074   7.293377   7.818923
    27  H    3.836519   8.952280   6.131674   7.810799   8.603257
    28  H    3.447766   8.203514   5.776287   6.894785   8.170300
    29  H    2.809573   7.486459   5.077755   6.130359   7.529466
    30  H    3.859148   2.739399   2.143459   2.778820   2.156354
    31  H    3.954703   3.471687   2.133980   3.744662   2.175274
                    6          7          8          9         10
     6  C    0.000000
     7  C    2.490225   0.000000
     8  C    2.506167   2.362834   0.000000
     9  O    2.855199   1.411278   1.416258   0.000000
    10  C    1.530242   2.864709   1.519901   2.418811   0.000000
    11  O    2.382138   2.416525   4.142194   3.651141   3.732297
    12  C    4.742915   4.201017   6.328852   5.578469   6.093630
    13  O    4.105594   4.040584   5.819542   5.085003   5.260769
    14  H    2.148244   2.146990   3.286406   2.690730   2.793249
    15  H    6.870291   6.744002   8.692376   7.892841   8.129712
    16  H    6.572261   6.808750   8.658665   8.060474   7.997128
    17  H    4.010888   2.784199   5.015378   3.977663   4.989853
    18  H    5.314954   5.889092   7.363134   6.832692   6.492695
    19  H    4.420417   5.198533   6.682230   6.302875   5.825324
    20  H    6.372876   5.484198   7.734714   6.730643   7.567678
    21  H    6.842788   6.281304   8.469776   7.643935   8.214130
    22  H    1.085498   3.437051   3.452963   3.826737   2.167960
    23  H    1.087600   2.762530   2.804161   3.283138   2.156955
    24  H    3.446647   1.080485   3.263417   2.006264   3.843277
    25  H    2.749887   1.087747   2.618744   2.053465   3.242060
    26  H    2.807857   2.627127   1.087672   2.046760   2.158407
    27  H    3.455272   3.262119   1.081362   2.008990   2.164038
    28  H    2.163376   3.826401   2.141048   3.345587   1.085822
    29  H    2.158254   3.312635   2.138656   2.719587   1.087036
    30  H    4.615136   4.562188   6.463429   5.931502   6.078287
    31  H    5.069676   4.089031   6.313707   5.488162   6.325668
                   11         12         13         14         15
    11  O    0.000000
    12  C    2.373031   0.000000
    13  O    2.307081   2.428963   0.000000
    14  H    2.053424   4.021919   2.669919   0.000000
    15  H    4.833822   3.394112   2.909123   5.575123   0.000000
    16  H    4.563069   3.042400   3.306132   5.806257   1.747028
    17  H    2.038994   2.159541   1.979543   2.544534   4.151099
    18  H    3.903504   3.740583   2.009473   4.199442   2.363419
    19  H    2.861628   2.770180   2.050788   3.911171   3.020480
    20  H    4.058313   2.143830   2.840436   5.023958   2.334888
    21  H    4.489086   2.158300   3.748509   5.968507   2.704795
    22  H    2.666946   4.895430   3.968416   2.451772   6.593163
    23  H    2.559713   4.740110   4.637836   3.031952   7.234503
    24  H    2.741993   3.978903   3.886296   2.476654   6.397652
    25  H    2.632880   4.232781   4.620495   3.042382   7.161815
    26  H    4.325605   6.404753   6.286537   3.966496   9.075471
    27  H    5.163753   7.336011   6.684322   4.061215   9.577285
    28  H    4.527021   6.887470   6.134490   3.799986   8.943950
    29  H    4.114796   6.431137   5.194437   2.664752   8.064864
    30  H    2.444855   1.085882   2.906933   4.351548   3.780166
    31  H    2.793196   1.084280   3.306028   4.443404   4.260613
                   16         17         18         19         20
    16  H    0.000000
    17  H    4.541972   0.000000
    18  H    2.670470   3.969098   0.000000
    19  H    2.341759   3.619976   1.749048   0.000000
    20  H    3.010001   2.759214   3.791144   3.754637   0.000000
    21  H    2.359668   3.870319   4.281654   3.734518   1.742354
    22  H    6.220504   4.389408   4.782551   3.932788   6.473388
    23  H    6.715506   4.377899   5.856231   4.681621   6.602481
    24  H    6.671417   2.260402   5.856795   5.349584   4.908290
    25  H    7.008254   3.290146   6.440859   5.490464   5.770591
    26  H    8.876830   5.355566   7.865471   6.970833   7.990158
    27  H    9.637371   5.879056   8.194808   7.638068   8.629600
    28  H    8.671070   5.977514   7.200719   6.435853   8.483038
    29  H    8.115114   5.118177   6.301325   5.922513   7.671049
    30  H    2.907857   3.015167   3.845597   2.456210   3.045039
    31  H    3.968682   2.354307   4.794373   3.826061   2.507948
                   21         22         23         24         25
    21  H    0.000000
    22  H    6.864903   0.000000
    23  H    6.838006   1.752891   0.000000
    24  H    5.895364   4.286266   3.762523   0.000000
    25  H    6.312512   3.754508   2.576238   1.760396   0.000000
    26  H    8.548827   3.814110   2.669782   3.568734   2.411474
    27  H    9.459584   4.292359   3.813147   4.011128   3.577413
    28  H    9.001748   2.540541   2.457501   4.850808   4.008158
    29  H    8.480689   2.463327   3.051825   4.117849   3.954100
    30  H    2.516339   4.647421   4.449880   4.577060   4.446379
    31  H    2.489688   5.423399   4.938524   3.758069   3.940284
                   26         27         28         29         30
    26  H    0.000000
    27  H    1.759443   0.000000
    28  H    2.452797   2.528147   0.000000
    29  H    3.044291   2.438281   1.751390   0.000000
    30  H    6.441107   7.516448   6.737572   6.511242   0.000000
    31  H    6.269014   7.309458   7.129493   6.763862   1.747758
                   31
    31  H    0.000000
 Stoichiometry    C10H18O3
 Framework group  C1[X(C10H18O3)]
 Deg. of freedom    87
 Full point group                 C1      NOp   1
 Largest Abelian subgroup         C1      NOp   1
 Largest concise Abelian subgroup C1      NOp   1
                         Standard orientation:                         
 ---------------------------------------------------------------------
 Center     Atomic      Atomic             Coordinates (Angstroms)
 Number     Number       Type             X           Y           Z
 ---------------------------------------------------------------------
      1          6           0        1.145003    0.150952   -0.062521
      2          6           0       -3.982523    0.497940   -0.137724
      3          6           0       -1.177672   -0.460277   -0.144940
      4          6           0       -2.722340    1.344754   -0.326676
      5          6           0       -3.604007   -0.965134    0.156168
      6          6           0        2.010164    1.107830    0.745000
      7          6           0        1.855053   -1.196265   -0.186831
      8          6           0        3.996608   -0.210750   -0.027178
      9          8           0        3.124093   -1.032124   -0.782062
     10          6           0        3.415542    1.183189    0.144271
     11          8           0       -0.090880   -0.006856    0.612071
     12          6           0       -2.223496   -1.029370    0.806208
     13          8           0       -1.696983    0.577304   -0.937708
     14          1           0        0.970391    0.557967   -1.052630
     15          1           0       -4.604660    0.550315   -1.025363
     16          1           0       -4.559010    0.916448    0.682258
     17          1           0       -0.849047   -1.209272   -0.849734
     18          1           0       -2.899758    2.186487   -0.980660
     19          1           0       -2.364345    1.731015    0.620916
     20          1           0       -3.587674   -1.535662   -0.768179
     21          1           0       -4.344162   -1.430573    0.797860
     22          1           0        1.549100    2.090177    0.771819
     23          1           0        2.065834    0.743902    1.768392
     24          1           0        1.308007   -1.884072   -0.815409
     25          1           0        1.964837   -1.641139    0.799692
     26          1           0        4.170063   -0.675588    0.940742
     27          1           0        4.933296   -0.185636   -0.566926
     28          1           0        4.069365    1.770018    0.782359
     29          1           0        3.378843    1.675175   -0.824362
     30          1           0       -2.218918   -0.456409    1.728615
     31          1           0       -1.946001   -2.046958    1.057551
 ---------------------------------------------------------------------
 Rotational constants (GHZ):           2.2461280           0.3618194           0.3386433
 Standard basis: 6-311++G(2d,2p) (5D, 7F)
 There are   557 symmetry adapted cartesian basis functions of A   symmetry.
 There are   531 symmetry adapted basis functions of A   symmetry.
   531 basis functions,   762 primitive gaussians,   557 cartesian basis functions
    51 alpha electrons       51 beta electrons
       nuclear repulsion energy       880.1126296872 Hartrees.
 NAtoms=   31 NActive=   31 NUniq=   31 SFac= 1.00D+00 NAtFMM=   60 NAOKFM=F Big=F
 Integral buffers will be    131072 words long.
 Raffenetti 2 integral format.
 Two-electron integral symmetry is turned on.
 ------------------------------------------------------------------------------
 Polarizable Continuum Model (PCM)
 =================================
 Model                : PCM.
 Atomic radii         : UFF (Universal Force Field).
 Polarization charges : Total charges.
 Charge compensation  : None.
 Solution method      : On-the-fly selection.
 Cavity type          : Scaled VdW (van der Waals Surface) (Alpha=1.100).
 Cavity algorithm     : GePol (No added spheres)
                        Default sphere list used, NSphG=   31.
                        Lebedev-Laikov grids with approx.  5.0 points / Ang**2.
                        Smoothing algorithm: York/Karplus (Gamma=1.0000).
                        Polarization charges: spherical gaussians, with
                                              point-specific exponents (IZeta= 3).
                        Self-potential: point-specific (ISelfS= 7).
                        Self-field    : sphere-specific E.n sum rule (ISelfD= 2).
 1st derivatives      : Analytical E(r).r(x)/FMM algorithm (CHGder, D1EAlg=3).
                        Cavity 1st derivative terms included.
 Solvent              : Water, Eps=  78.355300 Eps(inf)=   1.777849
 ------------------------------------------------------------------------------
 One-electron integrals computed using PRISM.
 NBasis=   531 RedAO= T EigKep=  5.42D-06  NBF=   531
 NBsUse=   531 1.00D-06 EigRej= -1.00D+00 NBFU=   531
 ExpMin= 3.60D-02 ExpMax= 8.59D+03 ExpMxC= 1.30D+03 IAcc=3 IRadAn=         5 AccDes= 0.00D+00
 Harris functional with IExCor= 1009 and IRadAn=       5 diagonalized for initial guess.
 HarFok:  IExCor= 1009 AccDes= 0.00D+00 IRadAn=         5 IDoV= 1 UseB2=F ITyADJ=14
 ICtDFT=  3500011 ScaDFX=  1.000000  1.000000  1.000000  1.000000
 FoFCou: FMM=F IPFlag=           0 FMFlag=      100000 FMFlg1=           0
         NFxFlg=           0 DoJE=T BraDBF=F KetDBF=T FulRan=T
         wScrn=  0.000000 ICntrl=       500 IOpCl=  0 I1Cent=   200000004 NGrid=           0
         NMat0=    1 NMatS0=      1 NMatT0=    0 NMatD0=    1 NMtDS0=    0 NMtDT0=    0
 Petite list used in FoFCou.
 Requested convergence on RMS density matrix=1.00D-08 within 128 cycles.
 Requested convergence on MAX density matrix=1.00D-06.
 Requested convergence on             energy=1.00D-06.
 No special actions if energy rises.
 Inv3:  Mode=1 IEnd=    13167075.
 Iteration    1 A*A^-1 deviation from unit magnitude is 4.22D-15 for   2090.
 Iteration    1 A*A^-1 deviation from orthogonality  is 3.30D-15 for   1677    228.
 Iteration    1 A^-1*A deviation from unit magnitude is 4.44D-15 for   2090.
 Iteration    1 A^-1*A deviation from orthogonality  is 7.99D-15 for   1890   1864.
 Error on total polarization charges =  0.01500
 SCF Done:  E(RM062X) =  -617.496500743     A.U. after   12 cycles
            NFock= 12  Conv=0.49D-08     -V/T= 2.0035

 **********************************************************************

            Population analysis using the SCF density.

 **********************************************************************

 Orbital symmetries:
       Occupied  (A) (A) (A) (A) (A) (A) (A) (A) (A) (A) (A) (A)
                 (A) (A) (A) (A) (A) (A) (A) (A) (A) (A) (A) (A)
                 (A) (A) (A) (A) (A) (A) (A) (A) (A) (A) (A) (A)
                 (A) (A) (A) (A) (A) (A) (A) (A) (A) (A) (A) (A)
                 (A) (A) (A)
       Virtual   (A) (A) (A) (A) (A) (A) (A) (A) (A) (A) (A) (A)
                 (A) (A) (A) (A) (A) (A) (A) (A) (A) (A) (A) (A)
                 (A) (A) (A) (A) (A) (A) (A) (A) (A) (A) (A) (A)
                 (A) (A) (A) (A) (A) (A) (A) (A) (A) (A) (A) (A)
                 (A) (A) (A) (A) (A) (A) (A) (A) (A) (A) (A) (A)
                 (A) (A) (A) (A) (A) (A) (A) (A) (A) (A) (A) (A)
                 (A) (A) (A) (A) (A) (A) (A) (A) (A) (A) (A) (A)
                 (A) (A) (A) (A) (A) (A) (A) (A) (A) (A) (A) (A)
                 (A) (A) (A) (A) (A) (A) (A) (A) (A) (A) (A) (A)
                 (A) (A) (A) (A) (A) (A) (A) (A) (A) (A) (A) (A)
                 (A) (A) (A) (A) (A) (A) (A) (A) (A) (A) (A) (A)
                 (A) (A) (A) (A) (A) (A) (A) (A) (A) (A) (A) (A)
                 (A) (A) (A) (A) (A) (A) (A) (A) (A) (A) (A) (A)
                 (A) (A) (A) (A) (A) (A) (A) (A) (A) (A) (A) (A)
                 (A) (A) (A) (A) (A) (A) (A) (A) (A) (A) (A) (A)
                 (A) (A) (A) (A) (A) (A) (A) (A) (A) (A) (A) (A)
                 (A) (A) (A) (A) (A) (A) (A) (A) (A) (A) (A) (A)
                 (A) (A) (A) (A) (A) (A) (A) (A) (A) (A) (A) (A)
                 (A) (A) (A) (A) (A) (A) (A) (A) (A) (A) (A) (A)
                 (A) (A) (A) (A) (A) (A) (A) (A) (A) (A) (A) (A)
                 (A) (A) (A) (A) (A) (A) (A) (A) (A) (A) (A) (A)
                 (A) (A) (A) (A) (A) (A) (A) (A) (A) (A) (A) (A)
                 (A) (A) (A) (A) (A) (A) (A) (A) (A) (A) (A) (A)
                 (A) (A) (A) (A) (A) (A) (A) (A) (A) (A) (A) (A)
                 (A) (A) (A) (A) (A) (A) (A) (A) (A) (A) (A) (A)
                 (A) (A) (A) (A) (A) (A) (A) (A) (A) (A) (A) (A)
                 (A) (A) (A) (A) (A) (A) (A) (A) (A) (A) (A) (A)
                 (A) (A) (A) (A) (A) (A) (A) (A) (A) (A) (A) (A)
                 (A) (A) (A) (A) (A) (A) (A) (A) (A) (A) (A) (A)
                 (A) (A) (A) (A) (A) (A) (A) (A) (A) (A) (A) (A)
                 (A) (A) (A) (A) (A) (A) (A) (A) (A) (A) (A) (A)
                 (A) (A) (A) (A) (A) (A) (A) (A) (A) (A) (A) (A)
                 (A) (A) (A) (A) (A) (A) (A) (A) (A) (A) (A) (A)
                 (A) (A) (A) (A) (A) (A) (A) (A) (A) (A) (A) (A)
                 (A) (A) (A) (A) (A) (A) (A) (A) (A) (A) (A) (A)
                 (A) (A) (A) (A) (A) (A) (A) (A) (A) (A) (A) (A)
                 (A) (A) (A) (A) (A) (A) (A) (A) (A) (A) (A) (A)
                 (A) (A) (A) (A) (A) (A) (A) (A) (A) (A) (A) (A)
                 (A) (A) (A) (A) (A) (A) (A) (A) (A) (A) (A) (A)
                 (A) (A) (A) (A) (A) (A) (A) (A) (A) (A) (A) (A)
 The electronic state is 1-A.
 Alpha  occ. eigenvalues --  -19.63228 -19.62962 -19.62771 -10.63513 -10.58656
 Alpha  occ. eigenvalues --  -10.57880 -10.57874 -10.57746 -10.53211 -10.53202
 Alpha  occ. eigenvalues --  -10.53159 -10.53149 -10.52796  -1.20242  -1.16802
 Alpha  occ. eigenvalues --   -1.13882  -0.90959  -0.89817  -0.87314  -0.84563
 Alpha  occ. eigenvalues --   -0.75470  -0.74431  -0.73524  -0.70404  -0.65827
 Alpha  occ. eigenvalues --   -0.62713  -0.60900  -0.59178  -0.58300  -0.56860
 Alpha  occ. eigenvalues --   -0.55681  -0.53095  -0.52587  -0.50018  -0.49507
 Alpha  occ. eigenvalues --   -0.47966  -0.46473  -0.46150  -0.45588  -0.44716
 Alpha  occ. eigenvalues --   -0.44515  -0.43201  -0.40701  -0.40351  -0.39198
 Alpha  occ. eigenvalues --   -0.38653  -0.37979  -0.36211  -0.35181  -0.33962
 Alpha  occ. eigenvalues --   -0.31856
 Alpha virt. eigenvalues --   -0.00101   0.00754   0.00934   0.00986   0.02114
 Alpha virt. eigenvalues --    0.02385   0.02538   0.03618   0.03824   0.04157
 Alpha virt. eigenvalues --    0.04248   0.04594   0.05486   0.05919   0.06665
 Alpha virt. eigenvalues --    0.07252   0.07566   0.07896   0.08477   0.09209
 Alpha virt. eigenvalues --    0.10036   0.10758   0.10999   0.11573   0.11744
 Alpha virt. eigenvalues --    0.12081   0.12274   0.12665   0.13213   0.13362
 Alpha virt. eigenvalues --    0.13514   0.14090   0.14349   0.14521   0.14830
 Alpha virt. eigenvalues --    0.14886   0.15343   0.15562   0.15883   0.16124
 Alpha virt. eigenvalues --    0.16391   0.16718   0.17081   0.17378   0.17661
 Alpha virt. eigenvalues --    0.17737   0.18226   0.18813   0.19059   0.19394
 Alpha virt. eigenvalues --    0.19855   0.20390   0.20623   0.21221   0.21460
 Alpha virt. eigenvalues --    0.21869   0.22328   0.22661   0.23928   0.24367
 Alpha virt. eigenvalues --    0.24603   0.25359   0.26269   0.26604   0.26694
 Alpha virt. eigenvalues --    0.26982   0.27619   0.28225   0.28788   0.28955
 Alpha virt. eigenvalues --    0.29368   0.30102   0.30653   0.31254   0.31878
 Alpha virt. eigenvalues --    0.32513   0.32855   0.33736   0.34112   0.34169
 Alpha virt. eigenvalues --    0.34838   0.34902   0.35450   0.36382   0.36673
 Alpha virt. eigenvalues --    0.36728   0.36952   0.37374   0.37699   0.37925
 Alpha virt. eigenvalues --    0.38792   0.38902   0.39649   0.40533   0.40616
 Alpha virt. eigenvalues --    0.41900   0.42396   0.43239   0.43749   0.44560
 Alpha virt. eigenvalues --    0.46147   0.47470   0.48704   0.49595   0.50682
 Alpha virt. eigenvalues --    0.51176   0.52036   0.52924   0.53585   0.54121
 Alpha virt. eigenvalues --    0.54818   0.56023   0.56717   0.57313   0.58819
 Alpha virt. eigenvalues --    0.59490   0.59905   0.60396   0.60664   0.61390
 Alpha virt. eigenvalues --    0.61790   0.62108   0.62657   0.62994   0.63403
 Alpha virt. eigenvalues --    0.64002   0.65094   0.65382   0.66383   0.66650
 Alpha virt. eigenvalues --    0.67692   0.68599   0.69193   0.69485   0.70395
 Alpha virt. eigenvalues --    0.70665   0.71003   0.71607   0.72159   0.73020
 Alpha virt. eigenvalues --    0.73769   0.74340   0.74561   0.74719   0.75305
 Alpha virt. eigenvalues --    0.75996   0.76276   0.76920   0.77425   0.77803
 Alpha virt. eigenvalues --    0.81202   0.82366   0.83609   0.84857   0.85164
 Alpha virt. eigenvalues --    0.86628   0.87353   0.88883   0.89127   0.89759
 Alpha virt. eigenvalues --    0.90444   0.90979   0.91919   0.92355   0.94654
 Alpha virt. eigenvalues --    0.95812   0.96403   0.98768   1.00328   1.01695
 Alpha virt. eigenvalues --    1.02410   1.04951   1.05161   1.06307   1.07187
 Alpha virt. eigenvalues --    1.08022   1.08410   1.09212   1.10109   1.11382
 Alpha virt. eigenvalues --    1.12564   1.13340   1.14312   1.16109   1.16254
 Alpha virt. eigenvalues --    1.17097   1.17563   1.17994   1.19009   1.19667
 Alpha virt. eigenvalues --    1.20432   1.21687   1.22825   1.22981   1.24377
 Alpha virt. eigenvalues --    1.24697   1.26258   1.26488   1.26883   1.27311
 Alpha virt. eigenvalues --    1.28261   1.28984   1.29288   1.30344   1.30876
 Alpha virt. eigenvalues --    1.31669   1.32398   1.32677   1.33312   1.33476
 Alpha virt. eigenvalues --    1.34125   1.35072   1.36062   1.36776   1.37396
 Alpha virt. eigenvalues --    1.38010   1.38779   1.39069   1.40402   1.41323
 Alpha virt. eigenvalues --    1.41804   1.42624   1.42950   1.44025   1.44482
 Alpha virt. eigenvalues --    1.45296   1.46279   1.47405   1.47774   1.48329
 Alpha virt. eigenvalues --    1.49106   1.49591   1.50274   1.51065   1.51723
 Alpha virt. eigenvalues --    1.52640   1.52913   1.53792   1.54144   1.54887
 Alpha virt. eigenvalues --    1.55768   1.56722   1.57457   1.57878   1.58103
 Alpha virt. eigenvalues --    1.58515   1.59100   1.60589   1.60963   1.61336
 Alpha virt. eigenvalues --    1.62400   1.63059   1.64298   1.65544   1.65624
 Alpha virt. eigenvalues --    1.67181   1.67534   1.69012   1.69156   1.70530
 Alpha virt. eigenvalues --    1.71575   1.74970   1.75617   1.76293   1.76702
 Alpha virt. eigenvalues --    1.78299   1.79190   1.79918   1.81635   1.83152
 Alpha virt. eigenvalues --    1.87883   1.88680   1.90774   1.93475   1.98616
 Alpha virt. eigenvalues --    2.01384   2.02745   2.08223   2.09231   2.18000
 Alpha virt. eigenvalues --    2.24240   2.25412   2.33117   2.34166   2.39496
 Alpha virt. eigenvalues --    2.40883   2.42172   2.45488   2.47650   2.51049
 Alpha virt. eigenvalues --    2.55931   2.75729   2.76330   2.79566   2.80492
 Alpha virt. eigenvalues --    2.87130   2.89395   2.89721   2.92120   2.93195
 Alpha virt. eigenvalues --    2.94145   2.96647   2.99691   3.00850   3.02532
 Alpha virt. eigenvalues --    3.06169   3.06847   3.07277   3.08990   3.09782
 Alpha virt. eigenvalues --    3.11928   3.13848   3.17162   3.18570   3.23297
 Alpha virt. eigenvalues --    3.24189   3.27813   3.30365   3.32060   3.33135
 Alpha virt. eigenvalues --    3.34874   3.36198   3.37713   3.38447   3.40521
 Alpha virt. eigenvalues --    3.41685   3.41799   3.43351   3.44808   3.45068
 Alpha virt. eigenvalues --    3.47677   3.48248   3.49014   3.49321   3.49759
 Alpha virt. eigenvalues --    3.51313   3.53841   3.54185   3.54823   3.56045
 Alpha virt. eigenvalues --    3.56906   3.57403   3.58832   3.59101   3.60027
 Alpha virt. eigenvalues --    3.60957   3.61788   3.62449   3.63979   3.64684
 Alpha virt. eigenvalues --    3.66337   3.67140   3.67882   3.68926   3.69778
 Alpha virt. eigenvalues --    3.70280   3.70711   3.72415   3.72795   3.73250
 Alpha virt. eigenvalues --    3.74166   3.75229   3.75466   3.77303   3.78406
 Alpha virt. eigenvalues --    3.79440   3.80480   3.82178   3.84068   3.85749
 Alpha virt. eigenvalues --    3.85844   3.87238   3.88753   3.89867   3.91429
 Alpha virt. eigenvalues --    3.93000   3.93521   3.96558   3.97297   3.98787
 Alpha virt. eigenvalues --    3.99547   4.01591   4.01969   4.03013   4.03470
 Alpha virt. eigenvalues --    4.04981   4.05112   4.06157   4.06845   4.07467
 Alpha virt. eigenvalues --    4.08466   4.08632   4.09096   4.10193   4.11294
 Alpha virt. eigenvalues --    4.12553   4.13562   4.14813   4.15393   4.16050
 Alpha virt. eigenvalues --    4.16791   4.18084   4.18637   4.19634   4.20262
 Alpha virt. eigenvalues --    4.20513   4.22100   4.25080   4.25451   4.26189
 Alpha virt. eigenvalues --    4.26805   4.27357   4.28963   4.30125   4.31060
 Alpha virt. eigenvalues --    4.32551   4.33608   4.36059   4.36929   4.39859
 Alpha virt. eigenvalues --    4.39993   4.41643   4.44871   4.47525   4.54663
 Alpha virt. eigenvalues --    4.56771   4.59157   4.75089   4.76448   4.82369
 Alpha virt. eigenvalues --    4.84930   4.92607   4.95389   4.99181   5.00503
 Alpha virt. eigenvalues --    5.02875   5.07071   5.08271   5.11693   5.12528
 Alpha virt. eigenvalues --    5.13711   5.15271   5.18138   5.30314   5.37145
 Alpha virt. eigenvalues --    5.38864   5.57417   5.58565   5.63974   5.85876
 Alpha virt. eigenvalues --    5.88571   6.05892   7.04324   7.04842   7.05187
 Alpha virt. eigenvalues --    7.06052   7.09862   7.11057   7.12962   7.19413
 Alpha virt. eigenvalues --    7.26240   7.36216   7.37545   7.44063   7.52932
 Alpha virt. eigenvalues --    7.55591   7.63546  23.95707  23.98443  24.04696
 Alpha virt. eigenvalues --   24.07189  24.10206  24.11805  24.13239  24.15183
 Alpha virt. eigenvalues --   24.16297  24.20439  50.17805  50.18765  50.22363
          Condensed to atoms (all electrons):
               1          2          3          4          5          6
     1  C    7.740075   0.045970  -0.403921   0.003773  -0.121864  -1.212117
     2  C    0.045970   6.091355   0.513912  -0.325863  -0.372241  -0.015028
     3  C   -0.403921   0.513912   6.812045  -0.524679  -0.283442   0.033812
     4  C    0.003773  -0.325863  -0.524679   5.803168   0.347800   0.021484
     5  C   -0.121864  -0.372241  -0.283442   0.347800   5.920104   0.001572
     6  C   -1.212117  -0.015028   0.033812   0.021484   0.001572   6.735968
     7  C   -0.581227  -0.022075  -0.069011   0.049898   0.025267   0.142595
     8  C    0.219497   0.002183   0.002560  -0.004432  -0.002824  -0.175850
     9  O    0.038831   0.000137  -0.006644  -0.000048  -0.000696  -0.014824
    10  C   -0.197010  -0.003252  -0.104239   0.013549  -0.000982   0.136155
    11  O    0.213661   0.022580   0.381805  -0.003858  -0.018712  -0.170381
    12  C    0.046410  -0.225322  -0.722796  -0.085877   0.140432  -0.102982
    13  O    0.018363   0.000216   0.278792   0.042822  -0.099589  -0.043087
    14  H    0.456205   0.004189  -0.020926  -0.003276  -0.005068   0.037543
    15  H    0.000739   0.476705  -0.006559  -0.083713  -0.048250  -0.002008
    16  H    0.000193   0.475158   0.016411  -0.046489  -0.069894   0.002797
    17  H    0.128945   0.052386   0.522375  -0.071552  -0.053688  -0.027317
    18  H   -0.001054  -0.010492   0.020931   0.422294  -0.010460   0.004955
    19  H    0.002864  -0.092764  -0.038255   0.484410   0.004979  -0.005869
    20  H    0.001690  -0.073943  -0.040396   0.006721   0.457897   0.002626
    21  H   -0.000726  -0.048945   0.015656   0.004360   0.449426  -0.001606
    22  H   -0.031013  -0.002124  -0.000632   0.002407  -0.000167   0.400384
    23  H   -0.019354  -0.000077   0.001909  -0.000189   0.000966   0.508042
    24  H   -0.165591  -0.005890   0.022465   0.008521   0.007557   0.039182
    25  H    0.048269   0.003081  -0.011114  -0.005356  -0.008115  -0.029683
    26  H    0.046955   0.000021   0.001770  -0.000133   0.000077  -0.031772
    27  H    0.003341   0.000097  -0.001964  -0.000106  -0.000157   0.011546
    28  H   -0.003854  -0.000154  -0.001187   0.000509   0.000021  -0.040992
    29  H   -0.032882  -0.000166   0.000259  -0.000094   0.000039  -0.006244
    30  H   -0.000629   0.010995  -0.072793  -0.031125  -0.072001   0.002465
    31  H   -0.015283  -0.005175  -0.024337   0.015751   0.005146   0.003134
               7          8          9         10         11         12
     1  C   -0.581227   0.219497   0.038831  -0.197010   0.213661   0.046410
     2  C   -0.022075   0.002183   0.000137  -0.003252   0.022580  -0.225322
     3  C   -0.069011   0.002560  -0.006644  -0.104239   0.381805  -0.722796
     4  C    0.049898  -0.004432  -0.000048   0.013549  -0.003858  -0.085877
     5  C    0.025267  -0.002824  -0.000696  -0.000982  -0.018712   0.140432
     6  C    0.142595  -0.175850  -0.014824   0.136155  -0.170381  -0.102982
     7  C    6.105155  -0.232276   0.146442   0.151438  -0.146155   0.070900
     8  C   -0.232276   5.386610   0.102384   0.068229   0.016406  -0.004095
     9  O    0.146442   0.102384   8.324266  -0.041836   0.005611   0.000346
    10  C    0.151438   0.068229  -0.041836   5.584457  -0.000529   0.006229
    11  O   -0.146155   0.016406   0.005611  -0.000529   8.283486  -0.243186
    12  C    0.070900  -0.004095   0.000346   0.006229  -0.243186   6.504588
    13  O    0.003199   0.001174  -0.000088  -0.005559  -0.040287   0.011034
    14  H   -0.100932   0.007785  -0.009455  -0.013213  -0.021987  -0.008873
    15  H   -0.001554   0.000090  -0.000005  -0.000277  -0.000197   0.044030
    16  H    0.001001  -0.000064   0.000004   0.000297   0.000993  -0.019001
    17  H   -0.069291   0.008674   0.000514  -0.016982  -0.037987  -0.070984
    18  H    0.002875  -0.000333   0.000030   0.001548  -0.000389  -0.021349
    19  H    0.000057   0.000036  -0.000148  -0.001711   0.011002   0.037657
    20  H    0.001698  -0.000144   0.000033   0.000441   0.000923   0.000676
    21  H   -0.000392   0.000018  -0.000015  -0.000178  -0.003391  -0.047831
    22  H    0.017280   0.002505  -0.001403   0.002942   0.004449   0.001685
    23  H   -0.039090  -0.014954   0.000644  -0.070915  -0.004524   0.003529
    24  H    0.483379  -0.004460  -0.077248   0.025096  -0.009357   0.020833
    25  H    0.351796   0.019549  -0.033224  -0.012308   0.009923  -0.005446
    26  H   -0.038905   0.474876  -0.041639  -0.047241  -0.000449   0.001387
    27  H    0.010644   0.432570  -0.072146  -0.047620   0.001077  -0.000400
    28  H    0.001752  -0.041508   0.007233   0.441832  -0.002068  -0.000362
    29  H    0.003882  -0.079224  -0.002980   0.490635  -0.000385   0.001512
    30  H   -0.001847   0.000443   0.000042  -0.000620  -0.013235   0.542785
    31  H    0.008517  -0.001073   0.000445   0.000378   0.001840   0.393523
              13         14         15         16         17         18
     1  C    0.018363   0.456205   0.000739   0.000193   0.128945  -0.001054
     2  C    0.000216   0.004189   0.476705   0.475158   0.052386  -0.010492
     3  C    0.278792  -0.020926  -0.006559   0.016411   0.522375   0.020931
     4  C    0.042822  -0.003276  -0.083713  -0.046489  -0.071552   0.422294
     5  C   -0.099589  -0.005068  -0.048250  -0.069894  -0.053688  -0.010460
     6  C   -0.043087   0.037543  -0.002008   0.002797  -0.027317   0.004955
     7  C    0.003199  -0.100932  -0.001554   0.001001  -0.069291   0.002875
     8  C    0.001174   0.007785   0.000090  -0.000064   0.008674  -0.000333
     9  O   -0.000088  -0.009455  -0.000005   0.000004   0.000514   0.000030
    10  C   -0.005559  -0.013213  -0.000277   0.000297  -0.016982   0.001548
    11  O   -0.040287  -0.021987  -0.000197   0.000993  -0.037987  -0.000389
    12  C    0.011034  -0.008873   0.044030  -0.019001  -0.070984  -0.021349
    13  O    8.293650   0.003607  -0.010335   0.011604  -0.115911  -0.069495
    14  H    0.003607   0.429509   0.000171  -0.000056  -0.004403  -0.000409
    15  H   -0.010335   0.000171   0.512714  -0.022858   0.005061  -0.012171
    16  H    0.011604  -0.000056  -0.022858   0.504321  -0.001090   0.000775
    17  H   -0.115911  -0.004403   0.005061  -0.001090   0.527794  -0.002055
    18  H   -0.069495  -0.000409  -0.012171   0.000775  -0.002055   0.476033
    19  H   -0.024909   0.000205   0.006208  -0.002288  -0.001112  -0.006584
    20  H    0.013980   0.000326  -0.015665   0.007352  -0.012062   0.000273
    21  H   -0.004764  -0.000064   0.000642  -0.006496   0.001013  -0.000525
    22  H   -0.001404  -0.008209  -0.000036   0.000191  -0.000107   0.000285
    23  H    0.000409   0.005873   0.000004  -0.000068  -0.000946  -0.000024
    24  H    0.003657  -0.001301  -0.000446   0.000116  -0.026627   0.000498
    25  H   -0.001211  -0.002004   0.000105  -0.000027   0.013553  -0.000195
    26  H   -0.000007  -0.000868   0.000002  -0.000006  -0.000095  -0.000014
    27  H    0.000013  -0.000629   0.000001   0.000001   0.000564   0.000003
    28  H   -0.000166   0.000231  -0.000010   0.000014  -0.000279   0.000062
    29  H   -0.000082  -0.006108  -0.000010  -0.000004  -0.000300  -0.000002
    30  H    0.000499  -0.000918  -0.003642   0.001506  -0.000283  -0.001164
    31  H    0.007744   0.000565   0.000164  -0.000106  -0.015853   0.001345
              19         20         21         22         23         24
     1  C    0.002864   0.001690  -0.000726  -0.031013  -0.019354  -0.165591
     2  C   -0.092764  -0.073943  -0.048945  -0.002124  -0.000077  -0.005890
     3  C   -0.038255  -0.040396   0.015656  -0.000632   0.001909   0.022465
     4  C    0.484410   0.006721   0.004360   0.002407  -0.000189   0.008521
     5  C    0.004979   0.457897   0.449426  -0.000167   0.000966   0.007557
     6  C   -0.005869   0.002626  -0.001606   0.400384   0.508042   0.039182
     7  C    0.000057   0.001698  -0.000392   0.017280  -0.039090   0.483379
     8  C    0.000036  -0.000144   0.000018   0.002505  -0.014954  -0.004460
     9  O   -0.000148   0.000033  -0.000015  -0.001403   0.000644  -0.077248
    10  C   -0.001711   0.000441  -0.000178   0.002942  -0.070915   0.025096
    11  O    0.011002   0.000923  -0.003391   0.004449  -0.004524  -0.009357
    12  C    0.037657   0.000676  -0.047831   0.001685   0.003529   0.020833
    13  O   -0.024909   0.013980  -0.004764  -0.001404   0.000409   0.003657
    14  H    0.000205   0.000326  -0.000064  -0.008209   0.005873  -0.001301
    15  H    0.006208  -0.015665   0.000642  -0.000036   0.000004  -0.000446
    16  H   -0.002288   0.007352  -0.006496   0.000191  -0.000068   0.000116
    17  H   -0.001112  -0.012062   0.001013  -0.000107  -0.000946  -0.026627
    18  H   -0.006584   0.000273  -0.000525   0.000285  -0.000024   0.000498
    19  H    0.488656   0.000395  -0.000953  -0.000393   0.000240  -0.000261
    20  H    0.000395   0.496214  -0.011921   0.000035   0.000045   0.001858
    21  H   -0.000953  -0.011921   0.477460  -0.000010   0.000026  -0.000009
    22  H   -0.000393   0.000035  -0.000010   0.485050  -0.016397  -0.000293
    23  H    0.000240   0.000045   0.000026  -0.016397   0.452100  -0.001039
    24  H   -0.000261   0.001858  -0.000009  -0.000293  -0.001039   0.508541
    25  H   -0.000119  -0.000244  -0.000069  -0.001174  -0.004795  -0.027895
    26  H    0.000046  -0.000008   0.000010  -0.000041  -0.004866  -0.004808
    27  H   -0.000046  -0.000001  -0.000003   0.000927  -0.001003   0.001885
    28  H   -0.000088   0.000015  -0.000003  -0.011141  -0.004569   0.002606
    29  H    0.000035   0.000006  -0.000004  -0.003676   0.002771  -0.001323
    30  H   -0.009406   0.006458  -0.004704   0.000591  -0.000401   0.001021
    31  H    0.000482   0.000362  -0.009623  -0.000102   0.000586   0.000012
              25         26         27         28         29         30
     1  C    0.048269   0.046955   0.003341  -0.003854  -0.032882  -0.000629
     2  C    0.003081   0.000021   0.000097  -0.000154  -0.000166   0.010995
     3  C   -0.011114   0.001770  -0.001964  -0.001187   0.000259  -0.072793
     4  C   -0.005356  -0.000133  -0.000106   0.000509  -0.000094  -0.031125
     5  C   -0.008115   0.000077  -0.000157   0.000021   0.000039  -0.072001
     6  C   -0.029683  -0.031772   0.011546  -0.040992  -0.006244   0.002465
     7  C    0.351796  -0.038905   0.010644   0.001752   0.003882  -0.001847
     8  C    0.019549   0.474876   0.432570  -0.041508  -0.079224   0.000443
     9  O   -0.033224  -0.041639  -0.072146   0.007233  -0.002980   0.000042
    10  C   -0.012308  -0.047241  -0.047620   0.441832   0.490635  -0.000620
    11  O    0.009923  -0.000449   0.001077  -0.002068  -0.000385  -0.013235
    12  C   -0.005446   0.001387  -0.000400  -0.000362   0.001512   0.542785
    13  O   -0.001211  -0.000007   0.000013  -0.000166  -0.000082   0.000499
    14  H   -0.002004  -0.000868  -0.000629   0.000231  -0.006108  -0.000918
    15  H    0.000105   0.000002   0.000001  -0.000010  -0.000010  -0.003642
    16  H   -0.000027  -0.000006   0.000001   0.000014  -0.000004   0.001506
    17  H    0.013553  -0.000095   0.000564  -0.000279  -0.000300  -0.000283
    18  H   -0.000195  -0.000014   0.000003   0.000062  -0.000002  -0.001164
    19  H   -0.000119   0.000046  -0.000046  -0.000088   0.000035  -0.009406
    20  H   -0.000244  -0.000008  -0.000001   0.000015   0.000006   0.006458
    21  H   -0.000069   0.000010  -0.000003  -0.000003  -0.000004  -0.004704
    22  H   -0.001174  -0.000041   0.000927  -0.011141  -0.003676   0.000591
    23  H   -0.004795  -0.004866  -0.001003  -0.004569   0.002771  -0.000401
    24  H   -0.027895  -0.004808   0.001885   0.002606  -0.001323   0.001021
    25  H    0.489552   0.007635  -0.000593  -0.001901   0.001300   0.001660
    26  H    0.007635   0.492214  -0.004121   0.003519   0.001500   0.000071
    27  H   -0.000593  -0.004121   0.470403  -0.009165  -0.002749   0.000018
    28  H   -0.001901   0.003519  -0.009165   0.480805  -0.005737  -0.000024
    29  H    0.001300   0.001500  -0.002749  -0.005737   0.472249   0.000131
    30  H    0.001660   0.000071   0.000018  -0.000024   0.000131   0.454651
    31  H   -0.002848  -0.000059  -0.000045  -0.000016   0.000060  -0.012945
              31
     1  C   -0.015283
     2  C   -0.005175
     3  C   -0.024337
     4  C    0.015751
     5  C    0.005146
     6  C    0.003134
     7  C    0.008517
     8  C   -0.001073
     9  O    0.000445
    10  C    0.000378
    11  O    0.001840
    12  C    0.393523
    13  O    0.007744
    14  H    0.000565
    15  H    0.000164
    16  H   -0.000106
    17  H   -0.015853
    18  H    0.001345
    19  H    0.000482
    20  H    0.000362
    21  H   -0.009623
    22  H   -0.000102
    23  H    0.000586
    24  H    0.000012
    25  H   -0.002848
    26  H   -0.000059
    27  H   -0.000045
    28  H   -0.000016
    29  H    0.000060
    30  H   -0.012945
    31  H    0.482161
 Mulliken charges:
               1
     1  C   -0.229252
     2  C   -0.495472
     3  C   -0.291808
     4  C   -0.040676
     5  C   -0.193132
     6  C   -0.204498
     7  C   -0.275021
     8  C   -0.184351
     9  O   -0.324563
    10  C   -0.358755
    11  O   -0.236677
    12  C   -0.269050
    13  O   -0.273869
    14  H    0.262490
    15  H    0.161100
    16  H    0.145714
    17  H    0.268047
    18  H    0.204807
    19  H    0.147631
    20  H    0.154361
    21  H    0.193620
    22  H    0.159592
    23  H    0.206066
    24  H    0.199324
    25  H    0.201901
    26  H    0.144949
    27  H    0.207656
    28  H    0.184623
    29  H    0.167592
    30  H    0.202402
    31  H    0.165251
 Sum of Mulliken charges =  -0.00000
 Mulliken charges with hydrogens summed into heavy atoms:
               1
     1  C    0.033239
     2  C   -0.188658
     3  C   -0.023761
     4  C    0.311762
     5  C    0.154849
     6  C    0.161160
     7  C    0.126204
     8  C    0.168254
     9  O   -0.324563
    10  C   -0.006540
    11  O   -0.236677
    12  C    0.098602
    13  O   -0.273869
 Electronic spatial extent (au):  <R**2>=           3369.0399
 Charge=             -0.0000 electrons
 Dipole moment (field-independent basis, Debye):
    X=             -1.1419    Y=              0.3985    Z=              1.7126  Tot=              2.0966
 Quadrupole moment (field-independent basis, Debye-Ang):
   XX=            -70.3357   YY=            -77.9062   ZZ=            -84.1142
   XY=              4.9047   XZ=              2.9133   YZ=             -0.9084
 Traceless Quadrupole moment (field-independent basis, Debye-Ang):
   XX=              7.1163   YY=             -0.4542   ZZ=             -6.6621
   XY=              4.9047   XZ=              2.9133   YZ=             -0.9084
 Octapole moment (field-independent basis, Debye-Ang**2):
  XXX=             -1.7577  YYY=              1.6858  ZZZ=              0.8082  XYY=             -8.7024
  XXY=             22.5752  XXZ=             20.5036  XZZ=             -1.6777  YZZ=              0.4717
  YYZ=             -0.0922  XYZ=             -5.3462
 Hexadecapole moment (field-independent basis, Debye-Ang**3):
 XXXX=          -3490.9829 YYYY=           -540.4969 ZZZZ=           -278.0263 XXXY=             34.7223
 XXXZ=             33.9153 YYYX=             -8.9190 YYYZ=             -4.3180 ZZZX=              1.7918
 ZZZY=             -0.3960 XXYY=           -711.3593 XXZZ=           -665.4246 YYZZ=           -133.7996
 XXYZ=            -24.7079 YYXZ=             11.2561 ZZXY=              2.6457
 N-N= 8.801126296872D+02 E-N=-3.202088614282D+03  KE= 6.153446803004D+02
 D1PCM: PCM CHGder 1st derivatives, ID1Alg=3 FixD1E=F DoIter=F DoCFld=F I1PDM=0.
 Calling FoFJK, ICntrl=      2127 FMM=F ISym2X=0 I1Cent= 0 IOpClX= 0 NMat=1 NMatS=1 NMatT=0.
 ***** Axes restored to original set *****
 -------------------------------------------------------------------
 Center     Atomic                   Forces (Hartrees/Bohr)
 Number     Number              X              Y              Z
 -------------------------------------------------------------------
      1        6           0.000294984   -0.002794469    0.004027915
      2        6           0.001505882   -0.000947991    0.000345268
      3        6          -0.003826232    0.005923415    0.004335858
      4        6          -0.000521641   -0.005581848    0.001411873
      5        6           0.001990070    0.002789644    0.000817468
      6        6           0.001162644   -0.000935266   -0.004739858
      7        6           0.003626976    0.006894417   -0.000334599
      8        6          -0.006252424    0.002942924   -0.000311439
      9        8           0.002211096   -0.004018605   -0.008406340
     10        6          -0.000853433   -0.001833631    0.002023751
     11        8          -0.000402353   -0.000516282    0.011961888
     12        6          -0.000643300   -0.000292497   -0.003045127
     13        8           0.002146339    0.000514753   -0.010666407
     14        1          -0.000112211    0.002513371   -0.006224924
     15        1          -0.001353705    0.000055416   -0.002290155
     16        1          -0.001592308    0.000770686    0.002481206
     17        1           0.002033603   -0.005877400   -0.005928873
     18        1          -0.000811949    0.003383461   -0.002475274
     19        1           0.001427200    0.001839317    0.005601009
     20        1           0.000623958   -0.001221071   -0.002832796
     21        1          -0.001702739   -0.001025773    0.001514698
     22        1          -0.001759843    0.002416109   -0.000005731
     23        1          -0.000227826   -0.002218363    0.003267853
     24        1          -0.003355868   -0.003035008   -0.003018944
     25        1          -0.000831859   -0.001331147    0.006403358
     26        1           0.000715486   -0.001529565    0.005935967
     27        1           0.003715605    0.000181413   -0.002259816
     28        1           0.001553772    0.001901964    0.001721849
     29        1          -0.000301900    0.000843890   -0.003093963
     30        1           0.000805870    0.002920853    0.002854560
     31        1           0.000736106   -0.002732718    0.000929727
 -------------------------------------------------------------------
 Cartesian Forces:  Max     0.011961888 RMS     0.003365915

 GradGradGradGradGradGradGradGradGradGradGradGradGradGradGradGradGradGrad
 Berny optimization.
 FormGI is forming the generalized inverse of G from B-inverse, IUseBI=4.
 Internal  Forces:  Max     0.011538493 RMS     0.001987310
 Search for a local minimum.
 Step number   1 out of a maximum of  186
 All quantities printed in internal units (Hartrees-Bohrs-Radians)
 Mixed Optimization -- RFO/linear search
 Second derivative matrix not updated -- first step.
 ITU=  0
     Eigenvalues ---    0.00392   0.00655   0.00690   0.00729   0.01423
     Eigenvalues ---    0.01438   0.01693   0.02702   0.02788   0.03155
     Eigenvalues ---    0.03205   0.04087   0.04277   0.04652   0.04663
     Eigenvalues ---    0.04869   0.04883   0.05094   0.05105   0.05142
     Eigenvalues ---    0.05164   0.05633   0.05727   0.05924   0.06133
     Eigenvalues ---    0.06280   0.06497   0.06610   0.07676   0.07901
     Eigenvalues ---    0.07909   0.07918   0.07921   0.07998   0.08090
     Eigenvalues ---    0.09240   0.09302   0.09697   0.10861   0.11603
     Eigenvalues ---    0.11620   0.11699   0.11705   0.12488   0.12632
     Eigenvalues ---    0.14522   0.15855   0.16281   0.17339   0.19225
     Eigenvalues ---    0.20548   0.21166   0.22418   0.25000   0.27372
     Eigenvalues ---    0.27552   0.28287   0.28732   0.28818   0.29357
     Eigenvalues ---    0.29554   0.30080   0.35074   0.35083   0.35091
     Eigenvalues ---    0.35157   0.35236   0.35254   0.35293   0.35300
     Eigenvalues ---    0.35338   0.35371   0.35438   0.35451   0.35482
     Eigenvalues ---    0.35503   0.35830   0.35922   0.35936   0.36032
     Eigenvalues ---    0.40050   0.41452   0.42257   0.42860   0.42943
     Eigenvalues ---    0.456341000.000001000.000001000.000001000.00000
     Eigenvalues --- 1000.000001000.000001000.000001000.000001000.00000
     Eigenvalues --- 1000.000001000.000001000.000001000.000001000.00000
     Eigenvalues --- 1000.000001000.000001000.000001000.000001000.00000
     Eigenvalues --- 1000.000001000.000001000.000001000.000001000.00000
     Eigenvalues --- 1000.000001000.000001000.000001000.000001000.00000
     Eigenvalues --- 1000.000001000.000001000.000001000.000001000.00000
     Eigenvalues --- 1000.000001000.000001000.000001000.000001000.00000
     Eigenvalues --- 1000.000001000.000001000.000001000.000001000.00000
     Eigenvalues --- 1000.000001000.000001000.000001000.000001000.00000
     Eigenvalues --- 1000.000001000.000001000.000001000.000001000.00000
     Eigenvalues --- 1000.000001000.000001000.000001000.000001000.00000
     Eigenvalues --- 1000.000001000.000001000.000001000.000001000.00000
     Eigenvalues --- 1000.000001000.000001000.000001000.000001000.00000
     Eigenvalues --- 1000.000001000.000001000.000001000.000001000.00000
     Eigenvalues --- 1000.000001000.000001000.000001000.000001000.00000
     Eigenvalues --- 1000.000001000.000001000.000001000.000001000.00000
     Eigenvalues --- 1000.000001000.000001000.000001000.000001000.00000
     Eigenvalues --- 1000.000001000.000001000.000001000.000001000.00000
     Eigenvalues --- 1000.000001000.000001000.000001000.000001000.00000
 RFO step:  Lambda=-2.92971377D-03 EMin= 3.91549449D-03
 Linear search not attempted -- first point.
 Iteration  1 RMS(Cart)=  0.03518827 RMS(Int)=  0.00037078
 Iteration  2 RMS(Cart)=  0.00120231 RMS(Int)=  0.00005035
 Iteration  3 RMS(Cart)=  0.00000037 RMS(Int)=  0.00005034
 Iteration  1 RMS(Cart)=  0.00000474 RMS(Int)=  0.00000110
 Iteration  2 RMS(Cart)=  0.00000262 RMS(Int)=  0.00000123
 Iteration  3 RMS(Cart)=  0.00000145 RMS(Int)=  0.00000139
 Iteration  4 RMS(Cart)=  0.00000080 RMS(Int)=  0.00000150
 Variable       Old X    -DE/DX   Delta X   Delta X   Delta X     New X
                                 (Linear)    (Quad)   (Total)
    R1        2.87599  -0.00240   0.00000  -0.00777  -0.00780   2.86820
    R2        2.88740  -0.00039   0.00000  -0.00101  -0.00101   2.88639
    R3        2.67741   0.00202   0.00000   0.00467   0.00467   2.68208
    R4        2.04969   0.00664   0.00000   0.01859   0.01859   2.06828
    R5        2.89126   0.00096   0.00000   0.00278   0.00281   2.89407
    R6        2.90934  -0.00050   0.00000  -0.00281  -0.00276   2.90658
    R7        2.05077   0.00265   0.00000   0.00744   0.00744   2.05820
    R8        2.05264   0.00301   0.00000   0.00848   0.00848   2.06112
    R9        2.64546   0.00296   0.00000   0.00645   0.00645   2.65191
   R10        2.87977  -0.00112   0.00000  -0.00247  -0.00248   2.87729
   R11        2.65555   0.00317   0.00000   0.00810   0.00807   2.66361
   R12        2.04031   0.00857   0.00000   0.02358   0.02358   2.06390
   R13        2.68161   0.00325   0.00000   0.00740   0.00736   2.68897
   R14        2.04203   0.00427   0.00000   0.01178   0.01178   2.05381
   R15        2.04867   0.00602   0.00000   0.01683   0.01683   2.06549
   R16        2.88608  -0.00046   0.00000  -0.00248  -0.00249   2.88359
   R17        2.05293   0.00306   0.00000   0.00862   0.00862   2.06155
   R18        2.04949   0.00250   0.00000   0.00699   0.00699   2.05647
   R19        2.89174  -0.00068   0.00000  -0.00223  -0.00225   2.88949
   R20        2.05129   0.00293   0.00000   0.00823   0.00823   2.05953
   R21        2.05527   0.00381   0.00000   0.01076   0.01076   2.06603
   R22        2.66693   0.00304   0.00000   0.00684   0.00686   2.67379
   R23        2.04182   0.00539   0.00000   0.01487   0.01487   2.05669
   R24        2.05554   0.00627   0.00000   0.01772   0.01772   2.07326
   R25        2.67634   0.00344   0.00000   0.00789   0.00792   2.68426
   R26        2.87220   0.00054   0.00000   0.00149   0.00149   2.87369
   R27        2.05540   0.00605   0.00000   0.01710   0.01710   2.07251
   R28        2.04348   0.00435   0.00000   0.01204   0.01204   2.05552
   R29        2.05191   0.00298   0.00000   0.00836   0.00836   2.06027
   R30        2.05420   0.00315   0.00000   0.00888   0.00888   2.06308
   R31        2.05202   0.00397   0.00000   0.01115   0.01115   2.06317
   R32        2.04899   0.00297   0.00000   0.00830   0.00830   2.05729
    A1        1.91066   0.00034   0.00000  -0.00159  -0.00163   1.90903
    A2        1.88943  -0.00069   0.00000  -0.00039  -0.00039   1.88904
    A3        1.91764  -0.00001   0.00000  -0.00262  -0.00262   1.91502
    A4        1.92399   0.00034   0.00000   0.00123   0.00125   1.92524
    A5        1.90859  -0.00030   0.00000  -0.00261  -0.00261   1.90598
    A6        1.91346   0.00031   0.00000   0.00600   0.00599   1.91945
    A7        1.92522  -0.00009   0.00000  -0.00859  -0.00875   1.91648
    A8        1.92246  -0.00053   0.00000   0.00037   0.00040   1.92286
    A9        1.89349   0.00074   0.00000   0.00501   0.00504   1.89853
   A10        1.92085   0.00086   0.00000   0.00252   0.00258   1.92343
   A11        1.93107  -0.00108   0.00000  -0.00228  -0.00225   1.92883
   A12        1.86984   0.00009   0.00000   0.00337   0.00334   1.87318
   A13        1.89254  -0.00271   0.00000  -0.01204  -0.01204   1.88049
   A14        1.93137   0.00063   0.00000   0.00391   0.00406   1.93542
   A15        1.91919   0.00130   0.00000   0.00739   0.00736   1.92655
   A16        1.95437   0.00268   0.00000   0.00834   0.00819   1.96256
   A17        1.93612  -0.00015   0.00000   0.00003   0.00012   1.93624
   A18        1.83012  -0.00162   0.00000  -0.00699  -0.00701   1.82312
   A19        1.92729   0.00135   0.00000   0.00156   0.00134   1.92863
   A20        1.95050  -0.00038   0.00000  -0.00331  -0.00323   1.94726
   A21        1.94040  -0.00092   0.00000  -0.00316  -0.00315   1.93725
   A22        1.85387  -0.00110   0.00000  -0.00068  -0.00062   1.85325
   A23        1.90758   0.00069   0.00000   0.00496   0.00506   1.91264
   A24        1.88145   0.00036   0.00000   0.00092   0.00089   1.88234
   A25        1.92139  -0.00082   0.00000  -0.00732  -0.00755   1.91384
   A26        1.91809   0.00062   0.00000   0.00139   0.00145   1.91954
   A27        1.93157  -0.00019   0.00000   0.00059   0.00065   1.93222
   A28        1.90337   0.00039   0.00000  -0.00071  -0.00064   1.90272
   A29        1.92517  -0.00003   0.00000   0.00150   0.00156   1.92673
   A30        1.86326   0.00008   0.00000   0.00492   0.00488   1.86814
   A31        1.92277   0.00103   0.00000  -0.00353  -0.00357   1.91920
   A32        1.91839  -0.00042   0.00000  -0.00211  -0.00208   1.91631
   A33        1.89440  -0.00109   0.00000  -0.00777  -0.00777   1.88663
   A34        1.93395   0.00018   0.00000   0.00590   0.00590   1.93985
   A35        1.91651  -0.00011   0.00000   0.00336   0.00333   1.91984
   A36        1.87686   0.00036   0.00000   0.00407   0.00403   1.88089
   A37        1.92798   0.00170   0.00000   0.00917   0.00920   1.93718
   A38        1.95339  -0.00063   0.00000  -0.00754  -0.00760   1.94579
   A39        1.91105  -0.00244   0.00000  -0.01613  -0.01621   1.89484
   A40        1.85870  -0.00077   0.00000   0.00170   0.00172   1.86042
   A41        1.91700   0.00144   0.00000   0.01255   0.01261   1.92961
   A42        1.89480   0.00080   0.00000   0.00114   0.00099   1.89579
   A43        1.93531   0.00184   0.00000   0.00900   0.00900   1.94431
   A44        1.90151   0.00076   0.00000   0.00689   0.00693   1.90844
   A45        1.85571  -0.00124   0.00000  -0.00390  -0.00389   1.85181
   A46        1.93108  -0.00157   0.00000  -0.00982  -0.00984   1.92123
   A47        1.94568  -0.00034   0.00000  -0.00312  -0.00313   1.94255
   A48        1.89228   0.00058   0.00000   0.00134   0.00131   1.89358
   A49        1.97863  -0.00458   0.00000  -0.02850  -0.02841   1.95022
   A50        1.92861  -0.00078   0.00000  -0.00548  -0.00553   1.92308
   A51        1.92723  -0.00048   0.00000  -0.00048  -0.00047   1.92676
   A52        1.91888   0.00082   0.00000   0.00125   0.00126   1.92013
   A53        1.90895   0.00078   0.00000   0.00488   0.00491   1.91386
   A54        1.90443  -0.00031   0.00000  -0.00293  -0.00294   1.90149
   A55        1.87483   0.00000   0.00000   0.00300   0.00299   1.87782
   A56        2.04405  -0.01154   0.00000  -0.04562  -0.04562   1.99844
   A57        1.91663   0.00022   0.00000  -0.00578  -0.00589   1.91074
   A58        1.90736  -0.00050   0.00000  -0.00911  -0.00908   1.89828
   A59        1.89602  -0.00025   0.00000   0.00361   0.00365   1.89967
   A60        1.92109   0.00010   0.00000   0.00310   0.00300   1.92408
   A61        1.94924   0.00025   0.00000   0.00482   0.00491   1.95415
   A62        1.87256   0.00016   0.00000   0.00326   0.00324   1.87580
   A63        2.00802  -0.00551   0.00000  -0.03453  -0.03463   1.97339
    D1        0.92838  -0.00047   0.00000   0.00322   0.00321   0.93159
    D2        3.06434   0.00016   0.00000   0.00688   0.00687   3.07121
    D3       -1.17057  -0.00028   0.00000   0.00606   0.00606  -1.16451
    D4        3.02620  -0.00027   0.00000   0.00354   0.00354   3.02974
    D5       -1.12102   0.00037   0.00000   0.00720   0.00720  -1.11383
    D6        0.92725  -0.00007   0.00000   0.00638   0.00638   0.93363
    D7       -1.16784  -0.00031   0.00000   0.00905   0.00904  -1.15880
    D8        0.96812   0.00032   0.00000   0.01270   0.01270   0.98082
    D9        3.01639  -0.00012   0.00000   0.01189   0.01188   3.02828
   D10       -1.00024  -0.00112   0.00000  -0.01513  -0.01514  -1.01538
[...]
 1317162,0.00910441,-0.01879397,0.00038045,0.00002529,0.00011064,-0.001
 62886,-0.00050846,0.00126170,-0.00002170,0.00009858,0.00001357,-0.0000
 2534,0.00015977,-0.00002700,0.00061976,-0.00039853,0.00063447,-0.00000
 443,0.00000187,-0.00000292,-0.00000566,-0.00000073,0.00000363,0.000063
 69,0.00012951,0.00004036,-0.00001192,0.00001181,0.00000032,-0.00000677
 ,-0.00000270,0.00000585,0.00000147,-0.00000006,-0.00000477,-0.00001708
 ,0.00000001,-0.00000472,-0.00005309,0.00004391,0.00016255,0.00044386,0
 .00025943,0.00025713,-0.00416385,0.00732897,-0.01453600,0.03510740,-0.
 09991347,0.27336671,-0.00034843,-0.00015451,0.00024298,0.00000086,-0.0
 0000009,0.00000010,0.00005099,0.00001818,0.00004660,0.00000330,-0.0000
 0291,-0.00000148,-0.00000075,-0.00000260,0.00000170,0.00061234,-0.0002
 8640,-0.00125943,0.00266638,0.00205188,-0.00447355,-0.05981653,0.01851
 741,-0.02692700,-0.01164739,-0.00048142,-0.02592205,-0.00142099,0.0081
 5684,-0.01141572,-0.00022056,0.00011811,0.00016256,-0.00000603,-0.0000
 0169,-0.00000300,-0.00000759,0.00000918,-0.00000707,0.00006981,-0.0001
 1456,0.00006418,-0.00000034,0.00000003,-0.00000019,-0.00000036,-0.0000
 0006,0.00000023,0.00000754,-0.00000414,-0.00000432,-0.00000028,0.00000
 050,-0.00000040,0.00000008,0.00000021,-0.00000042,-0.00000012,0.,-0.00
 000029,-0.00000159,0.00000004,-0.00000037,0.00016064,-0.00011836,0.000
 19709,-0.00010195,0.00005881,0.00023508,0.00011816,-0.00011408,0.00026
 449,0.00031182,-0.00023670,0.00085346,0.06269077,-0.00023053,-0.000413
 78,0.00014742,0.00000031,-0.00000029,-0.00000082,0.00001754,0.00001722
 ,-0.00002279,-0.00000294,0.00000403,0.00000113,0.00000123,0.00000122,-
 0.00000356,-0.00124518,0.00123255,0.00066822,0.00250368,0.00157393,-0.
 00304366,0.01895823,-0.10236422,0.10264688,-0.01196350,0.00654243,-0.0
 2497079,0.00502611,-0.01565209,0.02801692,0.00001017,0.00022859,0.0001
 3702,0.00000860,0.00000226,0.00001138,0.00000593,-0.00000303,0.0000029
 0,-0.00006080,-0.00011458,0.00000728,0.00000023,-0.00000012,0.00000017
 ,0.00000036,0.00000007,-0.00000027,0.00000972,0.00000338,0.00000382,0.
 00000038,-0.00000020,-0.00000047,-0.00000024,-0.00000153,0.00000059,-0
 .00000015,-0.00000010,0.00000028,0.00000179,0.00000005,0.00000053,-0.0
 0025723,0.00008627,-0.00040352,0.00050680,0.00029571,-0.00063313,0.000
 17603,-0.00002794,-0.00001109,0.00080315,-0.00017681,0.00086652,-0.017
 49557,0.11285633,0.00018486,-0.00055750,0.00002690,0.00000038,0.000002
 63,0.00000327,0.00027732,0.00003770,0.00023073,0.00004002,-0.00003510,
 -0.00002715,-0.00000333,-0.00001015,0.00002055,-0.00028067,-0.00045382
 ,0.00071179,0.00364630,0.00087425,0.00049315,-0.03069655,0.10059340,-0
 .23522524,-0.01565747,-0.00392922,-0.02472126,0.00225146,-0.00144980,0
 .00423654,-0.00065145,0.00010095,0.00007091,-0.00002662,0.00000835,-0.
 00003212,-0.00012383,0.00008083,-0.00006061,0.00007524,0.00008480,-0.0
 0012912,-0.00000370,0.00000176,-0.00000257,-0.00000586,-0.00000050,0.0
 0000282,0.00001582,-0.00000158,-0.00000751,-0.00000657,0.00000779,-0.0
 0000069,-0.00000126,-0.00000179,0.00000520,0.,0.00000002,-0.00000294,-
 0.00001286,-0.00000032,-0.00000323,-0.00011430,0.00005704,0.00012231,-
 0.00057039,0.00003913,0.00002448,-0.00009858,-0.00032747,0.00044411,-0
 .00125007,-0.00019423,0.00086912,0.04436938,-0.10284779,0.26450274,0.0
 0072491,-0.00049105,-0.00000042,0.00000054,0.00000401,0.00000479,0.000
 35083,-0.00002398,0.00024053,0.00005778,-0.00004494,-0.00003708,-0.000
 00267,-0.00001196,0.00002689,0.00049842,0.00255225,-0.00016624,0.00076
 939,-0.00145195,-0.00428940,-0.24136602,-0.01176581,0.11745932,-0.0253
 5300,-0.00824803,0.00752829,-0.00935104,0.00024530,0.00715093,-0.00059
 739,0.00006900,0.00008235,-0.00003053,0.00002145,-0.00003645,-0.000167
 93,0.00012313,-0.00007124,-0.00003377,0.00001927,-0.00000970,-0.000005
 49,0.00000226,-0.00000365,-0.00000761,-0.00000065,0.00000371,0.0000102
 0,0.00002322,0.00001304,-0.00001141,0.00001158,-0.00000062,-0.00000201
 ,-0.00000113,0.00000594,0.00000061,-0.00000059,-0.00000416,-0.00001726
 ,-0.00000015,-0.00000398,-0.00062624,-0.00019228,0.00032086,0.00000936
 ,-0.00009156,0.00010705,-0.00112446,-0.00012227,0.00048232,0.00005449,
 -0.00003883,0.00026704,0.00653368,0.00047215,-0.00184159,0.26929057,-0
 .00055926,-0.00107498,-0.00033451,0.00000095,-0.00000073,0.00000007,0.
 00001303,0.00000022,-0.00006767,-0.00000065,0.00000574,-0.00000743,0.0
 0000573,0.00000282,-0.00000509,0.00142420,-0.00608004,0.00016339,-0.00
 120585,-0.00179673,-0.00341745,-0.00773979,-0.04971829,0.00728550,-0.0
 2522025,-0.00549084,0.00953234,0.02723066,0.00338896,-0.01635703,0.000
 00065,0.00046897,0.00021119,0.00001953,0.00001427,0.00002807,-0.000004
 26,0.00001644,0.00000853,0.00004311,0.00009941,0.00004604,0.00000021,0
 .00000020,-0.00000002,-0.00000015,0.00000010,0.00000009,0.00005069,0.0
 0003103,0.00004265,-0.00000146,0.00000116,0.00000120,-0.00000176,-0.00
 000089,0.00000157,0.00000029,0.,0.00000004,0.00000217,-0.00000028,0.00
 000096,0.00190547,0.00018502,-0.00066597,-0.00017388,0.00005406,-0.000
 10823,-0.00130176,0.00000840,0.00024014,0.00024664,0.00004528,-0.00012
 981,-0.01205799,0.00003145,0.00809382,0.01897889,0.05753951,-0.0001948
 7,-0.00058931,-0.00021488,0.00000074,0.00000004,0.00000015,0.00001572,
 -0.00000256,-0.00001727,0.00000344,0.00000208,-0.00000413,0.00000291,0
 .00000065,-0.00000271,-0.00005274,-0.00158746,0.00094776,-0.00202954,-
 0.00159020,-0.00175313,0.12817732,0.01158717,-0.12953618,-0.02306079,-
 0.00466961,0.01075064,0.00203625,0.00174625,-0.00165150,-0.00004624,0.
 00027720,0.00016472,0.00000784,0.00000660,0.00001308,-0.00000756,0.000
 01492,-0.00000317,0.00000667,0.00001641,0.00001396,-0.00000004,-0.0000
 0003,-0.00000001,-0.00000013,0.00000003,0.00000007,0.00002156,0.000013
 22,0.00002229,-0.00000153,0.00000089,-0.00000034,-0.00000015,-0.000000
 46,0.00000091,0.00000035,0.00000010,-0.00000021,0.00000054,-0.00000010
 ,0.00000032,0.00060639,0.00008753,0.00008972,-0.00041841,-0.00004218,0
 .00030406,-0.00072048,-0.00023973,0.00049500,-0.00017930,-0.00022907,0
 .00045650,0.02319240,0.00098679,-0.01284323,-0.12701018,-0.00520271,0.
 13204136,-0.00238109,0.00219964,0.00489078,0.00000523,0.00000642,0.000
 00994,0.00055692,-0.00017411,0.00116961,0.00011526,-0.00011389,-0.0000
 6825,-0.00003762,-0.00005603,0.00010952,-0.01851891,-0.01770256,-0.018
 02829,-0.00090721,0.00059259,0.00040708,0.00896950,0.00543512,0.008244
 86,0.00086940,0.00451094,0.00123907,-0.14239239,-0.08812159,-0.0937718
 1,-0.00273153,-0.00196599,-0.00121374,-0.00020015,-0.00000471,-0.00025
 794,-0.00029900,0.00026991,-0.00021251,0.00013495,0.00024415,0.0000265
 3,-0.00001161,0.00000741,-0.00000837,-0.00001654,-0.00000034,0.0000082
 6,-0.00005251,-0.00005069,-0.00008573,-0.00001904,0.00002340,-0.000002
 04,-0.00000523,-0.00000042,0.00001207,0.00000170,-0.00000095,-0.000009
 47,-0.00005697,0.00000326,-0.00001807,0.00104787,0.00065604,-0.0005065
 0,0.00140687,0.00008248,0.00011297,0.00018357,-0.00010676,-0.00014065,
 0.00017332,-0.00005155,-0.00001243,0.00045673,-0.00059497,-0.00034676,
 0.00009829,-0.00102257,0.00002258,0.15560610,0.00048989,0.00109070,0.0
 0055997,0.00000106,0.00000205,0.00000170,0.00018946,-0.00001783,0.0001
 5959,0.00003047,-0.00002268,-0.00001786,-0.00000160,-0.00000788,0.0000
 1703,-0.00122624,-0.00145881,-0.00008623,0.00193144,0.00071838,-0.0007
 0196,-0.02060088,-0.01194949,-0.01626827,0.00093692,-0.00865856,-0.002
 43799,-0.08726451,-0.13097744,-0.08482691,-0.00030888,0.00010974,-0.00
 021513,-0.00001380,0.00000856,-0.00002930,-0.00008425,0.00006060,-0.00
 004029,-0.00010572,-0.00012791,-0.00023777,-0.00000294,0.00000095,-0.0
 0000178,-0.00000420,-0.00000035,0.00000184,0.00000521,0.00000429,-0.00
 000505,-0.00000567,0.00000582,-0.00000023,-0.00000097,-0.00000015,0.00
 000333,0.00000080,0.00000002,-0.00000225,-0.00000931,0.00000028,-0.000
 00286,-0.00013621,0.00030537,0.00040658,-0.00003960,0.00002094,-0.0000
 8922,-0.00023470,-0.00000954,0.00008112,-0.00017738,-0.00002696,0.0001
 6256,-0.00019113,0.00094039,0.00091795,0.00041943,0.00086975,-0.000097
 93,0.09681149,0.14004312,0.00225492,-0.00055344,-0.00143174,-0.0000023
 3,0.00000141,-0.00000144,0.00004546,0.00009329,-0.00031038,-0.00002035
 ,0.00001686,0.00001042,0.00001606,0.00001424,-0.00002999,0.01048520,0.
 01063910,0.00930829,0.00058958,0.00012919,-0.00043535,-0.00262271,0.00
 012520,-0.00377200,0.00014178,-0.00221533,0.00110559,-0.09449919,-0.08
 688644,-0.13785306,0.00099390,0.00057155,0.00060040,0.00006554,0.00000
 804,0.00007468,0.00003448,-0.00005320,0.00004472,0.00013294,0.00011491
 ,0.00032934,0.00000209,-0.00000183,0.00000159,0.00000236,-0.00000043,-
 0.00000139,0.00000425,0.00001348,0.00002064,0.00000352,-0.00000437,0.0
 0000037,0.00000149,0.00000021,-0.00000243,-0.00000097,0.00000025,0.000
 00163,0.00001551,-0.00000131,0.00000499,-0.00088597,-0.00024413,0.0003
 2619,-0.00079729,0.00006977,0.00074236,-0.00008314,-0.00000220,0.00000
 513,-0.00015473,-0.00002638,0.00004297,0.00024198,-0.00026033,0.000279
 11,0.00016845,0.00009683,0.00002090,0.09992498,0.09452810,0.14669860,0
 .00143011,0.00003610,0.00114736,0.00000004,0.00000073,-0.00000024,0.00
 005370,0.00006276,-0.00004484,0.00000717,-0.00000511,-0.00000516,0.000
 00217,0.00000081,0.00000051,0.00184266,-0.01427241,0.02855186,-0.00054
 270,-0.00009549,0.00028726,-0.00363481,0.00729156,-0.01503052,0.001019
 26,-0.00122787,0.00100726,-0.05040289,0.00990726,-0.02153784,-0.000214
 94,0.00016879,-0.00034569,0.00001633,0.00000164,0.00000563,-0.00003916
 ,0.00002383,-0.00004781,-0.00023942,0.00001474,-0.00044818,-0.00000067
 ,0.00000002,-0.00000031,-0.00000056,-0.00000009,0.00000043,-0.00001224
 ,-0.00001144,-0.00001445,-0.00000196,0.00000155,-0.00000034,-0.0000000
 3,-0.00000195,0.00000131,0.00000009,0.00000007,-0.00000034,-0.00000128
 ,0.00000012,0.00000016,0.00132760,0.00047875,-0.00063110,-0.00528767,-
 0.00104273,0.00227334,0.00009072,-0.00006896,-0.00002229,-0.00012900,0
 .00006445,-0.00013989,-0.00010818,0.00334969,0.00083559,0.00030692,-0.
 00062533,-0.00036790,-0.00200145,0.00959532,-0.01605582,0.05652242,0.0
 0017219,-0.00016747,0.00069149,0.00000089,-0.00000075,-0.00000154,-0.0
 0002980,-0.00003290,-0.00000230,-0.00000278,0.00000769,0.00000461,-0.0
 0000005,-0.00000026,0.00000078,0.00018231,-0.00135606,0.00136133,-0.00
 001923,-0.00015107,-0.00005405,0.00497639,-0.01690963,0.02867272,-0.00
 056126,0.00327207,-0.00034341,0.00856264,-0.10197089,0.10364206,-0.000
 08939,0.00006200,-0.00015969,0.00000086,-0.00000040,-0.00000035,0.0000
 1561,0.00000377,-0.00000630,-0.00023889,-0.00008870,-0.00004785,-0.000
 00010,0.00000002,0.00000015,0.00000092,0.00000034,-0.00000035,-0.00000
 222,-0.00000127,0.00000129,-0.00000035,-0.00000025,-0.00000013,-0.0000
 0006,-0.00000027,-0.00000123,0.00000009,-0.00000024,-0.00000007,0.0000
 0001,0.00000040,-0.00000057,-0.00033289,0.00038050,-0.00029042,-0.0000
 8900,0.00090006,0.00010223,-0.00002922,-0.00000550,-0.00002117,0.00011
 386,0.00009740,-0.00000067,0.00233307,-0.00506067,-0.00108552,-0.00044
 842,0.00140353,-0.00048410,-0.00086952,0.00907971,-0.01617367,-0.01364
 680,0.11053820,-0.00093194,-0.00043317,-0.00007740,0.00000010,-0.00000
 217,-0.00000267,-0.00013092,0.00003630,-0.00013775,-0.00002223,0.00002
 291,0.00001515,0.00000446,0.00000669,-0.00001541,-0.00017583,0.0058615
 8,-0.01332895,-0.00010199,-0.00006097,0.00013712,-0.00005486,-0.003615
 55,0.00388540,0.00121987,0.00093187,0.00125478,-0.02214273,0.10549731,
 -0.25436716,0.00031607,-0.00009327,0.00039933,0.00001983,-0.00000167,0
 .00002713,0.00007857,-0.00006222,0.00004137,0.00025006,0.00035605,0.00
 051579,0.00000261,-0.00000115,0.00000183,0.00000341,0.00000057,-0.0000
 0175,0.00000919,0.00000901,0.00001551,0.00000526,-0.00000549,0.0000013
 4,0.00000031,0.00000116,-0.00000314,-0.00000045,0.00000035,0.00000184,
 0.00000895,-0.00000040,0.00000238,-0.00006441,-0.00032603,0.00040584,0
 .00291221,0.00018799,0.00011382,-0.00000688,0.00008893,0.00000462,-0.0
 0004550,-0.00005913,-0.00016148,0.00014544,-0.00129828,0.00101344,-0.0
 0038786,0.00054040,0.00070452,-0.00149404,0.00821940,-0.01577827,0.020
 58023,-0.11580379,0.27533455,0.00009251,0.00010925,0.00013212,0.001526
 94,-0.00104160,0.00042678,-0.00376477,0.01647154,0.02116636,0.00042283
 ,0.00063170,0.00021722,-0.00134059,-0.01757093,-0.02745961,0.00004704,
 -0.00001642,-0.00011983,0.00004377,0.00014218,0.00006609,-0.00001796,0
 .00001893,0.00002403,-0.00002538,-0.00008533,-0.00007934,0.00002356,0.
 00002653,0.00002397,0.00185710,0.00073914,0.00017615,-0.04589325,-0.00
 273807,-0.00377675,0.00036312,-0.00132699,-0.00030938,0.00006120,0.000
 04357,-0.00012177,0.00009746,-0.00016499,0.00029856,-0.00002893,0.0001
 9339,0.00034524,-0.00316440,-0.00223305,0.00231352,0.00000347,-0.00005
 776,0.00002059,0.00032147,0.00000828,-0.00026692,-0.00550689,0.0009458
 3,-0.00295884,0.00121002,-0.00023010,0.00096583,-0.00000441,-0.0000079
 5,-0.00000376,-0.00001966,-0.00001894,-0.00000950,0.00003963,-0.000123
 40,-0.00005636,-0.00002512,-0.00000703,-0.00002802,-0.00000109,-0.0000
 0081,-0.00000106,-0.00000574,-0.00000822,-0.00000546,0.00001477,-0.000
 00024,-0.00000389,0.00000006,0.00000081,0.00000007,0.05407536,-0.00002
 283,0.00019838,0.00032086,-0.00053143,0.00059456,0.00079580,0.00010300
 ,0.00569694,0.00881002,0.00004481,-0.00081449,0.00075430,-0.00026532,0
 .00160077,0.00301033,0.00006873,-0.00000582,-0.00010317,-0.00007624,-0
 .00000883,0.00004678,-0.00001307,0.00000913,-0.00000049,0.00000252,-0.
 00001264,-0.00002995,0.00001857,0.00002084,0.00003091,0.00084352,0.000
 51551,0.00034510,-0.00169739,-0.13207410,-0.12223436,-0.00015872,-0.00
 046590,-0.00050271,-0.00002706,-0.00000235,-0.00001327,-0.00004168,0.0
 0006054,-0.00014323,-0.00006365,0.00021032,-0.00052889,-0.00112428,0.0
 0036084,0.00055578,0.00004890,0.00017696,0.00010902,0.00009237,-0.0008
 8185,0.00084201,0.00058691,0.00093482,0.00089129,-0.00033948,-0.000021
 31,-0.00019141,-0.00000159,-0.00000400,-0.00000278,-0.00000576,-0.0000
 1217,-0.00000093,-0.00000810,-0.00003621,-0.00000450,0.00000297,0.0000
 0631,-0.00000773,-0.00000028,-0.00000088,0.00000127,0.00000006,-0.0000
 0343,-0.00000285,0.00001516,0.00000181,-0.00000457,0.00000011,0.000000
 44,-0.00000094,0.00313952,0.14026796,-0.00004147,0.00023737,0.00030546
 ,-0.00013370,-0.00032709,0.00052564,0.00090391,-0.01494741,-0.01913802
 ,0.00020669,-0.00093599,-0.00088874,-0.00171308,-0.00706503,-0.0120300
 9,0.00003072,0.00000385,0.00001397,-0.00013513,-0.00024435,0.00000500,
 0.00002130,-0.00000278,-0.00000594,-0.00004922,0.00010902,0.00005293,0
 .00000310,-0.00000606,-0.00001382,-0.00299000,-0.00003761,0.00178609,-
 0.00034126,-0.11963022,-0.22778636,0.00031282,0.00205641,0.00006410,-0
 .00018083,-0.00007162,0.00008094,0.00011101,0.00003978,0.00018442,-0.0
 0025215,0.00037367,-0.00030442,0.00222200,0.00174598,-0.00134789,0.000
 01579,0.00016879,0.00037075,0.00032523,0.00069168,0.00036402,-0.002585
 08,0.00025007,-0.00002555,-0.00009376,0.00019927,0.00057386,0.00000169
 ,0.00000058,-0.00000568,0.00000728,0.00000175,-0.00000713,-0.00000931,
 0.00009869,0.00006126,0.00002240,0.00001802,0.00001461,-0.00000168,-0.
 00000054,-0.00000161,0.00000138,0.00000460,0.00000178,-0.00000734,0.00
 000139,-0.00000036,0.00000179,0.00000054,-0.00000048,0.00383065,0.1327
 4268,0.24908556,-0.00017134,0.00051270,-0.00026479,-0.00513232,-0.0009
 9408,-0.00391643,0.00554833,-0.02312517,0.00410286,-0.00169753,0.00006
 140,0.00036955,-0.00486329,0.03005461,-0.00577227,-0.00001795,0.000015
 49,0.00002823,-0.00004419,-0.00015578,0.00001235,0.00002106,0.00000646
 ,0.00001021,-0.00008863,0.00006117,0.00002825,0.00000496,-0.00001676,-
 0.00001203,-0.00062813,0.00057942,0.00027265,-0.05704896,0.04956885,-0
 .01345464,-0.00141450,-0.00325569,0.00431470,0.00006706,-0.00001597,0.
 00001574,-0.00046910,0.00184277,-0.00043247,-0.00006555,0.00021723,0.0
 0013946,0.00102272,0.00016391,-0.00023485,0.00018587,-0.00000326,-0.00
 004300,0.00017964,-0.00011396,0.00013030,0.00129981,-0.00060136,0.0001
 8200,0.00113635,-0.00021530,0.00095485,0.00000214,-0.00000468,-0.00000
 526,0.00000023,-0.00000074,-0.00000146,0.00001772,0.00002111,0.0000191
 3,0.00000234,0.00000829,-0.00001995,-0.00000092,-0.00000020,-0.0000034
 9,-0.00000339,0.00000096,0.00000060,-0.00000923,-0.00000324,0.00000188
 ,-0.00000229,0.00000032,0.00000300,-0.00040213,-0.00059027,0.00051623,
 0.06257122,-0.00003433,0.00021888,-0.00019306,-0.00018262,0.00119206,0
 .00037173,0.00481962,-0.00913978,0.00003803,-0.00026526,0.00064514,-0.
 00015997,-0.00019511,0.00078034,-0.00054425,-0.00006497,0.00002114,0.0
 0006541,-0.00004845,-0.00010300,0.00007990,0.00002626,0.00000770,0.000
 03009,-0.00010398,0.00004090,0.00000555,-0.00000255,-0.00002520,-0.000
 04092,-0.00131176,0.00028191,0.00023794,0.04840710,-0.29402286,0.06669
 349,-0.00101044,-0.00014169,0.00119968,0.00001523,0.00000055,-0.000007
 44,-0.00000383,-0.00022204,-0.00000777,0.00001196,0.00009344,-0.000088
 77,-0.00014935,0.00118661,-0.00015226,0.00002721,-0.00001246,0.0001634
 5,0.00014725,0.00016300,0.00011778,0.00036053,0.00026283,0.00031692,0.
 00048281,0.00028908,0.00001530,0.00000521,-0.00000476,-0.00000418,-0.0
 0000239,-0.00000069,-0.00000903,-0.00002706,-0.00002337,-0.00000316,-0
 .00001239,0.00000495,-0.00001122,-0.00000178,0.00000034,-0.00000691,-0
 .00000837,-0.00000012,-0.00000158,-0.00002137,-0.00000488,0.00000522,-
 0.00000013,0.00000022,0.00000371,0.00316115,-0.01631216,0.00452453,-0.
 05401820,0.31482394,0.00008692,0.00004725,0.00010423,-0.00227637,-0.00
 050186,-0.00040217,-0.00566545,0.01960781,-0.00644384,0.00061951,-0.00
 164369,-0.00061084,-0.00202915,0.01325802,-0.00389480,0.00004667,-0.00
 000884,-0.00001743,0.00000697,-0.00000020,0.00001458,-0.00000333,0.000
 00582,0.00000314,-0.00001847,-0.00000820,-0.00000487,0.00000159,0.0000
 1353,0.00000938,0.00021062,-0.00043257,-0.00006970,-0.01235379,0.06333
 692,-0.06435816,0.00305829,0.00370514,-0.00387074,-0.00003710,0.000007
 21,0.00001740,-0.00015173,0.00066284,0.00003712,-0.00022167,0.00026474
 ,-0.00011363,-0.00070473,-0.00009829,0.00045930,-0.00002166,0.00014328
 ,0.00020340,0.00012862,0.00016221,0.00035227,0.00068878,0.00005767,0.0
 0025603,0.00035635,-0.00044152,0.00051639,-0.00000159,-0.00000001,-0.0
 0000144,0.00000005,0.00000003,0.00000145,0.00002299,-0.00001090,-0.000
 00380,0.00000102,-0.00000196,-0.00000373,-0.00000069,-0.00000083,0.000
 00007,-0.00000031,-0.00000150,-0.00000098,0.00000567,0.00000049,-0.000
 00152,0.,-0.00000002,-0.00000128,0.00519332,-0.02548440,0.00806571,0.0
 1305866,-0.07263817,0.06975845\\-0.00048002,0.00066057,-0.00061025,0.0
 0000018,0.00000352,0.00000234,0.00036657,-0.00117636,0.00023596,0.0000
 0168,0.00000203,-0.00000273,0.00000410,0.00000341,-0.00000572,0.000468
 43,-0.00087234,0.00053825,-0.00000012,0.00000255,-0.00000269,-0.000006
 19,-0.00000237,-0.00000527,0.00000504,0.00000074,-0.00000253,0.0000035
 8,-0.00000137,-0.00000100,-0.00035664,0.00139222,-0.00015910,-0.000002
 56,-0.00000019,0.00000257,-0.00000262,-0.00000584,0.00000443,0.0000007
 5,0.00000058,-0.00000402,0.00000155,0.00000318,-0.00000030,-0.00000139
 ,0.00000151,0.00000061,0.00000173,-0.00000592,-0.00000212,-0.00000095,
 0.00000265,0.00000225,-0.00000022,0.00000004,0.00000422,-0.00000126,0.
 00000081,0.00000059,0.00000076,0.00000024,0.00000288,0.,-0.00000071,-0
 .00000011,-0.00000021,-0.00000293,0.00000070,-0.00000300,0.00000113,-0
 .00000281,-0.00000236,-0.00000144,0.00000036,0.00000114,-0.00000063,0.
 00000228,0.00000135,-0.00000015,-0.00000088,0.00000134,-0.00000181,0.0
 0000334,0.00000190,-0.00000098,0.00000149,-0.00000006,-0.00000025,0.00
 000113,-0.00000253,-0.00000192,-0.00000389\\\@


 ROSE IS A RED
 TY COBB IS BLUE
 'CAUSE PETE JUST HIT
 NO. 4592.
 Job cpu time:       0 days 14 hours 24 minutes 10.4 seconds.
 Elapsed time:       0 days  0 hours 54 minutes  2.3 seconds.
 File lengths (MBytes):  RWF=    690 Int=      0 D2E=      0 Chk=     33 Scr=      1
 Normal termination of Gaussian 16 at Sun Nov  4 22:56:02 2018.
