 Entering Gaussian System, Link 0=g16
 Initial command:
 /apps/gaussian/g16a03/g16/l1.exe "/jobfs/local/2011863.r-man2/Gau-18920.inp" -scrdir="/jobfs/local/2011863.r-man2/"
 Entering Link 1 = /apps/gaussian/g16a03/g16/l1.exe PID=     18921.
  
 Copyright (c) 1988,1990,1992,1993,1995,1998,2003,2009,2016,
            Gaussian, Inc.  All Rights Reserved.
  
 This is part of the Gaussian(R) 16 program.  It is based on
 the Gaussian(R) 09 system (copyright 2009, Gaussian, Inc.),
 the Gaussian(R) 03 system (copyright 2003, Gaussian, Inc.),
 the Gaussian(R) 98 system (copyright 1998, Gaussian, Inc.),
 the Gaussian(R) 94 system (copyright 1995, Gaussian, Inc.),
 the Gaussian 92(TM) system (copyright 1992, Gaussian, Inc.),
 the Gaussian 90(TM) system (copyright 1990, Gaussian, Inc.),
 the Gaussian 88(TM) system (copyright 1988, Gaussian, Inc.),
 the Gaussian 86(TM) system (copyright 1986, Carnegie Mellon
 University), and the Gaussian 82(TM) system (copyright 1983,
 Carnegie Mellon University). Gaussian is a federally registered
 trademark of Gaussian, Inc.
  
 This software contains proprietary and confidential information,
 including trade secrets, belonging to Gaussian, Inc.
  
 This software is provided under written license and may be
 used, copied, transmitted, or stored only in accord with that
 written license.
  
 The following legend is applicable only to US Government
 contracts under FAR:
  
                    RESTRICTED RIGHTS LEGEND
  
 Use, reproduction and disclosure by the US Government is
 subject to restrictions as set forth in subparagraphs (a)
 and (c) of the Commercial Computer Software - Restricted
 Rights clause in FAR 52.227-19.
  
 Gaussian, Inc.
 340 Quinnipiac St., Bldg. 40, Wallingford CT 06492
  
  
 ---------------------------------------------------------------
 Warning -- This program may not be used in any manner that
 competes with the business of Gaussian, Inc. or will provide
 assistance to any competitor of Gaussian, Inc.  The licensee
 of this program is prohibited from giving any competitor of
 Gaussian, Inc. access to this program.  By using this program,
 the user acknowledges that Gaussian, Inc. is engaged in the
 business of creating and licensing software in the field of
 computational chemistry and represents and warrants to the
 licensee that it is not a competitor of Gaussian, Inc. and that
 it will not use this program in any manner prohibited above.
 ---------------------------------------------------------------
  

 Cite this work as:
 Gaussian 16, Revision A.03,
 M. J. Frisch, G. W. Trucks, H. B. Schlegel, G. E. Scuseria, 
 M. A. Robb, J. R. Cheeseman, G. Scalmani, V. Barone, 
 G. A. Petersson, H. Nakatsuji, X. Li, M. Caricato, A. V. Marenich, 
 J. Bloino, B. G. Janesko, R. Gomperts, B. Mennucci, H. P. Hratchian, 
 J. V. Ortiz, A. F. Izmaylov, J. L. Sonnenberg, D. Williams-Young, 
 F. Ding, F. Lipparini, F. Egidi, J. Goings, B. Peng, A. Petrone, 
 T. Henderson, D. Ranasinghe, V. G. Zakrzewski, J. Gao, N. Rega, 
 G. Zheng, W. Liang, M. Hada, M. Ehara, K. Toyota, R. Fukuda, 
 J. Hasegawa, M. Ishida, T. Nakajima, Y. Honda, O. Kitao, H. Nakai, 
 T. Vreven, K. Throssell, J. A. Montgomery, Jr., J. E. Peralta, 
 F. Ogliaro, M. J. Bearpark, J. J. Heyd, E. N. Brothers, K. N. Kudin, 
 V. N. Staroverov, T. A. Keith, R. Kobayashi, J. Normand, 
 K. Raghavachari, A. P. Rendell, J. C. Burant, S. S. Iyengar, 
 J. Tomasi, M. Cossi, J. M. Millam, M. Klene, C. Adamo, R. Cammi, 
 J. W. Ochterski, R. L. Martin, K. Morokuma, O. Farkas, 
 J. B. Foresman, and D. J. Fox, Gaussian, Inc., Wallingford CT, 2016.
 
 ******************************************
 Gaussian 16:  ES64L-G16RevA.03 25-Dec-2016
                 5-Nov-2018 
 ******************************************
 %mem=6000mb
 %nproc=24
 Will use up to   24 processors via shared memory.
 %chk=2SO_1_e4_D_PSI.inp_extract_25.chk
 ----------------------------------------------------------------------
 #M062X/6-311++G(2d,2p) opt=ModRedundant freq=noraman SCRF=(Solvent=Wat
 er)
 ----------------------------------------------------------------------
 1/18=120,19=15,26=3,38=1/1,3;
 2/9=110,12=2,17=6,18=5,40=1/2;
 3/5=4,6=6,7=1212,11=2,25=1,30=1,70=2201,71=1,72=1,74=-55/1,2,3;
 4//1;
 5/5=2,38=5,53=1/2;
 6/7=2,8=2,9=2,10=2,28=1/1;
 7//1,2,3,16;
 1/18=20,19=15,26=3/3(2);
 2/9=110/2;
 99//99;
 2/9=110/2;
 3/5=4,6=6,7=1212,11=2,25=1,30=1,70=2205,71=1,72=1,74=-55/1,2,3;
 4/5=5,16=3,69=1/1;
 5/5=2,38=5,53=1/2;
 7//1,2,3,16;
 1/18=20,19=15,26=3/3(-5);
 2/9=110/2;
 6/7=2,8=2,9=2,10=2,19=2,28=1/1;
 99/9=1/99;
 -----------------------------
 2SO_1_e4_D_PSI.inp_extract_25
 -----------------------------
 Symbolic Z-matrix:
 Charge =  0 Multiplicity = 1
 C                     1.14525  -0.15131   0.06284 
 C                    -3.9831   -0.49674   0.13734 
 C                    -1.17753   0.45924   0.14535 
 C                    -2.72362  -1.34477   0.3255 
 C                    -3.60343   0.96621  -0.15567 
 C                     2.01061  -1.10835  -0.74426 
 C                     1.85486   1.19622   0.18612 
 C                     3.99674   0.21127   0.027 
 O                     3.12399   1.03292   0.78134 
 C                     3.41602  -1.18293  -0.14354 
 O                    -0.0908    0.00575  -0.6117 
 C                    -2.22281   1.02975  -0.80554 
 O                    -1.69759  -0.57873   0.93715 
 H                     0.97084  -0.55788   1.05317 
 H                    -4.60511  -0.54919   1.02506 
 H                    -4.56009  -0.91425  -0.68281 
 H                    -0.84866   1.20741   0.85089 
 H                    -2.90176  -2.1869    0.97877 
 H                    -2.36601  -1.73054  -0.62244 
 H                    -3.58678   1.53624   0.76898 
 H                    -4.34314   1.43255  -0.79721 
 H                     1.54982  -2.09084  -0.77052 
 H                     2.06609  -0.74497  -1.76786 
 H                     1.30769   1.88435   0.81422 
 H                     1.96441   1.64033  -0.80077 
 H                     4.1701    0.67553  -0.94121 
 H                     4.9334    0.18673   0.56682 
 H                     4.07003  -1.77002  -0.7812 
 H                     3.37945  -1.67428   0.82543 
 H                    -2.21859   0.45739  -1.72833 
 H                    -1.94446   2.04728  -1.05619 
 
 The following ModRedundant input section has been read:
 D       6       1      11       3 F                                           
 

 GradGradGradGradGradGradGradGradGradGradGradGradGradGradGradGradGradGrad
 Berny optimization.
 Initialization pass.
                           ----------------------------
                           !    Initial Parameters    !
                           ! (Angstroms and Degrees)  !
 --------------------------                            --------------------------
 ! Name  Definition              Value          Derivative Info.                !
 --------------------------------------------------------------------------------
 ! R1    R(1,6)                  1.5219         estimate D2E/DX2                !
 ! R2    R(1,7)                  1.5279         estimate D2E/DX2                !
 ! R3    R(1,11)                 1.4169         estimate D2E/DX2                !
 ! R4    R(1,14)                 1.0847         estimate D2E/DX2                !
 ! R5    R(2,4)                  1.53           estimate D2E/DX2                !
 ! R6    R(2,5)                  1.5396         estimate D2E/DX2                !
 ! R7    R(2,15)                 1.0852         estimate D2E/DX2                !
 ! R8    R(2,16)                 1.0862         estimate D2E/DX2                !
 ! R9    R(3,11)                 1.3999         estimate D2E/DX2                !
 ! R10   R(3,12)                 1.5239         estimate D2E/DX2                !
 ! R11   R(3,13)                 1.4053         estimate D2E/DX2                !
 ! R12   R(3,17)                 1.0797         estimate D2E/DX2                !
 ! R13   R(4,13)                 1.419          estimate D2E/DX2                !
 ! R14   R(4,18)                 1.0806         estimate D2E/DX2                !
 ! R15   R(4,19)                 1.0841         estimate D2E/DX2                !
 ! R16   R(5,12)                 1.5272         estimate D2E/DX2                !
 ! R17   R(5,20)                 1.0864         estimate D2E/DX2                !
 ! R18   R(5,21)                 1.0845         estimate D2E/DX2                !
 ! R19   R(6,10)                 1.5302         estimate D2E/DX2                !
 ! R20   R(6,22)                 1.0855         estimate D2E/DX2                !
 ! R21   R(6,23)                 1.0876         estimate D2E/DX2                !
 ! R22   R(7,9)                  1.4113         estimate D2E/DX2                !
 ! R23   R(7,24)                 1.0805         estimate D2E/DX2                !
 ! R24   R(7,25)                 1.0877         estimate D2E/DX2                !
 ! R25   R(8,9)                  1.4163         estimate D2E/DX2                !
 ! R26   R(8,10)                 1.5199         estimate D2E/DX2                !
 ! R27   R(8,26)                 1.0877         estimate D2E/DX2                !
 ! R28   R(8,27)                 1.0814         estimate D2E/DX2                !
 ! R29   R(10,28)                1.0858         estimate D2E/DX2                !
 ! R30   R(10,29)                1.087          estimate D2E/DX2                !
 ! R31   R(12,30)                1.0859         estimate D2E/DX2                !
 ! R32   R(12,31)                1.0843         estimate D2E/DX2                !
 ! A1    A(6,1,7)              109.4701         estimate D2E/DX2                !
 ! A2    A(6,1,11)             108.2566         estimate D2E/DX2                !
 ! A3    A(6,1,14)             109.8724         estimate D2E/DX2                !
 ! A4    A(7,1,11)             110.2311         estimate D2E/DX2                !
 ! A5    A(7,1,14)             109.3655         estimate D2E/DX2                !
 ! A6    A(11,1,14)            109.63           estimate D2E/DX2                !
 ! A7    A(4,2,5)              110.3095         estimate D2E/DX2                !
 ! A8    A(4,2,15)             110.1474         estimate D2E/DX2                !
 ! A9    A(4,2,16)             108.4875         estimate D2E/DX2                !
 ! A10   A(5,2,15)             110.0572         estimate D2E/DX2                !
 ! A11   A(5,2,16)             110.6429         estimate D2E/DX2                !
 ! A12   A(15,2,16)            107.1331         estimate D2E/DX2                !
 ! A13   A(11,3,12)            108.4399         estimate D2E/DX2                !
 ! A14   A(11,3,13)            110.6531         estimate D2E/DX2                !
 ! A15   A(11,3,17)            109.9624         estimate D2E/DX2                !
 ! A16   A(12,3,13)            111.9787         estimate D2E/DX2                !
 ! A17   A(12,3,17)            110.9327         estimate D2E/DX2                !
 ! A18   A(13,3,17)            104.8544         estimate D2E/DX2                !
 ! A19   A(2,4,13)             110.4268         estimate D2E/DX2                !
 ! A20   A(2,4,18)             111.7532         estimate D2E/DX2                !
 ! A21   A(2,4,19)             111.1765         estimate D2E/DX2                !
 ! A22   A(13,4,18)            106.2195         estimate D2E/DX2                !
 ! A23   A(13,4,19)            109.2974         estimate D2E/DX2                !
 ! A24   A(18,4,19)            107.7986         estimate D2E/DX2                !
 ! A25   A(2,5,12)             110.0873         estimate D2E/DX2                !
 ! A26   A(2,5,20)             109.9011         estimate D2E/DX2                !
 ! A27   A(2,5,21)             110.6693         estimate D2E/DX2                !
 ! A28   A(12,5,20)            109.0561         estimate D2E/DX2                !
 ! A29   A(12,5,21)            110.3023         estimate D2E/DX2                !
 ! A30   A(20,5,21)            106.7566         estimate D2E/DX2                !
 ! A31   A(1,6,10)             110.1623         estimate D2E/DX2                !
 ! A32   A(1,6,22)             109.9155         estimate D2E/DX2                !
 ! A33   A(1,6,23)             108.5432         estimate D2E/DX2                !
 ! A34   A(10,6,22)            110.8087         estimate D2E/DX2                !
 ! A35   A(10,6,23)            109.8101         estimate D2E/DX2                !
 ! A36   A(22,6,23)            107.5352         estimate D2E/DX2                !
 ! A37   A(1,7,9)              110.4647         estimate D2E/DX2                !
 ! A38   A(1,7,24)             111.925          estimate D2E/DX2                !
 ! A39   A(1,7,25)             109.4901         estimate D2E/DX2                !
 ! A40   A(9,7,24)             106.4951         estimate D2E/DX2                !
 ! A41   A(9,7,25)             109.8364         estimate D2E/DX2                !
 ! A42   A(24,7,25)            108.5659         estimate D2E/DX2                !
 ! A43   A(9,8,10)             110.8847         estimate D2E/DX2                !
 ! A44   A(9,8,26)             108.9482         estimate D2E/DX2                !
 ! A45   A(9,8,27)             106.323          estimate D2E/DX2                !
 ! A46   A(10,8,26)            110.6436         estimate D2E/DX2                !
 ! A47   A(10,8,27)            111.4782         estimate D2E/DX2                !
 ! A48   A(26,8,27)            108.4208         estimate D2E/DX2                !
 ! A49   A(7,9,8)              113.3696         estimate D2E/DX2                !
 ! A50   A(6,10,8)             110.5027         estimate D2E/DX2                !
 ! A51   A(6,10,28)            110.4263         estimate D2E/DX2                !
 ! A52   A(6,10,29)            109.9416         estimate D2E/DX2                !
 ! A53   A(8,10,28)            109.3738         estimate D2E/DX2                !
 ! A54   A(8,10,29)            109.1144         estimate D2E/DX2                !
 ! A55   A(28,10,29)           107.4178         estimate D2E/DX2                !
 ! A56   A(1,11,3)             117.1087         estimate D2E/DX2                !
 ! A57   A(3,12,5)             109.8145         estimate D2E/DX2                !
 ! A58   A(3,12,30)            109.2851         estimate D2E/DX2                !
 ! A59   A(3,12,31)            108.632          estimate D2E/DX2                !
 ! A60   A(5,12,30)            110.0713         estimate D2E/DX2                !
 ! A61   A(5,12,31)            111.6829         estimate D2E/DX2                !
 ! A62   A(30,12,31)           107.2894         estimate D2E/DX2                !
 ! A63   A(3,13,4)             115.0526         estimate D2E/DX2                !
 ! D1    D(7,1,6,10)            53.2033         estimate D2E/DX2                !
 ! D2    D(7,1,6,22)           175.5839         estimate D2E/DX2                !
 ! D3    D(7,1,6,23)           -67.0592         estimate D2E/DX2                !
 ! D4    D(11,1,6,10)          173.3918         estimate D2E/DX2                !
 ! D5    D(11,1,6,22)          -64.2276         estimate D2E/DX2                !
 ! D6    D(11,1,6,23)           53.1293         estimate D2E/DX2                !
 ! D7    D(14,1,6,10)          -66.9131         estimate D2E/DX2                !
 ! D8    D(14,1,6,22)           55.4675         estimate D2E/DX2                !
 ! D9    D(14,1,6,23)          172.8244         estimate D2E/DX2                !
 ! D10   D(6,1,7,9)            -57.3178         estimate D2E/DX2                !
 ! D11   D(6,1,7,24)          -175.8007         estimate D2E/DX2                !
 ! D12   D(6,1,7,25)            63.7659         estimate D2E/DX2                !
 ! D13   D(11,1,7,9)          -176.2919         estimate D2E/DX2                !
 ! D14   D(11,1,7,24)           65.2253         estimate D2E/DX2                !
 ! D15   D(11,1,7,25)          -55.2082         estimate D2E/DX2                !
 ! D16   D(14,1,7,9)            63.1082         estimate D2E/DX2                !
 ! D17   D(14,1,7,24)          -55.3747         estimate D2E/DX2                !
 ! D18   D(14,1,7,25)         -175.8081         estimate D2E/DX2                !
 ! D19   D(6,1,11,3)           158.9917         Frozen                          !
 ! D20   D(7,1,11,3)           -81.2967         estimate D2E/DX2                !
 ! D21   D(14,1,11,3)           39.1444         estimate D2E/DX2                !
 ! D22   D(5,2,4,13)            33.7921         estimate D2E/DX2                !
 ! D23   D(5,2,4,18)           151.7954         estimate D2E/DX2                !
 ! D24   D(5,2,4,19)           -87.7056         estimate D2E/DX2                !
 ! D25   D(15,2,4,13)          -87.8972         estimate D2E/DX2                !
 ! D26   D(15,2,4,18)           30.1061         estimate D2E/DX2                !
 ! D27   D(15,2,4,19)          150.6051         estimate D2E/DX2                !
 ! D28   D(16,2,4,13)          155.1319         estimate D2E/DX2                !
 ! D29   D(16,2,4,18)          -86.8649         estimate D2E/DX2                !
 ! D30   D(16,2,4,19)           33.6342         estimate D2E/DX2                !
 ! D31   D(4,2,5,12)            26.5381         estimate D2E/DX2                !
 ! D32   D(4,2,5,20)           -93.6015         estimate D2E/DX2                !
 ! D33   D(4,2,5,21)           148.7346         estimate D2E/DX2                !
 ! D34   D(15,2,5,12)          148.2809         estimate D2E/DX2                !
 ! D35   D(15,2,5,20)           28.1413         estimate D2E/DX2                !
 ! D36   D(15,2,5,21)          -89.5227         estimate D2E/DX2                !
 ! D37   D(16,2,5,12)          -93.5111         estimate D2E/DX2                !
 ! D38   D(16,2,5,20)          146.3493         estimate D2E/DX2                !
 ! D39   D(16,2,5,21)           28.6854         estimate D2E/DX2                !
 ! D40   D(12,3,11,1)          159.8624         estimate D2E/DX2                !
 ! D41   D(13,3,11,1)          -76.9559         estimate D2E/DX2                !
 ! D42   D(17,3,11,1)           38.4099         estimate D2E/DX2                !
 ! D43   D(11,3,12,5)          155.3512         estimate D2E/DX2                !
 ! D44   D(11,3,12,30)          34.5176         estimate D2E/DX2                !
 ! D45   D(11,3,12,31)         -82.2424         estimate D2E/DX2                !
 ! D46   D(13,3,12,5)           32.9728         estimate D2E/DX2                !
 ! D47   D(13,3,12,30)         -87.8608         estimate D2E/DX2                !
 ! D48   D(13,3,12,31)         155.3792         estimate D2E/DX2                !
 ! D49   D(17,3,12,5)          -83.7948         estimate D2E/DX2                !
 ! D50   D(17,3,12,30)         155.3717         estimate D2E/DX2                !
 ! D51   D(17,3,12,31)          38.6117         estimate D2E/DX2                !
 ! D52   D(11,3,13,4)          -90.2683         estimate D2E/DX2                !
 ! D53   D(12,3,13,4)           30.8399         estimate D2E/DX2                !
 ! D54   D(17,3,13,4)          151.2134         estimate D2E/DX2                !
 ! D55   D(2,4,13,3)           -67.722          estimate D2E/DX2                !
 ! D56   D(18,4,13,3)          170.9317         estimate D2E/DX2                !
 ! D57   D(19,4,13,3)           54.8822         estimate D2E/DX2                !
 ! D58   D(2,5,12,3)           -61.4879         estimate D2E/DX2                !
 ! D59   D(2,5,12,30)           58.8702         estimate D2E/DX2                !
 ! D60   D(2,5,12,31)          177.9341         estimate D2E/DX2                !
 ! D61   D(20,5,12,3)           59.1613         estimate D2E/DX2                !
 ! D62   D(20,5,12,30)         179.5193         estimate D2E/DX2                !
 ! D63   D(20,5,12,31)         -61.4168         estimate D2E/DX2                !
 ! D64   D(21,5,12,3)          176.0988         estimate D2E/DX2                !
 ! D65   D(21,5,12,30)         -63.5432         estimate D2E/DX2                !
 ! D66   D(21,5,12,31)          55.5207         estimate D2E/DX2                !
 ! D67   D(1,6,10,8)           -52.1245         estimate D2E/DX2                !
 ! D68   D(1,6,10,28)         -173.2685         estimate D2E/DX2                !
 ! D69   D(1,6,10,29)           68.3777         estimate D2E/DX2                !
 ! D70   D(22,6,10,8)         -173.977          estimate D2E/DX2                !
 ! D71   D(22,6,10,28)          64.879          estimate D2E/DX2                !
 ! D72   D(22,6,10,29)         -53.4748         estimate D2E/DX2                !
 ! D73   D(23,6,10,8)           67.3711         estimate D2E/DX2                !
 ! D74   D(23,6,10,28)         -53.7729         estimate D2E/DX2                !
 ! D75   D(23,6,10,29)        -172.1267         estimate D2E/DX2                !
 ! D76   D(1,7,9,8)             61.746          estimate D2E/DX2                !
 ! D77   D(24,7,9,8)          -176.5077         estimate D2E/DX2                !
 ! D78   D(25,7,9,8)           -59.1316         estimate D2E/DX2                !
 ! D79   D(10,8,9,7)           -60.2037         estimate D2E/DX2                !
 ! D80   D(26,8,9,7)            61.799          estimate D2E/DX2                !
 ! D81   D(27,8,9,7)           178.4576         estimate D2E/DX2                !
 ! D82   D(9,8,10,6)            54.353          estimate D2E/DX2                !
 ! D83   D(9,8,10,28)          176.1198         estimate D2E/DX2                !
 ! D84   D(9,8,10,29)          -66.6423         estimate D2E/DX2                !
 ! D85   D(26,8,10,6)          -66.654          estimate D2E/DX2                !
 ! D86   D(26,8,10,28)          55.1127         estimate D2E/DX2                !
 ! D87   D(26,8,10,29)         172.3506         estimate D2E/DX2                !
 ! D88   D(27,8,10,6)          172.608          estimate D2E/DX2                !
 ! D89   D(27,8,10,28)         -65.6253         estimate D2E/DX2                !
 ! D90   D(27,8,10,29)          51.6126         estimate D2E/DX2                !
 --------------------------------------------------------------------------------
 Trust Radius=3.00D-01 FncErr=1.00D-07 GrdErr=1.00D-06 EigMax=2.50D+02 EigMin=1.00D-04
 Number of steps in this run=    186 maximum allowed number of steps=    186.
 GradGradGradGradGradGradGradGradGradGradGradGradGradGradGradGradGradGrad

                          Input orientation:                          
 ---------------------------------------------------------------------
 Center     Atomic      Atomic             Coordinates (Angstroms)
 Number     Number       Type             X           Y           Z
 ---------------------------------------------------------------------
      1          6           0        1.145254   -0.151312    0.062841
      2          6           0       -3.983096   -0.496742    0.137335
      3          6           0       -1.177533    0.459244    0.145348
      4          6           0       -2.723624   -1.344765    0.325501
      5          6           0       -3.603426    0.966208   -0.155668
      6          6           0        2.010609   -1.108348   -0.744262
      7          6           0        1.854862    1.196222    0.186124
      8          6           0        3.996736    0.211268    0.027003
      9          8           0        3.123989    1.032920    0.781339
     10          6           0        3.416019   -1.182928   -0.143542
     11          8           0       -0.090799    0.005746   -0.611695
     12          6           0       -2.222805    1.029748   -0.805540
     13          8           0       -1.697592   -0.578729    0.937149
     14          1           0        0.970838   -0.557881    1.053169
     15          1           0       -4.605108   -0.549193    1.025057
     16          1           0       -4.560091   -0.914246   -0.682805
     17          1           0       -0.848658    1.207409    0.850886
     18          1           0       -2.901756   -2.186903    0.978769
     19          1           0       -2.366009   -1.730535   -0.622440
     20          1           0       -3.586780    1.536239    0.768983
     21          1           0       -4.343139    1.432551   -0.797209
     22          1           0        1.549824   -2.090844   -0.770519
     23          1           0        2.066085   -0.744970   -1.767864
     24          1           0        1.307691    1.884349    0.814223
     25          1           0        1.964408    1.640331   -0.800769
     26          1           0        4.170103    0.675529   -0.941207
     27          1           0        4.933398    0.186728    0.566817
     28          1           0        4.070031   -1.770016   -0.781199
     29          1           0        3.379452   -1.674279    0.825426
     30          1           0       -2.218585    0.457389   -1.728325
     31          1           0       -1.944463    2.047277   -1.056189
 ---------------------------------------------------------------------
                    Distance matrix (angstroms):
                    1          2          3          4          5
     1  C    0.000000
     2  C    5.140510   0.000000
     3  C    2.403107   2.963977   0.000000
     4  C    4.057282   1.529974   2.382709   0.000000
     5  C    4.883294   1.539553   2.496514   2.519161   0.000000
     6  C    1.521898   6.088988   3.662376   4.859346   6.013952
     7  C    1.527937   6.078673   3.120932   5.238184   5.473814
     8  C    2.874665   8.011939   5.181559   6.904606   7.639749
     9  O    2.415375   7.298306   4.385964   6.328961   6.792683
    10  C    2.502638   7.436171   4.886809   6.159660   7.341086
    11  O    1.416860   3.995437   1.399916   3.103866   3.670013
    12  C    3.673256   2.513525   1.523895   2.677384   1.527248
    13  O    3.004808   2.422799   1.405275   1.419037   2.685755
    14  H    1.084651   5.038249   2.544441   3.846783   4.970717
    15  H    5.843871   1.085219   3.679552   2.159235   2.166545
    16  H    5.804224   1.086215   3.743529   2.138840   2.174670
    17  H    2.538272   3.638404   1.079673   3.210159   2.942801
    18  H    4.621779   2.175765   3.266440   1.080595   3.423653
    19  H    3.910566   2.171284   2.607126   1.084112   3.003581
    20  H    5.073323   2.165423   2.711699   3.040049   1.086366
    21  H    5.776744   2.173747   3.443371   3.405406   1.084540
    22  H    2.149407   5.829113   3.844507   4.474400   6.023254
    23  H    2.133504   6.346967   3.953678   5.261487   6.137643
    24  H    2.175977   5.841250   2.941880   5.188210   5.089474
    25  H    2.151004   6.389047   3.487391   5.670708   5.645474
    26  H    3.292642   8.307354   5.461190   7.294492   7.818524
    27  H    3.836443   8.952958   6.131507   7.812406   8.602729
    28  H    3.447742   8.204742   5.776246   6.896330   8.170689
    29  H    2.809378   7.487802   5.077454   6.132376   7.529628
    30  H    3.859301   2.739444   2.143465   2.778673   2.156370
    31  H    3.953780   3.471679   2.133945   3.744611   2.175272
                    6          7          8          9         10
     6  C    0.000000
     7  C    2.490164   0.000000
     8  C    2.506180   2.362854   0.000000
     9  O    2.855189   1.411252   1.416271   0.000000
    10  C    1.530230   2.864655   1.519901   2.418816   0.000000
    11  O    2.382162   2.416474   4.142236   3.651095   3.732276
    12  C    4.743101   4.199819   6.328169   5.577311   6.093481
    13  O    4.105897   4.041586   5.820467   5.086190   5.261366
    14  H    2.148231   2.147124   3.286437   2.690836   2.793154
    15  H    6.871016   6.743997   8.692878   7.893125   8.130543
    16  H    6.573854   6.808872   8.659671   8.061033   7.998833
    17  H    4.010316   2.784071   5.014870   3.977085   4.988995
    18  H    5.316338   5.890606   7.365207   6.834899   6.494754
    19  H    4.422301   5.199561   6.684078   6.304551   5.827612
    20  H    6.372952   5.483321   7.734067   6.729629   7.567415
    21  H    6.843178   6.279969   8.469024   7.642612   8.214167
    22  H    1.085500   3.437007   3.452990   3.826769   2.167970
    23  H    1.087604   2.762410   2.804167   3.283061   2.156977
    24  H    3.446622   1.080474   3.263415   2.006228   3.843247
    25  H    2.749648   1.087746   2.618737   2.053446   3.241900
    26  H    2.807921   2.627230   1.087670   2.046765   2.158419
    27  H    3.455263   3.262114   1.081359   2.008985   2.164026
    28  H    2.163420   3.826389   2.141039   3.345590   1.085822
    29  H    2.158224   3.312530   2.138646   2.719583   1.087043
    30  H    4.615842   4.561136   6.463124   5.930662   6.078728
    31  H    5.069306   4.086870   6.312058   5.485858   6.324707
                   11         12         13         14         15
    11  O    0.000000
    12  C    2.373100   0.000000
    13  O    2.307014   2.428994   0.000000
    14  H    2.053417   4.021781   2.671032   0.000000
    15  H    4.833829   3.394040   2.908995   5.576024   0.000000
    16  H    4.563553   3.042545   3.306164   5.807906   1.747021
    17  H    2.038992   2.159535   1.979500   2.543174   4.150530
    18  H    3.903686   3.740532   2.009469   4.201932   2.363397
    19  H    2.862057   2.770053   2.050794   3.913736   3.020493
    20  H    4.058394   2.143848   2.840845   5.023742   2.334865
    21  H    4.489163   2.158272   3.748622   5.968590   2.704920
    22  H    2.666938   4.896126   3.968417   2.451742   6.594238
    23  H    2.559775   4.740282   4.637887   3.031962   7.234884
    24  H    2.741927   3.977232   3.887620   2.476904   6.397482
    25  H    2.632773   4.231499   4.621129   3.042434   7.161438
    26  H    4.325792   6.404151   6.287387   3.966627   9.075818
    27  H    5.163739   7.335209   6.685290   4.061141   9.577821
    28  H    4.527093   6.887602   6.134929   3.799891   8.944887
    29  H    4.114662   6.430948   5.195102   2.664514   8.065908
    30  H    2.445060   1.085884   2.906841   4.352000   3.780187
    31  H    2.793115   1.084281   3.306093   4.442434   4.260548
                   16         17         18         19         20
    16  H    0.000000
    17  H    4.541846   0.000000
    18  H    2.670311   3.968995   0.000000
    19  H    2.341787   3.620022   1.749047   0.000000
    20  H    3.009967   2.759012   3.791445   3.754751   0.000000
    21  H    2.359579   3.870181   4.281604   3.734260   1.742351
    22  H    6.222792   4.388638   4.783911   3.935162   6.473832
    23  H    6.716563   4.377826   5.856843   4.682605   6.602605
    24  H    6.671139   2.260405   5.858465   5.350463   4.907043
    25  H    7.007772   3.290703   6.441586   5.490633   5.769805
    26  H    8.877525   5.355600   7.867084   6.972196   7.989669
    27  H    9.638466   5.878321   8.197162   7.640129   8.628759
    28  H    8.673006   5.976810   7.202576   6.438119   8.482991
    29  H    8.117189   5.116804   6.303957   5.925353   7.670658
    30  H    2.908117   3.015221   3.845434   2.455957   3.045065
    31  H    3.968821   2.354379   4.794345   3.825925   2.507911
                   21         22         23         24         25
    21  H    0.000000
    22  H    6.866006   0.000000
    23  H    6.838269   1.752883   0.000000
    24  H    5.893447   4.286280   3.762400   0.000000
    25  H    6.310969   3.754259   2.575902   1.760404   0.000000
    26  H    8.548047   3.814160   2.669845   3.568779   2.411567
    27  H    9.458688   4.292362   3.813172   4.011094   3.577451
    28  H    9.002118   2.540568   2.457647   4.850802   4.008054
    29  H    8.480787   2.463352   3.051836   4.117785   3.953922
    30  H    2.516277   4.648848   4.450351   4.575520   4.444901
    31  H    2.489700   5.423624   4.938382   3.755195   3.938289
                   26         27         28         29         30
    26  H    0.000000
    27  H    1.759455   0.000000
    28  H    2.452816   2.528121   0.000000
    29  H    3.044293   2.438232   1.751373   0.000000
    30  H    6.440689   7.516102   6.738329   6.511810   0.000000
    31  H    6.267602   7.307583   7.128919   6.762731   1.747757
                   31
    31  H    0.000000
 Stoichiometry    C10H18O3
 Framework group  C1[X(C10H18O3)]
 Deg. of freedom    87
 Full point group                 C1      NOp   1
 Largest Abelian subgroup         C1      NOp   1
 Largest concise Abelian subgroup C1      NOp   1
                         Standard orientation:                         
 ---------------------------------------------------------------------
 Center     Atomic      Atomic             Coordinates (Angstroms)
 Number     Number       Type             X           Y           Z
 ---------------------------------------------------------------------
      1          6           0        1.145254    0.151312   -0.062841
      2          6           0       -3.983096    0.496742   -0.137335
      3          6           0       -1.177533   -0.459244   -0.145348
      4          6           0       -2.723624    1.344765   -0.325501
      5          6           0       -3.603426   -0.966208    0.155668
      6          6           0        2.010609    1.108348    0.744262
      7          6           0        1.854862   -1.196222   -0.186124
      8          6           0        3.996736   -0.211268   -0.027003
      9          8           0        3.123989   -1.032920   -0.781339
     10          6           0        3.416019    1.182928    0.143542
     11          8           0       -0.090799   -0.005746    0.611695
     12          6           0       -2.222805   -1.029748    0.805540
     13          8           0       -1.697592    0.578729   -0.937149
     14          1           0        0.970838    0.557881   -1.053169
     15          1           0       -4.605108    0.549193   -1.025057
     16          1           0       -4.560091    0.914246    0.682805
     17          1           0       -0.848658   -1.207409   -0.850886
     18          1           0       -2.901756    2.186903   -0.978769
     19          1           0       -2.366009    1.730535    0.622440
     20          1           0       -3.586780   -1.536239   -0.768983
     21          1           0       -4.343139   -1.432551    0.797209
     22          1           0        1.549824    2.090844    0.770519
     23          1           0        2.066085    0.744970    1.767864
     24          1           0        1.307691   -1.884349   -0.814223
     25          1           0        1.964408   -1.640331    0.800769
     26          1           0        4.170103   -0.675529    0.941207
     27          1           0        4.933398   -0.186728   -0.566817
     28          1           0        4.070031    1.770016    0.781199
     29          1           0        3.379452    1.674279   -0.825426
     30          1           0       -2.218585   -0.457389    1.728325
     31          1           0       -1.944463   -2.047277    1.056189
 ---------------------------------------------------------------------
 Rotational constants (GHZ):           2.2463271           0.3618003           0.3385901
 Standard basis: 6-311++G(2d,2p) (5D, 7F)
 There are   557 symmetry adapted cartesian basis functions of A   symmetry.
 There are   531 symmetry adapted basis functions of A   symmetry.
   531 basis functions,   762 primitive gaussians,   557 cartesian basis functions
    51 alpha electrons       51 beta electrons
       nuclear repulsion energy       880.0998349006 Hartrees.
 NAtoms=   31 NActive=   31 NUniq=   31 SFac= 1.00D+00 NAtFMM=   60 NAOKFM=F Big=F
 Integral buffers will be    131072 words long.
 Raffenetti 2 integral format.
 Two-electron integral symmetry is turned on.
 ------------------------------------------------------------------------------
 Polarizable Continuum Model (PCM)
 =================================
 Model                : PCM.
 Atomic radii         : UFF (Universal Force Field).
 Polarization charges : Total charges.
 Charge compensation  : None.
 Solution method      : On-the-fly selection.
 Cavity type          : Scaled VdW (van der Waals Surface) (Alpha=1.100).
 Cavity algorithm     : GePol (No added spheres)
                        Default sphere list used, NSphG=   31.
                        Lebedev-Laikov grids with approx.  5.0 points / Ang**2.
                        Smoothing algorithm: York/Karplus (Gamma=1.0000).
                        Polarization charges: spherical gaussians, with
                                              point-specific exponents (IZeta= 3).
                        Self-potential: point-specific (ISelfS= 7).
                        Self-field    : sphere-specific E.n sum rule (ISelfD= 2).
 1st derivatives      : Analytical E(r).r(x)/FMM algorithm (CHGder, D1EAlg=3).
                        Cavity 1st derivative terms included.
 Solvent              : Water, Eps=  78.355300 Eps(inf)=   1.777849
 ------------------------------------------------------------------------------
 One-electron integrals computed using PRISM.
 NBasis=   531 RedAO= T EigKep=  5.42D-06  NBF=   531
 NBsUse=   531 1.00D-06 EigRej= -1.00D+00 NBFU=   531
 ExpMin= 3.60D-02 ExpMax= 8.59D+03 ExpMxC= 1.30D+03 IAcc=3 IRadAn=         5 AccDes= 0.00D+00
 Harris functional with IExCor= 1009 and IRadAn=       5 diagonalized for initial guess.
 HarFok:  IExCor= 1009 AccDes= 0.00D+00 IRadAn=         5 IDoV= 1 UseB2=F ITyADJ=14
 ICtDFT=  3500011 ScaDFX=  1.000000  1.000000  1.000000  1.000000
 FoFCou: FMM=F IPFlag=           0 FMFlag=      100000 FMFlg1=           0
         NFxFlg=           0 DoJE=T BraDBF=F KetDBF=T FulRan=T
         wScrn=  0.000000 ICntrl=       500 IOpCl=  0 I1Cent=   200000004 NGrid=           0
         NMat0=    1 NMatS0=      1 NMatT0=    0 NMatD0=    1 NMtDS0=    0 NMtDT0=    0
 Petite list used in FoFCou.
 Requested convergence on RMS density matrix=1.00D-08 within 128 cycles.
 Requested convergence on MAX density matrix=1.00D-06.
 Requested convergence on             energy=1.00D-06.
 No special actions if energy rises.
 Inv3:  Mode=1 IEnd=    13179648.
 Iteration    1 A*A^-1 deviation from unit magnitude is 4.22D-15 for   2087.
 Iteration    1 A*A^-1 deviation from orthogonality  is 2.37D-15 for   2090    583.
 Iteration    1 A^-1*A deviation from unit magnitude is 4.22D-15 for   2087.
 Iteration    1 A^-1*A deviation from orthogonality  is 7.82D-15 for   1890   1864.
 Error on total polarization charges =  0.01500
 SCF Done:  E(RM062X) =  -617.496496175     A.U. after   12 cycles
            NFock= 12  Conv=0.49D-08     -V/T= 2.0035

 **********************************************************************

            Population analysis using the SCF density.

 **********************************************************************

 Orbital symmetries:
       Occupied  (A) (A) (A) (A) (A) (A) (A) (A) (A) (A) (A) (A)
                 (A) (A) (A) (A) (A) (A) (A) (A) (A) (A) (A) (A)
                 (A) (A) (A) (A) (A) (A) (A) (A) (A) (A) (A) (A)
                 (A) (A) (A) (A) (A) (A) (A) (A) (A) (A) (A) (A)
                 (A) (A) (A)
       Virtual   (A) (A) (A) (A) (A) (A) (A) (A) (A) (A) (A) (A)
                 (A) (A) (A) (A) (A) (A) (A) (A) (A) (A) (A) (A)
                 (A) (A) (A) (A) (A) (A) (A) (A) (A) (A) (A) (A)
                 (A) (A) (A) (A) (A) (A) (A) (A) (A) (A) (A) (A)
                 (A) (A) (A) (A) (A) (A) (A) (A) (A) (A) (A) (A)
                 (A) (A) (A) (A) (A) (A) (A) (A) (A) (A) (A) (A)
                 (A) (A) (A) (A) (A) (A) (A) (A) (A) (A) (A) (A)
                 (A) (A) (A) (A) (A) (A) (A) (A) (A) (A) (A) (A)
                 (A) (A) (A) (A) (A) (A) (A) (A) (A) (A) (A) (A)
                 (A) (A) (A) (A) (A) (A) (A) (A) (A) (A) (A) (A)
                 (A) (A) (A) (A) (A) (A) (A) (A) (A) (A) (A) (A)
                 (A) (A) (A) (A) (A) (A) (A) (A) (A) (A) (A) (A)
                 (A) (A) (A) (A) (A) (A) (A) (A) (A) (A) (A) (A)
                 (A) (A) (A) (A) (A) (A) (A) (A) (A) (A) (A) (A)
                 (A) (A) (A) (A) (A) (A) (A) (A) (A) (A) (A) (A)
                 (A) (A) (A) (A) (A) (A) (A) (A) (A) (A) (A) (A)
                 (A) (A) (A) (A) (A) (A) (A) (A) (A) (A) (A) (A)
                 (A) (A) (A) (A) (A) (A) (A) (A) (A) (A) (A) (A)
                 (A) (A) (A) (A) (A) (A) (A) (A) (A) (A) (A) (A)
                 (A) (A) (A) (A) (A) (A) (A) (A) (A) (A) (A) (A)
                 (A) (A) (A) (A) (A) (A) (A) (A) (A) (A) (A) (A)
                 (A) (A) (A) (A) (A) (A) (A) (A) (A) (A) (A) (A)
                 (A) (A) (A) (A) (A) (A) (A) (A) (A) (A) (A) (A)
                 (A) (A) (A) (A) (A) (A) (A) (A) (A) (A) (A) (A)
                 (A) (A) (A) (A) (A) (A) (A) (A) (A) (A) (A) (A)
                 (A) (A) (A) (A) (A) (A) (A) (A) (A) (A) (A) (A)
                 (A) (A) (A) (A) (A) (A) (A) (A) (A) (A) (A) (A)
                 (A) (A) (A) (A) (A) (A) (A) (A) (A) (A) (A) (A)
                 (A) (A) (A) (A) (A) (A) (A) (A) (A) (A) (A) (A)
                 (A) (A) (A) (A) (A) (A) (A) (A) (A) (A) (A) (A)
                 (A) (A) (A) (A) (A) (A) (A) (A) (A) (A) (A) (A)
                 (A) (A) (A) (A) (A) (A) (A) (A) (A) (A) (A) (A)
                 (A) (A) (A) (A) (A) (A) (A) (A) (A) (A) (A) (A)
                 (A) (A) (A) (A) (A) (A) (A) (A) (A) (A) (A) (A)
                 (A) (A) (A) (A) (A) (A) (A) (A) (A) (A) (A) (A)
                 (A) (A) (A) (A) (A) (A) (A) (A) (A) (A) (A) (A)
                 (A) (A) (A) (A) (A) (A) (A) (A) (A) (A) (A) (A)
                 (A) (A) (A) (A) (A) (A) (A) (A) (A) (A) (A) (A)
                 (A) (A) (A) (A) (A) (A) (A) (A) (A) (A) (A) (A)
                 (A) (A) (A) (A) (A) (A) (A) (A) (A) (A) (A) (A)
 The electronic state is 1-A.
 Alpha  occ. eigenvalues --  -19.63227 -19.62962 -19.62770 -10.63513 -10.58657
 Alpha  occ. eigenvalues --  -10.57880 -10.57874 -10.57746 -10.53211 -10.53203
 Alpha  occ. eigenvalues --  -10.53159 -10.53149 -10.52795  -1.20241  -1.16803
 Alpha  occ. eigenvalues --   -1.13882  -0.90960  -0.89817  -0.87315  -0.84563
 Alpha  occ. eigenvalues --   -0.75469  -0.74430  -0.73525  -0.70405  -0.65828
 Alpha  occ. eigenvalues --   -0.62713  -0.60900  -0.59176  -0.58300  -0.56860
 Alpha  occ. eigenvalues --   -0.55681  -0.53095  -0.52588  -0.50016  -0.49508
 Alpha  occ. eigenvalues --   -0.47966  -0.46474  -0.46150  -0.45589  -0.44716
 Alpha  occ. eigenvalues --   -0.44515  -0.43200  -0.40701  -0.40354  -0.39200
 Alpha  occ. eigenvalues --   -0.38653  -0.37979  -0.36213  -0.35179  -0.33961
 Alpha  occ. eigenvalues --   -0.31856
 Alpha virt. eigenvalues --   -0.00101   0.00754   0.00934   0.00986   0.02114
 Alpha virt. eigenvalues --    0.02385   0.02538   0.03619   0.03823   0.04157
 Alpha virt. eigenvalues --    0.04247   0.04594   0.05487   0.05919   0.06665
 Alpha virt. eigenvalues --    0.07252   0.07565   0.07897   0.08475   0.09208
 Alpha virt. eigenvalues --    0.10035   0.10758   0.10999   0.11574   0.11744
 Alpha virt. eigenvalues --    0.12083   0.12274   0.12665   0.13212   0.13362
 Alpha virt. eigenvalues --    0.13514   0.14090   0.14348   0.14520   0.14830
 Alpha virt. eigenvalues --    0.14886   0.15343   0.15561   0.15883   0.16123
 Alpha virt. eigenvalues --    0.16389   0.16718   0.17078   0.17379   0.17661
 Alpha virt. eigenvalues --    0.17737   0.18226   0.18812   0.19058   0.19397
 Alpha virt. eigenvalues --    0.19851   0.20390   0.20622   0.21222   0.21460
 Alpha virt. eigenvalues --    0.21868   0.22326   0.22661   0.23931   0.24366
 Alpha virt. eigenvalues --    0.24601   0.25359   0.26268   0.26607   0.26695
 Alpha virt. eigenvalues --    0.26984   0.27619   0.28226   0.28785   0.28957
 Alpha virt. eigenvalues --    0.29368   0.30101   0.30653   0.31252   0.31878
 Alpha virt. eigenvalues --    0.32511   0.32857   0.33736   0.34115   0.34170
 Alpha virt. eigenvalues --    0.34839   0.34899   0.35449   0.36385   0.36673
 Alpha virt. eigenvalues --    0.36725   0.36950   0.37371   0.37693   0.37925
 Alpha virt. eigenvalues --    0.38796   0.38904   0.39649   0.40530   0.40618
 Alpha virt. eigenvalues --    0.41897   0.42394   0.43239   0.43748   0.44557
 Alpha virt. eigenvalues --    0.46147   0.47473   0.48704   0.49599   0.50681
 Alpha virt. eigenvalues --    0.51175   0.52037   0.52923   0.53584   0.54120
 Alpha virt. eigenvalues --    0.54819   0.56022   0.56718   0.57310   0.58821
 Alpha virt. eigenvalues --    0.59491   0.59906   0.60396   0.60666   0.61390
 Alpha virt. eigenvalues --    0.61790   0.62110   0.62654   0.62988   0.63402
 Alpha virt. eigenvalues --    0.64004   0.65093   0.65381   0.66378   0.66652
 Alpha virt. eigenvalues --    0.67696   0.68600   0.69193   0.69487   0.70393
 Alpha virt. eigenvalues --    0.70664   0.71002   0.71605   0.72156   0.73024
 Alpha virt. eigenvalues --    0.73768   0.74340   0.74560   0.74722   0.75305
 Alpha virt. eigenvalues --    0.75997   0.76274   0.76925   0.77425   0.77802
 Alpha virt. eigenvalues --    0.81205   0.82364   0.83603   0.84855   0.85166
 Alpha virt. eigenvalues --    0.86628   0.87353   0.88885   0.89135   0.89754
 Alpha virt. eigenvalues --    0.90448   0.90973   0.91925   0.92348   0.94653
 Alpha virt. eigenvalues --    0.95814   0.96402   0.98767   1.00326   1.01692
 Alpha virt. eigenvalues --    1.02402   1.04952   1.05158   1.06302   1.07184
 Alpha virt. eigenvalues --    1.08027   1.08413   1.09208   1.10112   1.11383
 Alpha virt. eigenvalues --    1.12561   1.13345   1.14312   1.16113   1.16255
 Alpha virt. eigenvalues --    1.17090   1.17565   1.17991   1.19007   1.19673
 Alpha virt. eigenvalues --    1.20436   1.21685   1.22827   1.22985   1.24375
 Alpha virt. eigenvalues --    1.24696   1.26260   1.26488   1.26885   1.27308
 Alpha virt. eigenvalues --    1.28259   1.28978   1.29289   1.30335   1.30878
 Alpha virt. eigenvalues --    1.31667   1.32394   1.32678   1.33314   1.33475
 Alpha virt. eigenvalues --    1.34128   1.35070   1.36059   1.36776   1.37396
 Alpha virt. eigenvalues --    1.38013   1.38778   1.39070   1.40407   1.41323
 Alpha virt. eigenvalues --    1.41799   1.42617   1.42950   1.44021   1.44486
 Alpha virt. eigenvalues --    1.45296   1.46276   1.47402   1.47775   1.48326
 Alpha virt. eigenvalues --    1.49107   1.49596   1.50269   1.51065   1.51721
 Alpha virt. eigenvalues --    1.52636   1.52919   1.53797   1.54143   1.54886
 Alpha virt. eigenvalues --    1.55764   1.56725   1.57454   1.57878   1.58105
 Alpha virt. eigenvalues --    1.58518   1.59098   1.60586   1.60964   1.61336
 Alpha virt. eigenvalues --    1.62400   1.63062   1.64302   1.65543   1.65623
 Alpha virt. eigenvalues --    1.67178   1.67535   1.69010   1.69161   1.70528
 Alpha virt. eigenvalues --    1.71573   1.74974   1.75615   1.76296   1.76706
 Alpha virt. eigenvalues --    1.78298   1.79187   1.79918   1.81633   1.83141
 Alpha virt. eigenvalues --    1.87881   1.88683   1.90781   1.93491   1.98596
 Alpha virt. eigenvalues --    2.01377   2.02749   2.08219   2.09226   2.17997
 Alpha virt. eigenvalues --    2.24244   2.25417   2.33127   2.34167   2.39494
 Alpha virt. eigenvalues --    2.40885   2.42177   2.45494   2.47654   2.51038
 Alpha virt. eigenvalues --    2.55924   2.75730   2.76326   2.79569   2.80492
 Alpha virt. eigenvalues --    2.87126   2.89396   2.89720   2.92119   2.93194
 Alpha virt. eigenvalues --    2.94141   2.96648   2.99687   3.00853   3.02532
 Alpha virt. eigenvalues --    3.06172   3.06850   3.07280   3.08991   3.09780
 Alpha virt. eigenvalues --    3.11927   3.13846   3.17162   3.18567   3.23307
 Alpha virt. eigenvalues --    3.24200   3.27820   3.30363   3.32059   3.33137
 Alpha virt. eigenvalues --    3.34875   3.36203   3.37712   3.38448   3.40523
 Alpha virt. eigenvalues --    3.41689   3.41802   3.43356   3.44810   3.45067
 Alpha virt. eigenvalues --    3.47677   3.48255   3.49016   3.49321   3.49755
 Alpha virt. eigenvalues --    3.51310   3.53846   3.54184   3.54823   3.56044
 Alpha virt. eigenvalues --    3.56905   3.57403   3.58833   3.59095   3.60031
 Alpha virt. eigenvalues --    3.60961   3.61791   3.62450   3.63978   3.64683
 Alpha virt. eigenvalues --    3.66335   3.67137   3.67880   3.68921   3.69776
 Alpha virt. eigenvalues --    3.70276   3.70715   3.72419   3.72791   3.73246
 Alpha virt. eigenvalues --    3.74167   3.75234   3.75464   3.77305   3.78403
 Alpha virt. eigenvalues --    3.79439   3.80476   3.82173   3.84060   3.85752
 Alpha virt. eigenvalues --    3.85832   3.87242   3.88756   3.89867   3.91431
 Alpha virt. eigenvalues --    3.93001   3.93526   3.96558   3.97299   3.98788
 Alpha virt. eigenvalues --    3.99547   4.01591   4.01969   4.03009   4.03468
 Alpha virt. eigenvalues --    4.04980   4.05110   4.06158   4.06852   4.07466
 Alpha virt. eigenvalues --    4.08465   4.08634   4.09090   4.10190   4.11290
 Alpha virt. eigenvalues --    4.12557   4.13561   4.14813   4.15388   4.16050
 Alpha virt. eigenvalues --    4.16793   4.18090   4.18638   4.19638   4.20267
 Alpha virt. eigenvalues --    4.20513   4.22101   4.25079   4.25452   4.26185
 Alpha virt. eigenvalues --    4.26797   4.27367   4.28969   4.30128   4.31059
 Alpha virt. eigenvalues --    4.32555   4.33606   4.36066   4.36934   4.39864
 Alpha virt. eigenvalues --    4.39989   4.41662   4.44870   4.47526   4.54670
 Alpha virt. eigenvalues --    4.56772   4.59157   4.75091   4.76446   4.82373
 Alpha virt. eigenvalues --    4.84929   4.92607   4.95391   4.99183   5.00506
 Alpha virt. eigenvalues --    5.02874   5.07072   5.08271   5.11692   5.12528
 Alpha virt. eigenvalues --    5.13712   5.15272   5.18138   5.30315   5.37144
 Alpha virt. eigenvalues --    5.38865   5.57414   5.58565   5.63982   5.85881
 Alpha virt. eigenvalues --    5.88571   6.05885   7.04322   7.04843   7.05188
 Alpha virt. eigenvalues --    7.06052   7.09866   7.11058   7.12963   7.19402
 Alpha virt. eigenvalues --    7.26249   7.36224   7.37550   7.44049   7.52934
 Alpha virt. eigenvalues --    7.55595   7.63536  23.95709  23.98445  24.04693
 Alpha virt. eigenvalues --   24.07189  24.10209  24.11803  24.13238  24.15187
 Alpha virt. eigenvalues --   24.16299  24.20438  50.17806  50.18767  50.22360
          Condensed to atoms (all electrons):
               1          2          3          4          5          6
     1  C    7.740558   0.045871  -0.403769   0.004220  -0.122150  -1.211613
     2  C    0.045871   6.090988   0.513713  -0.325374  -0.372083  -0.014991
     3  C   -0.403769   0.513713   6.813859  -0.524324  -0.283294   0.033038
     4  C    0.004220  -0.325374  -0.524324   5.802502   0.347581   0.021432
     5  C   -0.122150  -0.372083  -0.283294   0.347581   5.920595   0.001570
     6  C   -1.211613  -0.014991   0.033038   0.021432   0.001570   6.736017
     7  C   -0.582206  -0.022096  -0.069184   0.049824   0.025306   0.142639
     8  C    0.219303   0.002180   0.002669  -0.004413  -0.002825  -0.175669
     9  O    0.038751   0.000136  -0.006687  -0.000049  -0.000696  -0.014909
    10  C   -0.197208  -0.003256  -0.104347   0.013526  -0.000981   0.136586
    11  O    0.214019   0.022516   0.381443  -0.003764  -0.018622  -0.170380
    12  C    0.045894  -0.225216  -0.723868  -0.086268   0.140058  -0.103197
    13  O    0.017890   0.000218   0.279037   0.042780  -0.099555  -0.043091
    14  H    0.456083   0.004177  -0.020814  -0.003275  -0.005049   0.037519
    15  H    0.000706   0.476698  -0.006568  -0.083702  -0.048233  -0.002006
    16  H    0.000227   0.475084   0.016405  -0.046446  -0.069853   0.002790
    17  H    0.129247   0.052295   0.522288  -0.071370  -0.053734  -0.027287
    18  H   -0.001010  -0.010475   0.020969   0.422256  -0.010459   0.004957
    19  H    0.002819  -0.092831  -0.038314   0.484473   0.004969  -0.005874
    20  H    0.001737  -0.073955  -0.040336   0.006694   0.457903   0.002625
    21  H   -0.000755  -0.048953   0.015606   0.004344   0.449419  -0.001606
    22  H   -0.031003  -0.002119  -0.000642   0.002390  -0.000171   0.400364
    23  H   -0.019277  -0.000074   0.001928  -0.000193   0.000970   0.507957
    24  H   -0.165758  -0.005866   0.022658   0.008490   0.007569   0.039186
    25  H    0.048449   0.003072  -0.011142  -0.005351  -0.008130  -0.029779
    26  H    0.047018   0.000021   0.001776  -0.000134   0.000077  -0.031820
    27  H    0.003328   0.000096  -0.001962  -0.000106  -0.000157   0.011596
    28  H   -0.003889  -0.000154  -0.001188   0.000509   0.000021  -0.040951
    29  H   -0.032814  -0.000166   0.000250  -0.000095   0.000039  -0.006356
    30  H   -0.000577   0.011063  -0.072795  -0.031189  -0.072122   0.002459
    31  H   -0.015262  -0.005192  -0.024358   0.015774   0.005203   0.003124
               7          8          9         10         11         12
     1  C   -0.582206   0.219303   0.038751  -0.197208   0.214019   0.045894
     2  C   -0.022096   0.002180   0.000136  -0.003256   0.022516  -0.225216
     3  C   -0.069184   0.002669  -0.006687  -0.104347   0.381443  -0.723868
     4  C    0.049824  -0.004413  -0.000049   0.013526  -0.003764  -0.086268
     5  C    0.025306  -0.002825  -0.000696  -0.000981  -0.018622   0.140058
     6  C    0.142639  -0.175669  -0.014909   0.136586  -0.170380  -0.103197
     7  C    6.105855  -0.232321   0.146652   0.151645  -0.146200   0.071449
     8  C   -0.232321   5.386549   0.102338   0.068208   0.016429  -0.004149
     9  O    0.146652   0.102338   8.324312  -0.041776   0.005614   0.000348
    10  C    0.151645   0.068208  -0.041776   5.584206  -0.000540   0.006239
    11  O   -0.146200   0.016429   0.005614  -0.000540   8.283400  -0.243111
    12  C    0.071449  -0.004149   0.000348   0.006239  -0.243111   6.506350
    13  O    0.003322   0.001166  -0.000087  -0.005544  -0.040336   0.011129
    14  H   -0.100834   0.007770  -0.009464  -0.013219  -0.021974  -0.008850
    15  H   -0.001554   0.000090  -0.000005  -0.000277  -0.000196   0.044054
    16  H    0.000998  -0.000064   0.000004   0.000297   0.000990  -0.019017
    17  H   -0.069650   0.008670   0.000504  -0.016981  -0.038052  -0.070851
    18  H    0.002863  -0.000331   0.000030   0.001543  -0.000396  -0.021392
    19  H    0.000078   0.000033  -0.000147  -0.001698   0.010998   0.037716
    20  H    0.001703  -0.000144   0.000033   0.000440   0.000919   0.000622
    21  H   -0.000390   0.000018  -0.000015  -0.000178  -0.003388  -0.047727
    22  H    0.017285   0.002517  -0.001400   0.002948   0.004443   0.001699
    23  H   -0.039102  -0.014963   0.000643  -0.070913  -0.004527   0.003530
    24  H    0.483519  -0.004439  -0.077227   0.025057  -0.009340   0.020646
    25  H    0.351632   0.019589  -0.033268  -0.012324   0.009895  -0.005349
    26  H   -0.038913   0.474903  -0.041642  -0.047264  -0.000449   0.001384
    27  H    0.010625   0.432592  -0.072145  -0.047656   0.001077  -0.000401
    28  H    0.001767  -0.041505   0.007232   0.441810  -0.002064  -0.000365
    29  H    0.003887  -0.079245  -0.002978   0.490708  -0.000389   0.001518
    30  H   -0.001849   0.000445   0.000041  -0.000617  -0.013244   0.542843
    31  H    0.008557  -0.001077   0.000448   0.000378   0.001859   0.393427
              13         14         15         16         17         18
     1  C    0.017890   0.456083   0.000706   0.000227   0.129247  -0.001010
     2  C    0.000218   0.004177   0.476698   0.475084   0.052295  -0.010475
     3  C    0.279037  -0.020814  -0.006568   0.016405   0.522288   0.020969
     4  C    0.042780  -0.003275  -0.083702  -0.046446  -0.071370   0.422256
     5  C   -0.099555  -0.005049  -0.048233  -0.069853  -0.053734  -0.010459
     6  C   -0.043091   0.037519  -0.002006   0.002790  -0.027287   0.004957
     7  C    0.003322  -0.100834  -0.001554   0.000998  -0.069650   0.002863
     8  C    0.001166   0.007770   0.000090  -0.000064   0.008670  -0.000331
     9  O   -0.000087  -0.009464  -0.000005   0.000004   0.000504   0.000030
    10  C   -0.005544  -0.013219  -0.000277   0.000297  -0.016981   0.001543
    11  O   -0.040336  -0.021974  -0.000196   0.000990  -0.038052  -0.000396
    12  C    0.011129  -0.008850   0.044054  -0.019017  -0.070851  -0.021392
    13  O    8.293791   0.003674  -0.010334   0.011595  -0.116010  -0.069488
    14  H    0.003674   0.429469   0.000170  -0.000056  -0.004456  -0.000409
    15  H   -0.010334   0.000170   0.512715  -0.022858   0.005052  -0.012168
    16  H    0.011595  -0.000056  -0.022858   0.504327  -0.001084   0.000768
    17  H   -0.116010  -0.004456   0.005052  -0.001084   0.527737  -0.002044
    18  H   -0.069488  -0.000409  -0.012168   0.000768  -0.002044   0.476030
    19  H   -0.024910   0.000202   0.006199  -0.002278  -0.001132  -0.006583
    20  H    0.013957   0.000328  -0.015650   0.007343  -0.012016   0.000269
    21  H   -0.004760  -0.000065   0.000649  -0.006497   0.000999  -0.000528
    22  H   -0.001411  -0.008199  -0.000037   0.000190  -0.000108   0.000283
    23  H    0.000415   0.005869   0.000004  -0.000068  -0.000941  -0.000025
    24  H    0.003668  -0.001285  -0.000444   0.000114  -0.026570   0.000495
    25  H   -0.001215  -0.002010   0.000105  -0.000027   0.013536  -0.000195
    26  H   -0.000007  -0.000871   0.000002  -0.000006  -0.000092  -0.000014
    27  H    0.000013  -0.000631   0.000001   0.000001   0.000565   0.000003
    28  H   -0.000166   0.000229  -0.000010   0.000014  -0.000280   0.000063
    29  H   -0.000081  -0.006108  -0.000010  -0.000004  -0.000297  -0.000002
    30  H    0.000494  -0.000917  -0.003638   0.001499  -0.000252  -0.001164
    31  H    0.007747   0.000567   0.000163  -0.000103  -0.015857   0.001345
              19         20         21         22         23         24
     1  C    0.002819   0.001737  -0.000755  -0.031003  -0.019277  -0.165758
     2  C   -0.092831  -0.073955  -0.048953  -0.002119  -0.000074  -0.005866
     3  C   -0.038314  -0.040336   0.015606  -0.000642   0.001928   0.022658
     4  C    0.484473   0.006694   0.004344   0.002390  -0.000193   0.008490
     5  C    0.004969   0.457903   0.449419  -0.000171   0.000970   0.007569
     6  C   -0.005874   0.002625  -0.001606   0.400364   0.507957   0.039186
     7  C    0.000078   0.001703  -0.000390   0.017285  -0.039102   0.483519
     8  C    0.000033  -0.000144   0.000018   0.002517  -0.014963  -0.004439
     9  O   -0.000147   0.000033  -0.000015  -0.001400   0.000643  -0.077227
    10  C   -0.001698   0.000440  -0.000178   0.002948  -0.070913   0.025057
    11  O    0.010998   0.000919  -0.003388   0.004443  -0.004527  -0.009340
    12  C    0.037716   0.000622  -0.047727   0.001699   0.003530   0.020646
    13  O   -0.024910   0.013957  -0.004760  -0.001411   0.000415   0.003668
    14  H    0.000202   0.000328  -0.000065  -0.008199   0.005869  -0.001285
    15  H    0.006199  -0.015650   0.000649  -0.000037   0.000004  -0.000444
    16  H   -0.002278   0.007343  -0.006497   0.000190  -0.000068   0.000114
    17  H   -0.001132  -0.012016   0.000999  -0.000108  -0.000941  -0.026570
    18  H   -0.006583   0.000269  -0.000528   0.000283  -0.000025   0.000495
    19  H    0.488698   0.000398  -0.000949  -0.000386   0.000239  -0.000259
    20  H    0.000398   0.496189  -0.011926   0.000035   0.000045   0.001848
    21  H   -0.000949  -0.011926   0.477484  -0.000010   0.000026  -0.000007
    22  H   -0.000386   0.000035  -0.000010   0.485011  -0.016391  -0.000292
    23  H    0.000239   0.000045   0.000026  -0.016391   0.452100  -0.001045
    24  H   -0.000259   0.001848  -0.000007  -0.000292  -0.001045   0.508478
    25  H   -0.000118  -0.000242  -0.000069  -0.001170  -0.004801  -0.027847
    26  H    0.000047  -0.000008   0.000010  -0.000041  -0.004866  -0.004816
    27  H   -0.000045  -0.000001  -0.000003   0.000928  -0.001002   0.001884
    28  H   -0.000088   0.000015  -0.000003  -0.011134  -0.004567   0.002606
    29  H    0.000035   0.000006  -0.000003  -0.003683   0.002773  -0.001326
    30  H   -0.009406   0.006453  -0.004701   0.000591  -0.000405   0.001019
    31  H    0.000486   0.000358  -0.009630  -0.000102   0.000587  -0.000007
              25         26         27         28         29         30
     1  C    0.048449   0.047018   0.003328  -0.003889  -0.032814  -0.000577
     2  C    0.003072   0.000021   0.000096  -0.000154  -0.000166   0.011063
     3  C   -0.011142   0.001776  -0.001962  -0.001188   0.000250  -0.072795
     4  C   -0.005351  -0.000134  -0.000106   0.000509  -0.000095  -0.031189
     5  C   -0.008130   0.000077  -0.000157   0.000021   0.000039  -0.072122
     6  C   -0.029779  -0.031820   0.011596  -0.040951  -0.006356   0.002459
     7  C    0.351632  -0.038913   0.010625   0.001767   0.003887  -0.001849
     8  C    0.019589   0.474903   0.432592  -0.041505  -0.079245   0.000445
     9  O   -0.033268  -0.041642  -0.072145   0.007232  -0.002978   0.000041
    10  C   -0.012324  -0.047264  -0.047656   0.441810   0.490708  -0.000617
    11  O    0.009895  -0.000449   0.001077  -0.002064  -0.000389  -0.013244
    12  C   -0.005349   0.001384  -0.000401  -0.000365   0.001518   0.542843
    13  O   -0.001215  -0.000007   0.000013  -0.000166  -0.000081   0.000494
    14  H   -0.002010  -0.000871  -0.000631   0.000229  -0.006108  -0.000917
    15  H    0.000105   0.000002   0.000001  -0.000010  -0.000010  -0.003638
    16  H   -0.000027  -0.000006   0.000001   0.000014  -0.000004   0.001499
    17  H    0.013536  -0.000092   0.000565  -0.000280  -0.000297  -0.000252
    18  H   -0.000195  -0.000014   0.000003   0.000063  -0.000002  -0.001164
    19  H   -0.000118   0.000047  -0.000045  -0.000088   0.000035  -0.009406
    20  H   -0.000242  -0.000008  -0.000001   0.000015   0.000006   0.006453
    21  H   -0.000069   0.000010  -0.000003  -0.000003  -0.000003  -0.004701
    22  H   -0.001170  -0.000041   0.000928  -0.011134  -0.003683   0.000591
    23  H   -0.004801  -0.004866  -0.001002  -0.004567   0.002773  -0.000405
    24  H   -0.027847  -0.004816   0.001884   0.002606  -0.001326   0.001019
    25  H    0.489561   0.007643  -0.000593  -0.001899   0.001299   0.001670
    26  H    0.007643   0.492194  -0.004123   0.003513   0.001501   0.000070
    27  H   -0.000593  -0.004123   0.470414  -0.009162  -0.002746   0.000018
    28  H   -0.001899   0.003513  -0.009162   0.480791  -0.005738  -0.000024
    29  H    0.001299   0.001501  -0.002746  -0.005738   0.472248   0.000131
    30  H    0.001670   0.000070   0.000018  -0.000024   0.000131   0.454663
    31  H   -0.002861  -0.000059  -0.000045  -0.000016   0.000060  -0.012969
              31
     1  C   -0.015262
     2  C   -0.005192
     3  C   -0.024358
     4  C    0.015774
     5  C    0.005203
     6  C    0.003124
     7  C    0.008557
     8  C   -0.001077
     9  O    0.000448
    10  C    0.000378
    11  O    0.001859
    12  C    0.393427
    13  O    0.007747
    14  H    0.000567
    15  H    0.000163
    16  H   -0.000103
    17  H   -0.015857
    18  H    0.001345
    19  H    0.000486
    20  H    0.000358
    21  H   -0.009630
    22  H   -0.000102
    23  H    0.000587
    24  H   -0.000007
    25  H   -0.002861
    26  H   -0.000059
    27  H   -0.000045
    28  H   -0.000016
    29  H    0.000060
    30  H   -0.012969
    31  H    0.482242
 Mulliken charges:
               1
     1  C   -0.228830
     2  C   -0.495326
     3  C   -0.292047
     4  C   -0.040742
     5  C   -0.193166
     6  C   -0.204328
     7  C   -0.275307
     8  C   -0.184322
     9  O   -0.324590
    10  C   -0.358817
    11  O   -0.236629
    12  C   -0.269145
    13  O   -0.273901
    14  H    0.262427
    15  H    0.161080
    16  H    0.145714
    17  H    0.268169
    18  H    0.204807
    19  H    0.147629
    20  H    0.154358
    21  H    0.193606
    22  H    0.159616
    23  H    0.206071
    24  H    0.199289
    25  H    0.201939
    26  H    0.144964
    27  H    0.207638
    28  H    0.184633
    29  H    0.167587
    30  H    0.202408
    31  H    0.165214
 Sum of Mulliken charges =  -0.00000
 Mulliken charges with hydrogens summed into heavy atoms:
               1
     1  C    0.033598
     2  C   -0.188532
     3  C   -0.023878
     4  C    0.311694
     5  C    0.154799
     6  C    0.161359
     7  C    0.125921
     8  C    0.168279
     9  O   -0.324590
    10  C   -0.006597
    11  O   -0.236629
    12  C    0.098477
    13  O   -0.273901
 Electronic spatial extent (au):  <R**2>=           3369.3250
 Charge=              0.0000 electrons
 Dipole moment (field-independent basis, Debye):
    X=             -1.1406    Y=              0.3959    Z=              1.7116  Tot=              2.0946
 Quadrupole moment (field-independent basis, Debye-Ang):
   XX=            -70.3292   YY=            -77.9154   ZZ=            -84.1084
   XY=              4.9119   XZ=              2.9078   YZ=             -0.9068
 Traceless Quadrupole moment (field-independent basis, Debye-Ang):
   XX=              7.1218   YY=             -0.4644   ZZ=             -6.6574
   XY=              4.9119   XZ=              2.9078   YZ=             -0.9068
 Octapole moment (field-independent basis, Debye-Ang**2):
  XXX=             -1.7517  YYY=              1.6978  ZZZ=              0.8073  XYY=             -8.7102
  XXY=             22.5863  XXZ=             20.4954  XZZ=             -1.6686  YZZ=              0.4639
  YYZ=             -0.0828  XYZ=             -5.3556
 Hexadecapole moment (field-independent basis, Debye-Ang**3):
 XXXX=          -3491.2526 YYYY=           -540.6612 ZZZZ=           -277.7838 XXXY=             34.6912
 XXXZ=             33.8606 YYYX=             -8.9163 YYYZ=             -4.3206 ZZZX=              1.7770
 ZZZY=             -0.3869 XXYY=           -711.4777 XXZZ=           -665.4357 YYZZ=           -133.8081
 XXYZ=            -24.6927 YYXZ=             11.2568 ZZXY=              2.6491
 N-N= 8.800998349006D+02 E-N=-3.202063110193D+03  KE= 6.153447762046D+02
 D1PCM: PCM CHGder 1st derivatives, ID1Alg=3 FixD1E=F DoIter=F DoCFld=F I1PDM=0.
 Calling FoFJK, ICntrl=      2127 FMM=F ISym2X=0 I1Cent= 0 IOpClX= 0 NMat=1 NMatS=1 NMatT=0.
 ***** Axes restored to original set *****
 -------------------------------------------------------------------
 Center     Atomic                   Forces (Hartrees/Bohr)
 Number     Number              X              Y              Z
 -------------------------------------------------------------------
      1        6           0.000263294    0.002784982   -0.004064901
      2        6           0.001500312    0.000941794   -0.000343911
      3        6          -0.003830318   -0.005934987   -0.004343057
      4        6          -0.000516366    0.005576541   -0.001409371
      5        6           0.001987175   -0.002789610   -0.000827188
      6        6           0.001161380    0.000929873    0.004737437
      7        6           0.003630910   -0.006905242    0.000338291
      8        6          -0.006262209   -0.002941313    0.000317483
      9        8           0.002232056    0.004023541    0.008411268
     10        6          -0.000843197    0.001824738   -0.002017024
     11        8          -0.000386299    0.000536655   -0.011946817
     12        6          -0.000642979    0.000289340    0.003051264
     13        8           0.002138167   -0.000516889    0.010666713
     14        1          -0.000101279   -0.002499824    0.006232212
     15        1          -0.001353388   -0.000055366    0.002290976
     16        1          -0.001593215   -0.000766049   -0.002480354
     17        1           0.002041822    0.005885814    0.005930570
     18        1          -0.000813317   -0.003386143    0.002472632
     19        1           0.001424366   -0.001835214   -0.005600798
     20        1           0.000626467    0.001215590    0.002832924
     21        1          -0.001703947    0.001030959   -0.001513530
     22        1          -0.001755549   -0.002416506    0.000008881
     23        1          -0.000228075    0.002218067   -0.003264878
     24        1          -0.003365952    0.003039481    0.003019740
     25        1          -0.000835310    0.001330213   -0.006403917
     26        1           0.000715331    0.001525544   -0.005937653
     27        1           0.003717704   -0.000177947    0.002258520
     28        1           0.001550339   -0.001901832   -0.001724787
     29        1          -0.000301150   -0.000840311    0.003091595
     30        1           0.000803840   -0.002918984   -0.002854171
     31        1           0.000739390    0.002733086   -0.000928147
 -------------------------------------------------------------------
 Cartesian Forces:  Max     0.011946817 RMS     0.003366919

 GradGradGradGradGradGradGradGradGradGradGradGradGradGradGradGradGradGrad
 Berny optimization.
 FormGI is forming the generalized inverse of G from B-inverse, IUseBI=4.
 Internal  Forces:  Max     0.011509299 RMS     0.001986831
 Search for a local minimum.
 Step number   1 out of a maximum of  186
 All quantities printed in internal units (Hartrees-Bohrs-Radians)
 Mixed Optimization -- RFO/linear search
 Second derivative matrix not updated -- first step.
 ITU=  0
     Eigenvalues ---    0.00392   0.00655   0.00690   0.00729   0.01423
     Eigenvalues ---    0.01438   0.01693   0.02702   0.02788   0.03155
     Eigenvalues ---    0.03205   0.04087   0.04277   0.04652   0.04663
     Eigenvalues ---    0.04869   0.04883   0.05094   0.05105   0.05143
     Eigenvalues ---    0.05164   0.05633   0.05727   0.05924   0.06133
     Eigenvalues ---    0.06280   0.06497   0.06609   0.07676   0.07901
     Eigenvalues ---    0.07909   0.07919   0.07920   0.07998   0.08090
     Eigenvalues ---    0.09239   0.09303   0.09698   0.10861   0.11603
     Eigenvalues ---    0.11620   0.11699   0.11705   0.12488   0.12632
     Eigenvalues ---    0.14521   0.15856   0.16281   0.17339   0.19226
     Eigenvalues ---    0.20548   0.21167   0.22418   0.25000   0.27372
     Eigenvalues ---    0.27553   0.28287   0.28733   0.28819   0.29357
     Eigenvalues ---    0.29555   0.30080   0.35074   0.35083   0.35091
     Eigenvalues ---    0.35157   0.35236   0.35254   0.35293   0.35300
     Eigenvalues ---    0.35338   0.35371   0.35438   0.35451   0.35482
     Eigenvalues ---    0.35502   0.35831   0.35922   0.35937   0.36034
     Eigenvalues ---    0.40052   0.41450   0.42260   0.42858   0.42937
     Eigenvalues ---    0.456341000.000001000.000001000.000001000.00000
     Eigenvalues --- 1000.000001000.000001000.000001000.000001000.00000
     Eigenvalues --- 1000.000001000.000001000.000001000.000001000.00000
     Eigenvalues --- 1000.000001000.000001000.000001000.000001000.00000
     Eigenvalues --- 1000.000001000.000001000.000001000.000001000.00000
     Eigenvalues --- 1000.000001000.000001000.000001000.000001000.00000
     Eigenvalues --- 1000.000001000.000001000.000001000.000001000.00000
     Eigenvalues --- 1000.000001000.000001000.000001000.000001000.00000
     Eigenvalues --- 1000.000001000.000001000.000001000.000001000.00000
     Eigenvalues --- 1000.000001000.000001000.000001000.000001000.00000
     Eigenvalues --- 1000.000001000.000001000.000001000.000001000.00000
     Eigenvalues --- 1000.000001000.000001000.000001000.000001000.00000
     Eigenvalues --- 1000.000001000.000001000.000001000.000001000.00000
     Eigenvalues --- 1000.000001000.000001000.000001000.000001000.00000
     Eigenvalues --- 1000.000001000.000001000.000001000.000001000.00000
     Eigenvalues --- 1000.000001000.000001000.000001000.000001000.00000
     Eigenvalues --- 1000.000001000.000001000.000001000.000001000.00000
     Eigenvalues --- 1000.000001000.000001000.000001000.000001000.00000
     Eigenvalues --- 1000.000001000.000001000.000001000.000001000.00000
     Eigenvalues --- 1000.000001000.000001000.000001000.000001000.00000
 RFO step:  Lambda=-2.93034723D-03 EMin= 3.91616721D-03
 Linear search not attempted -- first point.
 Iteration  1 RMS(Cart)=  0.03521489 RMS(Int)=  0.00037205
 Iteration  2 RMS(Cart)=  0.00120796 RMS(Int)=  0.00005048
 Iteration  3 RMS(Cart)=  0.00000038 RMS(Int)=  0.00005048
 Iteration  1 RMS(Cart)=  0.00000475 RMS(Int)=  0.00000110
 Iteration  2 RMS(Cart)=  0.00000263 RMS(Int)=  0.00000123
 Iteration  3 RMS(Cart)=  0.00000145 RMS(Int)=  0.00000139
 Iteration  4 RMS(Cart)=  0.00000080 RMS(Int)=  0.00000150
 Variable       Old X    -DE/DX   Delta X   Delta X   Delta X     New X
                                 (Linear)    (Quad)   (Total)
    R1        2.87597  -0.00239   0.00000  -0.00775  -0.00777   2.86820
    R2        2.88738  -0.00039   0.00000  -0.00101  -0.00101   2.88637
    R3        2.67748   0.00201   0.00000   0.00465   0.00465   2.68213
    R4        2.04969   0.00664   0.00000   0.01859   0.01859   2.06829
    R5        2.89123   0.00097   0.00000   0.00279   0.00282   2.89405
    R6        2.90933  -0.00049   0.00000  -0.00279  -0.00274   2.90659
    R7        2.05077   0.00265   0.00000   0.00744   0.00744   2.05820
    R8        2.05265   0.00301   0.00000   0.00848   0.00848   2.06113
    R9        2.64546   0.00296   0.00000   0.00645   0.00645   2.65191
   R10        2.87974  -0.00112   0.00000  -0.00248  -0.00249   2.87725
   R11        2.65559   0.00317   0.00000   0.00810   0.00807   2.66366
   R12        2.04029   0.00858   0.00000   0.02361   0.02361   2.06390
   R13        2.68159   0.00325   0.00000   0.00741   0.00737   2.68896
   R14        2.04203   0.00427   0.00000   0.01178   0.01178   2.05381
   R15        2.04868   0.00602   0.00000   0.01682   0.01682   2.06550
   R16        2.88608  -0.00046   0.00000  -0.00248  -0.00248   2.88360
   R17        2.05293   0.00306   0.00000   0.00861   0.00861   2.06155
   R18        2.04948   0.00250   0.00000   0.00699   0.00699   2.05648
   R19        2.89172  -0.00068   0.00000  -0.00221  -0.00223   2.88948
   R20        2.05130   0.00293   0.00000   0.00823   0.00823   2.05953
   R21        2.05527   0.00380   0.00000   0.01075   0.01075   2.06602
   R22        2.66688   0.00306   0.00000   0.00688   0.00690   2.67378
   R23        2.04180   0.00540   0.00000   0.01489   0.01489   2.05669
   R24        2.05554   0.00627   0.00000   0.01772   0.01772   2.07326
   R25        2.67636   0.00344   0.00000   0.00788   0.00790   2.68427
   R26        2.87220   0.00054   0.00000   0.00149   0.00149   2.87369
   R27        2.05540   0.00605   0.00000   0.01710   0.01710   2.07250
   R28        2.04347   0.00435   0.00000   0.01205   0.01205   2.05552
   R29        2.05191   0.00298   0.00000   0.00836   0.00836   2.06027
   R30        2.05421   0.00314   0.00000   0.00887   0.00887   2.06308
   R31        2.05202   0.00397   0.00000   0.01114   0.01114   2.06317
   R32        2.04899   0.00297   0.00000   0.00830   0.00830   2.05729
    A1        1.91061   0.00034   0.00000  -0.00156  -0.00160   1.90901
    A2        1.88943  -0.00069   0.00000  -0.00036  -0.00035   1.88908
    A3        1.91764  -0.00000   0.00000  -0.00263  -0.00262   1.91501
    A4        1.92390   0.00035   0.00000   0.00127   0.00129   1.92519
    A5        1.90879  -0.00031   0.00000  -0.00276  -0.00277   1.90602
    A6        1.91340   0.00031   0.00000   0.00605   0.00604   1.91945
    A7        1.92526  -0.00010   0.00000  -0.00861  -0.00877   1.91650
    A8        1.92244  -0.00053   0.00000   0.00036   0.00040   1.92284
    A9        1.89346   0.00074   0.00000   0.00503   0.00506   1.89853
   A10        1.92086   0.00086   0.00000   0.00252   0.00257   1.92343
   A11        1.93108  -0.00108   0.00000  -0.00228  -0.00224   1.92884
   A12        1.86983   0.00009   0.00000   0.00337   0.00334   1.87317
   A13        1.89263  -0.00272   0.00000  -0.01206  -0.01207   1.88057
   A14        1.93126   0.00064   0.00000   0.00398   0.00412   1.93538
   A15        1.91921   0.00130   0.00000   0.00735   0.00732   1.92653
   A16        1.95440   0.00267   0.00000   0.00830   0.00816   1.96256
   A17        1.93614  -0.00015   0.00000  -0.00000   0.00009   1.93623
   A18        1.83005  -0.00162   0.00000  -0.00692  -0.00694   1.82312
   A19        1.92731   0.00135   0.00000   0.00155   0.00132   1.92863
   A20        1.95046  -0.00038   0.00000  -0.00330  -0.00322   1.94724
   A21        1.94040  -0.00092   0.00000  -0.00316  -0.00315   1.93725
   A22        1.85388  -0.00110   0.00000  -0.00068  -0.00063   1.85325
   A23        1.90760   0.00069   0.00000   0.00496   0.00506   1.91266
   A24        1.88144   0.00036   0.00000   0.00092   0.00089   1.88233
   A25        1.92139  -0.00081   0.00000  -0.00730  -0.00753   1.91386
   A26        1.91814   0.00061   0.00000   0.00136   0.00141   1.91955
   A27        1.93154  -0.00019   0.00000   0.00062   0.00068   1.93222
   A28        1.90339   0.00038   0.00000  -0.00074  -0.00068   1.90271
   A29        1.92514  -0.00003   0.00000   0.00153   0.00159   1.92672
   A30        1.86325   0.00008   0.00000   0.00492   0.00488   1.86814
   A31        1.92270   0.00103   0.00000  -0.00348  -0.00352   1.91918
   A32        1.91839  -0.00041   0.00000  -0.00209  -0.00206   1.91633
   A33        1.89444  -0.00110   0.00000  -0.00781  -0.00781   1.88663
   A34        1.93398   0.00018   0.00000   0.00587   0.00588   1.93986
   A35        1.91655  -0.00011   0.00000   0.00333   0.00330   1.91985
   A36        1.87684   0.00036   0.00000   0.00408   0.00404   1.88089
   A37        1.92797   0.00171   0.00000   0.00920   0.00923   1.93720
   A38        1.95346  -0.00064   0.00000  -0.00760  -0.00766   1.94580
   A39        1.91096  -0.00244   0.00000  -0.01611  -0.01619   1.89477
   A40        1.85869  -0.00076   0.00000   0.00173   0.00175   1.86044
   A41        1.91701   0.00144   0.00000   0.01256   0.01262   1.92963
   A42        1.89483   0.00080   0.00000   0.00111   0.00095   1.89579
   A43        1.93530   0.00185   0.00000   0.00901   0.00901   1.94431
   A44        1.90151   0.00076   0.00000   0.00689   0.00693   1.90843
   A45        1.85569  -0.00124   0.00000  -0.00389  -0.00389   1.85180
   A46        1.93110  -0.00157   0.00000  -0.00983  -0.00985   1.92124
   A47        1.94566  -0.00034   0.00000  -0.00312  -0.00313   1.94253
   A48        1.89230   0.00058   0.00000   0.00133   0.00129   1.89360
   A49        1.97867  -0.00459   0.00000  -0.02854  -0.02844   1.95023
   A50        1.92864  -0.00078   0.00000  -0.00549  -0.00555   1.92309
   A51        1.92730  -0.00049   0.00000  -0.00053  -0.00052   1.92678
   A52        1.91884   0.00082   0.00000   0.00127   0.00128   1.92012
   A53        1.90893   0.00078   0.00000   0.00489   0.00492   1.91386
   A54        1.90441  -0.00031   0.00000  -0.00292  -0.00293   1.90148
   A55        1.87479   0.00000   0.00000   0.00302   0.00301   1.87780
   A56        2.04393  -0.01151   0.00000  -0.04550  -0.04550   1.99843
   A57        1.91662   0.00022   0.00000  -0.00575  -0.00586   1.91076
   A58        1.90739  -0.00050   0.00000  -0.00912  -0.00909   1.89829
   A59        1.89599  -0.00025   0.00000   0.00360   0.00364   1.89963
   A60        1.92111   0.00009   0.00000   0.00308   0.00298   1.92409
   A61        1.94923   0.00025   0.00000   0.00483   0.00492   1.95415
   A62        1.87255   0.00016   0.00000   0.00326   0.00324   1.87579
   A63        2.00805  -0.00550   0.00000  -0.03450  -0.03460   1.97344
    D1        0.92857  -0.00047   0.00000   0.00307   0.00307   0.93164
    D2        3.06452   0.00016   0.00000   0.00675   0.00674   3.07126
    D3       -1.17040  -0.00028   0.00000   0.00594   0.00594  -1.16447
    D4        3.02626  -0.00027   0.00000   0.00348   0.00348   3.02974
    D5       -1.12098   0.00037   0.00000   0.00716   0.00716  -1.11382
    D6        0.92728  -0.00007   0.00000   0.00635   0.00635   0.93363
    D7       -1.16785  -0.00030   0.00000   0.00907   0.00907  -1.15879
    D8        0.96809   0.00033   0.00000   0.01275   0.01274   0.98084
    D9        3.01636  -0.00011   0.00000   0.01194   0.01194   3.02829
   D10       -1.00038  -0.00112   0.00000  -0.01502  -0.01502  -1.01541
[...]
 9887,0.00063430,0.00000443,0.00000187,-0.00000292,0.00000565,-0.000000
 73,0.00000363,-0.00006366,0.00012951,0.00004036,0.00001192,0.00001181,
 0.00000032,0.00000677,-0.00000270,0.00000585,-0.00000147,-0.00000006,-
 0.00000477,0.00001708,0.00000001,-0.00000472,0.00005308,0.00004392,0.0
 0016252,-0.00044381,0.00025946,0.00025705,0.00416557,0.00732930,-0.014
 53558,-0.03512930,-0.09991705,0.27335307,-0.00034836,0.00015455,-0.000
 24297,0.00000086,0.00000009,-0.00000010,0.00005100,-0.00001819,-0.0000
 4661,0.00000331,0.00000291,0.00000148,-0.00000075,0.00000261,-0.000001
 70,0.00061244,0.00028644,0.00125952,0.00266580,-0.00205227,0.00447320,
 -0.05982404,-0.01852913,0.02694759,-0.01164816,0.00048249,0.02591985,-
 0.00142303,-0.00815900,0.01141830,-0.00022060,-0.00011805,-0.00016256,
 -0.00000603,0.00000169,0.00000300,-0.00000760,-0.00000918,0.00000707,0
 .00006984,0.00011454,-0.00006416,-0.00000034,-0.00000003,0.00000019,-0
 .00000036,0.00000006,-0.00000023,0.00000754,0.00000414,0.00000432,-0.0
 0000028,-0.00000050,0.00000040,0.00000008,-0.00000021,0.00000042,-0.00
 000012,0.,0.00000029,-0.00000159,-0.00000004,0.00000037,0.00016069,0.0
 0011836,-0.00019713,-0.00010203,-0.00005875,-0.00023516,0.00011816,0.0
 0011410,-0.00026451,0.00031173,0.00023669,-0.00085337,0.06269964,0.000
 23052,-0.00041380,0.00014744,-0.00000031,-0.00000029,-0.00000082,-0.00
 001753,0.00001722,-0.00002279,0.00000294,0.00000403,0.00000114,-0.0000
 0123,0.00000122,-0.00000356,0.00124520,0.00123236,0.00066816,-0.002503
 47,0.00157457,-0.00304426,-0.01897024,-0.10236974,0.10264914,0.0119662
 1,0.00654239,-0.02497166,-0.00502918,-0.01565185,0.02801433,-0.0000101
 5,0.00022860,0.00013705,-0.00000861,0.00000226,0.00001138,-0.00000593,
 -0.00000303,0.00000290,0.00006078,-0.00011461,0.00000729,-0.00000023,-
 0.00000012,0.00000017,-0.00000036,0.00000007,-0.00000027,-0.00000972,0
 .00000338,0.00000382,-0.00000038,-0.00000020,-0.00000047,0.00000023,-0
 .00000153,0.00000059,0.00000015,-0.00000010,0.00000028,-0.00000179,0.0
 0000005,0.00000053,0.00025724,0.00008624,-0.00040349,-0.00050675,0.000
 29581,-0.00063311,-0.00017605,-0.00002791,-0.00001109,-0.00080332,-0.0
 0017677,0.00086653,0.01750916,0.11286227,-0.00018494,-0.00055750,0.000
 02686,-0.00000038,0.00000263,0.00000327,-0.00027733,0.00003772,0.00023
 072,-0.00004002,-0.00003510,-0.00002715,0.00000332,-0.00001015,0.00002
 055,0.00028067,-0.00045381,0.00071189,-0.00364621,0.00087462,0.0004930
 9,0.03071686,0.10059525,-0.23521213,0.01565830,-0.00392951,-0.02472044
 ,-0.00225218,-0.00145095,0.00423834,0.00065144,0.00010088,0.00007095,0
 .00002662,0.00000835,-0.00003211,0.00012384,0.00008082,-0.00006060,-0.
 00007522,0.00008482,-0.00012912,0.00000370,0.00000176,-0.00000257,0.00
 000586,-0.00000050,0.00000282,-0.00001582,-0.00000158,-0.00000751,0.00
 000657,0.00000779,-0.00000069,0.00000126,-0.00000179,0.00000520,0.,0.0
 0000002,-0.00000294,0.00001286,-0.00000032,-0.00000323,0.00011433,0.00
 005703,0.00012229,0.00057036,0.00003908,0.00002448,0.00009851,-0.00032
 750,0.00044409,0.00124998,-0.00019442,0.00086917,-0.04439147,-0.102849
 00,0.26448783,0.00072503,0.00049088,0.00000045,0.00000054,-0.00000401,
 -0.00000479,0.00035084,0.00002395,-0.00024052,0.00005778,0.00004493,0.
 00003709,-0.00000267,0.00001196,-0.00002689,0.00049794,-0.00255294,0.0
 0016611,0.00076936,0.00145153,0.00428921,-0.24135045,0.01179345,-0.117
 46385,-0.02534992,0.00825099,-0.00752870,-0.00935377,-0.00024355,-0.00
 715328,-0.00059740,-0.00006888,-0.00008236,-0.00003053,-0.00002144,0.0
 0003645,-0.00016794,-0.00012311,0.00007122,-0.00003378,-0.00001926,0.0
 0000970,-0.00000550,-0.00000226,0.00000365,-0.00000761,0.00000065,-0.0
 0000371,0.00001019,-0.00002322,-0.00001303,-0.00001141,-0.00001158,0.0
 0000062,-0.00000201,0.00000113,-0.00000594,0.00000061,0.00000059,0.000
 00416,-0.00001726,0.00000015,0.00000398,-0.00062639,0.00019238,-0.0003
 2097,0.00000937,0.00009157,-0.00010708,-0.00112431,0.00012244,-0.00048
 237,0.00005447,0.00003885,-0.00026707,0.00653619,-0.00047306,0.0018435
 6,0.26927240,0.00055906,-0.00107505,-0.00033452,-0.00000095,-0.0000007
 3,0.00000007,-0.00001307,0.00000022,-0.00006764,0.00000065,0.00000573,
 -0.00000743,-0.00000573,0.00000282,-0.00000508,-0.00142498,-0.00607951
 ,0.00016295,0.00120563,-0.00179680,-0.00341790,0.00776819,-0.04972151,
 0.00730362,0.02522095,-0.00549501,0.00953378,-0.02722819,0.00339289,-0
 .01635741,-0.00000054,0.00046896,0.00021121,-0.00001952,0.00001428,0.0
 0002807,0.00000428,0.00001645,0.00000853,-0.00004309,0.00009942,0.0000
 4604,-0.00000021,0.00000020,-0.00000002,0.00000015,0.00000010,0.000000
 09,-0.00005068,0.00003104,0.00004265,0.00000146,0.00000117,0.00000120,
 0.00000176,-0.00000089,0.00000157,-0.00000029,0.,0.00000004,-0.0000021
 7,-0.00000028,0.00000096,-0.00190530,0.00018525,-0.00066603,0.00017387
 ,0.00005403,-0.00010822,0.00130184,0.00000823,0.00024024,-0.00024665,0
 .00004532,-0.00012981,0.01205793,0.00002964,0.00809489,-0.01900970,0.0
 5754450,0.00019487,-0.00058935,-0.00021492,-0.00000074,0.00000004,0.00
 000015,-0.00001570,-0.00000256,-0.00001729,-0.00000344,0.00000208,-0.0
 0000412,-0.00000291,0.00000065,-0.00000272,0.00005246,-0.00158795,0.00
 094771,0.00202955,-0.00159037,-0.00175303,-0.12818155,0.01160677,-0.12
 954845,0.02305954,-0.00467267,0.01075171,-0.00203780,0.00174672,-0.001
 65271,0.00004623,0.00027720,0.00016475,-0.00000784,0.00000660,0.000013
 08,0.00000755,0.00001491,-0.00000316,-0.00000667,0.00001642,0.00001396
 ,0.00000004,-0.00000003,-0.00000001,0.00000013,0.00000003,0.00000007,-
 0.00002157,0.00001322,0.00002229,0.00000153,0.00000089,-0.00000033,0.0
 0000015,-0.00000046,0.00000091,-0.00000035,0.00000010,-0.00000021,-0.0
 0000054,-0.00000010,0.00000032,-0.00060651,0.00008762,0.00008964,0.000
 41840,-0.00004224,0.00030407,0.00072043,-0.00023984,0.00049502,0.00017
 924,-0.00022911,0.00045648,-0.02319065,0.00099012,-0.01284393,0.127015
 97,-0.00522229,0.13205449,-0.00238103,-0.00219897,-0.00489087,0.000005
 23,-0.00000642,-0.00000994,0.00055698,0.00017409,-0.00116954,0.0001152
 7,0.00011387,0.00006826,-0.00003761,0.00005604,-0.00010952,-0.01851710
 ,0.01770311,0.01802766,-0.00090745,-0.00059239,-0.00040722,0.00897158,
 -0.00543717,-0.00824635,0.00086884,-0.00451188,-0.00123959,-0.14238190
 ,0.08812294,0.09376595,-0.00273127,0.00196623,0.00121363,-0.00020016,0
 .00000472,0.00025792,-0.00029903,-0.00026987,0.00021247,0.00013494,-0.
 00024419,-0.00002658,-0.00001161,-0.00000741,0.00000837,-0.00001654,0.
 00000034,-0.00000826,-0.00005251,0.00005069,0.00008573,-0.00001904,-0.
 00002340,0.00000204,-0.00000523,0.00000042,-0.00001207,0.00000170,0.00
 000095,0.00000947,-0.00005697,-0.00000326,0.00001807,0.00104773,-0.000
 65614,0.00050656,0.00140683,-0.00008264,-0.00011295,0.00018359,0.00010
 674,0.00014067,0.00017334,0.00005153,0.00001246,0.00045682,0.00059502,
 0.00034691,0.00009837,0.00102265,-0.00002254,0.15559410,-0.00048940,0.
 00109101,0.00056064,-0.00000106,0.00000205,0.00000170,-0.00018953,-0.0
 0001784,0.00015973,-0.00003049,-0.00002269,-0.00001787,0.00000160,-0.0
 0000789,0.00001704,0.00122876,-0.00146154,-0.00008881,-0.00193118,0.00
 071870,-0.00070196,0.02059917,-0.01195047,-0.01626660,-0.00093790,-0.0
 0865769,-0.00243837,0.08726571,-0.13098950,-0.08483287,0.00030928,0.00
 010945,-0.00021528,0.00001383,0.00000855,-0.00002933,0.00008430,0.0000
 6062,-0.00004031,0.00010571,-0.00012789,-0.00023779,0.00000295,0.00000
 095,-0.00000178,0.00000420,-0.00000035,0.00000184,-0.00000520,0.000004
 29,-0.00000507,0.00000567,0.00000582,-0.00000023,0.00000098,-0.0000001
 5,0.00000334,-0.00000080,0.00000002,-0.00000225,0.00000932,0.00000028,
 -0.00000286,0.00013606,0.00030542,0.00040653,0.00003940,0.00002095,-0.
 00008924,0.00023467,-0.00000959,0.00008111,0.00017734,-0.00002699,0.00
 016256,0.00019115,0.00094026,0.00091795,-0.00041933,0.00086968,-0.0000
 9791,-0.09681343,0.14005647,-0.00225506,-0.00055317,-0.00143212,0.0000
 0233,0.00000141,-0.00000144,-0.00004542,0.00009331,-0.00031044,0.00002
 035,0.00001686,0.00001043,-0.00001606,0.00001424,-0.00003000,-0.010485
 39,0.01064075,0.00930920,-0.00058969,0.00012928,-0.00043543,0.00262442
 ,0.00012421,-0.00377309,-0.00014210,-0.00221604,0.00110528,0.09449305,
 -0.08689245,-0.13785145,-0.00099399,0.00057175,0.00060042,-0.00006556,
 0.00000805,0.00007468,-0.00003450,-0.00005321,0.00004473,-0.00013293,0
 .00011489,0.00032933,-0.00000210,-0.00000183,0.00000159,-0.00000236,-0
 .00000043,-0.00000139,-0.00000425,0.00001348,0.00002065,-0.00000352,-0
 .00000438,0.00000037,-0.00000149,0.00000021,-0.00000243,0.00000097,0.0
 0000025,0.00000163,-0.00001551,-0.00000131,0.00000499,0.00088599,-0.00
 024427,0.00032627,0.00079733,0.00006963,0.00074240,0.00008316,-0.00000
 221,0.00000514,0.00015475,-0.00002640,0.00004298,-0.00024199,-0.000260
 24,0.00027915,-0.00016846,0.00009695,0.00002089,-0.09991818,0.09453428
 ,0.14669722,0.00143010,-0.00003621,-0.00114720,0.00000004,-0.00000073,
 0.00000024,0.00005369,-0.00006278,0.00004485,0.00000717,0.00000511,0.0
 0000516,0.00000217,-0.00000081,-0.00000051,0.00184583,0.01427312,-0.02
 855019,-0.00054268,0.00009555,-0.00028730,-0.00363706,-0.00729365,0.01
 503311,0.00101959,0.00122813,-0.00100725,-0.05040740,-0.00992000,0.021
 56039,-0.00021496,-0.00016877,0.00034563,0.00001634,-0.00000164,-0.000
 00563,-0.00003917,-0.00002382,0.00004781,-0.00023940,-0.00001476,0.000
 44813,-0.00000067,-0.00000002,0.00000031,-0.00000056,0.00000009,-0.000
 00043,-0.00001224,0.00001144,0.00001445,-0.00000196,-0.00000155,0.0000
 0034,-0.00000003,0.00000195,-0.00000131,0.00000009,-0.00000007,0.00000
 034,-0.00000128,-0.00000012,-0.00000016,0.00132755,-0.00047887,0.00063
 109,-0.00528726,0.00104356,-0.00227356,0.00009073,0.00006895,0.0000223
 0,-0.00012903,-0.00006443,0.00013989,-0.00010879,-0.00335016,-0.000835
 94,0.00030700,0.00062541,0.00036786,-0.00200341,-0.00959526,0.01605419
 ,0.05652782,-0.00017246,-0.00016746,0.00069161,-0.00000089,-0.00000075
 ,-0.00000154,0.00002978,-0.00003290,-0.00000230,0.00000278,0.00000769,
 0.00000461,0.00000005,-0.00000026,0.00000078,-0.00018277,-0.00135806,0
 .00136525,0.00001928,-0.00015107,-0.00005403,-0.00497948,-0.01690942,0
 .02866966,0.00056161,0.00327183,-0.00034316,-0.00857530,-0.10197903,0.
 10364657,0.00008944,0.00006202,-0.00015974,-0.00000087,-0.00000040,-0.
 00000035,-0.00001560,0.00000378,-0.00000630,0.00023892,-0.00008874,-0.
 00004792,0.00000010,0.00000002,0.00000015,-0.00000092,0.00000034,-0.00
 000035,0.00000222,-0.00000127,0.00000129,0.00000035,-0.00000025,-0.000
 00013,0.00000006,-0.00000027,-0.00000123,-0.00000009,-0.00000024,-0.00
 000007,-0.00000001,0.00000040,-0.00000057,0.00033279,0.00038054,-0.000
 29048,0.00008987,0.00089991,0.00010254,0.00002921,-0.00000551,-0.00002
 117,-0.00011384,0.00009742,-0.00000067,-0.00233359,-0.00505989,-0.0010
 8584,0.00044856,0.00140340,-0.00048408,0.00087161,0.00908112,-0.016174
 28,0.01366033,0.11054640,0.00093196,-0.00043329,-0.00007740,-0.0000001
 0,-0.00000217,-0.00000267,0.00013093,0.00003628,-0.00013774,0.00002224
 ,0.00002291,0.00001515,-0.00000446,0.00000669,-0.00001541,0.00017732,0
 .00586290,-0.01333011,0.00010194,-0.00006099,0.00013710,0.00005379,-0.
 00361697,0.00388744,-0.00121974,0.00093218,0.00125469,0.02216556,0.105
 50167,-0.25435452,-0.00031611,-0.00009326,0.00039932,-0.00001983,-0.00
 000167,0.00002713,-0.00007858,-0.00006221,0.00004137,-0.00025005,0.000
 35605,0.00051582,-0.00000261,-0.00000115,0.00000183,-0.00000341,0.0000
 0057,-0.00000175,-0.00000919,0.00000901,0.00001551,-0.00000526,-0.0000
 0549,0.00000134,-0.00000031,0.00000117,-0.00000314,0.00000045,0.000000
 35,0.00000184,-0.00000895,-0.00000040,0.00000238,0.00006444,-0.0003260
 6,0.00040584,-0.00291247,0.00018843,0.00011356,0.00000690,0.00008893,0
 .00000463,0.00004549,-0.00005912,-0.00016148,-0.00014577,-0.00129874,0
 .00101327,0.00038792,0.00054042,0.00070456,0.00149578,0.00821994,-0.01
 577772,-0.02060481,-0.11580874,0.27532094,0.00009250,-0.00010925,-0.00
 013210,0.00152714,0.00104153,-0.00042659,-0.00376554,-0.01646870,-0.02
 116524,0.00042277,-0.00063179,-0.00021709,-0.00134006,0.01757044,0.027
 46130,0.00004703,0.00001641,0.00011982,0.00004376,-0.00014217,-0.00006
 609,-0.00001796,-0.00001893,-0.00002403,-0.00002537,0.00008532,0.00007
 933,0.00002355,-0.00002653,-0.00002397,0.00185677,-0.00073929,-0.00017
 614,-0.04589295,0.00273415,0.00377223,0.00036329,0.00132678,0.00030939
 ,0.00006118,-0.00004358,0.00012177,0.00009750,0.00016500,-0.00029858,-
 0.00002893,-0.00019337,-0.00034529,-0.00316377,0.00223347,-0.00231346,
 0.00000348,0.00005778,-0.00002059,0.00032146,-0.00000847,0.00026702,-0
 .00550736,-0.00094523,0.00295861,0.00121014,0.00022999,-0.00096581,-0.
 00000441,0.00000795,0.00000376,-0.00001965,0.00001894,0.00000950,0.000
 03964,0.00012338,0.00005636,-0.00002512,0.00000703,0.00002802,-0.00000
 109,0.00000081,0.00000106,-0.00000574,0.00000822,0.00000546,0.00001476
 ,0.00000024,0.00000389,0.00000006,-0.00000081,-0.00000007,0.05407504,0
 .00002283,0.00019837,0.00032087,0.00053128,0.00059436,0.00079588,-0.00
 010232,0.00569914,0.00881358,-0.00004498,-0.00081441,0.00075433,0.0002
 6544,0.00159887,0.00300775,-0.00006873,-0.00000581,-0.00010319,0.00007
 623,-0.00000882,0.00004679,0.00001308,0.00000913,-0.00000048,-0.000002
 52,-0.00001266,-0.00002996,-0.00001857,0.00002085,0.00003091,-0.000843
 83,0.00051568,0.00034502,0.00169377,-0.13206389,-0.12223045,0.00015866
 ,-0.00046614,-0.00050276,0.00002704,-0.00000235,-0.00001328,0.00004168
 ,0.00006053,-0.00014320,0.00006369,0.00021035,-0.00052882,0.00112476,0
 .00036035,0.00055618,-0.00004889,0.00017695,0.00010901,-0.00009254,-0.
 00088192,0.00084193,-0.00058632,0.00093495,0.00089095,0.00033935,-0.00
 002137,-0.00019130,0.00000159,-0.00000400,-0.00000278,0.00000576,-0.00
 001217,-0.00000093,0.00000809,-0.00003623,-0.00000451,-0.00000297,0.00
 000631,-0.00000773,0.00000028,-0.00000088,0.00000127,-0.00000006,-0.00
 000343,-0.00000285,-0.00001516,0.00000181,-0.00000457,-0.00000011,0.00
 000044,-0.00000094,-0.00313632,0.14025692,0.00004149,0.00023736,0.0003
 0548,0.00013374,-0.00032704,0.00052564,-0.00090484,-0.01494706,-0.0191
 3945,-0.00020673,-0.00093600,-0.00088878,0.00171284,-0.00706370,-0.012
 02872,-0.00003073,0.00000386,0.00001397,0.00013510,-0.00024438,0.00000
 499,-0.00002130,-0.00000278,-0.00000595,0.00004923,0.00010902,0.000052
 94,-0.00000310,-0.00000606,-0.00001382,0.00298997,-0.00003805,0.001786
 25,0.00033700,-0.11962586,-0.22779691,-0.00031256,0.00205650,0.0000641
 7,0.00018082,-0.00007165,0.00008096,-0.00011101,0.00003980,0.00018439,
 0.00025221,0.00037365,-0.00030443,-0.00222184,0.00174644,-0.00134803,-
 0.00001579,0.00016879,0.00037076,-0.00032515,0.00069167,0.00036409,0.0
 0258479,0.00024976,-0.00002521,0.00009383,0.00019925,0.00057382,-0.000
 00169,0.00000058,-0.00000568,-0.00000728,0.00000175,-0.00000713,0.0000
 0932,0.00009869,0.00006127,-0.00002240,0.00001802,0.00001462,0.0000016
 8,-0.00000054,-0.00000161,-0.00000138,0.00000460,0.00000178,0.00000734
 ,0.00000139,-0.00000036,-0.00000179,0.00000054,-0.00000048,-0.00382562
 ,0.13273813,0.24909694,-0.00017141,-0.00051267,0.00026473,-0.00513251,
 0.00099467,0.00391626,0.00555037,0.02312260,-0.00410120,-0.00169746,-0
 .00006102,-0.00036963,-0.00486720,-0.03005492,0.00577085,-0.00001794,-
 0.00001549,-0.00002822,-0.00004416,0.00015578,-0.00001234,0.00002106,-
 0.00000647,-0.00001021,-0.00008863,-0.00006115,-0.00002826,0.00000497,
 0.00001676,0.00001203,-0.00062802,-0.00057928,-0.00027268,-0.05706168,
 -0.04960032,0.01346056,-0.00141361,0.00325584,-0.00431429,0.00006706,0
 .00001596,-0.00001574,-0.00046935,-0.00184279,0.00043236,-0.00006558,-
 0.00021722,-0.00013947,0.00102267,-0.00016390,0.00023485,0.00018586,0.
 00000323,0.00004302,0.00017964,0.00011396,-0.00013029,0.00129989,0.000
 60125,-0.00018188,0.00113639,0.00021526,-0.00095481,0.00000214,0.00000
 468,0.00000526,0.00000023,0.00000074,0.00000146,0.00001773,-0.00002111
 ,-0.00001913,0.00000234,-0.00000829,0.00001995,-0.00000092,0.00000020,
 0.00000349,-0.00000339,-0.00000096,-0.00000060,-0.00000923,0.00000324,
 -0.00000188,-0.00000229,-0.00000032,-0.00000299,-0.00040213,0.00058978
 ,-0.00051613,0.06258516,0.00003439,0.00021895,-0.00019308,0.00018324,0
 .00119193,0.00037136,-0.00482159,-0.00914278,0.00003813,0.00026557,0.0
 0064520,-0.00015986,0.00019571,0.00078324,-0.00054470,0.00006497,0.000
 02113,0.00006541,0.00004844,-0.00010302,0.00007989,-0.00002627,0.00000
 770,0.00003009,0.00010399,0.00004090,0.00000556,0.00000255,-0.00002520
 ,-0.00004093,0.00131186,0.00028183,0.00023805,-0.04843871,-0.29401727,
 0.06667916,0.00101066,-0.00014241,0.00120040,-0.00001524,0.00000055,-0
 .00000744,0.00000386,-0.00022186,-0.00000784,-0.00001194,0.00009346,-0
 .00008875,0.00014935,0.00118662,-0.00015224,-0.00002724,-0.00001248,0.
 00016343,-0.00014725,0.00016300,0.00011778,-0.00036064,0.00026279,0.00
 031692,-0.00048289,0.00028913,0.00001537,-0.00000521,-0.00000476,-0.00
 000419,0.00000239,-0.00000069,-0.00000903,0.00002706,-0.00002337,-0.00
 000316,0.00001239,0.00000495,-0.00001122,0.00000178,0.00000034,-0.0000
 0691,0.00000837,-0.00000012,-0.00000158,0.00002137,-0.00000488,0.00000
 522,0.00000013,0.00000022,0.00000371,-0.00316301,-0.01631092,0.0045233
 4,0.05405192,0.31481784,-0.00008693,0.00004724,0.00010423,0.00227607,-
 0.00050200,-0.00040185,0.00566815,0.01960825,-0.00644288,-0.00061974,-
 0.00164357,-0.00061098,0.00203066,0.01325642,-0.00389384,-0.00004667,-
 0.00000883,-0.00001743,-0.00000697,-0.00000019,0.00001459,0.00000333,0
 .00000582,0.00000314,0.00001847,-0.00000820,-0.00000487,-0.00000159,0.
 00001353,0.00000938,-0.00021064,-0.00043256,-0.00006973,0.01235937,0.0
 6332264,-0.06435100,-0.00305769,0.00370584,-0.00387091,0.00003710,0.00
 000720,0.00001740,0.00015178,0.00066271,0.00003718,0.00022170,0.000264
 71,-0.00011362,0.00070475,-0.00009834,0.00045934,0.00002168,0.00014327
 ,0.00020342,-0.00012861,0.00016222,0.00035228,-0.00068874,0.00005779,0
 .00025600,-0.00035639,-0.00044148,0.00051630,0.00000159,-0.00000001,-0
 .00000144,-0.00000005,0.00000003,0.00000145,-0.00002299,-0.00001090,-0
 .00000381,-0.00000101,-0.00000196,-0.00000373,0.00000069,-0.00000083,0
 .00000007,0.00000031,-0.00000150,-0.00000098,-0.00000567,0.00000049,-0
 .00000152,0.,-0.00000002,-0.00000128,-0.00519687,-0.02548484,0.0080644
 8,-0.01306509,-0.07262290,0.06975060\\-0.00048009,-0.00066048,0.000610
 16,0.00000018,-0.00000349,-0.00000236,0.00036681,0.00117604,-0.0002357
 4,0.00000175,-0.00000198,0.00000274,0.00000411,-0.00000346,0.00000577,
 0.00046859,0.00087230,-0.00053819,-0.00000015,-0.00000258,0.00000267,-
 0.00000629,0.00000244,0.00000531,0.00000512,-0.00000076,0.00000253,0.0
 0000356,0.00000135,0.00000099,-0.00035689,-0.00139210,0.00015900,-0.00
 000257,0.00000016,-0.00000263,-0.00000264,0.00000589,-0.00000453,0.000
 00075,-0.00000058,0.00000406,0.00000154,-0.00000317,0.00000031,-0.0000
 0141,-0.00000149,-0.00000061,0.00000177,0.00000601,0.00000211,-0.00000
 095,-0.00000263,-0.00000223,-0.00000020,-0.00000005,-0.00000426,-0.000
 00127,-0.00000082,-0.00000060,0.00000075,-0.00000024,-0.00000292,0.,0.
 00000069,0.00000012,-0.00000020,0.00000293,-0.00000071,-0.00000302,-0.
 00000113,0.00000284,-0.00000237,0.00000144,-0.00000036,0.00000116,0.00
 000063,-0.00000230,0.00000135,0.00000013,0.00000090,0.00000134,0.00000
 180,-0.00000336,0.00000190,0.00000097,-0.00000149,-0.00000007,0.000000
 25,-0.00000114,-0.00000256,0.00000193,0.00000392\\\@


    UPON JULIA'S CLOTHES

 WHENAS IN SILKS MY JULIA GOES,
 THEN, THEN, METHINKS, HOW SWEETLY FLOWS
 THAT LIQUEFACTION OF HER CLOTHES.

 NEXT, WHEN I CAST MINE EYES, AND SEE
 THAT BRAVE VIBRATION, EACH WAY FREE,
 O, HOW THAT GLITTERING TAKETH ME!
     -- ROBERT HERRICK, 1648
 Job cpu time:       0 days 14 hours 11 minutes  0.3 seconds.
 Elapsed time:       0 days  0 hours 53 minutes 13.2 seconds.
 File lengths (MBytes):  RWF=    690 Int=      0 D2E=      0 Chk=     33 Scr=      1
 Normal termination of Gaussian 16 at Mon Nov  5 02:22:27 2018.
