 Entering Gaussian System, Link 0=g16
 Initial command:
 /apps/gaussian/g16a03/g16/l1.exe "/jobfs/local/2011852.r-man2/Gau-6392.inp" -scrdir="/jobfs/local/2011852.r-man2/"
 Entering Link 1 = /apps/gaussian/g16a03/g16/l1.exe PID=      6393.
  
 Copyright (c) 1988,1990,1992,1993,1995,1998,2003,2009,2016,
            Gaussian, Inc.  All Rights Reserved.
  
 This is part of the Gaussian(R) 16 program.  It is based on
 the Gaussian(R) 09 system (copyright 2009, Gaussian, Inc.),
 the Gaussian(R) 03 system (copyright 2003, Gaussian, Inc.),
 the Gaussian(R) 98 system (copyright 1998, Gaussian, Inc.),
 the Gaussian(R) 94 system (copyright 1995, Gaussian, Inc.),
 the Gaussian 92(TM) system (copyright 1992, Gaussian, Inc.),
 the Gaussian 90(TM) system (copyright 1990, Gaussian, Inc.),
 the Gaussian 88(TM) system (copyright 1988, Gaussian, Inc.),
 the Gaussian 86(TM) system (copyright 1986, Carnegie Mellon
 University), and the Gaussian 82(TM) system (copyright 1983,
 Carnegie Mellon University). Gaussian is a federally registered
 trademark of Gaussian, Inc.
  
 This software contains proprietary and confidential information,
 including trade secrets, belonging to Gaussian, Inc.
  
 This software is provided under written license and may be
 used, copied, transmitted, or stored only in accord with that
 written license.
  
 The following legend is applicable only to US Government
 contracts under FAR:
  
                    RESTRICTED RIGHTS LEGEND
  
 Use, reproduction and disclosure by the US Government is
 subject to restrictions as set forth in subparagraphs (a)
 and (c) of the Commercial Computer Software - Restricted
 Rights clause in FAR 52.227-19.
  
 Gaussian, Inc.
 340 Quinnipiac St., Bldg. 40, Wallingford CT 06492
  
  
 ---------------------------------------------------------------
 Warning -- This program may not be used in any manner that
 competes with the business of Gaussian, Inc. or will provide
 assistance to any competitor of Gaussian, Inc.  The licensee
 of this program is prohibited from giving any competitor of
 Gaussian, Inc. access to this program.  By using this program,
 the user acknowledges that Gaussian, Inc. is engaged in the
 business of creating and licensing software in the field of
 computational chemistry and represents and warrants to the
 licensee that it is not a competitor of Gaussian, Inc. and that
 it will not use this program in any manner prohibited above.
 ---------------------------------------------------------------
  

 Cite this work as:
 Gaussian 16, Revision A.03,
 M. J. Frisch, G. W. Trucks, H. B. Schlegel, G. E. Scuseria, 
 M. A. Robb, J. R. Cheeseman, G. Scalmani, V. Barone, 
 G. A. Petersson, H. Nakatsuji, X. Li, M. Caricato, A. V. Marenich, 
 J. Bloino, B. G. Janesko, R. Gomperts, B. Mennucci, H. P. Hratchian, 
 J. V. Ortiz, A. F. Izmaylov, J. L. Sonnenberg, D. Williams-Young, 
 F. Ding, F. Lipparini, F. Egidi, J. Goings, B. Peng, A. Petrone, 
 T. Henderson, D. Ranasinghe, V. G. Zakrzewski, J. Gao, N. Rega, 
 G. Zheng, W. Liang, M. Hada, M. Ehara, K. Toyota, R. Fukuda, 
 J. Hasegawa, M. Ishida, T. Nakajima, Y. Honda, O. Kitao, H. Nakai, 
 T. Vreven, K. Throssell, J. A. Montgomery, Jr., J. E. Peralta, 
 F. Ogliaro, M. J. Bearpark, J. J. Heyd, E. N. Brothers, K. N. Kudin, 
 V. N. Staroverov, T. A. Keith, R. Kobayashi, J. Normand, 
 K. Raghavachari, A. P. Rendell, J. C. Burant, S. S. Iyengar, 
 J. Tomasi, M. Cossi, J. M. Millam, M. Klene, C. Adamo, R. Cammi, 
 J. W. Ochterski, R. L. Martin, K. Morokuma, O. Farkas, 
 J. B. Foresman, and D. J. Fox, Gaussian, Inc., Wallingford CT, 2016.
 
 ******************************************
 Gaussian 16:  ES64L-G16RevA.03 25-Dec-2016
                 4-Nov-2018 
 ******************************************
 %mem=6000mb
 %nproc=24
 Will use up to   24 processors via shared memory.
 %chk=2SO_1_e4_D_PSI.inp_extract_15.chk
 ----------------------------------------------------------------------
 #M062X/6-311++G(2d,2p) opt=ModRedundant freq=noraman SCRF=(Solvent=Wat
 er)
 ----------------------------------------------------------------------
 1/18=120,19=15,26=3,38=1/1,3;
 2/9=110,12=2,17=6,18=5,40=1/2;
 3/5=4,6=6,7=1212,11=2,25=1,30=1,70=2201,71=1,72=1,74=-55/1,2,3;
 4//1;
 5/5=2,38=5,53=1/2;
 6/7=2,8=2,9=2,10=2,28=1/1;
 7//1,2,3,16;
 1/18=20,19=15,26=3/3(2);
 2/9=110/2;
 99//99;
 2/9=110/2;
 3/5=4,6=6,7=1212,11=2,25=1,30=1,70=2205,71=1,72=1,74=-55/1,2,3;
 4/5=5,16=3,69=1/1;
 5/5=2,38=5,53=1/2;
 7//1,2,3,16;
 1/18=20,19=15,26=3/3(-5);
 2/9=110/2;
 6/7=2,8=2,9=2,10=2,19=2,28=1/1;
 99/9=1/99;
 -----------------------------
 2SO_1_e4_D_PSI.inp_extract_15
 -----------------------------
 Symbolic Z-matrix:
 Charge =  0 Multiplicity = 1
 C                     1.24776   0.50911  -0.58336 
 C                    -3.72788  -0.79716   0.39905 
 C                    -1.162     0.63107  -0.02427 
 C                    -2.32444  -1.40529   0.41662 
 C                    -3.6592    0.69036   0.00772 
 C                     1.57891   0.78456   0.88187 
 C                     1.93772  -0.7701   -1.04343 
 C                     3.70448  -0.50422   0.49454 
 O                     3.33313  -0.68761  -0.85951 
 C                     3.10271   0.77522   1.05034 
 O                    -0.12749   0.35832  -0.92271 
 C                    -2.41305   0.95227  -0.8353 
 O                    -1.37343  -0.44713   0.85277 
 H                     1.62471   1.33426  -1.17895 
 H                    -4.19419  -0.90571   1.373 
 H                    -4.33525  -1.35239  -0.31001 
 H                    -0.89947   1.46449   0.60665 
 H                    -2.25593  -2.23367   1.10729 
 H                    -2.04309  -1.76907  -0.56516 
 H                    -3.61909   1.30671   0.90153 
 H                    -4.55044   0.98537  -0.53546 
 H                     1.18423   1.74295   1.19843 
 H                     1.14112   0.01908   1.51411 
 H                     1.76824  -0.93216  -2.09896 
 H                     1.54141  -1.61983  -0.49206 
 H                     3.37556  -1.36552   1.07165 
 H                     4.78525  -0.47312   0.51303 
 H                     3.35977   0.86646   2.10122 
 H                     3.53873   1.62657   0.53409 
 H                    -2.43149   0.33604  -1.72909 
 H                    -2.35787   1.98595  -1.15822 
 
 The following ModRedundant input section has been read:
 D       6       1      11       3 F                                           
 

 GradGradGradGradGradGradGradGradGradGradGradGradGradGradGradGradGradGrad
 Berny optimization.
 Initialization pass.
                           ----------------------------
                           !    Initial Parameters    !
                           ! (Angstroms and Degrees)  !
 --------------------------                            --------------------------
 ! Name  Definition              Value          Derivative Info.                !
 --------------------------------------------------------------------------------
 ! R1    R(1,6)                  1.5272         estimate D2E/DX2                !
 ! R2    R(1,7)                  1.5245         estimate D2E/DX2                !
 ! R3    R(1,11)                 1.4245         estimate D2E/DX2                !
 ! R4    R(1,14)                 1.0852         estimate D2E/DX2                !
 ! R5    R(2,4)                  1.5296         estimate D2E/DX2                !
 ! R6    R(2,5)                  1.5397         estimate D2E/DX2                !
 ! R7    R(2,15)                 1.0853         estimate D2E/DX2                !
 ! R8    R(2,16)                 1.0863         estimate D2E/DX2                !
 ! R9    R(3,11)                 1.3971         estimate D2E/DX2                !
 ! R10   R(3,12)                 1.5251         estimate D2E/DX2                !
 ! R11   R(3,13)                 1.4058         estimate D2E/DX2                !
 ! R12   R(3,17)                 1.0778         estimate D2E/DX2                !
 ! R13   R(4,13)                 1.4187         estimate D2E/DX2                !
 ! R14   R(4,18)                 1.0807         estimate D2E/DX2                !
 ! R15   R(4,19)                 1.0841         estimate D2E/DX2                !
 ! R16   R(5,12)                 1.5271         estimate D2E/DX2                !
 ! R17   R(5,20)                 1.0865         estimate D2E/DX2                !
 ! R18   R(5,21)                 1.0846         estimate D2E/DX2                !
 ! R19   R(6,10)                 1.5331         estimate D2E/DX2                !
 ! R20   R(6,22)                 1.0837         estimate D2E/DX2                !
 ! R21   R(6,23)                 1.0851         estimate D2E/DX2                !
 ! R22   R(7,9)                  1.4099         estimate D2E/DX2                !
 ! R23   R(7,24)                 1.0813         estimate D2E/DX2                !
 ! R24   R(7,25)                 1.0877         estimate D2E/DX2                !
 ! R25   R(8,9)                  1.416          estimate D2E/DX2                !
 ! R26   R(8,10)                 1.5192         estimate D2E/DX2                !
 ! R27   R(8,26)                 1.0877         estimate D2E/DX2                !
 ! R28   R(8,27)                 1.0814         estimate D2E/DX2                !
 ! R29   R(10,28)                1.0857         estimate D2E/DX2                !
 ! R30   R(10,29)                1.0869         estimate D2E/DX2                !
 ! R31   R(12,30)                1.0858         estimate D2E/DX2                !
 ! R32   R(12,31)                1.0843         estimate D2E/DX2                !
 ! A1    A(6,1,7)              110.0437         estimate D2E/DX2                !
 ! A2    A(6,1,11)             117.1922         estimate D2E/DX2                !
 ! A3    A(6,1,14)             108.3059         estimate D2E/DX2                !
 ! A4    A(7,1,11)             106.0346         estimate D2E/DX2                !
 ! A5    A(7,1,14)             108.3723         estimate D2E/DX2                !
 ! A6    A(11,1,14)            106.564          estimate D2E/DX2                !
 ! A7    A(4,2,5)              110.2484         estimate D2E/DX2                !
 ! A8    A(4,2,15)             110.1308         estimate D2E/DX2                !
 ! A9    A(4,2,16)             108.4995         estimate D2E/DX2                !
 ! A10   A(5,2,15)             110.1143         estimate D2E/DX2                !
 ! A11   A(5,2,16)             110.6623         estimate D2E/DX2                !
 ! A12   A(15,2,16)            107.1234         estimate D2E/DX2                !
 ! A13   A(11,3,12)            107.8509         estimate D2E/DX2                !
 ! A14   A(11,3,13)            111.2737         estimate D2E/DX2                !
 ! A15   A(11,3,17)            110.3072         estimate D2E/DX2                !
 ! A16   A(12,3,13)            111.7099         estimate D2E/DX2                !
 ! A17   A(12,3,17)            110.3809         estimate D2E/DX2                !
 ! A18   A(13,3,17)            105.3372         estimate D2E/DX2                !
 ! A19   A(2,4,13)             110.4908         estimate D2E/DX2                !
 ! A20   A(2,4,18)             111.7301         estimate D2E/DX2                !
 ! A21   A(2,4,19)             111.1678         estimate D2E/DX2                !
 ! A22   A(13,4,18)            106.1837         estimate D2E/DX2                !
 ! A23   A(13,4,19)            109.3334         estimate D2E/DX2                !
 ! A24   A(18,4,19)            107.7642         estimate D2E/DX2                !
 ! A25   A(2,5,12)             110.0235         estimate D2E/DX2                !
 ! A26   A(2,5,20)             109.9157         estimate D2E/DX2                !
 ! A27   A(2,5,21)             110.6965         estimate D2E/DX2                !
 ! A28   A(12,5,20)            109.0699         estimate D2E/DX2                !
 ! A29   A(12,5,21)            110.3296         estimate D2E/DX2                !
 ! A30   A(20,5,21)            106.7397         estimate D2E/DX2                !
 ! A31   A(1,6,10)             108.6532         estimate D2E/DX2                !
 ! A32   A(1,6,22)             111.1477         estimate D2E/DX2                !
 ! A33   A(1,6,23)             110.1392         estimate D2E/DX2                !
 ! A34   A(10,6,22)            109.5883         estimate D2E/DX2                !
 ! A35   A(10,6,23)            109.4326         estimate D2E/DX2                !
 ! A36   A(22,6,23)            107.8625         estimate D2E/DX2                !
 ! A37   A(1,7,9)              111.068          estimate D2E/DX2                !
 ! A38   A(1,7,24)             110.4524         estimate D2E/DX2                !
 ! A39   A(1,7,25)             109.7334         estimate D2E/DX2                !
 ! A40   A(9,7,24)             106.9325         estimate D2E/DX2                !
 ! A41   A(9,7,25)             109.8882         estimate D2E/DX2                !
 ! A42   A(24,7,25)            108.7019         estimate D2E/DX2                !
 ! A43   A(9,8,10)             110.7957         estimate D2E/DX2                !
 ! A44   A(9,8,26)             108.9963         estimate D2E/DX2                !
 ! A45   A(9,8,27)             106.3912         estimate D2E/DX2                !
 ! A46   A(10,8,26)            110.67           estimate D2E/DX2                !
 ! A47   A(10,8,27)            111.4326         estimate D2E/DX2                !
 ! A48   A(26,8,27)            108.4174         estimate D2E/DX2                !
 ! A49   A(7,9,8)              113.072          estimate D2E/DX2                !
 ! A50   A(6,10,8)             111.0158         estimate D2E/DX2                !
 ! A51   A(6,10,28)            109.9484         estimate D2E/DX2                !
 ! A52   A(6,10,29)            109.9837         estimate D2E/DX2                !
 ! A53   A(8,10,28)            109.3355         estimate D2E/DX2                !
 ! A54   A(8,10,29)            109.0857         estimate D2E/DX2                !
 ! A55   A(28,10,29)           107.3932         estimate D2E/DX2                !
 ! A56   A(1,11,3)             122.7529         estimate D2E/DX2                !
 ! A57   A(3,12,5)             109.8571         estimate D2E/DX2                !
 ! A58   A(3,12,30)            109.3994         estimate D2E/DX2                !
 ! A59   A(3,12,31)            108.5051         estimate D2E/DX2                !
 ! A60   A(5,12,30)            110.0725         estimate D2E/DX2                !
 ! A61   A(5,12,31)            111.679          estimate D2E/DX2                !
 ! A62   A(30,12,31)           107.2621         estimate D2E/DX2                !
 ! A63   A(3,13,4)             115.2771         estimate D2E/DX2                !
 ! D1    D(7,1,6,10)            53.3431         estimate D2E/DX2                !
 ! D2    D(7,1,6,22)           174.0055         estimate D2E/DX2                !
 ! D3    D(7,1,6,23)           -66.5119         estimate D2E/DX2                !
 ! D4    D(11,1,6,10)          174.5411         estimate D2E/DX2                !
 ! D5    D(11,1,6,22)          -64.7965         estimate D2E/DX2                !
 ! D6    D(11,1,6,23)           54.6861         estimate D2E/DX2                !
 ! D7    D(14,1,6,10)          -64.9574         estimate D2E/DX2                !
 ! D8    D(14,1,6,22)           55.705          estimate D2E/DX2                !
 ! D9    D(14,1,6,23)          175.1877         estimate D2E/DX2                !
 ! D10   D(6,1,7,9)            -57.3065         estimate D2E/DX2                !
 ! D11   D(6,1,7,24)          -175.7812         estimate D2E/DX2                !
 ! D12   D(6,1,7,25)            64.3943         estimate D2E/DX2                !
 ! D13   D(11,1,7,9)           175.0328         estimate D2E/DX2                !
 ! D14   D(11,1,7,24)           56.5581         estimate D2E/DX2                !
 ! D15   D(11,1,7,25)          -63.2663         estimate D2E/DX2                !
 ! D16   D(14,1,7,9)            60.953          estimate D2E/DX2                !
 ! D17   D(14,1,7,24)          -57.5217         estimate D2E/DX2                !
 ! D18   D(14,1,7,25)         -177.3461         estimate D2E/DX2                !
 ! D19   D(6,1,11,3)             8.9917         Frozen                          !
 ! D20   D(7,1,11,3)           132.261          estimate D2E/DX2                !
 ! D21   D(14,1,11,3)         -112.4219         estimate D2E/DX2                !
 ! D22   D(5,2,4,13)            34.3681         estimate D2E/DX2                !
 ! D23   D(5,2,4,18)           152.3535         estimate D2E/DX2                !
 ! D24   D(5,2,4,19)           -87.2131         estimate D2E/DX2                !
 ! D25   D(15,2,4,13)          -87.3414         estimate D2E/DX2                !
 ! D26   D(15,2,4,18)           30.644          estimate D2E/DX2                !
 ! D27   D(15,2,4,19)          151.0774         estimate D2E/DX2                !
 ! D28   D(16,2,4,13)          155.7017         estimate D2E/DX2                !
 ! D29   D(16,2,4,18)          -86.3129         estimate D2E/DX2                !
 ! D30   D(16,2,4,19)           34.1205         estimate D2E/DX2                !
 ! D31   D(4,2,5,12)            25.9429         estimate D2E/DX2                !
 ! D32   D(4,2,5,20)           -94.1827         estimate D2E/DX2                !
 ! D33   D(4,2,5,21)           148.1488         estimate D2E/DX2                !
 ! D34   D(15,2,5,12)          147.6622         estimate D2E/DX2                !
 ! D35   D(15,2,5,20)           27.5366         estimate D2E/DX2                !
 ! D36   D(15,2,5,21)          -90.1319         estimate D2E/DX2                !
 ! D37   D(16,2,5,12)          -94.0941         estimate D2E/DX2                !
 ! D38   D(16,2,5,20)          145.7803         estimate D2E/DX2                !
 ! D39   D(16,2,5,21)           28.1118         estimate D2E/DX2                !
 ! D40   D(12,3,11,1)          155.8506         estimate D2E/DX2                !
 ! D41   D(13,3,11,1)          -81.3006         estimate D2E/DX2                !
 ! D42   D(17,3,11,1)           35.2338         estimate D2E/DX2                !
 ! D43   D(11,3,12,5)          156.5998         estimate D2E/DX2                !
 ! D44   D(11,3,12,30)          35.6661         estimate D2E/DX2                !
 ! D45   D(11,3,12,31)         -81.053          estimate D2E/DX2                !
 ! D46   D(13,3,12,5)           34.0184         estimate D2E/DX2                !
 ! D47   D(13,3,12,30)         -86.9153         estimate D2E/DX2                !
 ! D48   D(13,3,12,31)         156.3656         estimate D2E/DX2                !
 ! D49   D(17,3,12,5)          -82.8296         estimate D2E/DX2                !
 ! D50   D(17,3,12,30)         156.2368         estimate D2E/DX2                !
 ! D51   D(17,3,12,31)          39.5176         estimate D2E/DX2                !
 ! D52   D(11,3,13,4)          -90.8085         estimate D2E/DX2                !
 ! D53   D(12,3,13,4)           29.7949         estimate D2E/DX2                !
 ! D54   D(17,3,13,4)          149.6554         estimate D2E/DX2                !
 ! D55   D(2,4,13,3)           -67.5429         estimate D2E/DX2                !
 ! D56   D(18,4,13,3)          171.1244         estimate D2E/DX2                !
 ! D57   D(19,4,13,3)           55.1164         estimate D2E/DX2                !
 ! D58   D(2,5,12,3)           -61.7441         estimate D2E/DX2                !
 ! D59   D(2,5,12,30)           58.7834         estimate D2E/DX2                !
 ! D60   D(2,5,12,31)          177.8114         estimate D2E/DX2                !
 ! D61   D(20,5,12,3)           58.8922         estimate D2E/DX2                !
 ! D62   D(20,5,12,30)         179.4196         estimate D2E/DX2                !
 ! D63   D(20,5,12,31)         -61.5523         estimate D2E/DX2                !
 ! D64   D(21,5,12,3)          175.833          estimate D2E/DX2                !
 ! D65   D(21,5,12,30)         -63.6395         estimate D2E/DX2                !
 ! D66   D(21,5,12,31)          55.3885         estimate D2E/DX2                !
 ! D67   D(1,6,10,8)           -53.0464         estimate D2E/DX2                !
 ! D68   D(1,6,10,28)         -174.1624         estimate D2E/DX2                !
 ! D69   D(1,6,10,29)           67.7795         estimate D2E/DX2                !
 ! D70   D(22,6,10,8)         -174.667          estimate D2E/DX2                !
 ! D71   D(22,6,10,28)          64.217          estimate D2E/DX2                !
 ! D72   D(22,6,10,29)         -53.8411         estimate D2E/DX2                !
 ! D73   D(23,6,10,8)           67.2475         estimate D2E/DX2                !
 ! D74   D(23,6,10,28)         -53.8684         estimate D2E/DX2                !
 ! D75   D(23,6,10,29)        -171.9266         estimate D2E/DX2                !
 ! D76   D(1,7,9,8)             60.7536         estimate D2E/DX2                !
 ! D77   D(24,7,9,8)          -178.6685         estimate D2E/DX2                !
 ! D78   D(25,7,9,8)           -60.8568         estimate D2E/DX2                !
 ! D79   D(10,8,9,7)           -59.681          estimate D2E/DX2                !
 ! D80   D(26,8,9,7)            62.3294         estimate D2E/DX2                !
 ! D81   D(27,8,9,7)           179.0443         estimate D2E/DX2                !
 ! D82   D(9,8,10,6)            55.659          estimate D2E/DX2                !
 ! D83   D(9,8,10,28)          177.1348         estimate D2E/DX2                !
 ! D84   D(9,8,10,29)          -65.6953         estimate D2E/DX2                !
 ! D85   D(26,8,10,6)          -65.367          estimate D2E/DX2                !
 ! D86   D(26,8,10,28)          56.1088         estimate D2E/DX2                !
 ! D87   D(26,8,10,29)         173.2788         estimate D2E/DX2                !
 ! D88   D(27,8,10,6)          173.912          estimate D2E/DX2                !
 ! D89   D(27,8,10,28)         -64.6122         estimate D2E/DX2                !
 ! D90   D(27,8,10,29)          52.5578         estimate D2E/DX2                !
 --------------------------------------------------------------------------------
 Trust Radius=3.00D-01 FncErr=1.00D-07 GrdErr=1.00D-06 EigMax=2.50D+02 EigMin=1.00D-04
 Number of steps in this run=    186 maximum allowed number of steps=    186.
 GradGradGradGradGradGradGradGradGradGradGradGradGradGradGradGradGradGrad

                          Input orientation:                          
 ---------------------------------------------------------------------
 Center     Atomic      Atomic             Coordinates (Angstroms)
 Number     Number       Type             X           Y           Z
 ---------------------------------------------------------------------
      1          6           0        1.247761    0.509111   -0.583364
      2          6           0       -3.727878   -0.797162    0.399053
      3          6           0       -1.162004    0.631071   -0.024266
      4          6           0       -2.324436   -1.405291    0.416616
      5          6           0       -3.659197    0.690356    0.007717
      6          6           0        1.578909    0.784558    0.881867
      7          6           0        1.937717   -0.770096   -1.043428
      8          6           0        3.704484   -0.504219    0.494537
      9          8           0        3.333126   -0.687612   -0.859513
     10          6           0        3.102714    0.775224    1.050335
     11          8           0       -0.127488    0.358320   -0.922714
     12          6           0       -2.413047    0.952271   -0.835301
     13          8           0       -1.373428   -0.447126    0.852768
     14          1           0        1.624708    1.334256   -1.178949
     15          1           0       -4.194191   -0.905705    1.372995
     16          1           0       -4.335248   -1.352391   -0.310011
     17          1           0       -0.899468    1.464488    0.606650
     18          1           0       -2.255932   -2.233666    1.107291
     19          1           0       -2.043092   -1.769072   -0.565163
     20          1           0       -3.619094    1.306709    0.901525
     21          1           0       -4.550442    0.985367   -0.535456
     22          1           0        1.184227    1.742946    1.198430
     23          1           0        1.141119    0.019079    1.514106
     24          1           0        1.768235   -0.932161   -2.098958
     25          1           0        1.541409   -1.619831   -0.492055
     26          1           0        3.375559   -1.365517    1.071646
     27          1           0        4.785247   -0.473118    0.513029
     28          1           0        3.359768    0.866459    2.101218
     29          1           0        3.538734    1.626571    0.534091
     30          1           0       -2.431492    0.336041   -1.729088
     31          1           0       -2.357872    1.985946   -1.158223
 ---------------------------------------------------------------------
                    Distance matrix (angstroms):
                    1          2          3          4          5
     1  C    0.000000
     2  C    5.237220   0.000000
     3  C    2.476779   2.966944   0.000000
     4  C    4.174385   1.529634   2.385874   0.000000
     5  C    4.945752   1.539666   2.498101   2.518039   0.000000
     6  C    1.527230   5.558501   2.890889   4.499778   5.311381
     7  C    1.524490   5.846405   3.551089   4.549852   5.879054
     8  C    2.867786   7.438746   5.024017   6.096382   7.475814
     9  O    2.420155   7.173128   4.758441   5.843935   7.179378
    10  C    2.486089   7.039428   4.400383   5.883044   6.842346
    11  O    1.424502   4.005623   1.397077   3.119408   3.667277
    12  C    3.696130   2.512554   1.525141   2.670814   1.527144
    13  O    3.138072   2.423183   1.405844   1.418705   2.689371
    14  H    1.085207   5.973542   3.097342   5.064255   5.453663
    15  H    5.953477   1.085261   3.675347   2.158757   2.167398
    16  H    5.891511   1.086255   3.753032   2.138726   2.175043
    17  H    2.634288   3.627404   1.077759   3.209716   2.928157
    18  H    4.759937   2.175263   3.268611   1.080708   3.424634
    19  H    4.002520   2.170904   2.613345   1.084150   2.998128
    20  H    5.150469   2.165776   2.711248   3.044047   1.086458
    21  H    5.817927   2.174242   3.445048   3.402468   1.084613
    22  H    2.168219   5.587480   2.869852   4.778425   5.097499
    23  H    2.156591   5.061297   2.836459   3.904278   5.075712
    24  H    2.155269   6.038671   3.915909   4.827206   6.043812
    25  H    2.151037   5.407055   3.548778   3.976992   5.712533
    26  H    3.283415   7.157809   5.077092   5.737647   7.405832
    27  H    3.831535   8.520052   6.072702   7.171181   8.539183
    28  H    3.434422   7.476612   5.001951   6.348930   7.326638
    29  H    2.783160   7.661355   4.837326   6.601723   7.277622
    30  H    3.857401   2.737471   2.145940   2.765455   2.156221
    31  H    3.938540   3.470982   2.133458   3.739214   2.175182
                    6          7          8          9         10
     6  C    0.000000
     7  C    2.500491   0.000000
     8  C    2.515758   2.357433   0.000000
     9  O    2.876972   1.409892   1.415977   0.000000
    10  C    1.533118   2.851153   1.519215   2.416712   0.000000
    11  O    2.519917   2.356473   4.175714   3.615773   3.808009
    12  C    4.348851   4.683910   6.427598   5.975643   5.831860
    13  O    3.199091   3.829302   5.090853   5.014119   4.644246
    14  H    2.133361   2.131816   3.241298   2.666211   2.732531
    15  H    6.035468   6.592252   7.957509   7.854436   7.494962
    16  H    6.400342   6.342480   8.124284   7.716725   7.854971
    17  H    2.584647   3.970610   5.008468   4.969509   4.085266
    18  H    4.885335   4.935010   6.236426   6.123412   6.145873
    19  H    4.661954   4.132013   5.979753   5.491805   5.963438
    20  H    5.224200   6.242925   7.555124   7.443919   6.744429
    21  H    6.294289   6.740615   8.451246   8.065638   7.818548
    22  H    1.083741   3.450950   3.449190   3.841941   2.153836
    23  H    1.085055   2.792552   2.807882   3.307321   2.152834
    24  H    3.445038   1.081264   3.264722   2.011197   3.822832
    25  H    2.769504   1.087714   2.626185   2.052878   3.248527
    26  H    2.808343   2.625920   1.087695   2.047127   2.158164
    27  H    3.463870   3.258709   1.081369   2.009611   2.162862
    28  H    2.159857   3.819599   2.139862   3.343916   1.085705
    29  H    2.161214   3.285701   2.137593   2.709216   1.086928
    30  H    4.806409   4.558910   6.580330   5.919024   6.208503
    31  H    4.593859   5.105001   6.759046   6.294807   6.013450
                   11         12         13         14         15
    11  O    0.000000
    12  C    2.363091   0.000000
    13  O    2.313752   2.426664   0.000000
    14  H    2.021954   4.070316   4.036089   0.000000
    15  H    4.837986   3.391330   2.904761   6.737168   0.000000
    16  H    4.583359   3.046679   3.308162   6.595013   1.746979
    17  H    2.039244   2.152327   1.984812   3.094639   4.130412
    18  H    3.920406   3.734775   2.008811   5.745984   2.364514
    19  H    2.884992   2.759628   2.050980   4.843566   3.021438
    20  H    4.051987   2.144001   2.849795   5.641506   2.334051
    21  H    4.483936   2.158578   3.751349   6.218383   2.710213
    22  H    2.852549   4.207328   3.384892   2.452138   5.997767
    23  H    2.768129   4.361497   2.641526   3.035802   5.416703
    24  H    2.577335   4.757208   4.337971   2.450237   6.899687
    25  H    2.623693   4.729825   3.417610   3.034039   6.073343
    26  H    4.384110   6.520471   4.841924   3.926758   7.589687
    27  H    5.185327   7.460909   6.168093   4.014772   9.030890
    28  H    4.643633   6.477337   5.068262   3.740155   7.793149
    29  H    4.143902   6.144397   5.341452   2.585237   8.180117
    30  H    2.441141   1.085788   2.898074   4.213294   3.777825
    31  H    2.771145   1.084346   3.306517   4.035601   4.259199
                   16         17         18         19         20
    16  H    0.000000
    17  H    4.536481   0.000000
    18  H    2.666261   3.970766   0.000000
    19  H    2.343652   3.624491   1.748786   0.000000
    20  H    3.008573   2.740112   3.799316   3.754382   0.000000
    21  H    2.358442   3.855331   4.280837   3.724865   1.742293
    22  H    6.505468   2.183925   5.258939   5.085285   4.832220
    23  H    5.932868   2.660203   4.096378   4.202385   4.969193
    24  H    6.374122   4.492313   5.307341   4.192751   6.560393
    25  H    5.885555   4.083878   4.165873   3.588351   6.094054
    26  H    7.833626   5.147913   5.698126   5.674837   7.489653
    27  H    9.199671   6.006585   7.282230   7.033364   8.599515
    28  H    8.363647   4.553292   6.491129   6.576208   7.094899
    29  H    8.460870   4.441753   6.986282   6.625370   7.174386
    30  H    2.913566   3.012667   3.831352   2.436612   3.045114
    31  H    3.971646   2.348114   4.790414   3.814573   2.508905
                   21         22         23         24         25
    21  H    0.000000
    22  H    6.038768   0.000000
    23  H    6.126033   1.753062   0.000000
    24  H    6.785804   4.286027   3.788451   0.000000
    25  H    6.625676   3.780686   2.621248   1.762520   0.000000
    26  H    8.422050   3.805332   2.665633   3.581064   2.423622
    27  H    9.506923   4.283463   3.811047   4.016909   3.584359
    28  H    8.338921   2.513212   2.446458   4.838335   4.026553
    29  H    8.184732   2.449202   3.048445   4.076116   3.947329
    30  H    2.517207   4.860367   4.835527   4.402595   4.597785
    31  H    2.489249   4.261376   4.822120   5.140534   5.352551
                   26         27         28         29         30
    26  H    0.000000
    27  H    1.759446   0.000000
    28  H    2.458045   2.519683   0.000000
    29  H    3.044369   2.441912   1.750910   0.000000
    30  H    6.667927   7.600207   6.963568   6.513912   0.000000
    31  H    7.005487   7.737198   6.675973   6.145164   1.747425
                   31
    31  H    0.000000
 Stoichiometry    C10H18O3
 Framework group  C1[X(C10H18O3)]
 Deg. of freedom    87
 Full point group                 C1      NOp   1
 Largest Abelian subgroup         C1      NOp   1
 Largest concise Abelian subgroup C1      NOp   1
                         Standard orientation:                         
 ---------------------------------------------------------------------
 Center     Atomic      Atomic             Coordinates (Angstroms)
 Number     Number       Type             X           Y           Z
 ---------------------------------------------------------------------
      1          6           0        1.247761   -0.509111    0.583364
      2          6           0       -3.727878    0.797162   -0.399053
      3          6           0       -1.162004   -0.631071    0.024266
      4          6           0       -2.324436    1.405291   -0.416616
      5          6           0       -3.659197   -0.690356   -0.007717
      6          6           0        1.578909   -0.784558   -0.881867
      7          6           0        1.937717    0.770096    1.043428
      8          6           0        3.704484    0.504219   -0.494537
      9          8           0        3.333126    0.687612    0.859513
     10          6           0        3.102714   -0.775224   -1.050335
     11          8           0       -0.127488   -0.358320    0.922714
     12          6           0       -2.413047   -0.952271    0.835301
     13          8           0       -1.373428    0.447126   -0.852768
     14          1           0        1.624708   -1.334256    1.178949
     15          1           0       -4.194191    0.905705   -1.372995
     16          1           0       -4.335248    1.352391    0.310011
     17          1           0       -0.899468   -1.464488   -0.606650
     18          1           0       -2.255932    2.233666   -1.107291
     19          1           0       -2.043092    1.769072    0.565163
     20          1           0       -3.619094   -1.306709   -0.901525
     21          1           0       -4.550442   -0.985367    0.535456
     22          1           0        1.184227   -1.742946   -1.198430
     23          1           0        1.141119   -0.019079   -1.514106
     24          1           0        1.768235    0.932161    2.098958
     25          1           0        1.541409    1.619831    0.492055
     26          1           0        3.375559    1.365517   -1.071646
     27          1           0        4.785247    0.473118   -0.513029
     28          1           0        3.359768   -0.866459   -2.101218
     29          1           0        3.538734   -1.626571   -0.534091
     30          1           0       -2.431492   -0.336041    1.729088
     31          1           0       -2.357872   -1.985946    1.158223
 ---------------------------------------------------------------------
 Rotational constants (GHZ):           2.0677208           0.3772608           0.3745093
 Standard basis: 6-311++G(2d,2p) (5D, 7F)
 There are   557 symmetry adapted cartesian basis functions of A   symmetry.
 There are   531 symmetry adapted basis functions of A   symmetry.
   531 basis functions,   762 primitive gaussians,   557 cartesian basis functions
    51 alpha electrons       51 beta electrons
       nuclear repulsion energy       887.9880848117 Hartrees.
 NAtoms=   31 NActive=   31 NUniq=   31 SFac= 1.00D+00 NAtFMM=   60 NAOKFM=F Big=F
 Integral buffers will be    131072 words long.
 Raffenetti 2 integral format.
 Two-electron integral symmetry is turned on.
 ------------------------------------------------------------------------------
 Polarizable Continuum Model (PCM)
 =================================
 Model                : PCM.
 Atomic radii         : UFF (Universal Force Field).
 Polarization charges : Total charges.
 Charge compensation  : None.
 Solution method      : On-the-fly selection.
 Cavity type          : Scaled VdW (van der Waals Surface) (Alpha=1.100).
 Cavity algorithm     : GePol (No added spheres)
                        Default sphere list used, NSphG=   31.
                        Lebedev-Laikov grids with approx.  5.0 points / Ang**2.
                        Smoothing algorithm: York/Karplus (Gamma=1.0000).
                        Polarization charges: spherical gaussians, with
                                              point-specific exponents (IZeta= 3).
                        Self-potential: point-specific (ISelfS= 7).
                        Self-field    : sphere-specific E.n sum rule (ISelfD= 2).
 1st derivatives      : Analytical E(r).r(x)/FMM algorithm (CHGder, D1EAlg=3).
                        Cavity 1st derivative terms included.
 Solvent              : Water, Eps=  78.355300 Eps(inf)=   1.777849
 ------------------------------------------------------------------------------
 One-electron integrals computed using PRISM.
 NBasis=   531 RedAO= T EigKep=  3.96D-06  NBF=   531
 NBsUse=   531 1.00D-06 EigRej= -1.00D+00 NBFU=   531
 ExpMin= 3.60D-02 ExpMax= 8.59D+03 ExpMxC= 1.30D+03 IAcc=3 IRadAn=         5 AccDes= 0.00D+00
 Harris functional with IExCor= 1009 and IRadAn=       5 diagonalized for initial guess.
 HarFok:  IExCor= 1009 AccDes= 0.00D+00 IRadAn=         5 IDoV= 1 UseB2=F ITyADJ=14
 ICtDFT=  3500011 ScaDFX=  1.000000  1.000000  1.000000  1.000000
 FoFCou: FMM=F IPFlag=           0 FMFlag=      100000 FMFlg1=           0
         NFxFlg=           0 DoJE=T BraDBF=F KetDBF=T FulRan=T
         wScrn=  0.000000 ICntrl=       500 IOpCl=  0 I1Cent=   200000004 NGrid=           0
         NMat0=    1 NMatS0=      1 NMatT0=    0 NMatD0=    1 NMtDS0=    0 NMtDT0=    0
 Petite list used in FoFCou.
 Requested convergence on RMS density matrix=1.00D-08 within 128 cycles.
 Requested convergence on MAX density matrix=1.00D-06.
 Requested convergence on             energy=1.00D-06.
 No special actions if energy rises.
 Inv3:  Mode=1 IEnd=    13179648.
 Iteration    1 A*A^-1 deviation from unit magnitude is 5.11D-15 for   2080.
 Iteration    1 A*A^-1 deviation from orthogonality  is 3.74D-15 for   2080    891.
 Iteration    1 A^-1*A deviation from unit magnitude is 5.11D-15 for   2080.
 Iteration    1 A^-1*A deviation from orthogonality  is 1.18D-15 for   1559    377.
 Error on total polarization charges =  0.01481
 SCF Done:  E(RM062X) =  -617.490793839     A.U. after   12 cycles
            NFock= 12  Conv=0.58D-08     -V/T= 2.0035

 **********************************************************************

            Population analysis using the SCF density.

 **********************************************************************

 Orbital symmetries:
       Occupied  (A) (A) (A) (A) (A) (A) (A) (A) (A) (A) (A) (A)
                 (A) (A) (A) (A) (A) (A) (A) (A) (A) (A) (A) (A)
                 (A) (A) (A) (A) (A) (A) (A) (A) (A) (A) (A) (A)
                 (A) (A) (A) (A) (A) (A) (A) (A) (A) (A) (A) (A)
                 (A) (A) (A)
       Virtual   (A) (A) (A) (A) (A) (A) (A) (A) (A) (A) (A) (A)
                 (A) (A) (A) (A) (A) (A) (A) (A) (A) (A) (A) (A)
                 (A) (A) (A) (A) (A) (A) (A) (A) (A) (A) (A) (A)
                 (A) (A) (A) (A) (A) (A) (A) (A) (A) (A) (A) (A)
                 (A) (A) (A) (A) (A) (A) (A) (A) (A) (A) (A) (A)
                 (A) (A) (A) (A) (A) (A) (A) (A) (A) (A) (A) (A)
                 (A) (A) (A) (A) (A) (A) (A) (A) (A) (A) (A) (A)
                 (A) (A) (A) (A) (A) (A) (A) (A) (A) (A) (A) (A)
                 (A) (A) (A) (A) (A) (A) (A) (A) (A) (A) (A) (A)
                 (A) (A) (A) (A) (A) (A) (A) (A) (A) (A) (A) (A)
                 (A) (A) (A) (A) (A) (A) (A) (A) (A) (A) (A) (A)
                 (A) (A) (A) (A) (A) (A) (A) (A) (A) (A) (A) (A)
                 (A) (A) (A) (A) (A) (A) (A) (A) (A) (A) (A) (A)
                 (A) (A) (A) (A) (A) (A) (A) (A) (A) (A) (A) (A)
                 (A) (A) (A) (A) (A) (A) (A) (A) (A) (A) (A) (A)
                 (A) (A) (A) (A) (A) (A) (A) (A) (A) (A) (A) (A)
                 (A) (A) (A) (A) (A) (A) (A) (A) (A) (A) (A) (A)
                 (A) (A) (A) (A) (A) (A) (A) (A) (A) (A) (A) (A)
                 (A) (A) (A) (A) (A) (A) (A) (A) (A) (A) (A) (A)
                 (A) (A) (A) (A) (A) (A) (A) (A) (A) (A) (A) (A)
                 (A) (A) (A) (A) (A) (A) (A) (A) (A) (A) (A) (A)
                 (A) (A) (A) (A) (A) (A) (A) (A) (A) (A) (A) (A)
                 (A) (A) (A) (A) (A) (A) (A) (A) (A) (A) (A) (A)
                 (A) (A) (A) (A) (A) (A) (A) (A) (A) (A) (A) (A)
                 (A) (A) (A) (A) (A) (A) (A) (A) (A) (A) (A) (A)
                 (A) (A) (A) (A) (A) (A) (A) (A) (A) (A) (A) (A)
                 (A) (A) (A) (A) (A) (A) (A) (A) (A) (A) (A) (A)
                 (A) (A) (A) (A) (A) (A) (A) (A) (A) (A) (A) (A)
                 (A) (A) (A) (A) (A) (A) (A) (A) (A) (A) (A) (A)
                 (A) (A) (A) (A) (A) (A) (A) (A) (A) (A) (A) (A)
                 (A) (A) (A) (A) (A) (A) (A) (A) (A) (A) (A) (A)
                 (A) (A) (A) (A) (A) (A) (A) (A) (A) (A) (A) (A)
                 (A) (A) (A) (A) (A) (A) (A) (A) (A) (A) (A) (A)
                 (A) (A) (A) (A) (A) (A) (A) (A) (A) (A) (A) (A)
                 (A) (A) (A) (A) (A) (A) (A) (A) (A) (A) (A) (A)
                 (A) (A) (A) (A) (A) (A) (A) (A) (A) (A) (A) (A)
                 (A) (A) (A) (A) (A) (A) (A) (A) (A) (A) (A) (A)
                 (A) (A) (A) (A) (A) (A) (A) (A) (A) (A) (A) (A)
                 (A) (A) (A) (A) (A) (A) (A) (A) (A) (A) (A) (A)
                 (A) (A) (A) (A) (A) (A) (A) (A) (A) (A) (A) (A)
 The electronic state is 1-A.
 Alpha  occ. eigenvalues --  -19.62896 -19.62878 -19.62591 -10.63420 -10.58821
 Alpha  occ. eigenvalues --  -10.57863 -10.57769 -10.57681 -10.53353 -10.53257
 Alpha  occ. eigenvalues --  -10.53107 -10.53051 -10.52747  -1.19795  -1.16789
 Alpha  occ. eigenvalues --   -1.13570  -0.90851  -0.89711  -0.87712  -0.84410
 Alpha  occ. eigenvalues --   -0.75622  -0.74666  -0.73246  -0.70262  -0.66004
 Alpha  occ. eigenvalues --   -0.62357  -0.60710  -0.59121  -0.57406  -0.56977
 Alpha  occ. eigenvalues --   -0.55659  -0.53204  -0.51995  -0.50691  -0.49450
 Alpha  occ. eigenvalues --   -0.48181  -0.46397  -0.45934  -0.45668  -0.44792
 Alpha  occ. eigenvalues --   -0.44319  -0.43367  -0.40882  -0.40528  -0.39179
 Alpha  occ. eigenvalues --   -0.38293  -0.37186  -0.36119  -0.34791  -0.33501
 Alpha  occ. eigenvalues --   -0.32057
 Alpha virt. eigenvalues --   -0.00135   0.00778   0.00883   0.00963   0.02161
 Alpha virt. eigenvalues --    0.02423   0.02569   0.03349   0.03656   0.04221
 Alpha virt. eigenvalues --    0.04507   0.05048   0.05561   0.05796   0.07017
 Alpha virt. eigenvalues --    0.07128   0.07576   0.07791   0.08948   0.09687
 Alpha virt. eigenvalues --    0.09858   0.10282   0.10872   0.11423   0.12012
 Alpha virt. eigenvalues --    0.12344   0.12389   0.12887   0.13220   0.13400
 Alpha virt. eigenvalues --    0.13771   0.14243   0.14503   0.14641   0.14821
 Alpha virt. eigenvalues --    0.15143   0.15469   0.15583   0.16171   0.16461
 Alpha virt. eigenvalues --    0.16630   0.16730   0.16926   0.17063   0.17610
 Alpha virt. eigenvalues --    0.17850   0.18321   0.18822   0.19143   0.19157
 Alpha virt. eigenvalues --    0.19578   0.20195   0.20583   0.20832   0.21093
 Alpha virt. eigenvalues --    0.21709   0.22033   0.22448   0.23439   0.24341
 Alpha virt. eigenvalues --    0.25317   0.25667   0.26298   0.26747   0.27158
 Alpha virt. eigenvalues --    0.27935   0.28219   0.28483   0.28733   0.29069
 Alpha virt. eigenvalues --    0.29547   0.30082   0.30363   0.31351   0.32124
 Alpha virt. eigenvalues --    0.32644   0.32997   0.33545   0.34075   0.34561
 Alpha virt. eigenvalues --    0.34781   0.34982   0.35682   0.35865   0.36417
 Alpha virt. eigenvalues --    0.36524   0.37277   0.37537   0.37924   0.38198
 Alpha virt. eigenvalues --    0.38622   0.39163   0.39912   0.40226   0.41120
 Alpha virt. eigenvalues --    0.41307   0.41688   0.43037   0.43577   0.44565
 Alpha virt. eigenvalues --    0.46258   0.47702   0.49673   0.50036   0.50663
 Alpha virt. eigenvalues --    0.51483   0.52960   0.53641   0.54732   0.54834
 Alpha virt. eigenvalues --    0.55172   0.57325   0.57836   0.58138   0.59001
 Alpha virt. eigenvalues --    0.59482   0.59783   0.60179   0.60935   0.61559
 Alpha virt. eigenvalues --    0.61873   0.62665   0.62886   0.63394   0.64289
 Alpha virt. eigenvalues --    0.64804   0.65199   0.65393   0.66587   0.67212
 Alpha virt. eigenvalues --    0.67792   0.68654   0.69702   0.69973   0.70626
 Alpha virt. eigenvalues --    0.71221   0.71668   0.72353   0.72568   0.73092
 Alpha virt. eigenvalues --    0.73777   0.74117   0.74663   0.75167   0.75509
 Alpha virt. eigenvalues --    0.75917   0.76236   0.77292   0.78406   0.79685
 Alpha virt. eigenvalues --    0.80543   0.81944   0.82093   0.83654   0.85295
 Alpha virt. eigenvalues --    0.85766   0.86630   0.88421   0.89668   0.90583
 Alpha virt. eigenvalues --    0.91204   0.91992   0.92867   0.94140   0.95479
 Alpha virt. eigenvalues --    0.95883   0.97103   0.99196   1.00863   1.01635
 Alpha virt. eigenvalues --    1.02279   1.04378   1.04894   1.06229   1.07543
 Alpha virt. eigenvalues --    1.07723   1.09248   1.10539   1.10915   1.11549
 Alpha virt. eigenvalues --    1.12277   1.13104   1.14564   1.15059   1.16744
 Alpha virt. eigenvalues --    1.17605   1.18276   1.18449   1.19862   1.20267
 Alpha virt. eigenvalues --    1.21506   1.22409   1.22641   1.23884   1.24438
 Alpha virt. eigenvalues --    1.25163   1.25360   1.27016   1.27142   1.28114
 Alpha virt. eigenvalues --    1.28381   1.29549   1.29777   1.30672   1.31328
 Alpha virt. eigenvalues --    1.32465   1.32651   1.32995   1.34071   1.34593
 Alpha virt. eigenvalues --    1.35286   1.35839   1.36240   1.37027   1.38049
 Alpha virt. eigenvalues --    1.38691   1.39406   1.40184   1.40283   1.41603
 Alpha virt. eigenvalues --    1.42357   1.42666   1.43856   1.45258   1.45696
 Alpha virt. eigenvalues --    1.46134   1.46881   1.47582   1.48183   1.48686
 Alpha virt. eigenvalues --    1.48992   1.49583   1.50286   1.50961   1.51717
 Alpha virt. eigenvalues --    1.52340   1.52633   1.53991   1.54235   1.55179
 Alpha virt. eigenvalues --    1.55668   1.55880   1.57424   1.57558   1.59058
 Alpha virt. eigenvalues --    1.59704   1.60433   1.60614   1.61838   1.63131
 Alpha virt. eigenvalues --    1.63678   1.64160   1.64821   1.65929   1.66138
 Alpha virt. eigenvalues --    1.67335   1.68100   1.68678   1.69334   1.71572
 Alpha virt. eigenvalues --    1.71632   1.72426   1.75331   1.75913   1.77525
 Alpha virt. eigenvalues --    1.78084   1.79871   1.81366   1.82468   1.83520
 Alpha virt. eigenvalues --    1.85908   1.87031   1.89343   1.93468   1.98370
 Alpha virt. eigenvalues --    2.00262   2.04604   2.08121   2.11933   2.19977
 Alpha virt. eigenvalues --    2.21857   2.27515   2.33834   2.37386   2.39416
 Alpha virt. eigenvalues --    2.42040   2.43448   2.46386   2.48292   2.51135
 Alpha virt. eigenvalues --    2.58497   2.76381   2.76658   2.79258   2.81157
 Alpha virt. eigenvalues --    2.86900   2.89214   2.91350   2.91665   2.93674
 Alpha virt. eigenvalues --    2.95683   2.96348   3.00873   3.03108   3.03690
 Alpha virt. eigenvalues --    3.06086   3.07543   3.08949   3.09357   3.11115
 Alpha virt. eigenvalues --    3.12000   3.14570   3.17393   3.18887   3.21920
 Alpha virt. eigenvalues --    3.24655   3.27271   3.30003   3.31614   3.33103
 Alpha virt. eigenvalues --    3.35392   3.36204   3.37607   3.39573   3.39697
 Alpha virt. eigenvalues --    3.41706   3.42765   3.44171   3.44856   3.45340
 Alpha virt. eigenvalues --    3.48374   3.48827   3.49295   3.50061   3.51852
 Alpha virt. eigenvalues --    3.52482   3.53644   3.53787   3.54511   3.56324
 Alpha virt. eigenvalues --    3.57262   3.57682   3.58413   3.58947   3.60480
 Alpha virt. eigenvalues --    3.60847   3.61541   3.62306   3.64202   3.65123
 Alpha virt. eigenvalues --    3.65911   3.66938   3.67568   3.69645   3.70389
 Alpha virt. eigenvalues --    3.70782   3.71635   3.73460   3.74099   3.74179
 Alpha virt. eigenvalues --    3.75507   3.76061   3.77168   3.77911   3.78274
 Alpha virt. eigenvalues --    3.79733   3.80816   3.82466   3.83513   3.85566
 Alpha virt. eigenvalues --    3.86889   3.87165   3.88323   3.90219   3.90502
 Alpha virt. eigenvalues --    3.91882   3.95463   3.95877   3.97423   3.98491
 Alpha virt. eigenvalues --    4.00425   4.02724   4.03183   4.03723   4.04733
 Alpha virt. eigenvalues --    4.05215   4.05416   4.06706   4.06931   4.07348
 Alpha virt. eigenvalues --    4.08328   4.09042   4.10300   4.11286   4.12106
 Alpha virt. eigenvalues --    4.12680   4.13780   4.14640   4.15201   4.16733
 Alpha virt. eigenvalues --    4.17638   4.18578   4.18699   4.20046   4.20582
 Alpha virt. eigenvalues --    4.21636   4.23220   4.23976   4.25820   4.26458
 Alpha virt. eigenvalues --    4.26760   4.27651   4.28698   4.30001   4.31911
 Alpha virt. eigenvalues --    4.34823   4.35982   4.36372   4.36685   4.38067
 Alpha virt. eigenvalues --    4.40846   4.43238   4.47650   4.48929   4.53204
 Alpha virt. eigenvalues --    4.56949   4.60735   4.75361   4.75430   4.83249
 Alpha virt. eigenvalues --    4.84202   4.92147   4.95763   4.99889   5.00771
 Alpha virt. eigenvalues --    5.02981   5.06635   5.08479   5.11928   5.13023
 Alpha virt. eigenvalues --    5.13843   5.15305   5.18224   5.30103   5.38279
 Alpha virt. eigenvalues --    5.38925   5.57311   5.58708   5.65069   5.86595
 Alpha virt. eigenvalues --    5.89274   6.03905   7.01808   7.05358   7.06286
 Alpha virt. eigenvalues --    7.08022   7.09544   7.12964   7.13771   7.19046
 Alpha virt. eigenvalues --    7.30344   7.36226   7.39864   7.43588   7.53667
 Alpha virt. eigenvalues --    7.54815   7.61388  23.95970  23.98746  24.04736
 Alpha virt. eigenvalues --   24.06733  24.09184  24.11722  24.13720  24.14603
 Alpha virt. eigenvalues --   24.17682  24.21709  50.17157  50.18368  50.25861
          Condensed to atoms (all electrons):
               1          2          3          4          5          6
     1  C    7.547254   0.001976  -0.900341   0.081026  -0.012237  -1.019966
     2  C    0.001976   6.133923   0.482019  -0.351772  -0.356035   0.011377
     3  C   -0.900341   0.482019   7.260065  -0.593554  -0.498885   0.579598
     4  C    0.081026  -0.351772  -0.593554   5.850455   0.323017  -0.056555
     5  C   -0.012237  -0.356035  -0.498885   0.323017   5.808510  -0.053421
     6  C   -1.019966   0.011377   0.579598  -0.056555  -0.053421   7.150234
     7  C   -0.820137  -0.002719   0.180520   0.014841  -0.009417   0.324333
     8  C    0.161063   0.001037  -0.019375  -0.000123   0.000831  -0.064833
     9  O   -0.007735  -0.000250  -0.003657   0.000319   0.000162  -0.036791
    10  C    0.162919  -0.001109  -0.379576   0.011157  -0.010429  -1.104698
    11  O    0.098946   0.007864   0.359214   0.006552  -0.012585  -0.020088
    12  C    0.088778  -0.202863  -1.095848   0.022390   0.430594  -0.136581
    13  O   -0.024506  -0.004469   0.366495   0.023146  -0.097991   0.009473
    14  H    0.560252  -0.003582  -0.052669   0.007644   0.001745  -0.036504
    15  H   -0.000006   0.474937  -0.009455  -0.089935  -0.048584  -0.000264
    16  H   -0.000664   0.481024   0.054481  -0.048405  -0.064631   0.002006
    17  H    0.022514   0.051107   0.508635  -0.077250  -0.030536  -0.012927
    18  H   -0.004311  -0.014669   0.021959   0.440625  -0.002527   0.001258
    19  H    0.001415  -0.074386  -0.009656   0.459912  -0.006200   0.010901
    20  H   -0.000984  -0.080600   0.034077   0.010439   0.476183   0.008712
    21  H    0.000598  -0.046759   0.022260   0.009282   0.454048  -0.002524
    22  H   -0.040019  -0.003609   0.008461   0.004706   0.002020   0.378716
    23  H    0.039304   0.005241  -0.023262  -0.008516  -0.007071   0.448296
    24  H   -0.089626   0.001805   0.017178  -0.001439  -0.000607   0.035546
    25  H    0.126083  -0.010447  -0.045083   0.017784   0.005109  -0.081894
    26  H    0.032254  -0.000330  -0.000233   0.000583   0.000503  -0.027657
    27  H    0.002746   0.000056  -0.005379   0.000038  -0.000089  -0.011280
    28  H   -0.002045  -0.000066  -0.000655   0.000149  -0.000352  -0.053202
    29  H   -0.016941   0.000196  -0.000555  -0.000224  -0.000094   0.003004
    30  H   -0.005611  -0.006789   0.000865  -0.009971  -0.040296   0.005420
    31  H   -0.008102  -0.000403  -0.031442   0.013325  -0.012024   0.002642
               7          8          9         10         11         12
     1  C   -0.820137   0.161063  -0.007735   0.162919   0.098946   0.088778
     2  C   -0.002719   0.001037  -0.000250  -0.001109   0.007864  -0.202863
     3  C    0.180520  -0.019375  -0.003657  -0.379576   0.359214  -1.095848
     4  C    0.014841  -0.000123   0.000319   0.011157   0.006552   0.022390
     5  C   -0.009417   0.000831   0.000162  -0.010429  -0.012585   0.430594
     6  C    0.324333  -0.064833  -0.036791  -1.104698  -0.020088  -0.136581
     7  C    6.145799  -0.207287   0.155316   0.081188  -0.122173  -0.105505
     8  C   -0.207287   5.395360   0.102092   0.056030   0.004086  -0.002345
     9  O    0.155316   0.102092   8.366686  -0.007844   0.000128   0.002404
    10  C    0.081188   0.056030  -0.007844   6.990142  -0.003148  -0.093687
    11  O   -0.122173   0.004086   0.000128  -0.003148   8.328988  -0.216337
    12  C   -0.105505  -0.002345   0.002404  -0.093687  -0.216337   7.028818
    13  O   -0.026829  -0.000011   0.000323  -0.031541  -0.035407  -0.031153
    14  H   -0.137314   0.011211   0.001909  -0.014480  -0.063660   0.015307
    15  H   -0.002176   0.000026  -0.000007  -0.000408  -0.000660   0.050012
    16  H    0.002356   0.000004  -0.000003   0.000607   0.001423  -0.060971
    17  H   -0.022265   0.007937  -0.001081  -0.028839  -0.034513  -0.016150
    18  H    0.008539  -0.000568  -0.000059   0.000914  -0.001003  -0.032856
    19  H   -0.007138  -0.000048   0.000526  -0.001719   0.012024   0.019949
    20  H    0.003426  -0.000325   0.000018   0.003692   0.001477  -0.089706
    21  H   -0.001848   0.000104  -0.000003  -0.000568  -0.003305  -0.058955
    22  H    0.022934  -0.009952  -0.000819   0.029814  -0.005560   0.018029
    23  H   -0.053058  -0.002142  -0.000834  -0.038902   0.004519  -0.018846
    24  H    0.468744   0.003041  -0.068696  -0.011257  -0.002415  -0.000085
    25  H    0.321185  -0.011534  -0.041682   0.026092   0.013387   0.004822
    26  H   -0.030159   0.448369  -0.043123  -0.021923  -0.000492   0.001797
    27  H    0.018169   0.424588  -0.071399  -0.018881   0.000330  -0.000647
    28  H   -0.000536  -0.034802   0.008732   0.454877  -0.001140  -0.000465
    29  H    0.003928  -0.080359  -0.007278   0.462546   0.000850   0.000235
    30  H    0.006288  -0.000120   0.000165   0.000033  -0.011293   0.435049
    31  H    0.002606  -0.000484  -0.000002   0.000357   0.001145   0.404108
              13         14         15         16         17         18
     1  C   -0.024506   0.560252  -0.000006  -0.000664   0.022514  -0.004311
     2  C   -0.004469  -0.003582   0.474937   0.481024   0.051107  -0.014669
     3  C    0.366495  -0.052669  -0.009455   0.054481   0.508635   0.021959
     4  C    0.023146   0.007644  -0.089935  -0.048405  -0.077250   0.440625
     5  C   -0.097991   0.001745  -0.048584  -0.064631  -0.030536  -0.002527
     6  C    0.009473  -0.036504  -0.000264   0.002006  -0.012927   0.001258
     7  C   -0.026829  -0.137314  -0.002176   0.002356  -0.022265   0.008539
     8  C   -0.000011   0.011211   0.000026   0.000004   0.007937  -0.000568
     9  O    0.000323   0.001909  -0.000007  -0.000003  -0.001081  -0.000059
    10  C   -0.031541  -0.014480  -0.000408   0.000607  -0.028839   0.000914
    11  O   -0.035407  -0.063660  -0.000660   0.001423  -0.034513  -0.001003
    12  C   -0.031153   0.015307   0.050012  -0.060971  -0.016150  -0.032856
    13  O    8.312563  -0.000679  -0.008935   0.010855  -0.099303  -0.066047
    14  H   -0.000679   0.470768  -0.000077   0.000219  -0.001973   0.000086
    15  H   -0.008935  -0.000077   0.513014  -0.021608   0.005561  -0.011816
    16  H    0.010855   0.000219  -0.021608   0.500859  -0.001755  -0.000845
    17  H   -0.099303  -0.001973   0.005561  -0.001755   0.503779  -0.003846
    18  H   -0.066047   0.000086  -0.011816  -0.000845  -0.003846   0.475962
    19  H   -0.027468  -0.000091   0.006535  -0.003504   0.001339  -0.010778
    20  H    0.012502  -0.000143  -0.013734   0.006898  -0.015426   0.000029
    21  H   -0.007285  -0.000019   0.000802  -0.008814   0.002996  -0.000736
    22  H    0.003212  -0.007341  -0.000354  -0.000023  -0.016199   0.000685
    23  H   -0.008124   0.006313   0.000128   0.000178   0.006748  -0.002341
    24  H    0.001394  -0.014316   0.000037  -0.000142  -0.001017   0.000205
    25  H   -0.002912   0.011546  -0.000054   0.000271  -0.002848   0.000401
    26  H    0.000634   0.001028   0.000040  -0.000034  -0.000851   0.000097
    27  H   -0.000172  -0.001179  -0.000010   0.000008  -0.000219  -0.000000
    28  H   -0.000170  -0.000867   0.000000   0.000010  -0.000728   0.000024
    29  H    0.000086  -0.004771   0.000013  -0.000017   0.000665  -0.000027
    30  H    0.002876  -0.000272  -0.003121   0.001007  -0.003995  -0.001519
    31  H    0.009204  -0.000577  -0.000442   0.000042  -0.020585   0.001394
              19         20         21         22         23         24
     1  C    0.001415  -0.000984   0.000598  -0.040019   0.039304  -0.089626
     2  C   -0.074386  -0.080600  -0.046759  -0.003609   0.005241   0.001805
     3  C   -0.009656   0.034077   0.022260   0.008461  -0.023262   0.017178
     4  C    0.459912   0.010439   0.009282   0.004706  -0.008516  -0.001439
     5  C   -0.006200   0.476183   0.454048   0.002020  -0.007071  -0.000607
     6  C    0.010901   0.008712  -0.002524   0.378716   0.448296   0.035546
     7  C   -0.007138   0.003426  -0.001848   0.022934  -0.053058   0.468744
     8  C   -0.000048  -0.000325   0.000104  -0.009952  -0.002142   0.003041
     9  O    0.000526   0.000018  -0.000003  -0.000819  -0.000834  -0.068696
    10  C   -0.001719   0.003692  -0.000568   0.029814  -0.038902  -0.011257
    11  O    0.012024   0.001477  -0.003305  -0.005560   0.004519  -0.002415
    12  C    0.019949  -0.089706  -0.058955   0.018029  -0.018846  -0.000085
    13  O   -0.027468   0.012502  -0.007285   0.003212  -0.008124   0.001394
    14  H   -0.000091  -0.000143  -0.000019  -0.007341   0.006313  -0.014316
    15  H    0.006535  -0.013734   0.000802  -0.000354   0.000128   0.000037
    16  H   -0.003504   0.006898  -0.008814  -0.000023   0.000178  -0.000142
    17  H    0.001339  -0.015426   0.002996  -0.016199   0.006748  -0.001017
    18  H   -0.010778   0.000029  -0.000736   0.000685  -0.002341   0.000205
    19  H    0.489050   0.000592  -0.002013  -0.000418   0.000919  -0.000263
    20  H    0.000592   0.496295  -0.017574   0.001551  -0.000421   0.000073
    21  H   -0.002013  -0.017574   0.475293  -0.000156  -0.000055   0.000048
    22  H   -0.000418   0.001551  -0.000156   0.483187  -0.022358   0.001032
    23  H    0.000919  -0.000421  -0.000055  -0.022358   0.438792  -0.002411
    24  H   -0.000263   0.000073   0.000048   0.001032  -0.002411   0.489652
    25  H   -0.003087  -0.000066  -0.000020  -0.000690  -0.001657  -0.027887
    26  H   -0.000041  -0.000012   0.000007   0.001436  -0.010304  -0.002747
    27  H   -0.000012   0.000009  -0.000000   0.000936   0.000394   0.002152
    28  H    0.000004   0.000029  -0.000019  -0.009892  -0.006225   0.001500
    29  H    0.000144  -0.000032   0.000003  -0.006013   0.001943  -0.000694
    30  H   -0.008777   0.004901  -0.006103   0.000728  -0.000576  -0.000688
    31  H   -0.000113   0.002138  -0.010287   0.000972  -0.000155   0.000194
              25         26         27         28         29         30
     1  C    0.126083   0.032254   0.002746  -0.002045  -0.016941  -0.005611
     2  C   -0.010447  -0.000330   0.000056  -0.000066   0.000196  -0.006789
     3  C   -0.045083  -0.000233  -0.005379  -0.000655  -0.000555   0.000865
     4  C    0.017784   0.000583   0.000038   0.000149  -0.000224  -0.009971
     5  C    0.005109   0.000503  -0.000089  -0.000352  -0.000094  -0.040296
     6  C   -0.081894  -0.027657  -0.011280  -0.053202   0.003004   0.005420
     7  C    0.321185  -0.030159   0.018169  -0.000536   0.003928   0.006288
     8  C   -0.011534   0.448369   0.424588  -0.034802  -0.080359  -0.000120
     9  O   -0.041682  -0.043123  -0.071399   0.008732  -0.007278   0.000165
    10  C    0.026092  -0.021923  -0.018881   0.454877   0.462546   0.000033
    11  O    0.013387  -0.000492   0.000330  -0.001140   0.000850  -0.011293
    12  C    0.004822   0.001797  -0.000647  -0.000465   0.000235   0.435049
    13  O   -0.002912   0.000634  -0.000172  -0.000170   0.000086   0.002876
    14  H    0.011546   0.001028  -0.001179  -0.000867  -0.004771  -0.000272
    15  H   -0.000054   0.000040  -0.000010   0.000000   0.000013  -0.003121
    16  H    0.000271  -0.000034   0.000008   0.000010  -0.000017   0.001007
    17  H   -0.002848  -0.000851  -0.000219  -0.000728   0.000665  -0.003995
    18  H    0.000401   0.000097  -0.000000   0.000024  -0.000027  -0.001519
    19  H   -0.003087  -0.000041  -0.000012   0.000004   0.000144  -0.008777
    20  H   -0.000066  -0.000012   0.000009   0.000029  -0.000032   0.004901
    21  H   -0.000020   0.000007  -0.000000  -0.000019   0.000003  -0.006103
    22  H   -0.000690   0.001436   0.000936  -0.009892  -0.006013   0.000728
    23  H   -0.001657  -0.010304   0.000394  -0.006225   0.001943  -0.000576
    24  H   -0.027887  -0.002747   0.002152   0.001500  -0.000694  -0.000688
    25  H    0.518431   0.007220  -0.003778  -0.000801  -0.001082   0.000336
    26  H    0.007220   0.500496  -0.008212   0.005645   0.001117   0.000050
    27  H   -0.003778  -0.008212   0.476474  -0.009952  -0.002260  -0.000020
    28  H   -0.000801   0.005645  -0.009952   0.492312  -0.011271  -0.000029
    29  H   -0.001082   0.001117  -0.002260  -0.011271   0.477187  -0.000032
    30  H    0.000336   0.000050  -0.000020  -0.000029  -0.000032   0.445226
    31  H   -0.000196  -0.000008   0.000009   0.000029   0.000023  -0.008838
              31
     1  C   -0.008102
     2  C   -0.000403
     3  C   -0.031442
     4  C    0.013325
     5  C   -0.012024
     6  C    0.002642
     7  C    0.002606
     8  C   -0.000484
     9  O   -0.000002
    10  C    0.000357
    11  O    0.001145
    12  C    0.404108
    13  O    0.009204
    14  H   -0.000577
    15  H   -0.000442
    16  H    0.000042
    17  H   -0.020585
    18  H    0.001394
    19  H   -0.000113
    20  H    0.002138
    21  H   -0.010287
    22  H    0.000972
    23  H   -0.000155
    24  H    0.000194
    25  H   -0.000196
    26  H   -0.000008
    27  H    0.000009
    28  H    0.000029
    29  H    0.000023
    30  H   -0.008838
    31  H    0.481150
 Mulliken charges:
               1
     1  C    0.026101
     2  C   -0.491706
     3  C   -0.226203
     4  C   -0.059647
     5  C   -0.238710
     6  C   -0.252331
     7  C   -0.211612
     8  C   -0.181474
     9  O   -0.347518
    10  C   -0.511357
    11  O   -0.307153
    12  C   -0.359292
    13  O   -0.279759
    14  H    0.252487
    15  H    0.160540
    16  H    0.149168
    17  H    0.281027
    18  H    0.201769
    19  H    0.152402
    20  H    0.155983
    21  H    0.201603
    22  H    0.164984
    23  H    0.254482
    24  H    0.201689
    25  H    0.183051
    26  H    0.144851
    27  H    0.207580
    28  H    0.169907
    29  H    0.179713
    30  H    0.205106
    31  H    0.174321
 Sum of Mulliken charges =  -0.00000
 Mulliken charges with hydrogens summed into heavy atoms:
               1
     1  C    0.278588
     2  C   -0.181998
     3  C    0.054824
     4  C    0.294524
     5  C    0.118875
     6  C    0.167135
     7  C    0.173128
     8  C    0.170957
     9  O   -0.347518
    10  C   -0.161738
    11  O   -0.307153
    12  C    0.020134
    13  O   -0.279759
 Electronic spatial extent (au):  <R**2>=           3183.0960
 Charge=              0.0000 electrons
 Dipole moment (field-independent basis, Debye):
    X=             -1.8648    Y=             -1.0614    Z=             -1.6028  Tot=              2.6782
 Quadrupole moment (field-independent basis, Debye-Ang):
   XX=            -76.3125   YY=            -76.4904   ZZ=            -82.8880
   XY=             -3.3611   XZ=             -8.3060   YZ=             -0.1204
 Traceless Quadrupole moment (field-independent basis, Debye-Ang):
   XX=              2.2511   YY=              2.0732   ZZ=             -4.3243
   XY=             -3.3611   XZ=             -8.3060   YZ=             -0.1204
 Octapole moment (field-independent basis, Debye-Ang**2):
  XXX=            -27.1258  YYY=              1.2727  ZZZ=              1.6854  XYY=             -4.7568
  XXY=             -5.5913  XXZ=            -24.2185  XZZ=              0.7343  YZZ=              1.3634
  YYZ=             -1.9271  XYZ=             -2.9211
 Hexadecapole moment (field-independent basis, Debye-Ang**3):
 XXXX=          -3336.9075 YYYY=           -449.9679 ZZZZ=           -409.9605 XXXY=            -37.5631
 XXXZ=           -111.4128 YYYX=             -4.6266 YYYZ=             -7.1208 ZZZX=              4.5746
 ZZZY=              3.4191 XXYY=           -636.6525 XXZZ=           -641.0813 YYZZ=           -141.5008
 XXYZ=            -21.3341 YYXZ=              2.1903 ZZXY=             -4.4082
 N-N= 8.879880848117D+02 E-N=-3.217864003162D+03  KE= 6.153332044415D+02
 D1PCM: PCM CHGder 1st derivatives, ID1Alg=3 FixD1E=F DoIter=F DoCFld=F I1PDM=0.
 Calling FoFJK, ICntrl=      2127 FMM=F ISym2X=0 I1Cent= 0 IOpClX= 0 NMat=1 NMatS=1 NMatT=0.
 ***** Axes restored to original set *****
 -------------------------------------------------------------------
 Center     Atomic                   Forces (Hartrees/Bohr)
 Number     Number              X              Y              Z
 -------------------------------------------------------------------
      1        6          -0.003269283   -0.002575219    0.006616499
      2        6           0.001203724    0.001076076   -0.000645976
      3        6          -0.001682245   -0.004448768   -0.004537663
      4        6          -0.001672595    0.005347191   -0.001297106
      5        6           0.002359347   -0.002422064   -0.001012685
      6        6           0.003172856   -0.001220808   -0.004082994
      7        6           0.003649724    0.004987658    0.004215197
      8        6          -0.005362925    0.004228504   -0.001686334
      9        8           0.005733133   -0.000368470   -0.006995991
     10        6          -0.001703406   -0.002005836    0.000594885
     11        8          -0.002885371   -0.002693730   -0.009421242
     12        6          -0.000664973    0.000467942    0.003162625
     13        8           0.004168587   -0.000205780    0.010763680
     14        1           0.003809816    0.004140045   -0.002880495
     15        1          -0.000967775   -0.000159133    0.002478688
     16        1          -0.001771437   -0.001167549   -0.002183486
     17        1           0.001578814    0.006139795    0.005685123
     18        1           0.000135119   -0.003356993    0.002621773
     19        1           0.000939941   -0.001833296   -0.005750507
     20        1           0.000763082    0.001476306    0.002657333
     21        1          -0.002058878    0.000604602   -0.001276603
     22        1          -0.001602572    0.003246060    0.000893336
     23        1          -0.003172497   -0.003912058    0.001618619
     24        1          -0.001462251   -0.000288020   -0.004567031
     25        1          -0.004182534   -0.003850806    0.003942451
     26        1          -0.002314289   -0.004067867    0.004099374
     27        1           0.004354317    0.000290675    0.000088975
     28        1           0.000610289    0.000596486    0.002950844
     29        1           0.001255683    0.002183166   -0.002139238
     30        1           0.000931653   -0.002929822   -0.002836043
     31        1           0.000106947    0.002721712   -0.001076009
 -------------------------------------------------------------------
 Cartesian Forces:  Max     0.010763680 RMS     0.003346389

 GradGradGradGradGradGradGradGradGradGradGradGradGradGradGradGradGradGrad
 Berny optimization.
 FormGI is forming the generalized inverse of G from B-inverse, IUseBI=4.
 Internal  Forces:  Max     0.015782299 RMS     0.002181582
 Search for a local minimum.
 Step number   1 out of a maximum of  186
 All quantities printed in internal units (Hartrees-Bohrs-Radians)
 Mixed Optimization -- RFO/linear search
 Second derivative matrix not updated -- first step.
 ITU=  0
     Eigenvalues ---    0.00392   0.00628   0.00686   0.00736   0.01418
     Eigenvalues ---    0.01445   0.01730   0.02646   0.02697   0.03180
     Eigenvalues ---    0.03204   0.03941   0.04091   0.04498   0.04675
     Eigenvalues ---    0.04856   0.04882   0.05106   0.05150   0.05167
     Eigenvalues ---    0.05193   0.05643   0.05752   0.05940   0.06159
     Eigenvalues ---    0.06407   0.06590   0.06657   0.07656   0.07670
     Eigenvalues ---    0.07898   0.07904   0.07911   0.08072   0.08087
     Eigenvalues ---    0.09248   0.09345   0.09657   0.10882   0.11602
     Eigenvalues ---    0.11628   0.11696   0.11701   0.12489   0.12630
     Eigenvalues ---    0.14633   0.15781   0.16368   0.17735   0.19254
     Eigenvalues ---    0.20513   0.21432   0.22408   0.25000   0.27358
     Eigenvalues ---    0.27546   0.28401   0.28567   0.28780   0.28952
     Eigenvalues ---    0.29538   0.30225   0.35078   0.35080   0.35170
     Eigenvalues ---    0.35225   0.35249   0.35304   0.35314   0.35366
     Eigenvalues ---    0.35372   0.35390   0.35443   0.35474   0.35498
     Eigenvalues ---    0.35546   0.35829   0.35842   0.35909   0.36266
     Eigenvalues ---    0.40089   0.41514   0.41790   0.42483   0.42795
     Eigenvalues ---    0.461081000.000001000.000001000.000001000.00000
     Eigenvalues --- 1000.000001000.000001000.000001000.000001000.00000
     Eigenvalues --- 1000.000001000.000001000.000001000.000001000.00000
     Eigenvalues --- 1000.000001000.000001000.000001000.000001000.00000
     Eigenvalues --- 1000.000001000.000001000.000001000.000001000.00000
     Eigenvalues --- 1000.000001000.000001000.000001000.000001000.00000
     Eigenvalues --- 1000.000001000.000001000.000001000.000001000.00000
     Eigenvalues --- 1000.000001000.000001000.000001000.000001000.00000
     Eigenvalues --- 1000.000001000.000001000.000001000.000001000.00000
     Eigenvalues --- 1000.000001000.000001000.000001000.000001000.00000
     Eigenvalues --- 1000.000001000.000001000.000001000.000001000.00000
     Eigenvalues --- 1000.000001000.000001000.000001000.000001000.00000
     Eigenvalues --- 1000.000001000.000001000.000001000.000001000.00000
     Eigenvalues --- 1000.000001000.000001000.000001000.000001000.00000
     Eigenvalues --- 1000.000001000.000001000.000001000.000001000.00000
     Eigenvalues --- 1000.000001000.000001000.000001000.000001000.00000
     Eigenvalues --- 1000.000001000.000001000.000001000.000001000.00000
     Eigenvalues --- 1000.000001000.000001000.000001000.000001000.00000
     Eigenvalues --- 1000.000001000.000001000.000001000.000001000.00000
     Eigenvalues --- 1000.000001000.000001000.000001000.000001000.00000
 RFO step:  Lambda=-3.79075659D-03 EMin= 3.91546538D-03
 Linear search not attempted -- first point.
 Iteration  1 RMS(Cart)=  0.07722741 RMS(Int)=  0.00116166
 Iteration  2 RMS(Cart)=  0.00351800 RMS(Int)=  0.00006120
 Iteration  3 RMS(Cart)=  0.00000249 RMS(Int)=  0.00006118
 Iteration  4 RMS(Cart)=  0.00000000 RMS(Int)=  0.00006118
 Iteration  1 RMS(Cart)=  0.00003260 RMS(Int)=  0.00000794
 Iteration  2 RMS(Cart)=  0.00001791 RMS(Int)=  0.00000887
 Iteration  3 RMS(Cart)=  0.00000984 RMS(Int)=  0.00001003
 Iteration  4 RMS(Cart)=  0.00000541 RMS(Int)=  0.00001080
 Iteration  5 RMS(Cart)=  0.00000297 RMS(Int)=  0.00001125
 Iteration  6 RMS(Cart)=  0.00000163 RMS(Int)=  0.00001151
 Iteration  7 RMS(Cart)=  0.00000090 RMS(Int)=  0.00001166
 Variable       Old X    -DE/DX   Delta X   Delta X   Delta X     New X
                                 (Linear)    (Quad)   (Total)
    R1        2.88605  -0.00268   0.00000  -0.00837  -0.00836   2.87769
    R2        2.88087  -0.00055   0.00000  -0.00141  -0.00137   2.87950
    R3        2.69192   0.00031   0.00000   0.00074   0.00074   2.69266
    R4        2.05074   0.00605   0.00000   0.01693   0.01693   2.06767
    R5        2.89059   0.00106   0.00000   0.00288   0.00291   2.89350
    R6        2.90955  -0.00030   0.00000  -0.00233  -0.00228   2.90726
    R7        2.05085   0.00266   0.00000   0.00744   0.00744   2.05828
    R8        2.05272   0.00301   0.00000   0.00845   0.00845   2.06118
    R9        2.64009   0.00211   0.00000   0.00454   0.00454   2.64464
   R10        2.88210  -0.00097   0.00000  -0.00170  -0.00171   2.88038
   R11        2.65666   0.00378   0.00000   0.00957   0.00953   2.66619
   R12        2.03667   0.00846   0.00000   0.02309   0.02309   2.05976
   R13        2.68096   0.00323   0.00000   0.00729   0.00726   2.68822
   R14        2.04224   0.00426   0.00000   0.01174   0.01174   2.05398
   R15        2.04875   0.00606   0.00000   0.01690   0.01690   2.06565
   R16        2.88588  -0.00043   0.00000  -0.00235  -0.00236   2.88353
   R17        2.05311   0.00305   0.00000   0.00857   0.00857   2.06168
   R18        2.04962   0.00250   0.00000   0.00697   0.00697   2.05659
   R19        2.89717  -0.00066   0.00000  -0.00227  -0.00229   2.89488
   R20        2.04797   0.00372   0.00000   0.01034   0.01034   2.05832
   R21        2.05046   0.00498   0.00000   0.01393   0.01393   2.06438
   R22        2.66431   0.00281   0.00000   0.00634   0.00635   2.67066
   R23        2.04329   0.00473   0.00000   0.01306   0.01306   2.05635
   R24        2.05548   0.00653   0.00000   0.01842   0.01842   2.07390
   R25        2.67581   0.00361   0.00000   0.00794   0.00793   2.68374
   R26        2.87090   0.00040   0.00000   0.00086   0.00082   2.87172
   R27        2.05545   0.00610   0.00000   0.01719   0.01719   2.07264
   R28        2.04349   0.00436   0.00000   0.01205   0.01205   2.05554
   R29        2.05169   0.00305   0.00000   0.00854   0.00854   2.06023
   R30        2.05400   0.00323   0.00000   0.00909   0.00909   2.06309
   R31        2.05184   0.00398   0.00000   0.01116   0.01116   2.06300
   R32        2.04912   0.00292   0.00000   0.00814   0.00814   2.05726
    A1        1.92063   0.00022   0.00000  -0.00603  -0.00622   1.91441
    A2        2.04539  -0.00318   0.00000  -0.02446  -0.02453   2.02086
    A3        1.89029   0.00090   0.00000   0.00710   0.00725   1.89755
    A4        1.85065   0.00123   0.00000  -0.00134  -0.00171   1.84895
    A5        1.89145  -0.00064   0.00000   0.00171   0.00167   1.89313
    A6        1.85989   0.00159   0.00000   0.02518   0.02528   1.88517
    A7        1.92420   0.00001   0.00000  -0.00770  -0.00784   1.91635
    A8        1.92214  -0.00060   0.00000  -0.00004  -0.00001   1.92213
    A9        1.89367   0.00075   0.00000   0.00496   0.00499   1.89867
   A10        1.92186   0.00085   0.00000   0.00227   0.00233   1.92419
   A11        1.93142  -0.00113   0.00000  -0.00233  -0.00230   1.92912
   A12        1.86966   0.00011   0.00000   0.00320   0.00317   1.87283
   A13        1.88235  -0.00203   0.00000  -0.00795  -0.00795   1.87440
   A14        1.94209  -0.00004   0.00000  -0.00109  -0.00096   1.94114
   A15        1.92522   0.00123   0.00000   0.00851   0.00850   1.93372
   A16        1.94971   0.00275   0.00000   0.00934   0.00920   1.95890
   A17        1.92651   0.00003   0.00000   0.00288   0.00297   1.92948
   A18        1.83848  -0.00185   0.00000  -0.01123  -0.01125   1.82723
   A19        1.92843   0.00131   0.00000   0.00203   0.00183   1.93025
   A20        1.95006  -0.00037   0.00000  -0.00348  -0.00340   1.94665
   A21        1.94024  -0.00091   0.00000  -0.00321  -0.00320   1.93705
   A22        1.85326  -0.00109   0.00000  -0.00060  -0.00055   1.85270
   A23        1.90823   0.00071   0.00000   0.00465   0.00475   1.91297
   A24        1.88084   0.00035   0.00000   0.00087   0.00084   1.88168
   A25        1.92027  -0.00077   0.00000  -0.00644  -0.00665   1.91362
   A26        1.91839   0.00059   0.00000   0.00155   0.00161   1.92000
   A27        1.93202  -0.00021   0.00000  -0.00004   0.00001   1.93203
   A28        1.90363   0.00041   0.00000  -0.00055  -0.00048   1.90315
   A29        1.92561  -0.00007   0.00000   0.00117   0.00123   1.92684
   A30        1.86296   0.00008   0.00000   0.00465   0.00462   1.86758
   A31        1.89636   0.00100   0.00000  -0.00023  -0.00019   1.89616
   A32        1.93989  -0.00015   0.00000  -0.00183  -0.00186   1.93804
   A33        1.92229  -0.00160   0.00000  -0.01282  -0.01282   1.90948
   A34        1.91268  -0.00016   0.00000   0.00332   0.00330   1.91598
   A35        1.90996   0.00066   0.00000   0.01049   0.01048   1.92044
   A36        1.88256   0.00026   0.00000   0.00136   0.00129   1.88385
   A37        1.93850   0.00164   0.00000   0.00891   0.00901   1.94751
   A38        1.92776  -0.00077   0.00000  -0.00722  -0.00733   1.92043
   A39        1.91521  -0.00257   0.00000  -0.01849  -0.01854   1.89667
   A40        1.86632  -0.00037   0.00000   0.00427   0.00426   1.87059
   A41        1.91791   0.00133   0.00000   0.01190   0.01193   1.92984
   A42        1.89721   0.00081   0.00000   0.00126   0.00109   1.89829
   A43        1.93375   0.00218   0.00000   0.00922   0.00924   1.94299
   A44        1.90234   0.00058   0.00000   0.00685   0.00688   1.90922
   A45        1.85688  -0.00120   0.00000  -0.00313  -0.00312   1.85375
   A46        1.93156  -0.00170   0.00000  -0.01016  -0.01021   1.92134
   A47        1.94487  -0.00045   0.00000  -0.00353  -0.00353   1.94133
   A48        1.89224   0.00062   0.00000   0.00117   0.00113   1.89337
   A49        1.97348  -0.00488   0.00000  -0.02738  -0.02734   1.94614
   A50        1.93759  -0.00099   0.00000  -0.00671  -0.00676   1.93084
   A51        1.91896  -0.00024   0.00000   0.00108   0.00110   1.92007
   A52        1.91958   0.00075   0.00000   0.00081   0.00080   1.92038
   A53        1.90826   0.00077   0.00000   0.00519   0.00520   1.91347
   A54        1.90391  -0.00021   0.00000  -0.00302  -0.00302   1.90089
   A55        1.87436  -0.00004   0.00000   0.00297   0.00296   1.87733
   A56        2.14244  -0.01578   0.00000  -0.06219  -0.06219   2.08026
   A57        1.91737   0.00015   0.00000  -0.00547  -0.00556   1.91181
   A58        1.90938  -0.00052   0.00000  -0.00941  -0.00938   1.90000
   A59        1.89377  -0.00020   0.00000   0.00364   0.00367   1.89744
   A60        1.92113   0.00007   0.00000   0.00270   0.00259   1.92372
   A61        1.94917   0.00032   0.00000   0.00504   0.00512   1.95429
   A62        1.87208   0.00016   0.00000   0.00341   0.00339   1.87546
   A63        2.01197  -0.00560   0.00000  -0.03412  -0.03420   1.97777
    D1        0.93101   0.00005   0.00000   0.00629   0.00622   0.93723
    D2        3.03697   0.00042   0.00000   0.00912   0.00903   3.04600
    D3       -1.16085  -0.00040   0.00000   0.00129   0.00122  -1.15963
    D4        3.04632  -0.00046   0.00000  -0.01851  -0.01844   3.02787
    D5       -1.13091  -0.00009   0.00000  -0.01569  -0.01563  -1.14655
    D6        0.95445  -0.00091   0.00000  -0.02351  -0.02344   0.93101
[...]
 0.00022090,-0.00146349,0.00065979,-0.00002080,-0.00003280,-0.00001577,
 0.00004943,-0.00004240,-0.00012246,0.00000871,0.00054680,-0.00168998,0
 .00041773,0.00000670,-0.00000571,0.00000085,-0.00000327,0.00000023,-0.
 00000002,-0.00001210,-0.00000593,0.00001490,-0.00001828,0.00001383,-0.
 00000830,-0.00004571,-0.00002236,-0.00001109,-0.00000027,-0.00000014,0
 .00000137,-0.00000628,-0.00000379,0.00000624,-0.00002771,0.00015924,0.
 00006817,0.00025121,0.00003601,0.00021792,0.01126914,0.02331245,-0.014
 44042,-0.05612536,-0.10653016,0.12645843,-0.00037975,0.00016256,0.0000
 1465,0.00000260,0.00000464,0.00000332,-0.00012109,0.00000313,0.0000797
 5,-0.00002589,-0.00004485,-0.00000703,0.00000365,-0.00000164,0.0000098
 7,0.00125671,0.00040152,-0.00074136,0.00262508,0.00256590,-0.00223939,
 -0.09258103,-0.07401557,0.04776743,0.00399741,0.00596239,-0.00639418,0
 .00418088,0.01028956,-0.00527121,0.00012425,-0.00006543,0.00003931,0.0
 0000587,0.00000935,-0.00001447,0.00009532,0.00004813,-0.00002169,-0.00
 007745,-0.00019641,0.00005448,0.00000230,0.00000132,-0.00000223,0.0000
 0548,0.00000010,0.00000113,0.00000007,0.00000720,-0.00000622,0.0000038
 1,0.00000488,-0.00000071,0.00000226,0.00000095,0.00000265,-0.00000037,
 -0.00000023,-0.00000179,0.00000635,0.00000055,-0.00000198,0.00011257,-
 0.00019516,0.00007944,0.00006901,-0.00013823,0.00028232,0.00013461,0.0
 0001570,0.00010931,0.00064529,-0.00052197,0.00063840,0.08972265,-0.000
 11115,-0.00006391,-0.00009377,0.00000060,0.00000176,0.00000243,-0.0001
 0994,-0.00001164,0.00012850,-0.00000781,-0.00001918,-0.00000558,0.0000
 0265,-0.00000479,0.00000877,-0.00121028,0.00127873,0.00067809,0.000773
 41,0.00084175,-0.00081463,-0.07284961,-0.19969067,0.09500855,0.0021777
 8,0.00843396,-0.00015609,-0.01232131,-0.02489402,0.01403110,0.00027729
 ,0.00000827,0.00009663,0.00000847,0.00000753,-0.00001629,0.00003598,0.
 00004757,-0.00003715,-0.00012248,-0.00005667,-0.00007831,0.00000146,0.
 00000133,-0.00000156,0.00000271,0.00000014,0.00000063,0.00000294,0.000
 00131,-0.00000808,0.00000450,0.00000374,-0.00000101,0.00000100,-0.0000
 0146,0.00000240,0.00000021,0.,-0.00000162,0.00000527,0.00000121,-0.000
 00235,0.00002372,0.00035870,-0.00041173,0.00094947,0.00022695,-0.00009
 789,0.00027467,0.00016430,-0.00006020,0.00077451,-0.00041005,0.0005449
 5,0.07866772,0.21585141,-0.00027528,-0.00060321,-0.00023809,0.00000120
 ,-0.00000106,-0.00000081,0.00011908,0.00004313,-0.00026773,0.00002356,
 0.00002822,0.00000867,-0.00001293,0.00000795,-0.00002059,-0.00060157,0
 .00014775,0.00001062,0.00627868,0.00155157,0.00117198,0.04410675,0.093
 25744,-0.10450597,0.00480875,0.02318582,-0.04201370,-0.00378041,-0.009
 53322,0.00775716,-0.00058144,0.00028179,0.00027601,-0.00002912,-0.0000
 0655,0.00005347,-0.00004606,-0.00006453,0.00006830,0.00007539,-0.00001
 772,-0.00005908,-0.00000234,-0.00000154,0.00000230,-0.00000362,-0.0000
 0054,-0.00000148,-0.00001095,0.00000726,0.00002223,-0.00000398,-0.0000
 0606,0.00000172,-0.00000120,0.00000190,-0.00000209,0.00000092,0.000000
 64,0.00000228,-0.00001118,-0.00000238,0.00000506,-0.00011975,0.0000738
 1,-0.00005244,-0.00002067,0.00027625,-0.00015804,-0.00024854,-0.000464
 73,0.00019732,-0.00113508,-0.00072603,0.00068385,-0.05042447,-0.104918
 03,0.13414753,0.00049840,-0.00034291,0.00037599,-0.00000140,-0.0000059
 3,-0.00000683,0.00024421,0.00006393,-0.00020519,0.00005203,0.00007601,
 0.00002283,-0.00000934,0.00000855,-0.00002572,0.00091628,0.00240229,0.
 00099939,0.00305697,0.00010251,-0.00150624,-0.32083485,0.00508546,-0.0
 0978620,-0.00865191,-0.00119116,-0.00612772,-0.00942457,-0.00048203,0.
 00068186,-0.00047306,0.00008213,0.00006018,-0.00001719,-0.00003174,0.0
 0003360,-0.00014391,-0.00011428,0.00006201,-0.00000772,0.00003766,-0.0
 0003819,-0.00000475,-0.00000263,0.00000452,-0.00001017,-0.00000065,-0.
 00000257,-0.00000946,-0.00003571,0.00000240,-0.00000646,-0.00001295,0.
 00000246,-0.00000294,-0.00000102,-0.00000652,0.00000156,0.00000074,0.0
 0000386,-0.00001595,-0.00000198,0.00000558,-0.00077003,0.00001385,-0.0
 0029916,0.00027885,-0.00006099,-0.00002174,-0.00057247,0.00017377,-0.0
 0014163,0.00014279,0.00003758,0.00009978,-0.01031365,0.00015545,0.0006
 3757,0.34541000,-0.00050156,-0.00023214,-0.00084533,0.00000351,0.00000
 808,0.00000907,-0.00008589,-0.00013068,-0.00000289,-0.00003423,-0.0000
 6559,-0.00002340,-0.00000119,-0.00000437,0.00001456,0.00075671,-0.0050
 9424,-0.00210658,0.00002910,0.00009294,-0.00126345,0.00486355,-0.05188
 708,0.00165292,-0.00556421,0.00069088,-0.00115088,0.03046846,-0.000148
 20,0.00132923,0.00020116,0.00013249,0.00017064,-0.00000854,0.00004917,
 0.00001341,0.00010467,0.00011137,-0.00001014,0.00001162,0.00002493,0.0
 0009699,0.00000291,0.00000237,-0.00000339,0.00000867,0.00000015,0.0000
 0173,0.00000141,0.00008814,0.00004356,0.00000705,0.00001139,-0.0000014
 4,0.00000428,0.00000398,0.00000861,-0.00000140,-0.00000125,-0.00000248
 ,0.00001018,0.00000118,-0.00000317,0.00176881,-0.00010036,0.00025799,0
 .00008776,0.00013497,-0.00012697,-0.00033759,0.00033908,-0.00023830,0.
 00042222,0.00015694,-0.00006467,-0.02454766,0.00157877,-0.00085506,-0.
 00641353,0.05195266,0.00000709,-0.00082675,-0.00087752,0.00000371,0.00
 000236,0.00000340,0.00010321,0.00003486,-0.00025304,0.00000237,-0.0000
 1118,-0.00000230,-0.00001055,0.00000584,-0.00001041,0.00022302,-0.0030
 8103,-0.00040503,0.00144091,-0.00010254,-0.00586208,0.00238958,0.00234
 902,-0.04791776,-0.04372014,-0.00162095,-0.01199268,0.01199640,0.00160
 862,0.00185743,-0.00043739,0.00035011,0.00047590,-0.00002726,0.0000265
 8,0.00005626,0.00002235,-0.00001871,0.00007176,-0.00001082,0.00005031,
 0.00005737,-0.00000066,-0.00000022,0.00000019,0.00000173,-0.00000069,-
 0.00000014,-0.00006077,0.00005630,0.00005058,-0.00000041,0.00000035,0.
 00000027,0.00000363,0.00000474,0.00000305,-0.00000007,0.00000003,0.000
 00065,-0.00000483,-0.00000165,0.00000297,0.00098685,-0.00028344,0.0004
 1676,-0.00049401,-0.00001826,-0.00000024,-0.00180384,0.00008889,-0.000
 32752,-0.00025768,-0.00029379,0.00021892,0.01551088,-0.00125641,0.0023
 7185,0.01517810,0.00238244,0.06158306,-0.00583468,0.00097226,0.0031242
 6,0.00000368,-0.00000358,-0.00000874,0.00108020,-0.00013403,-0.0009090
 7,0.00009614,0.00010960,0.00004215,-0.00002738,0.00003526,-0.00005388,
 -0.00914781,-0.00370749,-0.03426709,-0.00107630,0.00047276,0.00023485,
 0.00225777,-0.00201136,0.01126114,0.00062453,0.00364928,0.00273361,-0.
 05792997,-0.00453634,-0.05634954,-0.00209145,-0.00057661,-0.00248481,-
 0.00008645,-0.00003574,0.00012477,-0.00020160,-0.00024119,0.00026600,0
 .00020583,0.00020133,-0.00010004,-0.00000910,-0.00000708,0.00000910,-0
 .00001501,-0.00000161,-0.00000509,0.00004032,0.00003808,0.00009607,-0.
 00001594,-0.00002363,0.00000704,-0.00000403,0.00000931,-0.00000982,-0.
 00000291,0.00000084,0.00001279,-0.00003627,-0.00000626,0.00001545,0.00
 158484,0.00031345,0.00045160,0.00150925,-0.00036844,0.00047973,0.00020
 405,-0.00007080,-0.00005273,0.00020775,-0.00008357,0.00005637,0.000363
 46,-0.00017669,-0.00033159,-0.00002308,-0.00074274,-0.00036807,0.06565
 509,0.00059513,0.00045243,0.00025697,0.00000134,0.00000109,0.00000222,
 -0.00008136,0.00005207,0.00006740,-0.00000524,-0.00001267,-0.00000530,
 0.00000110,-0.00000210,0.00000086,-0.00046560,-0.00073689,0.00185177,0
 .00191856,-0.00005330,0.00055078,-0.00890111,0.00116320,-0.02642397,0.
 00145962,-0.00623502,-0.00595191,-0.00449481,-0.05143526,-0.02171241,0
 .00028564,0.00044797,0.00022269,0.00000647,-0.00000391,-0.00000462,0.0
 0003580,0.00001612,0.00000028,0.00008119,-0.00001226,-0.00047162,0.000
 00043,0.00000037,-0.00000055,0.00000173,-0.00000009,0.00000048,-0.0000
 0381,-0.00000831,-0.00000660,0.00000040,0.00000071,-0.00000063,-0.0000
 0037,-0.00000056,0.00000210,0.00000022,-0.00000028,-0.00000082,0.00000
 185,-0.00000002,-0.00000059,-0.00028702,0.00004247,0.00037715,0.000043
 86,0.00013688,-0.00035148,-0.00024298,0.00005455,-0.00001121,-0.000202
 60,0.00000418,0.00002754,-0.00068901,0.00076121,0.00098706,0.00033316,
 0.00091041,0.00054716,0.00457491,0.05160686,-0.00017814,0.00018227,0.0
 0178112,-0.00000189,-0.00000768,-0.00000738,0.00033689,0.00001371,-0.0
 0030704,0.00004887,0.00007956,0.00002191,-0.00000970,0.00001159,-0.000
 02762,-0.00033034,0.00019558,-0.00161661,0.00126226,0.00047992,0.00047
 300,-0.00289204,0.00217605,-0.01013702,0.00033348,-0.00369315,-0.00127
 112,-0.05719577,-0.02374449,-0.30166415,-0.00033953,-0.00016861,-0.000
 08650,-0.00002392,-0.00002420,0.00004591,-0.00015063,-0.00012985,0.000
 07978,0.00002320,0.00003839,0.00023799,-0.00000518,-0.00000288,0.00000
 496,-0.00001020,-0.00000027,-0.00000262,0.00001012,-0.00001736,0.00001
 394,-0.00000712,-0.00001353,0.00000358,-0.00000274,0.00000122,-0.00000
 638,0.00000012,0.00000087,0.00000472,-0.00001701,-0.00000231,0.0000067
 3,-0.00029837,0.00026982,0.00021155,-0.00027018,-0.00011425,0.00045801
 ,-0.00005983,-0.00000360,-0.00008866,-0.00016887,-0.00003988,-0.000001
 93,-0.00001277,-0.00030856,0.00046869,0.00032803,-0.00006590,0.0001812
 3,0.06247553,0.02631976,0.32544412,0.00076408,-0.00083090,0.00200845,-
 0.00003351,-0.00005217,-0.00004044,0.00018364,-0.00010923,0.00044225,0
 .00006094,0.00030014,0.00003545,0.00000866,-0.00001177,-0.00001495,-0.
 01667433,-0.02541472,0.01678363,-0.00046215,0.00002114,-0.00011021,0.0
 0532806,0.01161074,-0.00751934,-0.00001538,-0.00125239,-0.00046827,-0.
 09734305,-0.08633932,0.05535409,0.00021468,0.00049042,-0.00042117,0.00
 003083,-0.00002953,-0.00001247,-0.00066194,-0.00023214,-0.00024291,0.0
 0009358,0.00024178,-0.00083821,-0.00000870,-0.00000104,0.00000754,-0.0
 0003601,0.00000375,-0.00000356,0.00001535,-0.00006058,-0.00003034,-0.0
 0000555,-0.00002312,0.00000927,-0.00001810,-0.00002665,-0.00002620,0.0
 0000336,0.00000210,0.00000138,-0.00001423,0.00000200,0.00000016,0.0014
 1050,0.00040090,0.00017979,-0.00574915,0.00082851,-0.00190679,0.000071
 94,-0.00011372,-0.00004502,-0.00003352,0.00012876,-0.00001228,0.000135
 71,0.00276627,0.00158720,0.00070571,-0.00054074,-0.00068892,0.00267762
 ,0.00602917,-0.00283253,0.10938231,-0.00004898,-0.00017631,0.00026370,
 0.00000175,-0.00000029,-0.00000314,0.00001904,0.00004815,-0.00000213,0
 .00001015,0.00000653,0.00000765,-0.00000043,0.00000310,-0.00000393,0.0
 0109080,0.00205772,-0.00173574,0.00022312,-0.00008218,-0.00010776,-0.0
 1191109,-0.02610283,0.01624055,-0.00027231,0.00345374,0.00007536,-0.08
 628165,-0.19590760,0.09535616,-0.00000895,0.00012032,-0.00011332,-0.00
 000254,-0.00001252,-0.00000613,0.00000916,-0.00001622,0.00001006,-0.00
 013062,-0.00003868,-0.00031358,-0.00000028,-0.00000061,0.00000091,-0.0
 0000160,0.00000007,-0.00000022,0.00001335,-0.00002466,-0.00000675,-0.0
 0000110,-0.00000184,-0.00000012,-0.00000091,-0.00000124,-0.00000149,0.
 00000004,-0.00000007,0.00000100,-0.00000271,-0.00000032,0.00000095,-0.
 00042676,0.00055726,-0.00031698,0.00076701,0.00096252,0.00026939,-0.00
 004131,0.00000523,-0.00003713,0.00007990,-0.00000958,0.00018939,0.0022
 7205,-0.00441424,-0.00265138,0.00011968,0.00137883,0.00000898,0.002322
 85,0.00285476,-0.00143965,0.09221015,0.21533886,-0.00063269,-0.0007213
 9,0.00034262,-0.00000090,0.00000523,0.00000536,-0.00012039,-0.00002039
 ,0.00011318,-0.00001959,-0.00002907,-0.00001899,0.00000448,-0.00000490
 ,0.00001111,-0.00121146,-0.00382635,0.00163478,-0.00041788,-0.00009934
 ,-0.00007539,-0.00516743,-0.01044779,0.00405561,0.00035872,0.00057584,
 0.00219199,0.05488782,0.09776852,-0.11263231,0.00019693,0.00003277,0.0
 0000798,0.00001557,0.00000663,-0.00001552,0.00005617,0.00006541,-0.000
 04559,-0.00023843,0.00014833,0.00021113,0.00000131,0.00000137,-0.00000
 189,0.00000465,-0.00000052,0.00000143,-0.00000233,0.00002185,-0.000000
 07,0.00000429,0.00000475,-0.00000072,0.00000190,0.00000093,0.00000339,
 -0.00000064,-0.00000025,-0.00000208,0.00000669,0.00000074,-0.00000244,
 0.00040923,0.00005507,0.00015123,-0.00081959,-0.00027297,0.00075585,0.
 00003145,0.00003518,0.00001089,0.00006503,0.00011553,-0.00014451,0.000
 54424,-0.00223231,0.00007065,-0.00032470,0.00077260,0.00029097,0.01352
 723,0.02373136,-0.01422037,-0.06116789,-0.10568305,0.11730083,0.000136
 73,-0.00015363,-0.00010245,0.00113949,0.00108108,-0.00070575,-0.003592
 80,-0.02057534,-0.02331237,0.00040392,-0.00054288,-0.00050555,-0.00065
 137,0.01648984,0.02412663,-0.00022191,-0.00015405,-0.00012456,0.000002
 36,0.00009373,0.00006479,-0.00007482,-0.00002971,-0.00007215,0.0000983
 5,-0.00004724,0.00002570,0.00004187,0.00013362,0.00008970,0.00253147,-
 0.00049587,-0.00043615,-0.04584536,0.00189284,0.00115672,0.00000728,0.
 00163177,0.00034316,0.00009021,0.00001225,0.00000832,0.00000855,0.0001
 5153,-0.00025050,-0.00000868,-0.00018339,-0.00028196,-0.00413261,0.001
 58419,-0.00196985,0.00000420,0.00005267,0.00000832,0.00027055,0.000266
 97,0.00015649,-0.00416885,-0.00173455,0.00337060,0.00093089,0.00040313
 ,-0.00098498,-0.00002185,0.00018411,0.00011225,0.00007118,-0.00002949,
 0.00004407,-0.00001293,0.00001459,0.00000755,0.00000367,-0.00000993,-0
 .00000112,0.00000165,0.00000129,0.00000351,-0.00000796,0.00002373,0.00
 001704,0.00000484,0.00000053,-0.00000413,-0.00002159,-0.00000662,0.000
 00378,0.05361215,0.00001259,0.00024987,0.00024040,0.00069787,0.0008763
 6,0.00060634,-0.00060984,0.00193711,0.00389296,0.00028318,-0.00095479,
 0.00065767,0.00030162,0.00455531,0.00695193,0.00012492,-0.00003474,-0.
 00001908,-0.00003254,-0.00005626,-0.00004438,0.00000406,-0.00000274,0.
 00001409,-0.00005511,0.00002969,0.00000046,-0.00000345,-0.00000517,0.0
 0004019,-0.00034617,0.00030328,0.00058152,0.00037522,-0.14046584,-0.12
 514704,0.00016316,-0.00003947,-0.00047360,-0.00000770,-0.00001154,0.00
 001366,0.00001090,0.00009054,-0.00018525,-0.00003268,0.00017433,-0.000
 61236,0.00030422,0.00093982,-0.00000373,-0.00006447,0.00019287,0.00014
 155,0.00017577,-0.00084721,0.00107895,-0.00130776,0.00057624,0.0015623
 7,0.00048036,0.00010453,-0.00040259,0.00000451,0.00001270,-0.00001762,
 -0.00000375,-0.00001631,0.00000797,0.00000052,-0.00000346,0.00000163,-
 0.00000238,-0.00000014,0.00000136,0.00000133,0.00000008,-0.00000235,-0
 .00000211,0.00000038,-0.00000205,0.00000836,-0.00000220,-0.00000097,-0
 .00000665,0.00000077,0.00000008,-0.00042726,0.14974234,0.00000030,0.00
 018331,0.00029354,0.00006842,-0.00051657,0.00061468,-0.00023763,-0.013
 27343,-0.01549975,-0.00021908,-0.00092623,-0.00082597,0.00141734,-0.00
 977603,-0.01577665,0.00019148,-0.00015313,-0.00007194,-0.00002221,0.00
 001182,0.00001966,-0.00003815,-0.00001306,-0.00002864,0.00001758,-0.00
 000896,0.00000564,0.00001556,0.00007014,0.00012402,0.00312587,0.000707
 57,0.00152852,-0.00275993,-0.12334252,-0.21886460,-0.00071326,0.001730
 71,0.00005311,0.00005816,0.00001266,0.00001793,-0.00009181,0.00001369,
 0.00024620,0.00014138,0.00042331,-0.00027322,-0.00209669,0.00103320,-0
 .00077060,0.00000496,0.00017211,0.00037678,-0.00041829,0.00075662,0.00
 019387,0.00312349,0.00089164,-0.00094294,0.00000778,0.00018206,0.00068
 858,-0.00003039,0.00011255,0.00002492,0.00003849,-0.00001464,0.0000151
 2,-0.00000294,0.,-0.00000127,-0.00000179,-0.00000529,-0.00000107,0.000
 00092,-0.00000041,0.00000067,-0.00000442,0.00000977,0.00000640,0.00002
 407,-0.00000404,0.00000110,-0.00001518,-0.00000151,0.00000001,-0.00143
 195,0.13605445,0.23968262,0.00001006,-0.00046197,0.00042676,-0.0042026
 1,0.00001724,0.00431642,0.00110071,0.02716958,-0.00651901,-0.00173303,
 -0.00076060,-0.00016223,0.00128545,-0.02766092,0.00639342,-0.00001542,
 0.00004617,-0.00004308,0.00007486,-0.00004757,-0.00001334,0.00000774,-
 0.00001407,0.00001013,-0.00004714,0.00002604,-0.00001294,0.00001228,-0
 .00002108,-0.00000917,-0.00067137,-0.00084047,-0.00022261,-0.04735355,
 0.00452018,-0.00120112,-0.00313944,0.00325239,-0.00486322,-0.00018642,
 -0.00001105,-0.00001222,-0.00007003,-0.00170163,0.00051980,-0.00000779
 ,-0.00019622,-0.00012573,0.00116884,-0.00015486,0.00021576,0.00018718,
 0.00006219,0.00001464,0.00014635,0.00012595,-0.00012638,0.00103366,0.0
 0073347,-0.00035121,0.00098794,0.00026503,-0.00101851,0.00000133,-0.00
 000858,-0.00001786,0.00002685,-0.00002531,0.00002966,-0.00000134,0.000
 00055,0.00000207,-0.00000191,0.00000021,0.00000241,0.00000226,0.000001
 90,-0.00000245,-0.00000593,0.00000347,-0.00000145,-0.00001339,0.000002
 81,-0.00000762,-0.00000977,-0.00000118,0.00000446,-0.00059861,-0.00004
 672,-0.00015204,0.05201224,-0.00007869,0.00004462,-0.00008216,-0.00068
 970,0.00123605,0.00108035,-0.00292076,-0.00457792,-0.00038750,-0.00018
 311,0.00052437,-0.00025443,0.00021610,-0.00382072,0.00041016,0.0000876
 5,-0.00001465,0.00000127,-0.00001839,0.00007353,0.00003227,-0.00000513
 ,0.00001420,-0.00002286,0.00008214,-0.00004306,0.00000629,-0.00002371,
 0.00000603,0.00002591,0.00115921,0.00044635,-0.00013828,0.00616931,-0.
 29629085,0.07914922,0.00053418,0.00068394,0.00020196,0.00009772,-0.000
 01092,0.00001773,0.00003126,-0.00050982,0.00009311,-0.00004024,0.00006
 021,-0.00011424,0.00014539,0.00122035,-0.00015696,0.00002846,0.0000038
 5,0.00018034,-0.00013575,0.00017344,0.00012469,-0.00019292,0.00033883,
 0.00031579,-0.00037285,0.00024629,-0.00008794,-0.00000279,-0.00000752,
 0.00000019,-0.00002171,0.00001381,-0.00002163,0.00000013,-0.00000231,-
 0.00000626,0.00000534,0.00000133,-0.00000059,-0.00000285,-0.00000210,0
 .00000378,0.00000685,-0.00000518,0.00000107,0.00001887,-0.00000238,0.0
 0000843,0.00000885,0.00000135,-0.00000385,0.00037211,-0.01734636,0.005
 67022,-0.00427497,0.31754526,-0.00008002,0.00005858,0.00009362,0.00286
 228,-0.00019066,-0.00134786,0.00099235,0.01660049,-0.00680085,-0.00014
 511,-0.00173930,-0.00046253,-0.00116188,0.01727740,-0.00535329,0.00001
 086,0.00004064,-0.00004559,0.00000106,-0.00000886,-0.00000439,0.000003
 18,-0.00000384,-0.00000103,-0.00001166,0.00000964,0.00000074,0.0000043
 7,-0.00002873,0.00001767,-0.00003572,-0.00041882,0.00002546,-0.0018272
 0,0.07589697,-0.07128509,-0.00378545,0.00262780,-0.00295336,-0.0000094
 4,0.00001616,0.00001534,0.00004102,0.00094749,-0.00007220,0.00016238,0
 .00032123,-0.00012170,0.00059998,0.00002471,0.00034482,-0.00000672,0.0
 0015047,0.00018930,-0.00012048,0.00013032,0.00038044,-0.00077105,-0.00
 017953,0.00037809,-0.00030764,-0.00052080,0.00072752,0.00000238,-0.000
 01102,-0.00001097,0.00002979,-0.00001308,0.00003110,-0.00000120,-0.000
 00238,0.00000298,-0.00000387,-0.00000284,0.00000215,0.00000140,-0.0000
 0007,-0.00000032,-0.00000130,0.00000055,-0.00000029,-0.00000131,0.0000
 0015,-0.00000094,-0.00001253,-0.00000008,0.00000084,0.00064485,-0.0249
 3656,0.00916331,0.00292666,-0.08604607,0.07708703\\-0.00003235,0.00105
 852,-0.00022894,0.00000278,-0.00000340,0.00000143,0.00003130,0.0005504
 1,-0.00019532,-0.00000035,-0.00000791,0.00000503,0.00000821,0.00000668
 ,0.00000825,0.00001529,-0.00053072,0.00008071,-0.00000209,0.00000687,0
 .00000527,-0.00000328,-0.00000505,-0.00001378,0.00000623,-0.00000167,0
 .00000081,0.00000749,-0.00000265,0.00000213,-0.00001270,-0.00110127,0.
 00033416,-0.00000662,0.00000803,0.00000104,-0.00001263,0.00001209,0.00
 000543,0.00000631,-0.00000091,-0.00000032,0.00000024,0.00000104,0.0000
 0450,-0.00000283,0.00000081,0.00000313,0.00000121,0.00000383,0.0000025
 8,-0.00000043,-0.00000438,-0.00000113,-0.00000392,0.00000457,-0.000003
 74,0.00000113,0.00000287,0.00000369,0.00000066,0.00000692,-0.00000145,
 0.00000292,-0.00000114,-0.00000119,0.00000078,-0.00000665,0.00000077,-
 0.00000558,0.00000434,-0.00000782,-0.00000639,0.00000003,-0.00000353,-
 0.00000170,-0.00000441,-0.00000374,0.00000398,-0.00000297,-0.00000542,
 0.00000331,-0.00000549,0.00000095,0.00000291,-0.00000385,-0.00000270,0
 .00000230,0.00000565,0.00000205,-0.00000618,0.00000980,0.00000715\\\@


 NATURE WILL TELL YOU A DIRECT LIE IF SHE CAN.

                                -- CHARLES DARWIN
 Job cpu time:       0 days 13 hours 36 minutes 27.4 seconds.
 Elapsed time:       0 days  0 hours 51 minutes  3.5 seconds.
 File lengths (MBytes):  RWF=    690 Int=      0 D2E=      0 Chk=     33 Scr=      1
 Normal termination of Gaussian 16 at Mon Nov  5 01:15:16 2018.
