 Entering Gaussian System, Link 0=g16
 Initial command:
 /apps/gaussian/g16a03/g16/l1.exe "/jobfs/local/2011868.r-man2/Gau-25036.inp" -scrdir="/jobfs/local/2011868.r-man2/"
 Entering Link 1 = /apps/gaussian/g16a03/g16/l1.exe PID=     25037.
  
 Copyright (c) 1988,1990,1992,1993,1995,1998,2003,2009,2016,
            Gaussian, Inc.  All Rights Reserved.
  
 This is part of the Gaussian(R) 16 program.  It is based on
 the Gaussian(R) 09 system (copyright 2009, Gaussian, Inc.),
 the Gaussian(R) 03 system (copyright 2003, Gaussian, Inc.),
 the Gaussian(R) 98 system (copyright 1998, Gaussian, Inc.),
 the Gaussian(R) 94 system (copyright 1995, Gaussian, Inc.),
 the Gaussian 92(TM) system (copyright 1992, Gaussian, Inc.),
 the Gaussian 90(TM) system (copyright 1990, Gaussian, Inc.),
 the Gaussian 88(TM) system (copyright 1988, Gaussian, Inc.),
 the Gaussian 86(TM) system (copyright 1986, Carnegie Mellon
 University), and the Gaussian 82(TM) system (copyright 1983,
 Carnegie Mellon University). Gaussian is a federally registered
 trademark of Gaussian, Inc.
  
 This software contains proprietary and confidential information,
 including trade secrets, belonging to Gaussian, Inc.
  
 This software is provided under written license and may be
 used, copied, transmitted, or stored only in accord with that
 written license.
  
 The following legend is applicable only to US Government
 contracts under FAR:
  
                    RESTRICTED RIGHTS LEGEND
  
 Use, reproduction and disclosure by the US Government is
 subject to restrictions as set forth in subparagraphs (a)
 and (c) of the Commercial Computer Software - Restricted
 Rights clause in FAR 52.227-19.
  
 Gaussian, Inc.
 340 Quinnipiac St., Bldg. 40, Wallingford CT 06492
  
  
 ---------------------------------------------------------------
 Warning -- This program may not be used in any manner that
 competes with the business of Gaussian, Inc. or will provide
 assistance to any competitor of Gaussian, Inc.  The licensee
 of this program is prohibited from giving any competitor of
 Gaussian, Inc. access to this program.  By using this program,
 the user acknowledges that Gaussian, Inc. is engaged in the
 business of creating and licensing software in the field of
 computational chemistry and represents and warrants to the
 licensee that it is not a competitor of Gaussian, Inc. and that
 it will not use this program in any manner prohibited above.
 ---------------------------------------------------------------
  

 Cite this work as:
 Gaussian 16, Revision A.03,
 M. J. Frisch, G. W. Trucks, H. B. Schlegel, G. E. Scuseria, 
 M. A. Robb, J. R. Cheeseman, G. Scalmani, V. Barone, 
 G. A. Petersson, H. Nakatsuji, X. Li, M. Caricato, A. V. Marenich, 
 J. Bloino, B. G. Janesko, R. Gomperts, B. Mennucci, H. P. Hratchian, 
 J. V. Ortiz, A. F. Izmaylov, J. L. Sonnenberg, D. Williams-Young, 
 F. Ding, F. Lipparini, F. Egidi, J. Goings, B. Peng, A. Petrone, 
 T. Henderson, D. Ranasinghe, V. G. Zakrzewski, J. Gao, N. Rega, 
 G. Zheng, W. Liang, M. Hada, M. Ehara, K. Toyota, R. Fukuda, 
 J. Hasegawa, M. Ishida, T. Nakajima, Y. Honda, O. Kitao, H. Nakai, 
 T. Vreven, K. Throssell, J. A. Montgomery, Jr., J. E. Peralta, 
 F. Ogliaro, M. J. Bearpark, J. J. Heyd, E. N. Brothers, K. N. Kudin, 
 V. N. Staroverov, T. A. Keith, R. Kobayashi, J. Normand, 
 K. Raghavachari, A. P. Rendell, J. C. Burant, S. S. Iyengar, 
 J. Tomasi, M. Cossi, J. M. Millam, M. Klene, C. Adamo, R. Cammi, 
 J. W. Ochterski, R. L. Martin, K. Morokuma, O. Farkas, 
 J. B. Foresman, and D. J. Fox, Gaussian, Inc., Wallingford CT, 2016.
 
 ******************************************
 Gaussian 16:  ES64L-G16RevA.03 25-Dec-2016
                 5-Nov-2018 
 ******************************************
 %mem=6000mb
 %nproc=24
 Will use up to   24 processors via shared memory.
 %chk=2SO_1_e4_D_PSI.inp_extract_6.chk
 ----------------------------------------------------------------------
 #M062X/6-311++G(2d,2p) opt=ModRedundant freq=noraman SCRF=(Solvent=Wat
 er)
 ----------------------------------------------------------------------
 1/18=120,19=15,26=3,38=1/1,3;
 2/9=110,12=2,17=6,18=5,40=1/2;
 3/5=4,6=6,7=1212,11=2,25=1,30=1,70=2201,71=1,72=1,74=-55/1,2,3;
 4//1;
 5/5=2,38=5,53=1/2;
 6/7=2,8=2,9=2,10=2,28=1/1;
 7//1,2,3,16;
 1/18=20,19=15,26=3/3(2);
 2/9=110/2;
 99//99;
 2/9=110/2;
 3/5=4,6=6,7=1212,11=2,25=1,30=1,70=2205,71=1,72=1,74=-55/1,2,3;
 4/5=5,16=3,69=1/1;
 5/5=2,38=5,53=1/2;
 7//1,2,3,16;
 1/18=20,19=15,26=3/3(-5);
 2/9=110/2;
 6/7=2,8=2,9=2,10=2,19=2,28=1/1;
 99/9=1/99;
 ----------------------------
 2SO_1_e4_D_PSI.inp_extract_6
 ----------------------------
 Symbolic Z-matrix:
 Charge =  0 Multiplicity = 1
 C                     1.21126   0.14498  -0.54807 
 C                    -3.94374  -0.41402  -0.19096 
 C                    -1.09522   0.20924   0.35391 
 C                    -2.72506  -0.95866  -0.93772 
 C                    -3.50589   0.6257    0.85674 
 C                     2.19673   1.2952   -0.37688 
 C                     1.51796  -0.93657   0.49122 
 C                     3.81697  -0.38159   0.53451 
 O                     2.84358  -1.38431   0.30221 
 C                     3.63539   0.77719  -0.43139 
 O                    -0.10905   0.67793  -0.51759 
 C                    -2.18701   1.27062   0.43575 
 O                    -1.60399  -1.03083  -0.07079 
 H                     1.34184  -0.30318  -1.52696 
 H                    -4.48001  -1.22536   0.2906 
 H                    -4.62038   0.03197  -0.91426 
 H                    -0.6785    0.02485   1.33112 
 H                    -2.89232  -1.9636   -1.29825 
 H                    -2.47844  -0.3374   -1.79135 
 H                    -3.37366   0.14497   1.82198 
 H                    -4.27056   1.38371   0.98719 
 H                     2.02913   2.0394   -1.14929 
 H                     2.0079    1.77158   0.58267 
 H                     0.88209  -1.80083   0.37493 
 H                     1.41362  -0.55563   1.50239 
 H                     3.734    -0.04111   1.56404 
 H                     4.77959  -0.8577    0.40838 
 H                     4.33491   1.56951  -0.1824 
 H                     3.86924   0.44107  -1.43835 
 H                    -2.29791   1.74768  -0.53325 
 H                    -1.87323   2.03523   1.13752 
 
 The following ModRedundant input section has been read:
 D       6       1      11       3 F                                           
 

 GradGradGradGradGradGradGradGradGradGradGradGradGradGradGradGradGradGrad
 Berny optimization.
 Initialization pass.
                           ----------------------------
                           !    Initial Parameters    !
                           ! (Angstroms and Degrees)  !
 --------------------------                            --------------------------
 ! Name  Definition              Value          Derivative Info.                !
 --------------------------------------------------------------------------------
 ! R1    R(1,6)                  1.5243         estimate D2E/DX2                !
 ! R2    R(1,7)                  1.531          estimate D2E/DX2                !
 ! R3    R(1,11)                 1.4241         estimate D2E/DX2                !
 ! R4    R(1,14)                 1.0845         estimate D2E/DX2                !
 ! R5    R(2,4)                  1.5295         estimate D2E/DX2                !
 ! R6    R(2,5)                  1.5396         estimate D2E/DX2                !
 ! R7    R(2,15)                 1.0852         estimate D2E/DX2                !
 ! R8    R(2,16)                 1.0862         estimate D2E/DX2                !
 ! R9    R(3,11)                 1.397          estimate D2E/DX2                !
 ! R10   R(3,12)                 1.5249         estimate D2E/DX2                !
 ! R11   R(3,13)                 1.4061         estimate D2E/DX2                !
 ! R12   R(3,17)                 1.0782         estimate D2E/DX2                !
 ! R13   R(4,13)                 1.419          estimate D2E/DX2                !
 ! R14   R(4,18)                 1.0807         estimate D2E/DX2                !
 ! R15   R(4,19)                 1.0842         estimate D2E/DX2                !
 ! R16   R(5,12)                 1.5273         estimate D2E/DX2                !
 ! R17   R(5,20)                 1.0864         estimate D2E/DX2                !
 ! R18   R(5,21)                 1.0846         estimate D2E/DX2                !
 ! R19   R(6,10)                 1.53           estimate D2E/DX2                !
 ! R20   R(6,22)                 1.0856         estimate D2E/DX2                !
 ! R21   R(6,23)                 1.0878         estimate D2E/DX2                !
 ! R22   R(7,9)                  1.4119         estimate D2E/DX2                !
 ! R23   R(7,24)                 1.0793         estimate D2E/DX2                !
 ! R24   R(7,25)                 1.0856         estimate D2E/DX2                !
 ! R25   R(8,9)                  1.4167         estimate D2E/DX2                !
 ! R26   R(8,10)                 1.5194         estimate D2E/DX2                !
 ! R27   R(8,26)                 1.0875         estimate D2E/DX2                !
 ! R28   R(8,27)                 1.0813         estimate D2E/DX2                !
 ! R29   R(10,28)                1.0859         estimate D2E/DX2                !
 ! R30   R(10,29)                1.087          estimate D2E/DX2                !
 ! R31   R(12,30)                1.0858         estimate D2E/DX2                !
 ! R32   R(12,31)                1.0842         estimate D2E/DX2                !
 ! A1    A(6,1,7)              109.1065         estimate D2E/DX2                !
 ! A2    A(6,1,11)             108.3359         estimate D2E/DX2                !
 ! A3    A(6,1,14)             109.5939         estimate D2E/DX2                !
 ! A4    A(7,1,11)             115.8208         estimate D2E/DX2                !
 ! A5    A(7,1,14)             107.2583         estimate D2E/DX2                !
 ! A6    A(11,1,14)            106.5942         estimate D2E/DX2                !
 ! A7    A(4,2,5)              110.2494         estimate D2E/DX2                !
 ! A8    A(4,2,15)             110.1298         estimate D2E/DX2                !
 ! A9    A(4,2,16)             108.507          estimate D2E/DX2                !
 ! A10   A(5,2,15)             110.087          estimate D2E/DX2                !
 ! A11   A(5,2,16)             110.6719         estimate D2E/DX2                !
 ! A12   A(15,2,16)            107.1343         estimate D2E/DX2                !
 ! A13   A(11,3,12)            107.7816         estimate D2E/DX2                !
 ! A14   A(11,3,13)            111.2771         estimate D2E/DX2                !
 ! A15   A(11,3,17)            110.4828         estimate D2E/DX2                !
 ! A16   A(12,3,13)            111.7781         estimate D2E/DX2                !
 ! A17   A(12,3,17)            110.3106         estimate D2E/DX2                !
 ! A18   A(13,3,17)            105.2342         estimate D2E/DX2                !
 ! A19   A(2,4,13)             110.4454         estimate D2E/DX2                !
 ! A20   A(2,4,18)             111.758          estimate D2E/DX2                !
 ! A21   A(2,4,19)             111.1989         estimate D2E/DX2                !
 ! A22   A(13,4,18)            106.1882         estimate D2E/DX2                !
 ! A23   A(13,4,19)            109.2965         estimate D2E/DX2                !
 ! A24   A(18,4,19)            107.7817         estimate D2E/DX2                !
 ! A25   A(2,5,12)             110.07           estimate D2E/DX2                !
 ! A26   A(2,5,20)             109.9008         estimate D2E/DX2                !
 ! A27   A(2,5,21)             110.69           estimate D2E/DX2                !
 ! A28   A(12,5,20)            109.0656         estimate D2E/DX2                !
 ! A29   A(12,5,21)            110.2958         estimate D2E/DX2                !
 ! A30   A(20,5,21)            106.7509         estimate D2E/DX2                !
 ! A31   A(1,6,10)             110.3909         estimate D2E/DX2                !
 ! A32   A(1,6,22)             109.7288         estimate D2E/DX2                !
 ! A33   A(1,6,23)             108.4988         estimate D2E/DX2                !
 ! A34   A(10,6,22)            110.6038         estimate D2E/DX2                !
 ! A35   A(10,6,23)            110.0544         estimate D2E/DX2                !
 ! A36   A(22,6,23)            107.4941         estimate D2E/DX2                !
 ! A37   A(1,7,9)              108.7379         estimate D2E/DX2                !
 ! A38   A(1,7,24)             111.9958         estimate D2E/DX2                !
 ! A39   A(1,7,25)             111.417          estimate D2E/DX2                !
 ! A40   A(9,7,24)             106.5471         estimate D2E/DX2                !
 ! A41   A(9,7,25)             109.0388         estimate D2E/DX2                !
 ! A42   A(24,7,25)            108.95           estimate D2E/DX2                !
 ! A43   A(9,8,10)             110.6988         estimate D2E/DX2                !
 ! A44   A(9,8,26)             108.9299         estimate D2E/DX2                !
 ! A45   A(9,8,27)             106.3137         estimate D2E/DX2                !
 ! A46   A(10,8,26)            110.7269         estimate D2E/DX2                !
 ! A47   A(10,8,27)            111.5938         estimate D2E/DX2                !
 ! A48   A(26,8,27)            108.4328         estimate D2E/DX2                !
 ! A49   A(7,9,8)              113.497          estimate D2E/DX2                !
 ! A50   A(6,10,8)             110.3595         estimate D2E/DX2                !
 ! A51   A(6,10,28)            110.5192         estimate D2E/DX2                !
 ! A52   A(6,10,29)            109.8746         estimate D2E/DX2                !
 ! A53   A(8,10,28)            109.4946         estimate D2E/DX2                !
 ! A54   A(8,10,29)            109.1084         estimate D2E/DX2                !
 ! A55   A(28,10,29)           107.4247         estimate D2E/DX2                !
 ! A56   A(1,11,3)             122.8364         estimate D2E/DX2                !
 ! A57   A(3,12,5)             109.8263         estimate D2E/DX2                !
 ! A58   A(3,12,30)            109.3335         estimate D2E/DX2                !
 ! A59   A(3,12,31)            108.5652         estimate D2E/DX2                !
 ! A60   A(5,12,30)            110.0804         estimate D2E/DX2                !
 ! A61   A(5,12,31)            111.6716         estimate D2E/DX2                !
 ! A62   A(30,12,31)           107.2986         estimate D2E/DX2                !
 ! A63   A(3,13,4)             115.1851         estimate D2E/DX2                !
 ! D1    D(7,1,6,10)            54.2561         estimate D2E/DX2                !
 ! D2    D(7,1,6,22)           176.4065         estimate D2E/DX2                !
 ! D3    D(7,1,6,23)           -66.4167         estimate D2E/DX2                !
 ! D4    D(11,1,6,10)         -178.8446         estimate D2E/DX2                !
 ! D5    D(11,1,6,22)          -56.6941         estimate D2E/DX2                !
 ! D6    D(11,1,6,23)           60.4826         estimate D2E/DX2                !
 ! D7    D(14,1,6,10)          -62.9109         estimate D2E/DX2                !
 ! D8    D(14,1,6,22)           59.2396         estimate D2E/DX2                !
 ! D9    D(14,1,6,23)          176.4163         estimate D2E/DX2                !
 ! D10   D(6,1,7,9)            -59.2272         estimate D2E/DX2                !
 ! D11   D(6,1,7,24)          -176.7032         estimate D2E/DX2                !
 ! D12   D(6,1,7,25)            60.9762         estimate D2E/DX2                !
 ! D13   D(11,1,7,9)           178.2613         estimate D2E/DX2                !
 ! D14   D(11,1,7,24)           60.7853         estimate D2E/DX2                !
 ! D15   D(11,1,7,25)          -61.5353         estimate D2E/DX2                !
 ! D16   D(14,1,7,9)            59.4094         estimate D2E/DX2                !
 ! D17   D(14,1,7,24)          -58.0666         estimate D2E/DX2                !
 ! D18   D(14,1,7,25)          179.6128         estimate D2E/DX2                !
 ! D19   D(6,1,11,3)          -126.0082         Frozen                          !
 ! D20   D(7,1,11,3)            -3.0902         estimate D2E/DX2                !
 ! D21   D(14,1,11,3)          116.1258         estimate D2E/DX2                !
 ! D22   D(5,2,4,13)            34.2123         estimate D2E/DX2                !
 ! D23   D(5,2,4,18)           152.1916         estimate D2E/DX2                !
 ! D24   D(5,2,4,19)           -87.3121         estimate D2E/DX2                !
 ! D25   D(15,2,4,13)          -87.4631         estimate D2E/DX2                !
 ! D26   D(15,2,4,18)           30.5162         estimate D2E/DX2                !
 ! D27   D(15,2,4,19)          151.0125         estimate D2E/DX2                !
 ! D28   D(16,2,4,13)          155.563          estimate D2E/DX2                !
 ! D29   D(16,2,4,18)          -86.4577         estimate D2E/DX2                !
 ! D30   D(16,2,4,19)           34.0386         estimate D2E/DX2                !
 ! D31   D(4,2,5,12)            26.1478         estimate D2E/DX2                !
 ! D32   D(4,2,5,20)           -93.9924         estimate D2E/DX2                !
 ! D33   D(4,2,5,21)           148.3383         estimate D2E/DX2                !
 ! D34   D(15,2,5,12)          147.8486         estimate D2E/DX2                !
 ! D35   D(15,2,5,20)           27.7084         estimate D2E/DX2                !
 ! D36   D(15,2,5,21)          -89.9609         estimate D2E/DX2                !
 ! D37   D(16,2,5,12)          -93.9054         estimate D2E/DX2                !
 ! D38   D(16,2,5,20)          145.9544         estimate D2E/DX2                !
 ! D39   D(16,2,5,21)           28.285          estimate D2E/DX2                !
 ! D40   D(12,3,11,1)          161.7455         estimate D2E/DX2                !
 ! D41   D(13,3,11,1)          -75.365          estimate D2E/DX2                !
 ! D42   D(17,3,11,1)           41.1533         estimate D2E/DX2                !
 ! D43   D(11,3,12,5)          156.2018         estimate D2E/DX2                !
 ! D44   D(11,3,12,30)          35.3192         estimate D2E/DX2                !
 ! D45   D(11,3,12,31)         -81.441          estimate D2E/DX2                !
 ! D46   D(13,3,12,5)           33.6197         estimate D2E/DX2                !
 ! D47   D(13,3,12,30)         -87.2629         estimate D2E/DX2                !
 ! D48   D(13,3,12,31)         155.9769         estimate D2E/DX2                !
 ! D49   D(17,3,12,5)          -83.098          estimate D2E/DX2                !
 ! D50   D(17,3,12,30)         156.0194         estimate D2E/DX2                !
 ! D51   D(17,3,12,31)          39.2592         estimate D2E/DX2                !
 ! D52   D(11,3,13,4)          -90.3459         estimate D2E/DX2                !
 ! D53   D(12,3,13,4)           30.2183         estimate D2E/DX2                !
 ! D54   D(17,3,13,4)          149.9677         estimate D2E/DX2                !
 ! D55   D(2,4,13,3)           -67.6921         estimate D2E/DX2                !
 ! D56   D(18,4,13,3)          170.9644         estimate D2E/DX2                !
 ! D57   D(19,4,13,3)           54.9517         estimate D2E/DX2                !
 ! D58   D(2,5,12,3)           -61.6679         estimate D2E/DX2                !
 ! D59   D(2,5,12,30)           58.7634         estimate D2E/DX2                !
 ! D60   D(2,5,12,31)          177.8375         estimate D2E/DX2                !
 ! D61   D(20,5,12,3)           58.9761         estimate D2E/DX2                !
 ! D62   D(20,5,12,30)         179.4074         estimate D2E/DX2                !
 ! D63   D(20,5,12,31)         -61.5185         estimate D2E/DX2                !
 ! D64   D(21,5,12,3)          175.9086         estimate D2E/DX2                !
 ! D65   D(21,5,12,30)         -63.6601         estimate D2E/DX2                !
 ! D66   D(21,5,12,31)          55.414          estimate D2E/DX2                !
 ! D67   D(1,6,10,8)           -51.4173         estimate D2E/DX2                !
 ! D68   D(1,6,10,28)         -172.6796         estimate D2E/DX2                !
 ! D69   D(1,6,10,29)           68.9426         estimate D2E/DX2                !
 ! D70   D(22,6,10,8)         -173.0514         estimate D2E/DX2                !
 ! D71   D(22,6,10,28)          65.6864         estimate D2E/DX2                !
 ! D72   D(22,6,10,29)         -52.6914         estimate D2E/DX2                !
 ! D73   D(23,6,10,8)           68.3209         estimate D2E/DX2                !
 ! D74   D(23,6,10,28)         -52.9414         estimate D2E/DX2                !
 ! D75   D(23,6,10,29)        -171.3192         estimate D2E/DX2                !
 ! D76   D(1,7,9,8)             64.1146         estimate D2E/DX2                !
 ! D77   D(24,7,9,8)          -174.9967         estimate D2E/DX2                !
 ! D78   D(25,7,9,8)           -57.5511         estimate D2E/DX2                !
 ! D79   D(10,8,9,7)           -61.4603         estimate D2E/DX2                !
 ! D80   D(26,8,9,7)            60.5148         estimate D2E/DX2                !
 ! D81   D(27,8,9,7)           177.1732         estimate D2E/DX2                !
 ! D82   D(9,8,10,6)            53.3465         estimate D2E/DX2                !
 ! D83   D(9,8,10,28)          175.216          estimate D2E/DX2                !
 ! D84   D(9,8,10,29)          -67.4722         estimate D2E/DX2                !
 ! D85   D(26,8,10,6)          -67.5689         estimate D2E/DX2                !
 ! D86   D(26,8,10,28)          54.3006         estimate D2E/DX2                !
 ! D87   D(26,8,10,29)         171.6124         estimate D2E/DX2                !
 ! D88   D(27,8,10,6)          171.543          estimate D2E/DX2                !
 ! D89   D(27,8,10,28)         -66.5876         estimate D2E/DX2                !
 ! D90   D(27,8,10,29)          50.7242         estimate D2E/DX2                !
 --------------------------------------------------------------------------------
 Trust Radius=3.00D-01 FncErr=1.00D-07 GrdErr=1.00D-06 EigMax=2.50D+02 EigMin=1.00D-04
 Number of steps in this run=    186 maximum allowed number of steps=    186.
 GradGradGradGradGradGradGradGradGradGradGradGradGradGradGradGradGradGrad

                          Input orientation:                          
 ---------------------------------------------------------------------
 Center     Atomic      Atomic             Coordinates (Angstroms)
 Number     Number       Type             X           Y           Z
 ---------------------------------------------------------------------
      1          6           0        1.211259    0.144982   -0.548069
      2          6           0       -3.943744   -0.414017   -0.190958
      3          6           0       -1.095221    0.209243    0.353910
      4          6           0       -2.725058   -0.958655   -0.937717
      5          6           0       -3.505891    0.625698    0.856742
      6          6           0        2.196733    1.295200   -0.376883
      7          6           0        1.517956   -0.936572    0.491215
      8          6           0        3.816967   -0.381586    0.534511
      9          8           0        2.843584   -1.384314    0.302213
     10          6           0        3.635394    0.777189   -0.431394
     11          8           0       -0.109046    0.677927   -0.517590
     12          6           0       -2.187010    1.270616    0.435751
     13          8           0       -1.603990   -1.030832   -0.070792
     14          1           0        1.341841   -0.303175   -1.526964
     15          1           0       -4.480010   -1.225358    0.290595
     16          1           0       -4.620376    0.031965   -0.914257
     17          1           0       -0.678504    0.024846    1.331120
     18          1           0       -2.892316   -1.963595   -1.298245
     19          1           0       -2.478437   -0.337401   -1.791350
     20          1           0       -3.373661    0.144965    1.821983
     21          1           0       -4.270559    1.383706    0.987190
     22          1           0        2.029131    2.039405   -1.149293
     23          1           0        2.007896    1.771576    0.582673
     24          1           0        0.882086   -1.800825    0.374926
     25          1           0        1.413618   -0.555631    1.502385
     26          1           0        3.734001   -0.041107    1.564040
     27          1           0        4.779589   -0.857698    0.408376
     28          1           0        4.334907    1.569506   -0.182399
     29          1           0        3.869239    0.441074   -1.438351
     30          1           0       -2.297913    1.747681   -0.533252
     31          1           0       -1.873229    2.035227    1.137518
 ---------------------------------------------------------------------
                    Distance matrix (angstroms):
                    1          2          3          4          5
     1  C    0.000000
     2  C    5.197506   0.000000
     3  C    2.477407   2.966381   0.000000
     4  C    4.106633   1.529534   2.385090   0.000000
     5  C    4.945309   1.539610   2.497520   2.517927   0.000000
     6  C    1.524292   6.376633   3.542643   5.442281   5.872817
     7  C    1.530991   5.528887   2.856648   4.477220   5.273835
     8  C    2.870360   7.794613   4.950887   6.730420   7.398831
     9  O    2.392950   6.874046   4.249268   5.720873   6.683074
    10  C    2.507933   7.675944   4.828870   6.612478   7.258112
    11  O    1.424136   4.000492   1.397039   3.114230   3.664706
    12  C    3.712571   2.513338   1.524865   2.673118   1.527285
    13  O    3.088035   2.422674   1.406060   1.419000   2.687311
    14  H    1.084496   5.452945   3.120822   4.161314   5.481365
    15  H    5.913690   1.085241   3.676804   2.158642   2.166988
    16  H    5.844214   1.086228   3.750519   2.138717   2.175094
    17  H    2.667768   3.629203   1.078237   3.209872   2.929194
    18  H    4.674205   2.175495   3.268087   1.080676   3.424161
    19  H    3.923302   2.171232   2.610411   1.084190   2.999269
    20  H    5.161263   2.165499   2.711210   3.042139   1.086407
    21  H    5.825958   2.174086   3.444296   3.403013   1.084578
    22  H    2.149238   6.527857   3.920547   5.624539   6.054685
    23  H    2.135185   6.387280   3.481746   5.671561   5.638262
    24  H    2.178632   5.052929   2.819673   3.929856   5.037311
    25  H    2.176274   5.620391   2.863267   4.821324   5.100388
    26  H    3.295430   7.884596   4.984824   6.987140   7.304857
    27  H    3.827941   8.755147   5.971158   7.625083   8.429156
    28  H    3.452558   8.512961   5.623543   7.536923   7.965469
    29  H    2.818711   7.958007   5.283163   6.759780   7.726194
    30  H    3.857869   2.738405   2.144835   2.769531   2.156418
    31  H    3.991027   3.471409   2.133906   3.741062   2.175130
                    6          7          8          9         10
     6  C    0.000000
     7  C    2.489004   0.000000
     8  C    2.503479   2.365446   0.000000
     9  O    2.838905   1.411908   1.416651   0.000000
    10  C    1.530050   2.876061   1.519441   2.416038   0.000000
    11  O    2.391117   2.504282   4.200365   3.693635   3.746747
    12  C    4.458495   4.312949   6.227942   5.689759   5.907267
    13  O    4.466499   3.173529   5.493149   4.477164   5.554288
    14  H    2.146702   2.122559   3.222123   2.601919   2.761855
    15  H    7.167820   6.008264   8.343337   7.325328   8.389949
    16  H    6.953956   6.371227   8.570806   7.693916   8.303388
    17  H    3.577438   2.540512   4.583561   3.930583   4.720402
    18  H    6.112861   4.869029   7.132757   5.983108   7.132624
    19  H    5.150079   4.641149   6.711460   5.814030   6.361660
    20  H    6.098142   5.183491   7.323931   6.580466   7.389470
    21  H    6.610174   6.255924   8.290311   7.664343   8.055081
    22  H    1.085610   3.436423   3.448587   3.806843   2.165329
    23  H    1.087815   2.753629   2.812679   3.276686   2.160066
    24  H    3.446576   1.079253   3.263929   2.006550   3.857073
    25  H    2.751453   1.085572   2.596759   2.042531   3.232986
    26  H    2.813555   2.619860   1.087538   2.046767   2.158955
    27  H    3.452933   3.263638   1.081311   2.009157   2.165006
    28  H    2.164453   3.830065   2.142191   3.344241   1.085856
    29  H    2.157202   3.339111   2.138150   2.722788   1.087023
    30  H    4.520070   4.776568   6.562443   6.078025   6.013016
    31  H    4.405183   4.555155   6.211516   5.885518   5.864220
                   11         12         13         14         15
    11  O    0.000000
    12  C    2.361795   0.000000
    13  O    2.313945   2.427583   0.000000
    14  H    2.021502   4.333804   3.365686   0.000000
    15  H    4.835389   3.392463   2.905156   6.168297   0.000000
    16  H    4.574572   3.045989   3.307500   6.002979   1.747064
    17  H    2.041697   2.151562   1.984021   3.515400   4.134870
    18  H    3.915821   3.736886   2.009097   4.553833   2.364356
    19  H    2.875303   2.762359   2.050811   3.829569   3.021466
    20  H    4.051588   2.144031   2.845493   5.801055   2.333869
    21  H    4.481147   2.158252   3.749655   6.376956   2.708566
    22  H    2.612369   4.569381   4.877406   2.470361   7.422996
    23  H    2.624517   4.227267   4.618033   3.032951   7.152611
    24  H    2.814807   4.342442   2.640479   2.464045   5.393547
    25  H    2.814333   4.175812   3.436082   3.040698   6.054075
    26  H    4.429357   6.168632   5.669778   3.917322   8.396076
    27  H    5.207140   7.284502   6.403878   3.983861   9.267644
    28  H    4.544886   6.557961   6.484189   3.777993   9.259468
    29  H    4.090312   6.393634   5.830348   2.636190   8.687704
    30  H    2.436341   1.085752   2.900954   4.294332   3.778787
    31  H    2.773804   1.084235   3.306542   4.785840   4.259577
                   16         17         18         19         20
    16  H    0.000000
    17  H    4.536532   0.000000
    18  H    2.667564   3.970947   0.000000
    19  H    2.343849   3.622265   1.748987   0.000000
    20  H    3.008999   2.742124   3.796517   3.753702   0.000000
    21  H    2.359041   3.855859   4.281027   3.727492   1.742350
    22  H    6.949892   4.188339   6.345616   5.136109   6.450391
    23  H    7.014345   3.290590   6.442161   5.496449   5.756988
    24  H    5.941229   2.585116   4.131840   4.257637   4.898107
    25  H    6.526447   2.177903   5.326064   5.103372   4.848816
    26  H    8.714523   4.419140   7.469720   7.066882   7.114775
    27  H    9.534160   5.605454   7.936856   7.601871   8.335413
    28  H    9.115741   5.459945   8.121617   7.255803   8.091285
    29  H    8.515610   5.340897   7.177791   6.404969   7.948400
    30  H    2.912504   3.011068   3.835635   2.441919   3.045171
    31  H    3.971103   2.346589   4.791874   3.817579   2.508561
                   21         22         23         24         25
    21  H    0.000000
    22  H    6.684354   0.000000
    23  H    6.303418   1.752681   0.000000
    24  H    6.088173   4.287927   3.751354   0.000000
    25  H    6.027962   3.760913   2.571950   1.761873   0.000000
    26  H    8.150818   3.820640   2.688557   3.555843   2.377544
    27  H    9.341525   4.287722   3.824362   4.010129   3.552163
    28  H    8.686570   2.544070   2.457875   4.857130   3.986055
    29  H    8.545649   2.454427   3.052765   4.151767   3.958715
    30  H    2.517053   4.380402   4.448129   4.850678   4.819183
    31  H    2.488829   4.523045   3.929440   4.784203   4.201076
                   26         27         28         29         30
    26  H    0.000000
    27  H    1.759442   0.000000
    28  H    2.450553   2.537336   0.000000
    29  H    3.043869   2.434327   1.751463   0.000000
    30  H    6.631921   7.600375   6.644482   6.368688   0.000000
    31  H    5.994507   7.291135   6.363963   6.492485   1.747716
                   31
    31  H    0.000000
 Stoichiometry    C10H18O3
 Framework group  C1[X(C10H18O3)]
 Deg. of freedom    87
 Full point group                 C1      NOp   1
 Largest Abelian subgroup         C1      NOp   1
 Largest concise Abelian subgroup C1      NOp   1
                         Standard orientation:                         
 ---------------------------------------------------------------------
 Center     Atomic      Atomic             Coordinates (Angstroms)
 Number     Number       Type             X           Y           Z
 ---------------------------------------------------------------------
      1          6           0       -1.211259    0.144982    0.548069
      2          6           0        3.943744   -0.414017    0.190958
      3          6           0        1.095221    0.209243   -0.353910
      4          6           0        2.725058   -0.958655    0.937717
      5          6           0        3.505891    0.625698   -0.856742
      6          6           0       -2.196733    1.295200    0.376883
      7          6           0       -1.517956   -0.936572   -0.491215
      8          6           0       -3.816967   -0.381586   -0.534511
      9          8           0       -2.843584   -1.384314   -0.302213
     10          6           0       -3.635394    0.777189    0.431394
     11          8           0        0.109046    0.677927    0.517590
     12          6           0        2.187010    1.270616   -0.435751
     13          8           0        1.603990   -1.030832    0.070792
     14          1           0       -1.341841   -0.303175    1.526964
     15          1           0        4.480010   -1.225358   -0.290595
     16          1           0        4.620376    0.031965    0.914257
     17          1           0        0.678504    0.024846   -1.331120
     18          1           0        2.892316   -1.963595    1.298245
     19          1           0        2.478437   -0.337401    1.791350
     20          1           0        3.373661    0.144965   -1.821983
     21          1           0        4.270559    1.383706   -0.987190
     22          1           0       -2.029131    2.039405    1.149293
     23          1           0       -2.007896    1.771576   -0.582673
     24          1           0       -0.882086   -1.800825   -0.374926
     25          1           0       -1.413618   -0.555631   -1.502385
     26          1           0       -3.734001   -0.041107   -1.564040
     27          1           0       -4.779589   -0.857698   -0.408376
     28          1           0       -4.334907    1.569506    0.182399
     29          1           0       -3.869239    0.441074    1.438351
     30          1           0        2.297913    1.747681    0.533252
     31          1           0        1.873229    2.035227   -1.137518
 ---------------------------------------------------------------------
 Rotational constants (GHZ):           2.2006988           0.3744271           0.3501212
 Standard basis: 6-311++G(2d,2p) (5D, 7F)
 There are   557 symmetry adapted cartesian basis functions of A   symmetry.
 There are   531 symmetry adapted basis functions of A   symmetry.
   531 basis functions,   762 primitive gaussians,   557 cartesian basis functions
    51 alpha electrons       51 beta electrons
       nuclear repulsion energy       884.7105835160 Hartrees.
 NAtoms=   31 NActive=   31 NUniq=   31 SFac= 1.00D+00 NAtFMM=   60 NAOKFM=F Big=F
 Integral buffers will be    131072 words long.
 Raffenetti 2 integral format.
 Two-electron integral symmetry is turned on.
 ------------------------------------------------------------------------------
 Polarizable Continuum Model (PCM)
 =================================
 Model                : PCM.
 Atomic radii         : UFF (Universal Force Field).
 Polarization charges : Total charges.
 Charge compensation  : None.
 Solution method      : On-the-fly selection.
 Cavity type          : Scaled VdW (van der Waals Surface) (Alpha=1.100).
 Cavity algorithm     : GePol (No added spheres)
                        Default sphere list used, NSphG=   31.
                        Lebedev-Laikov grids with approx.  5.0 points / Ang**2.
                        Smoothing algorithm: York/Karplus (Gamma=1.0000).
                        Polarization charges: spherical gaussians, with
                                              point-specific exponents (IZeta= 3).
                        Self-potential: point-specific (ISelfS= 7).
                        Self-field    : sphere-specific E.n sum rule (ISelfD= 2).
 1st derivatives      : Analytical E(r).r(x)/FMM algorithm (CHGder, D1EAlg=3).
                        Cavity 1st derivative terms included.
 Solvent              : Water, Eps=  78.355300 Eps(inf)=   1.777849
 ------------------------------------------------------------------------------
 One-electron integrals computed using PRISM.
 NBasis=   531 RedAO= T EigKep=  4.80D-06  NBF=   531
 NBsUse=   531 1.00D-06 EigRej= -1.00D+00 NBFU=   531
 ExpMin= 3.60D-02 ExpMax= 8.59D+03 ExpMxC= 1.30D+03 IAcc=3 IRadAn=         5 AccDes= 0.00D+00
 Harris functional with IExCor= 1009 and IRadAn=       5 diagonalized for initial guess.
 HarFok:  IExCor= 1009 AccDes= 0.00D+00 IRadAn=         5 IDoV= 1 UseB2=F ITyADJ=14
 ICtDFT=  3500011 ScaDFX=  1.000000  1.000000  1.000000  1.000000
 FoFCou: FMM=F IPFlag=           0 FMFlag=      100000 FMFlg1=           0
         NFxFlg=           0 DoJE=T BraDBF=F KetDBF=T FulRan=T
         wScrn=  0.000000 ICntrl=       500 IOpCl=  0 I1Cent=   200000004 NGrid=           0
         NMat0=    1 NMatS0=      1 NMatT0=    0 NMatD0=    1 NMtDS0=    0 NMtDT0=    0
 Petite list used in FoFCou.
 Requested convergence on RMS density matrix=1.00D-08 within 128 cycles.
 Requested convergence on MAX density matrix=1.00D-06.
 Requested convergence on             energy=1.00D-06.
 No special actions if energy rises.
 Inv3:  Mode=1 IEnd=    12966723.
 Iteration    1 A*A^-1 deviation from unit magnitude is 3.77D-15 for   2070.
 Iteration    1 A*A^-1 deviation from orthogonality  is 2.40D-15 for   2070    895.
 Iteration    1 A^-1*A deviation from unit magnitude is 3.77D-15 for   2070.
 Iteration    1 A^-1*A deviation from orthogonality  is 1.94D-15 for   2057   1384.
 Error on total polarization charges =  0.01490
 SCF Done:  E(RM062X) =  -617.489598645     A.U. after   12 cycles
            NFock= 12  Conv=0.57D-08     -V/T= 2.0035

 **********************************************************************

            Population analysis using the SCF density.

 **********************************************************************

 Orbital symmetries:
       Occupied  (A) (A) (A) (A) (A) (A) (A) (A) (A) (A) (A) (A)
                 (A) (A) (A) (A) (A) (A) (A) (A) (A) (A) (A) (A)
                 (A) (A) (A) (A) (A) (A) (A) (A) (A) (A) (A) (A)
                 (A) (A) (A) (A) (A) (A) (A) (A) (A) (A) (A) (A)
                 (A) (A) (A)
       Virtual   (A) (A) (A) (A) (A) (A) (A) (A) (A) (A) (A) (A)
                 (A) (A) (A) (A) (A) (A) (A) (A) (A) (A) (A) (A)
                 (A) (A) (A) (A) (A) (A) (A) (A) (A) (A) (A) (A)
                 (A) (A) (A) (A) (A) (A) (A) (A) (A) (A) (A) (A)
                 (A) (A) (A) (A) (A) (A) (A) (A) (A) (A) (A) (A)
                 (A) (A) (A) (A) (A) (A) (A) (A) (A) (A) (A) (A)
                 (A) (A) (A) (A) (A) (A) (A) (A) (A) (A) (A) (A)
                 (A) (A) (A) (A) (A) (A) (A) (A) (A) (A) (A) (A)
                 (A) (A) (A) (A) (A) (A) (A) (A) (A) (A) (A) (A)
                 (A) (A) (A) (A) (A) (A) (A) (A) (A) (A) (A) (A)
                 (A) (A) (A) (A) (A) (A) (A) (A) (A) (A) (A) (A)
                 (A) (A) (A) (A) (A) (A) (A) (A) (A) (A) (A) (A)
                 (A) (A) (A) (A) (A) (A) (A) (A) (A) (A) (A) (A)
                 (A) (A) (A) (A) (A) (A) (A) (A) (A) (A) (A) (A)
                 (A) (A) (A) (A) (A) (A) (A) (A) (A) (A) (A) (A)
                 (A) (A) (A) (A) (A) (A) (A) (A) (A) (A) (A) (A)
                 (A) (A) (A) (A) (A) (A) (A) (A) (A) (A) (A) (A)
                 (A) (A) (A) (A) (A) (A) (A) (A) (A) (A) (A) (A)
                 (A) (A) (A) (A) (A) (A) (A) (A) (A) (A) (A) (A)
                 (A) (A) (A) (A) (A) (A) (A) (A) (A) (A) (A) (A)
                 (A) (A) (A) (A) (A) (A) (A) (A) (A) (A) (A) (A)
                 (A) (A) (A) (A) (A) (A) (A) (A) (A) (A) (A) (A)
                 (A) (A) (A) (A) (A) (A) (A) (A) (A) (A) (A) (A)
                 (A) (A) (A) (A) (A) (A) (A) (A) (A) (A) (A) (A)
                 (A) (A) (A) (A) (A) (A) (A) (A) (A) (A) (A) (A)
                 (A) (A) (A) (A) (A) (A) (A) (A) (A) (A) (A) (A)
                 (A) (A) (A) (A) (A) (A) (A) (A) (A) (A) (A) (A)
                 (A) (A) (A) (A) (A) (A) (A) (A) (A) (A) (A) (A)
                 (A) (A) (A) (A) (A) (A) (A) (A) (A) (A) (A) (A)
                 (A) (A) (A) (A) (A) (A) (A) (A) (A) (A) (A) (A)
                 (A) (A) (A) (A) (A) (A) (A) (A) (A) (A) (A) (A)
                 (A) (A) (A) (A) (A) (A) (A) (A) (A) (A) (A) (A)
                 (A) (A) (A) (A) (A) (A) (A) (A) (A) (A) (A) (A)
                 (A) (A) (A) (A) (A) (A) (A) (A) (A) (A) (A) (A)
                 (A) (A) (A) (A) (A) (A) (A) (A) (A) (A) (A) (A)
                 (A) (A) (A) (A) (A) (A) (A) (A) (A) (A) (A) (A)
                 (A) (A) (A) (A) (A) (A) (A) (A) (A) (A) (A) (A)
                 (A) (A) (A) (A) (A) (A) (A) (A) (A) (A) (A) (A)
                 (A) (A) (A) (A) (A) (A) (A) (A) (A) (A) (A) (A)
                 (A) (A) (A) (A) (A) (A) (A) (A) (A) (A) (A) (A)
 The electronic state is 1-A.
 Alpha  occ. eigenvalues --  -19.63048 -19.62857 -19.62680 -10.63559 -10.58842
 Alpha  occ. eigenvalues --  -10.58149 -10.57879 -10.57718 -10.53150 -10.53107
 Alpha  occ. eigenvalues --  -10.53094 -10.53029 -10.52772  -1.19881  -1.16884
 Alpha  occ. eigenvalues --   -1.13592  -0.90861  -0.89782  -0.87274  -0.84787
 Alpha  occ. eigenvalues --   -0.75643  -0.74811  -0.73246  -0.70243  -0.65963
 Alpha  occ. eigenvalues --   -0.62435  -0.61025  -0.59327  -0.57729  -0.56768
 Alpha  occ. eigenvalues --   -0.55518  -0.53158  -0.51800  -0.50845  -0.49429
 Alpha  occ. eigenvalues --   -0.48281  -0.46952  -0.45655  -0.45518  -0.44411
 Alpha  occ. eigenvalues --   -0.43910  -0.43476  -0.41145  -0.40596  -0.39561
 Alpha  occ. eigenvalues --   -0.38631  -0.37564  -0.35721  -0.34408  -0.33703
 Alpha  occ. eigenvalues --   -0.32133
 Alpha virt. eigenvalues --   -0.00145   0.00728   0.00821   0.01159   0.02084
 Alpha virt. eigenvalues --    0.02355   0.02514   0.03656   0.03695   0.04258
 Alpha virt. eigenvalues --    0.04448   0.04553   0.05616   0.05682   0.07030
 Alpha virt. eigenvalues --    0.07226   0.07532   0.08043   0.08890   0.09417
 Alpha virt. eigenvalues --    0.09909   0.10506   0.11106   0.11453   0.11792
 Alpha virt. eigenvalues --    0.12264   0.12483   0.12735   0.12945   0.13478
 Alpha virt. eigenvalues --    0.13528   0.13699   0.14175   0.14578   0.14677
 Alpha virt. eigenvalues --    0.14925   0.15313   0.15544   0.16175   0.16420
 Alpha virt. eigenvalues --    0.16557   0.16916   0.17060   0.17219   0.17860
 Alpha virt. eigenvalues --    0.18072   0.18415   0.18843   0.19085   0.19253
 Alpha virt. eigenvalues --    0.19868   0.19949   0.20174   0.20388   0.21179
 Alpha virt. eigenvalues --    0.22229   0.22888   0.23317   0.23921   0.24184
 Alpha virt. eigenvalues --    0.24971   0.25485   0.25762   0.26548   0.26669
 Alpha virt. eigenvalues --    0.27111   0.27402   0.28125   0.28728   0.29186
 Alpha virt. eigenvalues --    0.29706   0.30572   0.31081   0.31438   0.31844
 Alpha virt. eigenvalues --    0.32236   0.32846   0.33722   0.33825   0.34535
 Alpha virt. eigenvalues --    0.34846   0.35180   0.35412   0.35721   0.36318
 Alpha virt. eigenvalues --    0.36726   0.37527   0.37565   0.37810   0.38478
 Alpha virt. eigenvalues --    0.39216   0.39623   0.40168   0.40228   0.41232
 Alpha virt. eigenvalues --    0.41451   0.42015   0.42452   0.43726   0.45761
 Alpha virt. eigenvalues --    0.46122   0.47088   0.48790   0.50277   0.50641
 Alpha virt. eigenvalues --    0.51884   0.52141   0.52941   0.53582   0.54178
 Alpha virt. eigenvalues --    0.56837   0.57292   0.57369   0.57803   0.58519
 Alpha virt. eigenvalues --    0.59599   0.59962   0.60140   0.60910   0.61225
 Alpha virt. eigenvalues --    0.61597   0.61914   0.62420   0.63008   0.63845
 Alpha virt. eigenvalues --    0.65067   0.65478   0.65731   0.66778   0.67172
 Alpha virt. eigenvalues --    0.68252   0.68660   0.69372   0.69707   0.69811
 Alpha virt. eigenvalues --    0.70892   0.71749   0.72231   0.72291   0.72585
 Alpha virt. eigenvalues --    0.73438   0.74135   0.74586   0.75030   0.75348
 Alpha virt. eigenvalues --    0.76339   0.77267   0.77436   0.78289   0.78906
 Alpha virt. eigenvalues --    0.79880   0.81214   0.83564   0.84713   0.85495
 Alpha virt. eigenvalues --    0.85754   0.86898   0.88116   0.88887   0.90150
 Alpha virt. eigenvalues --    0.90688   0.91136   0.91721   0.93099   0.95419
 Alpha virt. eigenvalues --    0.96895   0.97818   0.98360   0.99891   1.01081
 Alpha virt. eigenvalues --    1.02262   1.03707   1.05192   1.05934   1.08233
 Alpha virt. eigenvalues --    1.08614   1.09485   1.09690   1.11157   1.11411
 Alpha virt. eigenvalues --    1.12221   1.12486   1.15180   1.15368   1.16204
 Alpha virt. eigenvalues --    1.17504   1.18257   1.19232   1.19924   1.20207
 Alpha virt. eigenvalues --    1.21294   1.21634   1.22292   1.23850   1.24824
 Alpha virt. eigenvalues --    1.25551   1.26032   1.26664   1.27017   1.27899
 Alpha virt. eigenvalues --    1.28284   1.29561   1.29684   1.30606   1.31533
 Alpha virt. eigenvalues --    1.31678   1.31976   1.32441   1.34037   1.34895
 Alpha virt. eigenvalues --    1.35352   1.35597   1.35969   1.37383   1.37727
 Alpha virt. eigenvalues --    1.38571   1.38977   1.39829   1.40290   1.41180
 Alpha virt. eigenvalues --    1.42663   1.43155   1.44557   1.45051   1.45564
 Alpha virt. eigenvalues --    1.46004   1.46919   1.47276   1.47423   1.48710
 Alpha virt. eigenvalues --    1.49200   1.49832   1.50501   1.51742   1.52357
 Alpha virt. eigenvalues --    1.52679   1.53271   1.53382   1.54446   1.55028
 Alpha virt. eigenvalues --    1.55464   1.56142   1.57398   1.57820   1.58121
 Alpha virt. eigenvalues --    1.59274   1.59924   1.60456   1.60961   1.62502
 Alpha virt. eigenvalues --    1.63418   1.64036   1.64193   1.65586   1.66634
 Alpha virt. eigenvalues --    1.66762   1.67578   1.68185   1.69627   1.70444
 Alpha virt. eigenvalues --    1.71550   1.73769   1.74529   1.76734   1.77086
 Alpha virt. eigenvalues --    1.78654   1.79441   1.80344   1.82550   1.84729
 Alpha virt. eigenvalues --    1.85580   1.86788   1.87908   1.96008   1.99644
 Alpha virt. eigenvalues --    2.01400   2.03281   2.08934   2.11162   2.20488
 Alpha virt. eigenvalues --    2.21692   2.25339   2.33938   2.36072   2.39666
 Alpha virt. eigenvalues --    2.41933   2.44297   2.45462   2.48193   2.53487
 Alpha virt. eigenvalues --    2.60079   2.75274   2.76864   2.78986   2.80478
 Alpha virt. eigenvalues --    2.86803   2.89491   2.89806   2.92232   2.93614
 Alpha virt. eigenvalues --    2.96144   2.97038   2.99370   3.02508   3.04007
 Alpha virt. eigenvalues --    3.05837   3.06720   3.08219   3.09249   3.10718
 Alpha virt. eigenvalues --    3.13518   3.14139   3.16758   3.18105   3.20442
 Alpha virt. eigenvalues --    3.24317   3.26228   3.30031   3.32485   3.33390
 Alpha virt. eigenvalues --    3.35842   3.36512   3.38541   3.38804   3.40252
 Alpha virt. eigenvalues --    3.40960   3.42564   3.44083   3.45897   3.46299
 Alpha virt. eigenvalues --    3.47271   3.47698   3.48509   3.49954   3.51173
 Alpha virt. eigenvalues --    3.52147   3.53476   3.53915   3.55400   3.56045
 Alpha virt. eigenvalues --    3.56810   3.57833   3.59285   3.59565   3.60069
 Alpha virt. eigenvalues --    3.61721   3.62140   3.63070   3.63713   3.64183
 Alpha virt. eigenvalues --    3.65613   3.66979   3.68194   3.69708   3.70247
 Alpha virt. eigenvalues --    3.70724   3.71134   3.72097   3.72642   3.73935
 Alpha virt. eigenvalues --    3.74346   3.75489   3.76984   3.77648   3.79592
 Alpha virt. eigenvalues --    3.80718   3.81216   3.82062   3.84006   3.84590
 Alpha virt. eigenvalues --    3.85879   3.87988   3.89065   3.89470   3.90577
 Alpha virt. eigenvalues --    3.92312   3.92973   3.95058   3.98417   3.99653
 Alpha virt. eigenvalues --    4.00627   4.02517   4.02856   4.03649   4.04480
 Alpha virt. eigenvalues --    4.05105   4.05325   4.06334   4.07265   4.07629
 Alpha virt. eigenvalues --    4.08323   4.09051   4.10224   4.11707   4.11900
 Alpha virt. eigenvalues --    4.13654   4.14241   4.14956   4.15560   4.16217
 Alpha virt. eigenvalues --    4.17128   4.17719   4.19265   4.19829   4.20868
 Alpha virt. eigenvalues --    4.21334   4.22731   4.24520   4.26840   4.27091
 Alpha virt. eigenvalues --    4.27976   4.28253   4.29713   4.31636   4.32248
 Alpha virt. eigenvalues --    4.32858   4.33976   4.36235   4.37035   4.37850
 Alpha virt. eigenvalues --    4.39813   4.43920   4.45177   4.48045   4.54509
 Alpha virt. eigenvalues --    4.57027   4.58787   4.75102   4.77125   4.82364
 Alpha virt. eigenvalues --    4.84122   4.92727   4.95818   4.98771   5.00727
 Alpha virt. eigenvalues --    5.02697   5.06900   5.08363   5.12246   5.13035
 Alpha virt. eigenvalues --    5.13754   5.14651   5.18127   5.30940   5.37321
 Alpha virt. eigenvalues --    5.40647   5.57823   5.59123   5.64354   5.85557
 Alpha virt. eigenvalues --    5.91645   6.03971   7.01728   7.05518   7.05761
 Alpha virt. eigenvalues --    7.07925   7.09929   7.11933   7.14987   7.19086
 Alpha virt. eigenvalues --    7.30099   7.36171   7.39724   7.42793   7.54025
 Alpha virt. eigenvalues --    7.55069   7.62322  23.95270  23.99157  24.04911
 Alpha virt. eigenvalues --   24.07777  24.10693  24.11703  24.13538  24.14514
 Alpha virt. eigenvalues --   24.15890  24.21405  50.17806  50.18875  50.25258
          Condensed to atoms (all electrons):
               1          2          3          4          5          6
     1  C    7.618498   0.000665  -1.014805   0.081051  -0.057591  -1.225446
     2  C    0.000665   6.046357   0.565684  -0.304191  -0.295780  -0.003164
     3  C   -1.014805   0.565684   7.335938  -0.488893  -0.306784   0.261472
     4  C    0.081051  -0.304191  -0.488893   5.833196   0.284531  -0.006889
     5  C   -0.057591  -0.295780  -0.306784   0.284531   5.798548   0.010446
     6  C   -1.225446  -0.003164   0.261472  -0.006889   0.010446   6.758710
     7  C   -0.661902   0.018786   0.276526  -0.017843  -0.017980   0.419200
     8  C    0.091511   0.001071   0.010574  -0.001624  -0.001982  -0.120790
     9  O    0.042642  -0.000051  -0.005860   0.000698   0.000173  -0.045085
    10  C    0.260813  -0.001158  -0.083993   0.002162  -0.003609  -0.246898
    11  O    0.132920   0.031469   0.347186  -0.018603  -0.023293  -0.196751
    12  C    0.187983  -0.351504  -1.401024  -0.027287   0.237051  -0.041763
    13  O   -0.042014  -0.010698   0.319998   0.028593  -0.097459   0.018638
    14  H    0.572193  -0.001463  -0.052309   0.005774  -0.003192  -0.098108
    15  H   -0.002471   0.482558  -0.007239  -0.090630  -0.054686   0.000476
    16  H    0.002373   0.478216   0.031806  -0.048212  -0.066887  -0.000395
    17  H    0.025244   0.066629   0.488656  -0.095267  -0.039508   0.021989
    18  H    0.004624  -0.019846   0.023133   0.439300  -0.001369  -0.001007
    19  H   -0.010648  -0.093034  -0.031186   0.479296  -0.000763   0.002745
    20  H    0.001574  -0.084632  -0.013771   0.011938   0.477694  -0.001013
    21  H   -0.002589  -0.052880   0.009881   0.008304   0.448484   0.000351
    22  H   -0.052222  -0.000242   0.009761   0.000114   0.000721   0.431534
    23  H    0.048272   0.000819  -0.024077  -0.000149  -0.002197   0.452735
    24  H   -0.112759  -0.001136   0.021867  -0.000267  -0.000482   0.040783
    25  H    0.170615  -0.006928  -0.065528   0.006856  -0.001242  -0.169157
    26  H    0.047805   0.000150  -0.005881  -0.000015   0.000287  -0.021647
    27  H    0.004824  -0.000002  -0.000722  -0.000019  -0.000035   0.007459
    28  H   -0.002329  -0.000112  -0.000310   0.000200  -0.000049  -0.033173
    29  H   -0.015307   0.000157  -0.006616  -0.000214   0.000056  -0.012245
    30  H    0.001886   0.006527  -0.040960  -0.021393  -0.057238  -0.001100
    31  H    0.002565  -0.007150  -0.023676   0.016912  -0.003357  -0.000184
               7          8          9         10         11         12
     1  C   -0.661902   0.091511   0.042642   0.260813   0.132920   0.187983
     2  C    0.018786   0.001071  -0.000051  -0.001158   0.031469  -0.351504
     3  C    0.276526   0.010574  -0.005860  -0.083993   0.347186  -1.401024
     4  C   -0.017843  -0.001624   0.000698   0.002162  -0.018603  -0.027287
     5  C   -0.017980  -0.001982   0.000173  -0.003609  -0.023293   0.237051
     6  C    0.419200  -0.120790  -0.045085  -0.246898  -0.196751  -0.041763
     7  C    5.897064  -0.144472   0.170629  -0.080045   0.045625  -0.177552
     8  C   -0.144472   5.362821   0.090829   0.093369   0.008218  -0.003778
     9  O    0.170629   0.090829   8.349972  -0.036233   0.004502   0.002037
    10  C   -0.080045   0.093369  -0.036233   5.618962  -0.011986   0.020849
    11  O    0.045625   0.008218   0.004502  -0.011986   8.407916  -0.272057
    12  C   -0.177552  -0.003778   0.002037   0.020849  -0.272057   7.403245
    13  O   -0.048797   0.000931  -0.000365  -0.004299  -0.036267   0.017432
    14  H   -0.083593   0.004459  -0.005524   0.018758  -0.051936   0.004697
    15  H   -0.001411   0.000025  -0.000012  -0.000152  -0.000061   0.047662
    16  H    0.001716  -0.000015  -0.000009   0.000166   0.000808  -0.034679
    17  H   -0.026677   0.000168  -0.000070  -0.006696  -0.026101  -0.063659
    18  H    0.004404  -0.000022   0.000233   0.000030  -0.000104  -0.034773
    19  H    0.001727  -0.000485  -0.000074   0.000719   0.010619   0.045125
    20  H    0.004645  -0.000141   0.000095   0.000513   0.001314  -0.032609
    21  H   -0.001832   0.000014   0.000003   0.000012  -0.003627  -0.038605
    22  H    0.014348   0.008088  -0.001661  -0.019904  -0.006700  -0.001967
    23  H   -0.041516  -0.016264   0.000291  -0.038396   0.000537  -0.009849
    24  H    0.485826   0.000865  -0.061743   0.009125  -0.000132  -0.024532
    25  H    0.332046   0.002953  -0.051572   0.039622  -0.007724   0.066489
    26  H   -0.040913   0.471950  -0.035039  -0.042599   0.000623  -0.000848
    27  H    0.012242   0.433772  -0.072729  -0.046803   0.000388  -0.000075
    28  H   -0.000193  -0.038049   0.007086   0.430706  -0.004433  -0.000363
    29  H    0.000170  -0.079453  -0.005877   0.494466   0.000408   0.001058
    30  H   -0.001245   0.000687   0.000155  -0.001816  -0.009965   0.490926
    31  H    0.003481  -0.000631   0.000024   0.000987  -0.002496   0.388180
              13         14         15         16         17         18
     1  C   -0.042014   0.572193  -0.002471   0.002373   0.025244   0.004624
     2  C   -0.010698  -0.001463   0.482558   0.478216   0.066629  -0.019846
     3  C    0.319998  -0.052309  -0.007239   0.031806   0.488656   0.023133
     4  C    0.028593   0.005774  -0.090630  -0.048212  -0.095267   0.439300
     5  C   -0.097459  -0.003192  -0.054686  -0.066887  -0.039508  -0.001369
     6  C    0.018638  -0.098108   0.000476  -0.000395   0.021989  -0.001007
     7  C   -0.048797  -0.083593  -0.001411   0.001716  -0.026677   0.004404
     8  C    0.000931   0.004459   0.000025  -0.000015   0.000168  -0.000022
     9  O   -0.000365  -0.005524  -0.000012  -0.000009  -0.000070   0.000233
    10  C   -0.004299   0.018758  -0.000152   0.000166  -0.006696   0.000030
    11  O   -0.036267  -0.051936  -0.000061   0.000808  -0.026101  -0.000104
    12  C    0.017432   0.004697   0.047662  -0.034679  -0.063659  -0.034773
    13  O    8.330011  -0.004184  -0.010953   0.011490  -0.111324  -0.065836
    14  H   -0.004184   0.448528  -0.000556   0.000366  -0.002253   0.001678
    15  H   -0.010953  -0.000556   0.512654  -0.021497   0.007544  -0.011486
    16  H    0.011490   0.000366  -0.021497   0.501447  -0.001748  -0.001106
    17  H   -0.111324  -0.002253   0.007544  -0.001748   0.561430  -0.002691
    18  H   -0.065836   0.001678  -0.011486  -0.001106  -0.002691   0.472775
    19  H   -0.029995  -0.003218   0.005494  -0.001153  -0.001669  -0.006769
    20  H    0.013511   0.000500  -0.014681   0.006536  -0.019185  -0.000663
    21  H   -0.005504  -0.000110   0.000632  -0.006614   0.001557  -0.000525
    22  H   -0.000598  -0.006212  -0.000008   0.000026  -0.000852   0.000069
    23  H    0.000739   0.008341  -0.000001   0.000047   0.003598   0.000044
    24  H    0.003717  -0.007551   0.000057   0.000298  -0.007124  -0.002241
    25  H    0.003248   0.004058  -0.000702   0.000029  -0.032919   0.000246
    26  H   -0.000179   0.001542   0.000002  -0.000005   0.001815   0.000026
    27  H    0.000073  -0.001322   0.000004  -0.000001   0.000224  -0.000008
    28  H   -0.000010  -0.002658  -0.000008   0.000012  -0.001102   0.000008
    29  H    0.000144  -0.002026   0.000016  -0.000021   0.000946  -0.000034
    30  H    0.002615   0.000224  -0.002856   0.000069  -0.003251  -0.001859
    31  H    0.008742   0.000857  -0.000569   0.000378  -0.021881   0.001549
              19         20         21         22         23         24
     1  C   -0.010648   0.001574  -0.002589  -0.052222   0.048272  -0.112759
     2  C   -0.093034  -0.084632  -0.052880  -0.000242   0.000819  -0.001136
     3  C   -0.031186  -0.013771   0.009881   0.009761  -0.024077   0.021867
     4  C    0.479296   0.011938   0.008304   0.000114  -0.000149  -0.000267
     5  C   -0.000763   0.477694   0.448484   0.000721  -0.002197  -0.000482
     6  C    0.002745  -0.001013   0.000351   0.431534   0.452735   0.040783
     7  C    0.001727   0.004645  -0.001832   0.014348  -0.041516   0.485826
     8  C   -0.000485  -0.000141   0.000014   0.008088  -0.016264   0.000865
     9  O   -0.000074   0.000095   0.000003  -0.001661   0.000291  -0.061743
    10  C    0.000719   0.000513   0.000012  -0.019904  -0.038396   0.009125
    11  O    0.010619   0.001314  -0.003627  -0.006700   0.000537  -0.000132
    12  C    0.045125  -0.032609  -0.038605  -0.001967  -0.009849  -0.024532
    13  O   -0.029995   0.013511  -0.005504  -0.000598   0.000739   0.003717
    14  H   -0.003218   0.000500  -0.000110  -0.006212   0.008341  -0.007551
    15  H    0.005494  -0.014681   0.000632  -0.000008  -0.000001   0.000057
    16  H   -0.001153   0.006536  -0.006614   0.000026   0.000047   0.000298
    17  H   -0.001669  -0.019185   0.001557  -0.000852   0.003598  -0.007124
    18  H   -0.006769  -0.000663  -0.000525   0.000069   0.000044  -0.002241
    19  H    0.485839   0.001140  -0.001265   0.000158  -0.000322   0.000966
    20  H    0.001140   0.495570  -0.013547   0.000026  -0.000066   0.000036
    21  H   -0.001265  -0.013547   0.477404  -0.000084  -0.000077  -0.000003
    22  H    0.000158   0.000026  -0.000084   0.479270  -0.016749  -0.000360
    23  H   -0.000322  -0.000066  -0.000077  -0.016749   0.456593  -0.001364
    24  H    0.000966   0.000036  -0.000003  -0.000360  -0.001364   0.458954
    25  H    0.000488   0.002568   0.000040  -0.002453  -0.003547  -0.024415
    26  H   -0.000032   0.000003   0.000001  -0.000660  -0.003221  -0.004270
    27  H   -0.000010  -0.000014   0.000002   0.000708  -0.001144   0.002301
    28  H    0.000024   0.000011  -0.000011  -0.007649  -0.004836   0.002220
    29  H    0.000026  -0.000023   0.000012  -0.008274   0.002699  -0.001291
    30  H   -0.008489   0.004780  -0.004811  -0.000277   0.000471  -0.000399
    31  H    0.000205   0.002486  -0.010861   0.000487  -0.000948   0.000006
              25         26         27         28         29         30
     1  C    0.170615   0.047805   0.004824  -0.002329  -0.015307   0.001886
     2  C   -0.006928   0.000150  -0.000002  -0.000112   0.000157   0.006527
     3  C   -0.065528  -0.005881  -0.000722  -0.000310  -0.006616  -0.040960
     4  C    0.006856  -0.000015  -0.000019   0.000200  -0.000214  -0.021393
     5  C   -0.001242   0.000287  -0.000035  -0.000049   0.000056  -0.057238
     6  C   -0.169157  -0.021647   0.007459  -0.033173  -0.012245  -0.001100
     7  C    0.332046  -0.040913   0.012242  -0.000193   0.000170  -0.001245
     8  C    0.002953   0.471950   0.433772  -0.038049  -0.079453   0.000687
     9  O   -0.051572  -0.035039  -0.072729   0.007086  -0.005877   0.000155
    10  C    0.039622  -0.042599  -0.046803   0.430706   0.494466  -0.001816
    11  O   -0.007724   0.000623   0.000388  -0.004433   0.000408  -0.009965
    12  C    0.066489  -0.000848  -0.000075  -0.000363   0.001058   0.490926
    13  O    0.003248  -0.000179   0.000073  -0.000010   0.000144   0.002615
    14  H    0.004058   0.001542  -0.001322  -0.002658  -0.002026   0.000224
    15  H   -0.000702   0.000002   0.000004  -0.000008   0.000016  -0.002856
    16  H    0.000029  -0.000005  -0.000001   0.000012  -0.000021   0.000069
    17  H   -0.032919   0.001815   0.000224  -0.001102   0.000946  -0.003251
    18  H    0.000246   0.000026  -0.000008   0.000008  -0.000034  -0.001859
    19  H    0.000488  -0.000032  -0.000010   0.000024   0.000026  -0.008489
    20  H    0.002568   0.000003  -0.000014   0.000011  -0.000023   0.004780
    21  H    0.000040   0.000001   0.000002  -0.000011   0.000012  -0.004811
    22  H   -0.002453  -0.000660   0.000708  -0.007649  -0.008274  -0.000277
    23  H   -0.003547  -0.003221  -0.001144  -0.004836   0.002699   0.000471
    24  H   -0.024415  -0.004270   0.002301   0.002220  -0.001291  -0.000399
    25  H    0.515974   0.000954  -0.000527  -0.000341  -0.001278   0.000784
    26  H    0.000954   0.490421  -0.004030   0.004199   0.001469  -0.000034
    27  H   -0.000527  -0.004030   0.470037  -0.008959  -0.002141   0.000008
    28  H   -0.000341   0.004199  -0.008959   0.498460  -0.009980  -0.000103
    29  H   -0.001278   0.001469  -0.002141  -0.009980   0.474057   0.000021
    30  H    0.000784  -0.000034   0.000008  -0.000103   0.000021   0.447320
    31  H    0.002100  -0.000011  -0.000018   0.000197  -0.000046  -0.009607
              31
     1  C    0.002565
     2  C   -0.007150
     3  C   -0.023676
     4  C    0.016912
     5  C   -0.003357
     6  C   -0.000184
     7  C    0.003481
     8  C   -0.000631
     9  O    0.000024
    10  C    0.000987
    11  O   -0.002496
    12  C    0.388180
    13  O    0.008742
    14  H    0.000857
    15  H   -0.000569
    16  H    0.000378
    17  H   -0.021881
    18  H    0.001549
    19  H    0.000205
    20  H    0.002486
    21  H   -0.010861
    22  H    0.000487
    23  H   -0.000948
    24  H    0.000006
    25  H    0.002100
    26  H   -0.000011
    27  H   -0.000018
    28  H    0.000197
    29  H   -0.000046
    30  H   -0.009607
    31  H    0.483874
 Mulliken charges:
               1
     1  C   -0.097975
     2  C   -0.465117
     3  C   -0.128850
     4  C   -0.077430
     5  C   -0.222510
     6  C   -0.201723
     7  C   -0.342463
     8  C   -0.174598
     9  O   -0.347464
    10  C   -0.366673
    11  O   -0.320296
    12  C   -0.395812
    13  O   -0.291402
    14  H    0.254238
    15  H    0.162857
    16  H    0.146559
    17  H    0.284177
    18  H    0.202220
    19  H    0.154540
    20  H    0.155405
    21  H    0.196250
    22  H    0.181563
    23  H    0.189537
    24  H    0.223048
    25  H    0.219264
    26  H    0.138135
    27  H    0.206517
    28  H    0.171547
    29  H    0.169118
    30  H    0.208930
    31  H    0.168409
 Sum of Mulliken charges =  -0.00000
 Mulliken charges with hydrogens summed into heavy atoms:
               1
     1  C    0.156263
     2  C   -0.155702
     3  C    0.155327
     4  C    0.279330
     5  C    0.129145
     6  C    0.169377
     7  C    0.099849
     8  C    0.170054
     9  O   -0.347464
    10  C   -0.026008
    11  O   -0.320296
    12  C   -0.018473
    13  O   -0.291402
 Electronic spatial extent (au):  <R**2>=           3281.6744
 Charge=             -0.0000 electrons
 Dipole moment (field-independent basis, Debye):
    X=              0.8451    Y=              2.3410    Z=             -0.8933  Tot=              2.6443
 Quadrupole moment (field-independent basis, Debye-Ang):
   XX=            -68.7278   YY=            -85.2145   ZZ=            -77.9181
   XY=             -5.1602   XZ=              1.6518   YZ=             -2.2136
 Traceless Quadrupole moment (field-independent basis, Debye-Ang):
   XX=              8.5590   YY=             -7.9277   ZZ=             -0.6313
   XY=             -5.1602   XZ=              1.6518   YZ=             -2.2136
 Octapole moment (field-independent basis, Debye-Ang**2):
  XXX=             -4.2603  YYY=              1.4358  ZZZ=              0.2559  XYY=             11.4341
  XXY=             18.3025  XXZ=              3.6505  XZZ=             -0.6693  YZZ=             -1.6947
  YYZ=              1.7796  XYZ=             -2.3576
 Hexadecapole moment (field-independent basis, Debye-Ang**3):
 XXXX=          -3352.5371 YYYY=           -534.5790 ZZZZ=           -293.7663 XXXY=            -38.1440
 XXXZ=             34.2441 YYYX=            -21.8862 YYYZ=             -6.6479 ZZZX=              5.9697
 ZZZY=              0.7584 XXYY=           -698.7805 XXZZ=           -635.6368 YYZZ=           -136.1168
 XXYZ=             -8.3044 YYXZ=              1.3863 ZZXY=             -1.7635
 N-N= 8.847105835160D+02 E-N=-3.211304059351D+03  KE= 6.153337606975D+02
 D1PCM: PCM CHGder 1st derivatives, ID1Alg=3 FixD1E=F DoIter=F DoCFld=F I1PDM=0.
 Calling FoFJK, ICntrl=      2127 FMM=F ISym2X=0 I1Cent= 0 IOpClX= 0 NMat=1 NMatS=1 NMatT=0.
 ***** Axes restored to original set *****
 -------------------------------------------------------------------
 Center     Atomic                   Forces (Hartrees/Bohr)
 Number     Number              X              Y              Z
 -------------------------------------------------------------------
      1        6          -0.002481976   -0.000070989    0.008451886
      2        6           0.001458646    0.000879376    0.000416357
      3        6          -0.002460067    0.000464905   -0.007289205
      4        6          -0.000235505    0.003855806    0.004016840
      5        6           0.001832034   -0.000686784   -0.002957089
      6        6           0.002477232   -0.004027650   -0.002079909
      7        6           0.004086072    0.004028682   -0.005010810
      8        6          -0.005019755    0.002540378   -0.004006426
      9        8           0.002381513   -0.008558921   -0.002140181
     10        6          -0.001573272    0.000368232    0.002284503
     11        8          -0.001860801    0.011463163   -0.004335573
     12        6          -0.000594853   -0.002385031    0.002003258
     13        8           0.003075871   -0.010143192    0.004803762
     14        1           0.002199223   -0.003147763   -0.004811546
     15        1          -0.001129816   -0.002034567    0.001284099
     16        1          -0.001856521    0.001632267   -0.001778316
     17        1           0.002722850   -0.002256709    0.007876313
     18        1          -0.000813280   -0.003884536   -0.001532344
     19        1           0.000741216    0.003885111   -0.004526075
     20        1           0.000943976   -0.001727871    0.002467596
     21        1          -0.001757442    0.001743793    0.000246211
     22        1          -0.001074588    0.001863666   -0.002124634
     23        1          -0.001235562    0.000860213    0.003643189
     24        1          -0.004994918   -0.003616805   -0.000976784
     25        1          -0.001674067    0.003940991    0.006020575
     26        1          -0.000424899    0.003012627    0.005401749
     27        1           0.003885572   -0.001922261   -0.000654479
     28        1           0.001825131    0.002359460    0.000386876
     29        1           0.000363908   -0.001568540   -0.002810932
     30        1           0.000387143    0.000901906   -0.004034856
     31        1           0.000806934    0.002231041    0.001765942
 -------------------------------------------------------------------
 Cartesian Forces:  Max     0.011463163 RMS     0.003481443

 GradGradGradGradGradGradGradGradGradGradGradGradGradGradGradGradGradGrad
 Berny optimization.
 FormGI is forming the generalized inverse of G from B-inverse, IUseBI=4.
 Internal  Forces:  Max     0.017754901 RMS     0.002245645
 Search for a local minimum.
 Step number   1 out of a maximum of  186
 All quantities printed in internal units (Hartrees-Bohrs-Radians)
 Mixed Optimization -- RFO/linear search
 Second derivative matrix not updated -- first step.
 ITU=  0
     Eigenvalues ---    0.00392   0.00645   0.00686   0.00720   0.01420
     Eigenvalues ---    0.01447   0.01731   0.02699   0.02754   0.03118
     Eigenvalues ---    0.03205   0.04023   0.04091   0.04622   0.04674
     Eigenvalues ---    0.04854   0.04882   0.05105   0.05109   0.05169
     Eigenvalues ---    0.05201   0.05643   0.05666   0.05939   0.06026
     Eigenvalues ---    0.06226   0.06580   0.06664   0.07673   0.07898
     Eigenvalues ---    0.07905   0.07912   0.07951   0.07978   0.08077
     Eigenvalues ---    0.09244   0.09302   0.09649   0.10696   0.11565
     Eigenvalues ---    0.11601   0.11692   0.11699   0.12495   0.12627
     Eigenvalues ---    0.14620   0.15780   0.16504   0.17417   0.19250
     Eigenvalues ---    0.20513   0.21362   0.22411   0.25000   0.27363
     Eigenvalues ---    0.27550   0.28126   0.28742   0.28784   0.29142
     Eigenvalues ---    0.29548   0.30045   0.35066   0.35099   0.35159
     Eigenvalues ---    0.35231   0.35252   0.35296   0.35308   0.35325
     Eigenvalues ---    0.35329   0.35368   0.35447   0.35457   0.35487
     Eigenvalues ---    0.35493   0.35836   0.35913   0.36085   0.36208
     Eigenvalues ---    0.40049   0.41389   0.41843   0.42114   0.42756
     Eigenvalues ---    0.461151000.000001000.000001000.000001000.00000
     Eigenvalues --- 1000.000001000.000001000.000001000.000001000.00000
     Eigenvalues --- 1000.000001000.000001000.000001000.000001000.00000
     Eigenvalues --- 1000.000001000.000001000.000001000.000001000.00000
     Eigenvalues --- 1000.000001000.000001000.000001000.000001000.00000
     Eigenvalues --- 1000.000001000.000001000.000001000.000001000.00000
     Eigenvalues --- 1000.000001000.000001000.000001000.000001000.00000
     Eigenvalues --- 1000.000001000.000001000.000001000.000001000.00000
     Eigenvalues --- 1000.000001000.000001000.000001000.000001000.00000
     Eigenvalues --- 1000.000001000.000001000.000001000.000001000.00000
     Eigenvalues --- 1000.000001000.000001000.000001000.000001000.00000
     Eigenvalues --- 1000.000001000.000001000.000001000.000001000.00000
     Eigenvalues --- 1000.000001000.000001000.000001000.000001000.00000
     Eigenvalues --- 1000.000001000.000001000.000001000.000001000.00000
     Eigenvalues --- 1000.000001000.000001000.000001000.000001000.00000
     Eigenvalues --- 1000.000001000.000001000.000001000.000001000.00000
     Eigenvalues --- 1000.000001000.000001000.000001000.000001000.00000
     Eigenvalues --- 1000.000001000.000001000.000001000.000001000.00000
     Eigenvalues --- 1000.000001000.000001000.000001000.000001000.00000
     Eigenvalues --- 1000.000001000.000001000.000001000.000001000.00000
 RFO step:  Lambda=-3.87851394D-03 EMin= 3.92495687D-03
 Linear search not attempted -- first point.
 Iteration  1 RMS(Cart)=  0.06773586 RMS(Int)=  0.00103109
 Iteration  2 RMS(Cart)=  0.00285333 RMS(Int)=  0.00005532
 Iteration  3 RMS(Cart)=  0.00000207 RMS(Int)=  0.00005531
 Iteration  4 RMS(Cart)=  0.00000000 RMS(Int)=  0.00005531
 Iteration  1 RMS(Cart)=  0.00002450 RMS(Int)=  0.00000572
 Iteration  2 RMS(Cart)=  0.00001358 RMS(Int)=  0.00000639
 Iteration  3 RMS(Cart)=  0.00000753 RMS(Int)=  0.00000723
 Iteration  4 RMS(Cart)=  0.00000417 RMS(Int)=  0.00000779
 Iteration  5 RMS(Cart)=  0.00000231 RMS(Int)=  0.00000813
 Iteration  6 RMS(Cart)=  0.00000128 RMS(Int)=  0.00000832
 Iteration  7 RMS(Cart)=  0.00000071 RMS(Int)=  0.00000843
 Variable       Old X    -DE/DX   Delta X   Delta X   Delta X     New X
                                 (Linear)    (Quad)   (Total)
    R1        2.88049  -0.00155   0.00000  -0.00565  -0.00569   2.87480
    R2        2.89315  -0.00151   0.00000  -0.00470  -0.00471   2.88844
    R3        2.69123   0.00027   0.00000   0.00064   0.00064   2.69186
    R4        2.04940   0.00591   0.00000   0.01648   0.01648   2.06588
    R5        2.89040   0.00105   0.00000   0.00300   0.00303   2.89343
    R6        2.90944  -0.00034   0.00000  -0.00234  -0.00230   2.90714
    R7        2.05081   0.00265   0.00000   0.00741   0.00741   2.05822
    R8        2.05267   0.00301   0.00000   0.00845   0.00845   2.06112
    R9        2.64002   0.00205   0.00000   0.00440   0.00440   2.64443
   R10        2.88158  -0.00109   0.00000  -0.00223  -0.00225   2.87933
   R11        2.65707   0.00398   0.00000   0.00999   0.00996   2.66703
   R12        2.03757   0.00858   0.00000   0.02344   0.02344   2.06101
   R13        2.68152   0.00326   0.00000   0.00737   0.00734   2.68886
   R14        2.04218   0.00425   0.00000   0.01171   0.01171   2.05389
   R15        2.04882   0.00596   0.00000   0.01661   0.01661   2.06543
   R16        2.88615  -0.00045   0.00000  -0.00251  -0.00251   2.88364
   R17        2.05301   0.00307   0.00000   0.00863   0.00863   2.06164
   R18        2.04956   0.00249   0.00000   0.00694   0.00694   2.05650
   R19        2.89138  -0.00072   0.00000  -0.00212  -0.00215   2.88922
   R20        2.05151   0.00296   0.00000   0.00828   0.00828   2.05978
   R21        2.05567   0.00381   0.00000   0.01073   0.01073   2.06640
   R22        2.66812   0.00346   0.00000   0.00758   0.00761   2.67573
   R23        2.03949   0.00594   0.00000   0.01630   0.01630   2.05579
   R24        2.05143   0.00715   0.00000   0.02002   0.02002   2.07146
   R25        2.67708   0.00349   0.00000   0.00845   0.00849   2.68557
   R26        2.87133   0.00082   0.00000   0.00237   0.00238   2.87371
   R27        2.05515   0.00609   0.00000   0.01716   0.01716   2.07231
   R28        2.04338   0.00438   0.00000   0.01210   0.01210   2.05548
   R29        2.05197   0.00299   0.00000   0.00837   0.00837   2.06034
   R30        2.05418   0.00317   0.00000   0.00891   0.00891   2.06308
   R31        2.05177   0.00396   0.00000   0.01109   0.01109   2.06286
   R32        2.04891   0.00295   0.00000   0.00822   0.00822   2.05713
    A1        1.90427   0.00075   0.00000  -0.00167  -0.00167   1.90260
    A2        1.89082   0.00106   0.00000   0.00968   0.00959   1.90041
    A3        1.91277  -0.00036   0.00000   0.00036   0.00027   1.91304
    A4        2.02146  -0.00237   0.00000  -0.01965  -0.01959   2.00186
    A5        1.87201  -0.00005   0.00000  -0.00297  -0.00293   1.86908
    A6        1.86042   0.00099   0.00000   0.01506   0.01498   1.87540
    A7        1.92421  -0.00001   0.00000  -0.00768  -0.00783   1.91639
    A8        1.92213  -0.00060   0.00000   0.00005   0.00008   1.92221
    A9        1.89380   0.00076   0.00000   0.00499   0.00502   1.89883
   A10        1.92138   0.00085   0.00000   0.00234   0.00240   1.92378
   A11        1.93159  -0.00113   0.00000  -0.00254  -0.00251   1.92908
   A12        1.86985   0.00011   0.00000   0.00320   0.00317   1.87302
   A13        1.88114  -0.00225   0.00000  -0.00840  -0.00840   1.87275
   A14        1.94215   0.00039   0.00000   0.00287   0.00300   1.94515
   A15        1.92829   0.00114   0.00000   0.00688   0.00687   1.93515
   A16        1.95090   0.00271   0.00000   0.00947   0.00933   1.96023
   A17        1.92528   0.00001   0.00000   0.00157   0.00166   1.92695
   A18        1.83668  -0.00191   0.00000  -0.01197  -0.01199   1.82470
   A19        1.92764   0.00124   0.00000   0.00168   0.00148   1.92911
   A20        1.95055  -0.00034   0.00000  -0.00319  -0.00312   1.94742
   A21        1.94079  -0.00098   0.00000  -0.00391  -0.00390   1.93689
   A22        1.85333  -0.00105   0.00000  -0.00023  -0.00018   1.85316
   A23        1.90758   0.00077   0.00000   0.00492   0.00502   1.91260
   A24        1.88115   0.00037   0.00000   0.00107   0.00103   1.88218
   A25        1.92108  -0.00066   0.00000  -0.00629  -0.00650   1.91458
   A26        1.91813   0.00054   0.00000   0.00140   0.00145   1.91958
   A27        1.93191  -0.00021   0.00000   0.00022   0.00027   1.93218
   A28        1.90355   0.00038   0.00000  -0.00060  -0.00053   1.90302
   A29        1.92502  -0.00012   0.00000   0.00100   0.00105   1.92608
   A30        1.86316   0.00010   0.00000   0.00462   0.00458   1.86774
   A31        1.92668   0.00097   0.00000  -0.00538  -0.00546   1.92123
   A32        1.91513  -0.00052   0.00000  -0.00233  -0.00229   1.91284
   A33        1.89366  -0.00095   0.00000  -0.00655  -0.00654   1.88712
   A34        1.93040   0.00044   0.00000   0.00688   0.00690   1.93730
   A35        1.92081  -0.00031   0.00000   0.00333   0.00330   1.92411
   A36        1.87613   0.00033   0.00000   0.00404   0.00400   1.88012
   A37        1.89783   0.00119   0.00000   0.00891   0.00895   1.90678
   A38        1.95470  -0.00108   0.00000  -0.01222  -0.01234   1.94235
   A39        1.94459  -0.00226   0.00000  -0.01637  -0.01648   1.92812
   A40        1.85960   0.00008   0.00000   0.01219   0.01222   1.87182
   A41        1.90309   0.00147   0.00000   0.00995   0.01001   1.91309
   A42        1.90154   0.00078   0.00000  -0.00053  -0.00081   1.90073
   A43        1.93206   0.00174   0.00000   0.01048   0.01052   1.94258
   A44        1.90119   0.00078   0.00000   0.00637   0.00640   1.90759
   A45        1.85552  -0.00121   0.00000  -0.00415  -0.00415   1.85137
   A46        1.93255  -0.00149   0.00000  -0.01006  -0.01010   1.92245
   A47        1.94768  -0.00034   0.00000  -0.00318  -0.00320   1.94448
   A48        1.89251   0.00055   0.00000   0.00091   0.00088   1.89339
   A49        1.98090  -0.00397   0.00000  -0.02717  -0.02707   1.95383
   A50        1.92614  -0.00114   0.00000  -0.00587  -0.00592   1.92022
   A51        1.92892  -0.00033   0.00000  -0.00001   0.00001   1.92893
   A52        1.91767   0.00090   0.00000   0.00129   0.00130   1.91897
   A53        1.91104   0.00080   0.00000   0.00451   0.00453   1.91557
   A54        1.90430  -0.00013   0.00000  -0.00256  -0.00256   1.90174
   A55        1.87492  -0.00007   0.00000   0.00285   0.00284   1.87776
   A56        2.14390  -0.01775   0.00000  -0.06993  -0.06993   2.07397
   A57        1.91683   0.00012   0.00000  -0.00609  -0.00619   1.91064
   A58        1.90823  -0.00050   0.00000  -0.00872  -0.00868   1.89955
   A59        1.89482  -0.00019   0.00000   0.00335   0.00338   1.89820
   A60        1.92127   0.00014   0.00000   0.00350   0.00340   1.92467
   A61        1.94904   0.00026   0.00000   0.00451   0.00459   1.95363
   A62        1.87271   0.00015   0.00000   0.00338   0.00335   1.87606
   A63        2.01036  -0.00554   0.00000  -0.03386  -0.03394   1.97642
    D1        0.94695   0.00002   0.00000   0.00832   0.00832   0.95526
    D2        3.07887   0.00086   0.00000   0.01186   0.01186   3.09073
    D3       -1.15919   0.00042   0.00000   0.01164   0.01164  -1.14755
    D4       -3.12143  -0.00172   0.00000  -0.01086  -0.01087  -3.13230
    D5       -0.98950  -0.00088   0.00000  -0.00732  -0.00733  -0.99683
    D6        1.05562  -0.00133   0.00000  -0.00754  -0.00755   1.04807
    D7       -1.09800  -0.00014   0.00000   0.01267   0.01266  -1.08535
[...]
 9169,0.00006183,-0.00126710,0.00049952,0.00093632,-0.00006163,-0.00006
 818,0.00061174,-0.00008508,0.00012439,0.00032247,-0.00044954,0.0035558
 2,-0.00231499,0.00000391,0.00000690,0.00000231,0.00000237,-0.00000192,
 0.00000482,0.00010129,-0.00017006,0.00157512,0.00004286,0.00000391,0.0
 0003448,0.00000815,-0.00001102,0.00000849,-0.00001306,0.00000864,-0.00
 000317,0.00001205,0.00000186,-0.00000354,-0.00026608,0.00014756,0.0004
 5265,0.00052259,0.00087969,0.00057610,-0.00063937,-0.00032088,-0.00081
 321,-0.01151033,0.09616512,0.28565276,-0.00051464,0.00019510,0.0001301
 3,0.00000054,-0.00000042,-0.00000006,0.00003465,-0.00000693,-0.0000676
 6,-0.00000378,0.00000305,-0.00000240,-0.00000023,-0.00000260,0.0000015
 8,0.00035905,-0.00067711,-0.00065926,0.00404193,-0.00290679,-0.0042301
 0,-0.05577742,0.01329406,0.02413347,-0.00915582,-0.01874704,-0.0254738
 4,0.00114484,0.00023808,-0.00307141,-0.00006613,0.00025861,-0.00006019
 ,-0.00000230,0.00000138,0.00001756,0.00000911,0.00000554,0.00000366,-0
 .00005794,-0.00001703,0.00021749,0.00000014,0.00000039,-0.00000011,0.0
 0000061,-0.00000029,-0.00000007,0.00000546,-0.00000146,0.00003051,0.00
 000125,0.00000055,0.00000139,-0.00000030,-0.00000081,0.00000046,-0.000
 00098,-0.00000004,0.00000009,0.00000121,0.00000027,0.00000008,0.000045
 01,-0.00003847,0.00012202,0.00015669,0.00009912,-0.00000072,0.00012856
 ,0.00004779,0.00021820,0.00039613,0.00041661,0.00102667,0.05804022,-0.
 00027143,-0.00029603,0.00051956,-0.00000269,0.00000314,-0.00000620,0.0
 0018490,0.00006950,-0.00004474,0.00004150,0.00000663,0.00004452,-0.000
 00276,0.00001587,-0.00000162,-0.00098255,0.00129000,0.00006299,0.00421
 043,-0.00040834,-0.00041891,0.01029942,-0.07224354,-0.07060144,-0.0130
 5561,-0.01888733,-0.02697336,-0.00172888,0.00815511,0.02573849,-0.0002
 5166,0.00029007,-0.00010660,-0.00001783,-0.00002308,-0.00001499,-0.000
 11672,-0.00004818,-0.00004324,0.00001624,-0.00008702,-0.00004706,-0.00
 000322,-0.00000294,0.00000014,-0.00000655,0.00000218,0.00000024,0.0000
 0779,-0.00001186,-0.00003003,-0.00000624,-0.00000429,-0.00000551,-0.00
 000312,0.00000445,-0.00000362,0.00000082,-0.00000220,0.00000160,-0.000
 00961,-0.00000112,0.00000224,-0.00018999,-0.00005280,-0.00030988,0.000
 12052,-0.00023621,-0.00044513,-0.00002706,0.00006464,0.00037725,-0.000
 59016,0.00071254,0.00079109,-0.00047534,0.08778075,0.00007174,-0.00009
 066,0.00021773,-0.00000163,0.00000228,-0.00000539,0.00016417,0.0001167
 1,-0.00012371,0.00003900,0.00000393,0.00003877,-0.00000345,0.00001843,
 -0.00000141,0.00040788,-0.00113938,0.00076101,0.00148778,0.00067340,0.
 00103923,0.02103437,-0.07153667,-0.26990908,-0.00713216,-0.00946563,-0
 .00219652,0.00380481,-0.00616958,-0.02196029,-0.00047006,0.00010087,0.
 00002222,-0.00002118,-0.00002653,0.00000039,-0.00010065,-0.00007098,-0
 .00002567,0.00016065,-0.00003642,-0.00006243,-0.00000320,-0.00000274,0
 .00000035,-0.00000553,0.00000226,0.00000040,-0.00001028,-0.00001202,-0
 .00001001,-0.00000571,-0.00000404,-0.00000425,-0.00000137,0.00000391,-
 0.00000218,0.00000009,-0.00000247,0.00000186,-0.00001011,-0.00000243,0
 .00000261,0.00006019,0.00026092,0.00035959,-0.00080695,0.00038385,0.00
 021937,-0.00022124,0.00018553,0.00042363,-0.00119817,0.00040932,-0.000
 10142,-0.01792586,0.08301751,0.29505492,0.00015970,-0.00057177,0.00063
 853,-0.00001204,0.00000721,-0.00002221,0.00030686,0.00006637,-0.000086
 71,0.00008365,0.00002631,0.00011380,-0.00000148,0.00002678,-0.00000585
 ,0.00106487,0.00007590,-0.00021029,0.00026854,-0.00491030,-0.00200433,
 -0.24873114,0.11086448,0.02908126,-0.03175361,0.00540960,0.00327827,0.
 00027487,0.00194456,0.00020207,-0.00034585,0.00032101,-0.00005047,-0.0
 0002393,-0.00003530,-0.00001500,-0.00028860,-0.00005099,-0.00010874,-0
 .00001051,0.00002752,-0.00004889,-0.00000652,-0.00000531,0.00000142,-0
 .00001584,0.00000564,0.00000232,0.00000613,-0.00001861,-0.00004438,-0.
 00001260,-0.00001017,-0.00001044,-0.00000929,0.00000975,-0.00001068,0.
 00000193,-0.00000350,0.00000260,-0.00001770,-0.00000266,0.00000485,-0.
 00006391,-0.00001517,0.00012742,-0.00003656,-0.00002315,0.00006229,-0.
 00123935,0.00059653,0.00000380,0.00014951,0.00009784,0.00012896,-0.000
 19199,0.00186309,0.00118686,0.28035222,-0.00098533,-0.00084089,0.00031
 389,-0.00000744,0.00000263,-0.00001089,-0.00003306,-0.00014336,0.00018
 218,0.00001081,0.00002094,0.00003476,0.00000462,-0.00000729,-0.0000025
 7,-0.00121678,-0.00315830,0.00456312,-0.00280325,-0.00315647,-0.001251
 84,0.12225190,-0.11466129,-0.01918541,-0.03088918,0.01049092,0.0036150
 1,0.02214974,-0.01049081,-0.00462738,0.00032133,0.00040916,-0.00031236
 ,0.00001252,0.00001721,-0.00003635,-0.00006755,0.00010044,-0.00006351,
 0.00005454,0.00008859,-0.00000587,-0.00000060,0.,0.00000081,-0.0000051
 3,0.00000142,0.00000195,-0.00000216,0.00000409,-0.00005979,-0.00000080
 ,-0.00000221,-0.00000120,-0.00000611,0.00000112,-0.00000651,0.00000091
 ,0.00000061,-0.00000012,0.00000159,0.00000220,-0.00000011,0.00180882,-
 0.00042378,0.00014518,-0.00038784,0.00017520,-0.00008487,-0.00113119,0
 .00047454,0.00008721,-0.00001867,0.00005182,0.00023335,0.00825108,-0.0
 0365577,-0.00050630,-0.11619584,0.12305537,0.00053500,0.00010463,0.000
 09247,-0.00000028,0.00000078,-0.00000349,0.00011203,0.00009048,-0.0001
 1394,0.00002094,-0.00000111,0.00002068,-0.00000203,0.00000946,-0.00000
 003,0.00040520,0.00302577,-0.00250385,-0.00028577,-0.00025010,-0.00005
 190,0.03383634,-0.01895692,-0.05744222,-0.00670492,0.00185975,0.001422
 57,-0.02026480,0.01130935,0.00266338,-0.00028093,-0.00002460,0.0001237
 7,-0.00001343,-0.00001323,0.00000969,-0.00005205,-0.00006402,-0.000004
 42,-0.00005778,-0.00005913,-0.00000810,-0.00000157,-0.00000137,0.00000
 015,-0.00000259,0.00000104,0.00000008,-0.00001990,-0.00000217,0.000009
 76,-0.00000346,-0.00000228,-0.00000219,0.00000003,0.00000240,-0.000000
 33,0.00000026,-0.00000121,0.00000096,-0.00000534,-0.00000124,0.0000011
 4,-0.00111082,0.00052366,0.00013289,-0.00023341,0.00020058,0.00020394,
 -0.00004378,0.00009221,0.00037162,-0.00034797,0.00027636,0.00040850,0.
 02580444,-0.01422293,-0.00246001,-0.03157172,0.01747980,0.05553145,-0.
 00158368,0.00551038,0.00072119,0.00000322,0.00000433,-0.00001409,0.000
 49102,0.00070756,-0.00106997,0.00013872,-0.00000698,0.00012912,-0.0000
 2460,0.00009174,0.00000184,-0.02165178,-0.02285159,-0.00596388,-0.0000
 2725,0.00069785,-0.00048738,0.00181846,0.00257382,0.00167673,0.0015374
 6,0.00099405,-0.00053275,-0.16773646,-0.12853899,-0.03737573,-0.003323
 07,-0.00119867,0.00104972,-0.00010571,-0.00013322,0.00013290,-0.000386
 64,-0.00044889,-0.00002072,0.00015742,-0.00005359,-0.00020316,-0.00001
 111,-0.00001026,0.00000015,-0.00001697,0.00000778,-0.00000083,0.000001
 62,-0.00006070,0.00008923,-0.00002258,-0.00001437,-0.00001574,0.000001
 64,0.00001936,-0.00000130,0.00000119,-0.00000872,0.00000597,-0.0000449
 4,-0.00001501,0.00001118,0.00125711,0.00009362,-0.00040206,0.00126119,
 -0.00012709,0.00041358,0.00008323,-0.00015690,0.00005124,0.00009654,-0
 .00002260,0.00010559,0.00027089,-0.00022406,0.00023252,-0.00007455,-0.
 00051025,0.00051330,0.18401718,0.00213754,-0.00121138,-0.00005179,-0.0
 0000426,0.00000040,-0.00000232,0.00007722,-0.00015477,0.00027671,-0.00
 000522,0.00001113,0.00000336,0.00000715,-0.00001505,-0.00000361,0.0108
 2523,0.01177787,0.00299562,0.00187129,-0.00059241,-0.00031027,-0.01688
 465,-0.01401798,-0.00943637,-0.00192940,-0.00611265,0.00492930,-0.1289
 6871,-0.18275651,-0.03758761,0.00121397,0.00047438,-0.00030714,0.00002
 684,0.00001869,-0.00005614,0.00000724,0.00009518,-0.00003394,0.0000139
 2,0.00006325,0.00008671,0.00000083,0.00000055,0.00000032,-0.00000108,-
 0.00000031,0.00000069,0.00000293,0.00001284,-0.00004317,0.00000200,0.0
 0000058,0.00000018,-0.00000346,-0.00000248,-0.00000425,0.00000010,0.00
 000073,-0.00000077,0.00000654,0.00000356,-0.00000138,-0.00093753,0.000
 49491,0.00012862,-0.00077692,0.00048127,0.00000903,-0.00019994,0.00012
 444,-0.00000843,-0.00026523,0.00011639,0.00003365,0.00006091,0.0010272
 4,0.00020202,0.00064899,0.00042437,-0.00043026,0.13912779,0.19717880,0
 .00013450,-0.00017971,0.00055760,0.00000201,-0.00000036,0.00000250,-0.
 00003131,0.00012018,-0.00001163,-0.00000177,-0.00000245,-0.00000774,-0
 .00000429,0.00000893,0.00000117,0.00260892,0.00165570,-0.00069388,-0.0
 0124710,0.00028719,0.00000742,0.01597127,0.01243172,0.00549543,0.00138
 985,0.00600831,-0.00218257,-0.03880885,-0.03932746,-0.06053401,-0.0000
 2630,-0.00021249,0.00035395,-0.00001699,-0.00002328,0.00002334,0.00002
 274,-0.00001572,0.00000768,0.00022021,0.00046878,0.00013195,-0.0000000
 1,-0.00000016,-0.00000020,0.00000113,-0.00000045,-0.00000070,-0.000007
 94,0.00000287,0.00001471,0.00000047,0.00000056,0.00000003,0.00000123,-
 0.00000055,0.00000097,0.00000011,0.00000008,0.00000020,-0.00000282,-0.
 00000223,0.00000070,-0.00016120,-0.00025627,-0.00010271,-0.00013129,0.
 00045950,0.00033911,0.00013698,-0.00013614,-0.00000662,0.00006124,-0.0
 0009206,-0.00002476,0.00015684,-0.00112553,0.00048608,-0.00044098,-0.0
 0047354,0.00056926,0.04057035,0.04140106,0.06071237,0.00114361,0.00090
 471,0.00146006,-0.00000100,-0.00000028,0.00000010,0.00022904,0.0000346
 1,-0.00010872,0.00001611,-0.00000177,0.00001098,0.00000298,-0.00000351
 ,-0.00000203,-0.00646782,0.01127288,0.02961901,-0.00048574,0.00018235,
 0.00013091,-0.00050215,-0.00230890,-0.00514275,0.00047173,0.00033668,0
 .00068831,-0.05602025,0.01370413,0.04029978,-0.00023611,-0.00021141,-0
 .00076394,0.00002092,0.00000805,-0.00001626,-0.00004275,-0.00004769,0.
 00000934,-0.00034275,-0.00045731,-0.00040176,-0.00000107,-0.00000040,0
 .00000033,-0.00000123,0.00000068,-0.00000045,0.00002205,0.00001028,0.0
 0002198,-0.00000306,-0.00000178,-0.00000065,0.00000043,0.00000204,0.00
 000217,-0.00000011,-0.00000034,0.00000023,-0.00000046,0.00000063,-0.00
 000004,0.00140961,-0.00028581,-0.00051374,-0.00551685,0.00176734,0.000
 22397,0.00005456,-0.00007741,0.00005108,-0.00003472,-0.00001495,-0.000
 18840,0.00113155,0.00122986,-0.00072648,0.00018533,-0.00059296,-0.0002
 2301,0.00388139,-0.00605112,-0.02040193,0.06108417,-0.00089020,-0.0000
 4400,0.00018764,0.00000088,-0.00000032,0.00000232,-0.00015383,-0.00005
 017,0.00013239,-0.00002690,0.00000265,-0.00002303,-0.00000065,-0.00000
 686,0.00000198,0.00311445,-0.00598025,-0.01240082,-0.00007500,-0.00008
 868,0.00014848,-0.00410539,0.00722860,0.02736317,0.00128182,0.00231488
 ,-0.00157528,0.01303708,-0.07807015,-0.08351653,0.00014723,0.00004937,
 0.00014622,0.00000442,0.00001047,-0.00000322,0.00007374,0.00006433,0.0
 0000158,0.00001941,0.00045113,0.00018749,0.00000189,0.00000161,-0.0000
 0005,0.00000328,-0.00000136,0.00000009,-0.00000715,0.00000302,-0.00000
 691,0.00000418,0.00000244,0.00000312,-0.00000044,-0.00000340,0.0000000
 8,-0.00000007,0.00000124,-0.00000093,0.00000550,0.00000112,-0.00000148
 ,-0.00046903,0.00018571,0.00001196,0.00298974,0.00005454,0.00015871,-0
 .00001371,0.00004039,-0.00006614,0.00006440,-0.00009044,-0.00006949,0.
 00000620,-0.00346731,0.00367969,-0.00016063,0.00121255,-0.00094603,0.0
 0454715,-0.00744568,-0.02099476,-0.01939799,0.08362551,-0.00039887,-0.
 00018130,-0.00002821,0.00000147,-0.00000205,0.00000333,-0.00005596,0.0
 0001758,0.00009923,-0.00002031,-0.00000020,-0.00002386,-0.00000045,-0.
 00000510,0.00000028,0.00052598,-0.00042838,-0.00066028,-0.00028038,0.0
 0022268,0.00011094,0.00189293,-0.00760910,-0.02331891,0.00068642,-0.00
 045520,0.00266702,0.04107709,-0.08132550,-0.27216691,0.00017560,0.0000
 4074,0.00003046,0.00000756,0.00000325,-0.00000133,0.00007499,0.0000492
 6,0.00000807,0.00030875,0.00037953,0.00003507,0.00000133,0.00000147,-0
 .00000003,0.00000300,-0.00000126,-0.00000007,-0.00000827,0.00000673,0.
 00000635,0.00000310,0.00000250,0.00000266,0.00000057,-0.00000347,0.000
 00216,0.,0.00000103,-0.00000058,0.00000385,0.00000054,-0.00000104,0.00
 041401,-0.00009006,0.00062215,-0.00004446,-0.00007483,0.00115375,0.000
 03570,0.00001485,-0.00000520,-0.00015343,-0.00017111,-0.00009814,-0.00
 037457,0.00384121,-0.00177022,-0.00020972,-0.00003042,0.00102346,0.000
 36232,-0.00178393,-0.00513736,-0.04403060,0.08758254,0.29744993,0.0001
 0291,-0.00003860,-0.00005012,0.00159583,0.00085853,0.00056854,-0.00706
 642,0.00983213,-0.02546522,0.00029607,-0.00015234,-0.00083662,0.002442
 29,-0.01401095,0.02795773,0.00005652,-0.00008693,0.00000189,0.00000509
 ,0.00001353,-0.00030532,0.00003628,0.00007254,0.00000208,-0.00011401,-
 0.00001741,0.00016898,0.00001835,0.00003077,-0.00000122,0.00205390,-0.
 00028855,-0.00089124,-0.04832857,0.01097299,-0.02326640,0.00048922,0.0
 0048092,0.00134911,0.00005092,-0.00004530,-0.00000217,0.00007517,0.000
 33414,-0.00001082,-0.00004457,0.00027614,-0.00033487,-0.00320120,0.003
 10590,0.00120941,0.00000883,0.00002272,0.00009020,0.00032764,-0.000359
 03,0.00014392,-0.00501400,-0.00318882,0.00137251,0.00115041,0.00096793
 ,-0.00039831,-0.00001545,-0.00000883,0.00000316,0.00000536,0.00001469,
 0.00000142,0.00003740,-0.00008282,-0.00000579,-0.00000429,0.00003931,0
 .00019301,0.00000457,-0.00000738,-0.00000251,-0.00001316,-0.00001368,-
 0.00000058,0.00001499,-0.00000923,0.00000452,-0.00000045,-0.00000011,0
 .00000092,0.05629763,-0.00000796,0.00012878,-0.00017979,0.00025587,0.0
 0038758,0.00051830,0.00346450,-0.00941534,0.02295930,0.00029609,-0.000
 78554,0.00086702,0.00029514,-0.00734461,0.01310478,-0.00005043,0.00005
 361,-0.00000026,-0.00013851,0.00002953,0.00030372,-0.00001317,-0.00003
 256,0.00000341,0.00003736,0.00005409,-0.00015197,-0.00000817,-0.000030
 81,0.00000039,-0.00314530,0.00116180,-0.00014659,0.01318446,-0.0958213
 3,0.09723190,0.00020570,-0.00065448,-0.00180616,-0.00003854,0.00003842
 ,0.00000206,0.00009795,0.00020997,-0.00013874,-0.00019873,-0.00010807,
 -0.00018131,0.00235436,-0.00168293,-0.00061633,-0.00003768,0.00020374,
 -0.00017729,0.00015341,-0.00074082,-0.00086451,-0.00262738,-0.00049042
 ,0.00080460,0.00006180,0.00045122,-0.00047307,0.00000944,-0.00000090,0
 .00000210,-0.00000426,-0.00001147,-0.00000514,-0.00003513,0.00004176,0
 .00001016,0.00001933,-0.00005455,-0.00013646,-0.00000485,0.00000276,0.
 00000081,0.00000453,0.00000578,-0.00000153,-0.00001283,0.00000588,-0.0
 0000244,-0.00000003,0.00000009,-0.00000044,-0.01209686,0.10343334,0.00
 008574,-0.00019889,0.00047876,0.00044475,-0.00071565,0.00061980,-0.000
 23111,-0.00050686,-0.00090719,-0.00025203,-0.00074701,-0.00086772,0.00
 036946,0.00351036,-0.00692932,0.00003141,0.00000779,0.00000132,0.00022
 354,-0.00003660,-0.00015965,0.00000159,0.00000369,0.00000392,-0.000013
 31,-0.00007087,0.00005395,-0.00001329,0.00000360,-0.00000192,0.0007275
 4,-0.00089912,0.00116000,-0.02608248,0.10003243,-0.26137694,-0.0000582
 1,0.00061610,0.00023618,-0.00007356,0.00002371,-0.00000117,-0.00002617
 ,0.00002119,0.00005586,0.00016290,0.00069303,0.00002432,0.00023607,0.0
 0049205,0.00086043,-0.00000715,-0.00014329,0.00036098,-0.00026986,-0.0
 0102951,0.00011799,0.00149051,0.00020127,0.00093982,0.00024040,-0.0001
 5488,0.00013847,-0.00000313,0.00000280,0.00000759,-0.00000085,0.000001
 95,-0.00000086,0.00000135,-0.00001809,-0.00002088,0.00000036,0.0000449
 9,0.00001649,0.00000192,-0.00000008,-0.00000015,-0.00000109,0.00000151
 ,0.00000228,-0.00000065,-0.00000210,-0.00000213,0.00000071,-0.00000075
 ,-0.00000122,0.02508751,-0.11000875,0.28355667,-0.00021233,-0.00056348
 ,-0.00025058,-0.00439070,-0.00298309,0.00337248,0.00665764,0.01655479,
 0.01749405,-0.00175542,0.00020764,-0.00019622,-0.00629583,-0.01943719,
 -0.02122357,-0.00010805,0.00013320,0.00005246,0.00005281,0.00003293,0.
 00003509,0.00001033,0.00001093,0.00001315,-0.00004469,-0.00000653,-0.0
 0001770,-0.00003608,-0.00005897,-0.00002588,-0.00047136,0.00008335,-0.
 00058818,-0.06265186,-0.04687303,-0.04331440,-0.00162266,0.00575446,0.
 00095475,0.00007010,-0.00000868,0.00000049,-0.00054338,-0.00129422,-0.
 00125625,-0.00007239,0.00003372,-0.00023102,0.00113903,-0.00027795,-0.
 00001153,0.00019253,-0.00005059,0.00003046,0.00015279,0.00015413,0.000
 05809,0.00118855,0.00045799,0.00034409,0.00099603,0.00091366,-0.000401
 31,0.00000749,-0.00000225,0.00000326,0.00001258,-0.00001311,-0.0000313
 1,0.00000582,-0.00002767,-0.00000160,0.00000039,-0.00000393,-0.0000252
 5,-0.00000089,-0.00000170,-0.00000353,-0.00000499,-0.00000003,-0.00000
 140,-0.00002393,0.00000625,0.00000039,0.00000307,-0.00000029,0.0000014
 2,-0.00126726,-0.00202011,-0.00207288,0.06901264,0.00005896,0.00024129
 ,0.00003836,-0.00187880,-0.00010468,0.00149368,-0.00803030,-0.01546152
 ,-0.01404033,0.00078176,0.00055236,0.00167649,-0.00242557,-0.00909099,
 -0.00851380,0.00009081,-0.00008059,-0.00004360,-0.00004193,-0.00003510
 ,-0.00003667,-0.00001337,-0.00002105,-0.00001758,0.00006988,0.00000937
 ,0.00002947,0.00001208,0.00004549,0.00001272,0.00083525,0.00017993,0.0
 0040036,-0.04483883,-0.18474625,-0.12707726,0.00312561,-0.00484529,-0.
 00116724,-0.00000343,-0.00001228,-0.00001245,-0.00020388,-0.00037281,-
 0.00063583,-0.00021056,-0.00014136,-0.00011768,-0.00049644,0.00075926,
 0.00039313,-0.00004263,0.00000653,-0.00015646,0.00001594,0.00019346,-0
 .00017357,0.00043951,0.00011800,0.00002119,0.00008819,0.00068747,0.000
 21097,-0.00000089,0.00000542,-0.00000095,0.00000530,-0.00000348,-0.000
 00011,-0.00003781,0.00004513,-0.00000747,0.00001035,0.,0.00001617,0.00
 000045,0.00000312,0.00000443,0.00000728,0.00000122,0.00000188,0.000019
 30,-0.00000323,0.00000075,-0.00000058,-0.00000104,-0.00000156,0.003384
 59,0.01096546,0.00887600,0.04927977,0.20110618,-0.00006832,0.00019646,
 0.00017508,0.00185784,0.00066869,0.00018961,-0.00219960,0.00210699,-0.
 00153602,0.00004537,0.00021293,-0.00046675,0.00226421,0.00817438,0.007
 36556,0.00009365,-0.00008783,-0.00001628,0.00002091,0.00004543,-0.0000
 4208,-0.00002704,-0.00002285,-0.00001719,0.00008093,-0.00004250,0.0000
 2175,0.00001085,0.00005060,0.00000680,0.00117483,-0.00000977,0.0000370
 7,-0.04267462,-0.13020181,-0.16789593,-0.00045586,0.00107578,0.0010457
 7,0.00002931,-0.00001579,-0.00001921,0.00015094,0.00020860,0.00026453,
 0.00011513,0.00022362,0.00013286,0.00044458,0.00049139,0.00087515,-0.0
 0001030,-0.00017958,0.00017907,-0.00016819,-0.00015842,0.00036173,-0.0
 0073029,-0.00029237,0.00045047,-0.00069057,-0.00035425,0.00027766,-0.0
 0000191,0.00000629,-0.00000741,0.00000325,-0.00000643,0.00000251,-0.00
 000705,0.00000959,0.00000352,0.00000332,-0.00000684,-0.00000673,-0.000
 00026,0.00000403,0.00000458,0.00000706,0.00000028,0.00000245,0.0000213
 1,-0.00000380,-0.00000016,0.00000177,-0.00000202,-0.00000149,-0.006583
 71,-0.02091774,-0.01836571,0.04729246,0.13882694,0.17697879\\0.0004202
 5,0.00103485,-0.00180320,0.00000633,-0.00000263,-0.00001156,0.00075813
 ,0.00153859,0.00154371,-0.00002466,0.00000338,-0.00001266,0.00001133,0
 .00000557,0.00000930,-0.00003653,-0.00023224,0.00190735,0.00000080,0.0
 0000839,0.00001005,0.00000738,-0.00000533,0.00000721,-0.00000954,0.000
 01069,-0.00000539,-0.00000249,-0.00000049,-0.00000340,-0.00109727,-0.0
 0234091,-0.00163474,-0.00001035,-0.00000901,-0.00000717,0.00000184,-0.
 00000227,0.00001604,-0.00000605,0.00000669,0.00000444,0.00000084,0.000
 00222,0.00000717,-0.00000468,-0.00000297,0.00000275,-0.00000454,-0.000
 00325,-0.00000937,-0.00000043,0.00000315,-0.00000307,-0.00000137,0.000
 00341,0.00000481,-0.00000235,0.00000341,0.00000019,0.00000297,0.000006
 24,-0.00000508,-0.00000155,-0.00000287,-0.00000158,-0.00000085,-0.0000
 0281,-0.00000209,-0.00000614,-0.00000626,-0.00000228,0.00000604,-0.000
 00590,-0.00000818,-0.00000117,-0.00000592,-0.00000583,-0.00000070,-0.0
 0000269,-0.00000183,-0.00000583,0.00000005,-0.00000460,0.00000210,-0.0
 0000259,-0.00000160,0.00000377,0.00000522,0.00000234,-0.00000528,-0.00
 000370,0.00000824\\\@


 SOME PEOPLE TRY TO PULL THE WOOL OVER YOUR EYES
 USING THE WRONG YARN.
 Job cpu time:       0 days 15 hours 12 minutes 27.6 seconds.
 Elapsed time:       0 days  0 hours 57 minutes  3.5 seconds.
 File lengths (MBytes):  RWF=    690 Int=      0 D2E=      0 Chk=     33 Scr=      1
 Normal termination of Gaussian 16 at Mon Nov  5 02:29:32 2018.
