 Entering Gaussian System, Link 0=g16
 Initial command:
 /apps/gaussian/g16a03/g16/l1.exe "/jobfs/local/2012092.r-man2/Gau-566.inp" -scrdir="/jobfs/local/2012092.r-man2/"
 Entering Link 1 = /apps/gaussian/g16a03/g16/l1.exe PID=       567.
  
 Copyright (c) 1988,1990,1992,1993,1995,1998,2003,2009,2016,
            Gaussian, Inc.  All Rights Reserved.
  
 This is part of the Gaussian(R) 16 program.  It is based on
 the Gaussian(R) 09 system (copyright 2009, Gaussian, Inc.),
 the Gaussian(R) 03 system (copyright 2003, Gaussian, Inc.),
 the Gaussian(R) 98 system (copyright 1998, Gaussian, Inc.),
 the Gaussian(R) 94 system (copyright 1995, Gaussian, Inc.),
 the Gaussian 92(TM) system (copyright 1992, Gaussian, Inc.),
 the Gaussian 90(TM) system (copyright 1990, Gaussian, Inc.),
 the Gaussian 88(TM) system (copyright 1988, Gaussian, Inc.),
 the Gaussian 86(TM) system (copyright 1986, Carnegie Mellon
 University), and the Gaussian 82(TM) system (copyright 1983,
 Carnegie Mellon University). Gaussian is a federally registered
 trademark of Gaussian, Inc.
  
 This software contains proprietary and confidential information,
 including trade secrets, belonging to Gaussian, Inc.
  
 This software is provided under written license and may be
 used, copied, transmitted, or stored only in accord with that
 written license.
  
 The following legend is applicable only to US Government
 contracts under FAR:
  
                    RESTRICTED RIGHTS LEGEND
  
 Use, reproduction and disclosure by the US Government is
 subject to restrictions as set forth in subparagraphs (a)
 and (c) of the Commercial Computer Software - Restricted
 Rights clause in FAR 52.227-19.
  
 Gaussian, Inc.
 340 Quinnipiac St., Bldg. 40, Wallingford CT 06492
  
  
 ---------------------------------------------------------------
 Warning -- This program may not be used in any manner that
 competes with the business of Gaussian, Inc. or will provide
 assistance to any competitor of Gaussian, Inc.  The licensee
 of this program is prohibited from giving any competitor of
 Gaussian, Inc. access to this program.  By using this program,
 the user acknowledges that Gaussian, Inc. is engaged in the
 business of creating and licensing software in the field of
 computational chemistry and represents and warrants to the
 licensee that it is not a competitor of Gaussian, Inc. and that
 it will not use this program in any manner prohibited above.
 ---------------------------------------------------------------
  

 Cite this work as:
 Gaussian 16, Revision A.03,
 M. J. Frisch, G. W. Trucks, H. B. Schlegel, G. E. Scuseria, 
 M. A. Robb, J. R. Cheeseman, G. Scalmani, V. Barone, 
 G. A. Petersson, H. Nakatsuji, X. Li, M. Caricato, A. V. Marenich, 
 J. Bloino, B. G. Janesko, R. Gomperts, B. Mennucci, H. P. Hratchian, 
 J. V. Ortiz, A. F. Izmaylov, J. L. Sonnenberg, D. Williams-Young, 
 F. Ding, F. Lipparini, F. Egidi, J. Goings, B. Peng, A. Petrone, 
 T. Henderson, D. Ranasinghe, V. G. Zakrzewski, J. Gao, N. Rega, 
 G. Zheng, W. Liang, M. Hada, M. Ehara, K. Toyota, R. Fukuda, 
 J. Hasegawa, M. Ishida, T. Nakajima, Y. Honda, O. Kitao, H. Nakai, 
 T. Vreven, K. Throssell, J. A. Montgomery, Jr., J. E. Peralta, 
 F. Ogliaro, M. J. Bearpark, J. J. Heyd, E. N. Brothers, K. N. Kudin, 
 V. N. Staroverov, T. A. Keith, R. Kobayashi, J. Normand, 
 K. Raghavachari, A. P. Rendell, J. C. Burant, S. S. Iyengar, 
 J. Tomasi, M. Cossi, J. M. Millam, M. Klene, C. Adamo, R. Cammi, 
 J. W. Ochterski, R. L. Martin, K. Morokuma, O. Farkas, 
 J. B. Foresman, and D. J. Fox, Gaussian, Inc., Wallingford CT, 2016.
 
 ******************************************
 Gaussian 16:  ES64L-G16RevA.03 25-Dec-2016
                 4-Nov-2018 
 ******************************************
 %mem=6000mb
 %nproc=24
 Will use up to   24 processors via shared memory.
 %chk=L_a1-e4_D_PSI.inp_extract_9.chk
 ----------------------------------------------------------------------
 #M062X/6-311++G(2d,2p) opt=ModRedundant freq=noraman SCRF=(Solvent=Wat
 er)
 ----------------------------------------------------------------------
 1/18=120,19=15,26=3,38=1/1,3;
 2/9=110,12=2,17=6,18=5,40=1/2;
 3/5=4,6=6,7=1212,11=2,25=1,30=1,70=2201,71=1,72=1,74=-55/1,2,3;
 4//1;
 5/5=2,38=5,53=1/2;
 6/7=2,8=2,9=2,10=2,28=1/1;
 7//1,2,3,16;
 1/18=20,19=15,26=3/3(2);
 2/9=110/2;
 99//99;
 2/9=110/2;
 3/5=4,6=6,7=1212,11=2,25=1,30=1,70=2205,71=1,72=1,74=-55/1,2,3;
 4/5=5,16=3,69=1/1;
 5/5=2,38=5,53=1/2;
 7//1,2,3,16;
 1/18=20,19=15,26=3/3(-5);
 2/9=110/2;
 6/7=2,8=2,9=2,10=2,19=2,28=1/1;
 99/9=1/99;
 ---------------------------
 L_a1-e4_D_PSI.inp_extract_9
 ---------------------------
 Symbolic Z-matrix:
 Charge =  0 Multiplicity = 1
 C                    -2.42061  -1.41497  -0.19406 
 O                    -1.46237  -0.95906   0.75159 
 C                    -3.27134   0.92405  -0.42416 
 O                     2.83769  -1.34968  -0.23252 
 C                    -1.02501   0.36609   0.59526 
 C                    -2.20002   1.33334   0.58766 
 C                     3.40799   0.99711  -0.11577 
 O                    -0.30552   0.52202  -0.59536 
 C                     1.92128   1.34933  -0.01132 
 C                     3.66195  -0.40167   0.42177 
 C                     1.08484   0.23645  -0.63638 
 C                     1.45705  -1.121    -0.04045 
 C                    -3.6606   -0.53655  -0.19649 
 H                    -1.96928  -1.44278  -1.1801 
 H                    -2.65466  -2.42966   0.09695 
 H                    -2.89723   1.04969  -1.43675 
 H                    -4.13762   1.57072  -0.32404 
 H                    -0.38821   0.55216   1.44589 
 H                    -2.62757   1.33067   1.58665 
 H                    -1.82979   2.33421   0.39394 
 H                     4.0084    1.71199   0.43885 
 H                     3.72678   1.04053  -1.15414 
 H                     1.65142   1.47254   1.03433 
 H                     1.71195   2.28741  -0.5158 
 H                     4.68236  -0.71379   0.24643 
 H                     3.46916  -0.44351   1.49143 
 H                     1.30836   0.19284  -1.69527 
 H                     0.93419  -1.92138  -0.54407 
 H                     1.2324   -1.16882   1.02002 
 H                    -4.34049  -0.88543  -0.96859 
 H                    -4.17169  -0.63671   0.7583 
 
 The following ModRedundant input section has been read:
 D       5       8      11       9 F                                           
 

 GradGradGradGradGradGradGradGradGradGradGradGradGradGradGradGradGradGrad
 Berny optimization.
 Initialization pass.
                           ----------------------------
                           !    Initial Parameters    !
                           ! (Angstroms and Degrees)  !
 --------------------------                            --------------------------
 ! Name  Definition              Value          Derivative Info.                !
 --------------------------------------------------------------------------------
 ! R1    R(1,2)                  1.4214         estimate D2E/DX2                !
 ! R2    R(1,13)                 1.5196         estimate D2E/DX2                !
 ! R3    R(1,14)                 1.0848         estimate D2E/DX2                !
 ! R4    R(1,15)                 1.0812         estimate D2E/DX2                !
 ! R5    R(2,5)                  1.4042         estimate D2E/DX2                !
 ! R6    R(3,6)                  1.5294         estimate D2E/DX2                !
 ! R7    R(3,13)                 1.5286         estimate D2E/DX2                !
 ! R8    R(3,16)                 1.0868         estimate D2E/DX2                !
 ! R9    R(3,17)                 1.0857         estimate D2E/DX2                !
 ! R10   R(4,10)                 1.4164         estimate D2E/DX2                !
 ! R11   R(4,12)                 1.4126         estimate D2E/DX2                !
 ! R12   R(5,6)                  1.5219         estimate D2E/DX2                !
 ! R13   R(5,8)                  1.3998         estimate D2E/DX2                !
 ! R14   R(5,18)                 1.0788         estimate D2E/DX2                !
 ! R15   R(6,19)                 1.0866         estimate D2E/DX2                !
 ! R16   R(6,20)                 1.0846         estimate D2E/DX2                !
 ! R17   R(7,9)                  1.5314         estimate D2E/DX2                !
 ! R18   R(7,10)                 1.5199         estimate D2E/DX2                !
 ! R19   R(7,21)                 1.0859         estimate D2E/DX2                !
 ! R20   R(7,22)                 1.0871         estimate D2E/DX2                !
 ! R21   R(8,11)                 1.42           estimate D2E/DX2                !
 ! R22   R(9,11)                 1.526          estimate D2E/DX2                !
 ! R23   R(9,23)                 1.0869         estimate D2E/DX2                !
 ! R24   R(9,24)                 1.0855         estimate D2E/DX2                !
 ! R25   R(10,25)                1.0814         estimate D2E/DX2                !
 ! R26   R(10,26)                1.0877         estimate D2E/DX2                !
 ! R27   R(11,12)                1.5285         estimate D2E/DX2                !
 ! R28   R(11,27)                1.0831         estimate D2E/DX2                !
 ! R29   R(12,28)                1.0806         estimate D2E/DX2                !
 ! R30   R(12,29)                1.0851         estimate D2E/DX2                !
 ! R31   R(13,30)                1.0863         estimate D2E/DX2                !
 ! R32   R(13,31)                1.0876         estimate D2E/DX2                !
 ! A1    A(2,1,13)             111.4543         estimate D2E/DX2                !
 ! A2    A(2,1,14)             109.419          estimate D2E/DX2                !
 ! A3    A(2,1,15)             105.5383         estimate D2E/DX2                !
 ! A4    A(13,1,14)            110.6627         estimate D2E/DX2                !
 ! A5    A(13,1,15)            111.4864         estimate D2E/DX2                !
 ! A6    A(14,1,15)            108.0988         estimate D2E/DX2                !
 ! A7    A(1,2,5)              116.0156         estimate D2E/DX2                !
 ! A8    A(6,3,13)             109.6056         estimate D2E/DX2                !
 ! A9    A(6,3,16)             110.1425         estimate D2E/DX2                !
 ! A10   A(6,3,17)             109.7872         estimate D2E/DX2                !
 ! A11   A(13,3,16)            109.6874         estimate D2E/DX2                !
 ! A12   A(13,3,17)            110.623          estimate D2E/DX2                !
 ! A13   A(16,3,17)            106.9623         estimate D2E/DX2                !
 ! A14   A(10,4,12)            113.4293         estimate D2E/DX2                !
 ! A15   A(2,5,6)              111.0908         estimate D2E/DX2                !
 ! A16   A(2,5,8)              111.0944         estimate D2E/DX2                !
 ! A17   A(2,5,18)             105.002          estimate D2E/DX2                !
 ! A18   A(6,5,8)              108.7704         estimate D2E/DX2                !
 ! A19   A(6,5,18)             110.4913         estimate D2E/DX2                !
 ! A20   A(8,5,18)             110.3688         estimate D2E/DX2                !
 ! A21   A(3,6,5)              111.965          estimate D2E/DX2                !
 ! A22   A(3,6,19)             109.3873         estimate D2E/DX2                !
 ! A23   A(3,6,20)             111.5864         estimate D2E/DX2                !
 ! A24   A(5,6,19)             107.3148         estimate D2E/DX2                !
 ! A25   A(5,6,20)             108.8946         estimate D2E/DX2                !
 ! A26   A(19,6,20)            107.5042         estimate D2E/DX2                !
 ! A27   A(9,7,10)             110.4725         estimate D2E/DX2                !
 ! A28   A(9,7,21)             110.5202         estimate D2E/DX2                !
 ! A29   A(9,7,22)             109.9169         estimate D2E/DX2                !
 ! A30   A(10,7,21)            109.4419         estimate D2E/DX2                !
 ! A31   A(10,7,22)            109.0012         estimate D2E/DX2                !
 ! A32   A(21,7,22)            107.4229         estimate D2E/DX2                !
 ! A33   A(5,8,11)             120.3596         estimate D2E/DX2                !
 ! A34   A(7,9,11)             109.6604         estimate D2E/DX2                !
 ! A35   A(7,9,23)             109.4334         estimate D2E/DX2                !
 ! A36   A(7,9,24)             110.7487         estimate D2E/DX2                !
 ! A37   A(11,9,23)            109.9151         estimate D2E/DX2                !
 ! A38   A(11,9,24)            109.522          estimate D2E/DX2                !
 ! A39   A(23,9,24)            107.5327         estimate D2E/DX2                !
 ! A40   A(4,10,7)             110.8156         estimate D2E/DX2                !
 ! A41   A(4,10,25)            106.322          estimate D2E/DX2                !
 ! A42   A(4,10,26)            108.9885         estimate D2E/DX2                !
 ! A43   A(7,10,25)            111.4664         estimate D2E/DX2                !
 ! A44   A(7,10,26)            110.7076         estimate D2E/DX2                !
 ! A45   A(25,10,26)           108.3978         estimate D2E/DX2                !
 ! A46   A(8,11,9)             112.2209         estimate D2E/DX2                !
 ! A47   A(8,11,12)            113.9397         estimate D2E/DX2                !
 ! A48   A(8,11,27)            103.7921         estimate D2E/DX2                !
 ! A49   A(9,11,12)            110.7621         estimate D2E/DX2                !
 ! A50   A(9,11,27)            108.4625         estimate D2E/DX2                !
 ! A51   A(12,11,27)           107.1665         estimate D2E/DX2                !
 ! A52   A(4,12,11)            109.1941         estimate D2E/DX2                !
 ! A53   A(4,12,28)            106.8371         estimate D2E/DX2                !
 ! A54   A(4,12,29)            109.1541         estimate D2E/DX2                !
 ! A55   A(11,12,28)           110.9943         estimate D2E/DX2                !
 ! A56   A(11,12,29)           111.7007         estimate D2E/DX2                !
 ! A57   A(28,12,29)           108.8258         estimate D2E/DX2                !
 ! A58   A(1,13,3)             110.1687         estimate D2E/DX2                !
 ! A59   A(1,13,30)            109.038          estimate D2E/DX2                !
 ! A60   A(1,13,31)            109.1972         estimate D2E/DX2                !
 ! A61   A(3,13,30)            111.1234         estimate D2E/DX2                !
 ! A62   A(3,13,31)            109.7797         estimate D2E/DX2                !
 ! A63   A(30,13,31)           107.4734         estimate D2E/DX2                !
 ! D1    D(13,1,2,5)           -57.2912         estimate D2E/DX2                !
 ! D2    D(14,1,2,5)            65.4296         estimate D2E/DX2                !
 ! D3    D(15,1,2,5)          -178.4724         estimate D2E/DX2                !
 ! D4    D(2,1,13,3)            54.6733         estimate D2E/DX2                !
 ! D5    D(2,1,13,30)          176.8735         estimate D2E/DX2                !
 ! D6    D(2,1,13,31)          -65.9658         estimate D2E/DX2                !
 ! D7    D(14,1,13,3)          -67.3315         estimate D2E/DX2                !
 ! D8    D(14,1,13,30)          54.8687         estimate D2E/DX2                !
 ! D9    D(14,1,13,31)         172.0294         estimate D2E/DX2                !
 ! D10   D(15,1,13,3)          172.3199         estimate D2E/DX2                !
 ! D11   D(15,1,13,30)         -65.4798         estimate D2E/DX2                !
 ! D12   D(15,1,13,31)          51.6809         estimate D2E/DX2                !
 ! D13   D(1,2,5,6)             55.2612         estimate D2E/DX2                !
 ! D14   D(1,2,5,8)            -65.9657         estimate D2E/DX2                !
 ! D15   D(1,2,5,18)           174.7199         estimate D2E/DX2                !
 ! D16   D(13,3,6,5)            52.0802         estimate D2E/DX2                !
 ! D17   D(13,3,6,19)          -66.7449         estimate D2E/DX2                !
 ! D18   D(13,3,6,20)          174.4298         estimate D2E/DX2                !
 ! D19   D(16,3,6,5)           -68.6881         estimate D2E/DX2                !
 ! D20   D(16,3,6,19)          172.4868         estimate D2E/DX2                !
 ! D21   D(16,3,6,20)           53.6615         estimate D2E/DX2                !
 ! D22   D(17,3,6,5)           173.7823         estimate D2E/DX2                !
 ! D23   D(17,3,6,19)           54.9572         estimate D2E/DX2                !
 ! D24   D(17,3,6,20)          -63.8681         estimate D2E/DX2                !
 ! D25   D(6,3,13,1)           -52.8794         estimate D2E/DX2                !
 ! D26   D(6,3,13,30)         -173.8394         estimate D2E/DX2                !
 ! D27   D(6,3,13,31)           67.4092         estimate D2E/DX2                !
 ! D28   D(16,3,13,1)           68.1642         estimate D2E/DX2                !
 ! D29   D(16,3,13,30)         -52.7958         estimate D2E/DX2                !
 ! D30   D(16,3,13,31)        -171.5472         estimate D2E/DX2                !
 ! D31   D(17,3,13,1)         -174.0787         estimate D2E/DX2                !
 ! D32   D(17,3,13,30)          64.9613         estimate D2E/DX2                !
 ! D33   D(17,3,13,31)         -53.7901         estimate D2E/DX2                !
 ! D34   D(12,4,10,7)          -61.7827         estimate D2E/DX2                !
 ! D35   D(12,4,10,25)         176.9333         estimate D2E/DX2                !
 ! D36   D(12,4,10,26)          60.2822         estimate D2E/DX2                !
 ! D37   D(10,4,12,11)          62.2616         estimate D2E/DX2                !
 ! D38   D(10,4,12,28)        -177.6256         estimate D2E/DX2                !
 ! D39   D(10,4,12,29)         -60.1083         estimate D2E/DX2                !
 ! D40   D(2,5,6,3)            -52.088          estimate D2E/DX2                !
 ! D41   D(2,5,6,19)            67.9555         estimate D2E/DX2                !
 ! D42   D(2,5,6,20)          -175.9598         estimate D2E/DX2                !
 ! D43   D(8,5,6,3)             70.4928         estimate D2E/DX2                !
 ! D44   D(8,5,6,19)          -169.4637         estimate D2E/DX2                !
 ! D45   D(8,5,6,20)           -53.3789         estimate D2E/DX2                !
 ! D46   D(18,5,6,3)          -168.2118         estimate D2E/DX2                !
 ! D47   D(18,5,6,19)          -48.1683         estimate D2E/DX2                !
 ! D48   D(18,5,6,20)           67.9164         estimate D2E/DX2                !
 ! D49   D(2,5,8,11)           -85.4755         estimate D2E/DX2                !
 ! D50   D(6,5,8,11)           151.9458         estimate D2E/DX2                !
 ! D51   D(18,5,8,11)           30.5755         estimate D2E/DX2                !
 ! D52   D(10,7,9,11)          -51.2355         estimate D2E/DX2                !
 ! D53   D(10,7,9,23)           69.4028         estimate D2E/DX2                !
 ! D54   D(10,7,9,24)         -172.2207         estimate D2E/DX2                !
 ! D55   D(21,7,9,11)         -172.5072         estimate D2E/DX2                !
 ! D56   D(21,7,9,23)          -51.8689         estimate D2E/DX2                !
 ! D57   D(21,7,9,24)           66.5076         estimate D2E/DX2                !
 ! D58   D(22,7,9,11)           69.0904         estimate D2E/DX2                !
 ! D59   D(22,7,9,23)         -170.2713         estimate D2E/DX2                !
 ! D60   D(22,7,9,24)          -51.8948         estimate D2E/DX2                !
 ! D61   D(9,7,10,4)            54.8786         estimate D2E/DX2                !
 ! D62   D(9,7,10,25)          173.0797         estimate D2E/DX2                !
 ! D63   D(9,7,10,26)          -66.1759         estimate D2E/DX2                !
 ! D64   D(21,7,10,4)          176.7878         estimate D2E/DX2                !
 ! D65   D(21,7,10,25)         -65.0111         estimate D2E/DX2                !
 ! D66   D(21,7,10,26)          55.7333         estimate D2E/DX2                !
 ! D67   D(22,7,10,4)          -65.9944         estimate D2E/DX2                !
 ! D68   D(22,7,10,25)          52.2067         estimate D2E/DX2                !
 ! D69   D(22,7,10,26)         172.9511         estimate D2E/DX2                !
 ! D70   D(5,8,11,9)           -77.23           Frozen                          !
 ! D71   D(5,8,11,12)           49.6642         estimate D2E/DX2                !
 ! D72   D(5,8,11,27)          165.864          estimate D2E/DX2                !
 ! D73   D(7,9,11,8)          -178.6948         estimate D2E/DX2                !
 ! D74   D(7,9,11,12)           52.7225         estimate D2E/DX2                !
 ! D75   D(7,9,11,27)          -64.6225         estimate D2E/DX2                !
 ! D76   D(23,9,11,8)           60.9594         estimate D2E/DX2                !
 ! D77   D(23,9,11,12)         -67.6233         estimate D2E/DX2                !
 ! D78   D(23,9,11,27)         175.0317         estimate D2E/DX2                !
 ! D79   D(24,9,11,8)          -56.9715         estimate D2E/DX2                !
 ! D80   D(24,9,11,12)         174.4459         estimate D2E/DX2                !
 ! D81   D(24,9,11,27)          57.1009         estimate D2E/DX2                !
 ! D82   D(8,11,12,4)          175.1616         estimate D2E/DX2                !
 ! D83   D(8,11,12,28)          57.6389         estimate D2E/DX2                !
 ! D84   D(8,11,12,29)         -64.0105         estimate D2E/DX2                !
 ! D85   D(9,11,12,4)          -57.1894         estimate D2E/DX2                !
 ! D86   D(9,11,12,28)        -174.7121         estimate D2E/DX2                !
 ! D87   D(9,11,12,29)          63.6385         estimate D2E/DX2                !
 ! D88   D(27,11,12,4)          60.9474         estimate D2E/DX2                !
 ! D89   D(27,11,12,28)        -56.5752         estimate D2E/DX2                !
 ! D90   D(27,11,12,29)       -178.2246         estimate D2E/DX2                !
 --------------------------------------------------------------------------------
 Trust Radius=3.00D-01 FncErr=1.00D-07 GrdErr=1.00D-06 EigMax=2.50D+02 EigMin=1.00D-04
 Number of steps in this run=    186 maximum allowed number of steps=    186.
 GradGradGradGradGradGradGradGradGradGradGradGradGradGradGradGradGradGrad

                          Input orientation:                          
 ---------------------------------------------------------------------
 Center     Atomic      Atomic             Coordinates (Angstroms)
 Number     Number       Type             X           Y           Z
 ---------------------------------------------------------------------
      1          6           0       -2.420613   -1.414972   -0.194061
      2          8           0       -1.462370   -0.959055    0.751585
      3          6           0       -3.271340    0.924050   -0.424163
      4          8           0        2.837688   -1.349682   -0.232522
      5          6           0       -1.025006    0.366088    0.595258
      6          6           0       -2.200022    1.333335    0.587659
      7          6           0        3.407989    0.997114   -0.115771
      8          8           0       -0.305522    0.522024   -0.595355
      9          6           0        1.921276    1.349328   -0.011323
     10          6           0        3.661952   -0.401668    0.421774
     11          6           0        1.084841    0.236448   -0.636375
     12          6           0        1.457048   -1.121000   -0.040454
     13          6           0       -3.660596   -0.536553   -0.196492
     14          1           0       -1.969282   -1.442781   -1.180099
     15          1           0       -2.654662   -2.429660    0.096953
     16          1           0       -2.897233    1.049686   -1.436753
     17          1           0       -4.137622    1.570720   -0.324044
     18          1           0       -0.388212    0.552156    1.445891
     19          1           0       -2.627570    1.330669    1.586648
     20          1           0       -1.829792    2.334208    0.393939
     21          1           0        4.008405    1.711991    0.438845
     22          1           0        3.726783    1.040533   -1.154142
     23          1           0        1.651421    1.472544    1.034330
     24          1           0        1.711947    2.287407   -0.515796
     25          1           0        4.682356   -0.713788    0.246426
     26          1           0        3.469159   -0.443514    1.491427
     27          1           0        1.308356    0.192842   -1.695267
     28          1           0        0.934192   -1.921378   -0.544073
     29          1           0        1.232404   -1.168815    1.020022
     30          1           0       -4.340495   -0.885432   -0.968591
     31          1           0       -4.171687   -0.636707    0.758295
 ---------------------------------------------------------------------
                    Distance matrix (angstroms):
                    1          2          3          4          5
     1  C    0.000000
     2  O    1.421385   0.000000
     3  C    2.499541   2.863711   0.000000
     4  O    5.258847   4.428494   6.521258   0.000000
     5  C    2.396439   1.404183   2.529142   4.306912   0.000000
     6  C    2.865822   2.413722   1.529386   5.766264   1.521935
     7  C    6.308478   5.319709   6.686844   2.417918   4.533784
     8  O    2.895963   2.312172   2.997834   3.676235   1.399833
     9  C    5.150412   4.166500   5.226333   2.858915   3.164693
    10  C    6.197067   5.165088   7.109408   1.416420   4.752591
    11  C    3.900133   3.137506   4.415217   2.398203   2.446463
    12  C    3.891821   3.029283   5.165957   1.412569   2.962457
    13  C    1.519600   2.430958   1.528632   6.549059   2.896198
    14  H    1.084778   2.054837   2.805117   4.900360   2.704729
    15  H    1.081231   2.003193   3.449525   5.607211   3.274186
    16  H    2.801069   3.298893   1.086775   6.332176   2.846333
    17  H    3.446647   3.835846   1.085657   7.562544   3.461883
    18  H    3.269509   1.979807   3.456564   4.103716   1.078751
    19  H    3.279070   2.701455   2.150149   6.353165   2.116951
    20  H    3.840724   3.332940   2.176212   5.979036   2.135815
    21  H    7.177098   6.096037   7.372945   3.345916   5.212595
    22  H    6.688927   5.878559   7.037056   2.711642   5.108305
    23  H    5.140832   3.960847   5.163489   3.313171   2.929213
    24  H    5.557803   4.714028   5.167232   3.817847   3.523751
    25  H    7.151074   6.170332   8.148220   2.009117   5.819089
    26  H    6.202743   5.013295   7.139611   2.047412   4.653611
    27  H    4.329422   3.871805   4.808741   2.618752   3.274309
    28  H    3.410817   2.889343   5.079108   2.011765   3.220098
    29  H    3.857347   2.716222   5.171988   2.044142   2.762653
    30  H    2.136880   3.353808   2.171110   7.230742   3.873550
    31  H    2.139845   2.728434   2.155178   7.114871   3.306627
                    6          7          8          9         10
     6  C    0.000000
     7  C    5.661947   0.000000
     8  O    2.376316   3.774371   0.000000
     9  C    4.164629   1.531431   2.446253   0.000000
    10  C    6.115594   1.519883   4.198644   2.506694   0.000000
    11  C    3.673111   2.499331   1.419981   1.526046   2.858036
    12  C    4.448870   2.880668   2.472670   2.513738   2.364888
    13  C    2.498930   7.233502   3.540649   5.894754   7.349841
    14  H    3.299247   6.000077   2.640167   4.929336   5.946487
    15  H    3.821992   6.967336   3.835386   5.935628   6.642129
    16  H    2.159816   6.442327   2.775490   5.033852   6.970184
    17  H    2.154495   7.570247   3.982256   6.071001   8.079599
    18  H    2.151618   4.128912   2.043142   2.844765   4.285140
    19  H    1.086639   6.279925   3.287393   4.821396   6.626916
    20  H    1.084594   5.429731   2.566342   3.899325   6.135556
    21  H    6.221743   1.085886   4.592990   2.165706   2.141933
    22  H    6.184385   1.087074   4.103727   2.158992   2.137208
    23  H    3.879756   2.152742   2.718269   1.086920   2.816049
    24  H    4.175089   2.168279   2.681993   1.085497   3.451475
    25  H    7.188482   2.163882   5.207183   3.456363   1.081383
    26  H    6.009459   2.159221   4.419857   2.805081   1.087694
    27  H    4.338340   2.747748   1.980598   2.132791   3.220981
    28  H    4.658033   3.849767   2.740389   3.457698   3.268494
    29  H    4.269571   3.273293   2.798856   2.807002   2.617082
    30  H    3.453472   8.019369   4.289667   6.717164   8.136725
    31  H    2.792426   7.802875   4.257025   6.454521   7.844386
                   11         12         13         14         15
    11  C    0.000000
    12  C    1.528504   0.000000
    13  C    4.828064   5.153271   0.000000
    14  H    3.527480   3.625199   2.156218   0.000000
    15  H    4.650783   4.317132   2.163762   1.753436   0.000000
    16  H    4.142327   5.061748   2.153398   2.671957   3.810111
    17  H    5.399255   6.214991   2.164353   3.809950   4.287126
    18  H    2.570095   2.900630   3.819844   3.657237   3.980911
    19  H    4.463311   5.034108   2.780872   3.972437   4.044750
    20  H    3.735938   4.788578   3.455679   4.094228   4.843867
    21  H    3.446818   3.842524   8.017056   6.950274   7.852810
    22  H    2.809714   3.326293   7.614306   6.213910   7.370910
    23  H    2.154113   2.814145   5.811103   5.149010   5.886274
    24  H    2.148077   3.450820   6.077905   5.282712   6.457047
    25  H    3.824186   3.263546   8.356580   6.841834   7.536471
    26  H    3.267241   2.618060   7.327423   6.141028   6.587148
    27  H    1.083103   2.118182   5.241071   3.699131   5.078886
    28  H    2.165047   1.080563   4.811510   3.010605   3.680915
    29  H    2.177198   1.085062   5.081448   3.894404   4.189400
    30  H    5.550068   5.876090   1.086331   2.445000   2.522312
    31  H    5.508048   5.705716   1.087595   3.042649   2.439963
                   16         17         18         19         20
    16  H    0.000000
    17  H    1.745899   0.000000
    18  H    3.853876   4.269452   0.000000
    19  H    3.048380   2.447167   2.374999   0.000000
    20  H    2.478076   2.534658   2.521996   1.751027   0.000000
    21  H    7.186400   8.182891   4.657209   6.745296   5.871432
    22  H    6.630048   7.925846   4.892021   6.926320   5.911487
    23  H    5.193776   5.947086   2.275214   4.316821   3.642995
    24  H    4.860520   5.896428   3.357079   4.915997   3.657010
    25  H    7.961978   9.128879   5.362088   7.707854   7.191670
    26  H    7.164833   8.075654   3.984061   6.350346   6.082689
    27  H    4.299766   5.782515   3.588081   5.249489   4.335689
    28  H    4.929900   6.161693   3.439052   5.272754   5.160377
    29  H    5.292579   6.176467   2.401979   4.633345   4.694699
    30  H    2.459037   2.547407   4.849425   3.791367   4.304207
    31  H    3.047358   2.458730   4.025030   2.634584   3.800469
                   21         22         23         24         25
    21  H    0.000000
    22  H    1.751506   0.000000
    23  H    2.442808   3.046830   0.000000
    24  H    2.552677   2.453924   1.752300   0.000000
    25  H    2.525003   2.439744   3.819346   4.290860   0.000000
    26  H    2.458641   3.044306   2.680371   3.817678   1.759239
    27  H    3.761982   2.619196   3.034144   2.437466   3.997002
    28  H    4.859865   4.116268   3.811100   4.280137   4.016453
    29  H    4.042647   3.978710   2.674427   3.812371   3.564782
    30  H    8.856162   8.296068   6.743501   6.848648   9.105908
    31  H    8.516592   8.297974   6.199494   6.692600   8.869162
                   26         27         28         29         30
    26  H    0.000000
    27  H    3.902440   0.000000
    28  H    3.571190   2.436221   0.000000
    29  H    2.398199   3.038531   1.761157   0.000000
    30  H    8.199858   5.796572   5.392191   5.923858   0.000000
    31  H    7.678368   6.061270   5.423702   5.436528   1.752854
                   31
    31  H    0.000000
 Stoichiometry    C10H18O3
 Framework group  C1[X(C10H18O3)]
 Deg. of freedom    87
 Full point group                 C1      NOp   1
 Largest Abelian subgroup         C1      NOp   1
 Largest concise Abelian subgroup C1      NOp   1
                         Standard orientation:                         
 ---------------------------------------------------------------------
 Center     Atomic      Atomic             Coordinates (Angstroms)
 Number     Number       Type             X           Y           Z
 ---------------------------------------------------------------------
      1          6           0       -2.420613   -1.414972   -0.194061
      2          8           0       -1.462370   -0.959055    0.751585
      3          6           0       -3.271340    0.924050   -0.424163
      4          8           0        2.837688   -1.349682   -0.232522
      5          6           0       -1.025006    0.366088    0.595258
      6          6           0       -2.200022    1.333335    0.587659
      7          6           0        3.407989    0.997114   -0.115771
      8          8           0       -0.305522    0.522024   -0.595355
      9          6           0        1.921276    1.349328   -0.011323
     10          6           0        3.661952   -0.401668    0.421774
     11          6           0        1.084841    0.236448   -0.636375
     12          6           0        1.457048   -1.121000   -0.040454
     13          6           0       -3.660596   -0.536553   -0.196492
     14          1           0       -1.969282   -1.442781   -1.180099
     15          1           0       -2.654662   -2.429660    0.096953
     16          1           0       -2.897233    1.049686   -1.436753
     17          1           0       -4.137622    1.570720   -0.324044
     18          1           0       -0.388212    0.552156    1.445891
     19          1           0       -2.627570    1.330669    1.586648
     20          1           0       -1.829792    2.334208    0.393939
     21          1           0        4.008405    1.711991    0.438845
     22          1           0        3.726783    1.040533   -1.154142
     23          1           0        1.651421    1.472544    1.034330
     24          1           0        1.711947    2.287407   -0.515796
     25          1           0        4.682356   -0.713788    0.246426
     26          1           0        3.469159   -0.443514    1.491427
     27          1           0        1.308356    0.192842   -1.695267
     28          1           0        0.934192   -1.921378   -0.544073
     29          1           0        1.232404   -1.168815    1.020022
     30          1           0       -4.340495   -0.885432   -0.968591
     31          1           0       -4.171687   -0.636707    0.758295
 ---------------------------------------------------------------------
 Rotational constants (GHZ):           2.0093656           0.4245263           0.3785685
 Standard basis: 6-311++G(2d,2p) (5D, 7F)
 There are   557 symmetry adapted cartesian basis functions of A   symmetry.
 There are   531 symmetry adapted basis functions of A   symmetry.
   531 basis functions,   762 primitive gaussians,   557 cartesian basis functions
    51 alpha electrons       51 beta electrons
       nuclear repulsion energy       897.4451583143 Hartrees.
 NAtoms=   31 NActive=   31 NUniq=   31 SFac= 1.00D+00 NAtFMM=   60 NAOKFM=F Big=F
 Integral buffers will be    131072 words long.
 Raffenetti 2 integral format.
 Two-electron integral symmetry is turned on.
 ------------------------------------------------------------------------------
 Polarizable Continuum Model (PCM)
 =================================
 Model                : PCM.
 Atomic radii         : UFF (Universal Force Field).
 Polarization charges : Total charges.
 Charge compensation  : None.
 Solution method      : On-the-fly selection.
 Cavity type          : Scaled VdW (van der Waals Surface) (Alpha=1.100).
 Cavity algorithm     : GePol (No added spheres)
                        Default sphere list used, NSphG=   31.
                        Lebedev-Laikov grids with approx.  5.0 points / Ang**2.
                        Smoothing algorithm: York/Karplus (Gamma=1.0000).
                        Polarization charges: spherical gaussians, with
                                              point-specific exponents (IZeta= 3).
                        Self-potential: point-specific (ISelfS= 7).
                        Self-field    : sphere-specific E.n sum rule (ISelfD= 2).
 1st derivatives      : Analytical E(r).r(x)/FMM algorithm (CHGder, D1EAlg=3).
                        Cavity 1st derivative terms included.
 Solvent              : Water, Eps=  78.355300 Eps(inf)=   1.777849
 ------------------------------------------------------------------------------
 One-electron integrals computed using PRISM.
 NBasis=   531 RedAO= T EigKep=  5.37D-06  NBF=   531
 NBsUse=   531 1.00D-06 EigRej= -1.00D+00 NBFU=   531
 ExpMin= 3.60D-02 ExpMax= 8.59D+03 ExpMxC= 1.30D+03 IAcc=3 IRadAn=         5 AccDes= 0.00D+00
 Harris functional with IExCor= 1009 and IRadAn=       5 diagonalized for initial guess.
 HarFok:  IExCor= 1009 AccDes= 0.00D+00 IRadAn=         5 IDoV= 1 UseB2=F ITyADJ=14
 ICtDFT=  3500011 ScaDFX=  1.000000  1.000000  1.000000  1.000000
 FoFCou: FMM=F IPFlag=           0 FMFlag=      100000 FMFlg1=           0
         NFxFlg=           0 DoJE=T BraDBF=F KetDBF=T FulRan=T
         wScrn=  0.000000 ICntrl=       500 IOpCl=  0 I1Cent=   200000004 NGrid=           0
         NMat0=    1 NMatS0=      1 NMatT0=    0 NMatD0=    1 NMtDS0=    0 NMtDT0=    0
 Petite list used in FoFCou.
 Requested convergence on RMS density matrix=1.00D-08 within 128 cycles.
 Requested convergence on MAX density matrix=1.00D-06.
 Requested convergence on             energy=1.00D-06.
 No special actions if energy rises.
 Inv3:  Mode=1 IEnd=    12632112.
 Iteration    1 A*A^-1 deviation from unit magnitude is 3.89D-15 for   2021.
 Iteration    1 A*A^-1 deviation from orthogonality  is 2.94D-15 for   2037    963.
 Iteration    1 A^-1*A deviation from unit magnitude is 3.89D-15 for   2021.
 Iteration    1 A^-1*A deviation from orthogonality  is 2.54D-15 for   2048    571.
 Error on total polarization charges =  0.01474
 SCF Done:  E(RM062X) =  -617.499066731     A.U. after   12 cycles
            NFock= 12  Conv=0.57D-08     -V/T= 2.0035

 **********************************************************************

            Population analysis using the SCF density.

 **********************************************************************

 Orbital symmetries:
       Occupied  (A) (A) (A) (A) (A) (A) (A) (A) (A) (A) (A) (A)
                 (A) (A) (A) (A) (A) (A) (A) (A) (A) (A) (A) (A)
                 (A) (A) (A) (A) (A) (A) (A) (A) (A) (A) (A) (A)
                 (A) (A) (A) (A) (A) (A) (A) (A) (A) (A) (A) (A)
                 (A) (A) (A)
       Virtual   (A) (A) (A) (A) (A) (A) (A) (A) (A) (A) (A) (A)
                 (A) (A) (A) (A) (A) (A) (A) (A) (A) (A) (A) (A)
                 (A) (A) (A) (A) (A) (A) (A) (A) (A) (A) (A) (A)
                 (A) (A) (A) (A) (A) (A) (A) (A) (A) (A) (A) (A)
                 (A) (A) (A) (A) (A) (A) (A) (A) (A) (A) (A) (A)
                 (A) (A) (A) (A) (A) (A) (A) (A) (A) (A) (A) (A)
                 (A) (A) (A) (A) (A) (A) (A) (A) (A) (A) (A) (A)
                 (A) (A) (A) (A) (A) (A) (A) (A) (A) (A) (A) (A)
                 (A) (A) (A) (A) (A) (A) (A) (A) (A) (A) (A) (A)
                 (A) (A) (A) (A) (A) (A) (A) (A) (A) (A) (A) (A)
                 (A) (A) (A) (A) (A) (A) (A) (A) (A) (A) (A) (A)
                 (A) (A) (A) (A) (A) (A) (A) (A) (A) (A) (A) (A)
                 (A) (A) (A) (A) (A) (A) (A) (A) (A) (A) (A) (A)
                 (A) (A) (A) (A) (A) (A) (A) (A) (A) (A) (A) (A)
                 (A) (A) (A) (A) (A) (A) (A) (A) (A) (A) (A) (A)
                 (A) (A) (A) (A) (A) (A) (A) (A) (A) (A) (A) (A)
                 (A) (A) (A) (A) (A) (A) (A) (A) (A) (A) (A) (A)
                 (A) (A) (A) (A) (A) (A) (A) (A) (A) (A) (A) (A)
                 (A) (A) (A) (A) (A) (A) (A) (A) (A) (A) (A) (A)
                 (A) (A) (A) (A) (A) (A) (A) (A) (A) (A) (A) (A)
                 (A) (A) (A) (A) (A) (A) (A) (A) (A) (A) (A) (A)
                 (A) (A) (A) (A) (A) (A) (A) (A) (A) (A) (A) (A)
                 (A) (A) (A) (A) (A) (A) (A) (A) (A) (A) (A) (A)
                 (A) (A) (A) (A) (A) (A) (A) (A) (A) (A) (A) (A)
                 (A) (A) (A) (A) (A) (A) (A) (A) (A) (A) (A) (A)
                 (A) (A) (A) (A) (A) (A) (A) (A) (A) (A) (A) (A)
                 (A) (A) (A) (A) (A) (A) (A) (A) (A) (A) (A) (A)
                 (A) (A) (A) (A) (A) (A) (A) (A) (A) (A) (A) (A)
                 (A) (A) (A) (A) (A) (A) (A) (A) (A) (A) (A) (A)
                 (A) (A) (A) (A) (A) (A) (A) (A) (A) (A) (A) (A)
                 (A) (A) (A) (A) (A) (A) (A) (A) (A) (A) (A) (A)
                 (A) (A) (A) (A) (A) (A) (A) (A) (A) (A) (A) (A)
                 (A) (A) (A) (A) (A) (A) (A) (A) (A) (A) (A) (A)
                 (A) (A) (A) (A) (A) (A) (A) (A) (A) (A) (A) (A)
                 (A) (A) (A) (A) (A) (A) (A) (A) (A) (A) (A) (A)
                 (A) (A) (A) (A) (A) (A) (A) (A) (A) (A) (A) (A)
                 (A) (A) (A) (A) (A) (A) (A) (A) (A) (A) (A) (A)
                 (A) (A) (A) (A) (A) (A) (A) (A) (A) (A) (A) (A)
                 (A) (A) (A) (A) (A) (A) (A) (A) (A) (A) (A) (A)
                 (A) (A) (A) (A) (A) (A) (A) (A) (A) (A) (A) (A)
 The electronic state is 1-A.
 Alpha  occ. eigenvalues --  -19.62973 -19.62880 -19.62616 -10.63416 -10.58830
 Alpha  occ. eigenvalues --  -10.57871 -10.57866 -10.57558 -10.53176 -10.53132
 Alpha  occ. eigenvalues --  -10.52948 -10.52906 -10.52719  -1.20017  -1.16720
 Alpha  occ. eigenvalues --   -1.13484  -0.90805  -0.89720  -0.87445  -0.84880
 Alpha  occ. eigenvalues --   -0.75063  -0.74325  -0.73237  -0.71132  -0.66737
 Alpha  occ. eigenvalues --   -0.62831  -0.60516  -0.58754  -0.56521  -0.56050
 Alpha  occ. eigenvalues --   -0.54546  -0.53517  -0.51835  -0.50932  -0.50170
 Alpha  occ. eigenvalues --   -0.49301  -0.46726  -0.45981  -0.45429  -0.44906
 Alpha  occ. eigenvalues --   -0.43778  -0.42728  -0.41486  -0.40522  -0.39525
 Alpha  occ. eigenvalues --   -0.38548  -0.37785  -0.36039  -0.34692  -0.33240
 Alpha  occ. eigenvalues --   -0.31656
 Alpha virt. eigenvalues --   -0.00072   0.00731   0.00795   0.01141   0.02149
 Alpha virt. eigenvalues --    0.02501   0.02589   0.03364   0.03646   0.04313
 Alpha virt. eigenvalues --    0.04540   0.04778   0.05550   0.05909   0.07206
 Alpha virt. eigenvalues --    0.07373   0.07593   0.07747   0.09037   0.09536
 Alpha virt. eigenvalues --    0.10104   0.10917   0.11304   0.11554   0.11966
 Alpha virt. eigenvalues --    0.12369   0.12670   0.13130   0.13173   0.13411
 Alpha virt. eigenvalues --    0.13583   0.13784   0.14187   0.14557   0.14849
 Alpha virt. eigenvalues --    0.15023   0.15224   0.15385   0.15892   0.16353
 Alpha virt. eigenvalues --    0.16483   0.16781   0.17088   0.17366   0.17827
 Alpha virt. eigenvalues --    0.18094   0.18209   0.18799   0.19013   0.19588
 Alpha virt. eigenvalues --    0.19955   0.20125   0.20586   0.21168   0.21695
 Alpha virt. eigenvalues --    0.21790   0.22167   0.22844   0.23443   0.24517
 Alpha virt. eigenvalues --    0.25309   0.25530   0.25612   0.26440   0.26749
 Alpha virt. eigenvalues --    0.27372   0.28159   0.28816   0.29151   0.29510
 Alpha virt. eigenvalues --    0.29919   0.30348   0.31103   0.31299   0.31755
 Alpha virt. eigenvalues --    0.32654   0.33032   0.33279   0.33561   0.34430
 Alpha virt. eigenvalues --    0.34961   0.35160   0.35385   0.35955   0.36271
 Alpha virt. eigenvalues --    0.36826   0.37038   0.37322   0.37777   0.38099
 Alpha virt. eigenvalues --    0.38335   0.38916   0.39865   0.40186   0.40878
 Alpha virt. eigenvalues --    0.41333   0.42818   0.43076   0.44218   0.45280
 Alpha virt. eigenvalues --    0.46449   0.46692   0.48915   0.50116   0.50334
 Alpha virt. eigenvalues --    0.51975   0.52151   0.52963   0.53148   0.54471
 Alpha virt. eigenvalues --    0.55510   0.56505   0.57989   0.59233   0.59865
 Alpha virt. eigenvalues --    0.60224   0.60401   0.61020   0.61794   0.62251
 Alpha virt. eigenvalues --    0.62702   0.62796   0.63038   0.64082   0.64334
 Alpha virt. eigenvalues --    0.64605   0.65464   0.65766   0.66547   0.67339
 Alpha virt. eigenvalues --    0.68364   0.68429   0.68681   0.69912   0.70816
 Alpha virt. eigenvalues --    0.70913   0.71833   0.72154   0.72465   0.73149
 Alpha virt. eigenvalues --    0.73403   0.73857   0.74452   0.74841   0.75379
 Alpha virt. eigenvalues --    0.75828   0.77402   0.77748   0.78344   0.79098
 Alpha virt. eigenvalues --    0.80032   0.82816   0.84100   0.85327   0.85636
 Alpha virt. eigenvalues --    0.86602   0.86994   0.88165   0.89109   0.90230
 Alpha virt. eigenvalues --    0.90299   0.91055   0.91579   0.92712   0.95675
 Alpha virt. eigenvalues --    0.96535   0.99176   0.99479   1.00536   1.02766
 Alpha virt. eigenvalues --    1.03257   1.04196   1.05250   1.06537   1.07357
 Alpha virt. eigenvalues --    1.08000   1.09340   1.10845   1.11098   1.11704
 Alpha virt. eigenvalues --    1.12665   1.13883   1.15379   1.15783   1.16191
 Alpha virt. eigenvalues --    1.17334   1.18128   1.18576   1.18986   1.20725
 Alpha virt. eigenvalues --    1.20984   1.21645   1.22348   1.22713   1.24306
 Alpha virt. eigenvalues --    1.24708   1.24982   1.25846   1.26911   1.27980
 Alpha virt. eigenvalues --    1.28669   1.29433   1.29651   1.30709   1.31021
 Alpha virt. eigenvalues --    1.31560   1.32295   1.32596   1.34074   1.34558
 Alpha virt. eigenvalues --    1.35760   1.36251   1.37283   1.37750   1.38168
 Alpha virt. eigenvalues --    1.38922   1.39506   1.41065   1.41792   1.42007
 Alpha virt. eigenvalues --    1.43115   1.43197   1.44388   1.45554   1.45701
 Alpha virt. eigenvalues --    1.45964   1.46534   1.47792   1.48258   1.48924
 Alpha virt. eigenvalues --    1.49184   1.49889   1.50471   1.51938   1.52143
 Alpha virt. eigenvalues --    1.53070   1.54230   1.54690   1.55537   1.56087
 Alpha virt. eigenvalues --    1.56792   1.57370   1.58172   1.58716   1.58847
 Alpha virt. eigenvalues --    1.59450   1.59815   1.60914   1.61954   1.63004
 Alpha virt. eigenvalues --    1.63736   1.64531   1.64939   1.66223   1.66419
 Alpha virt. eigenvalues --    1.67584   1.69236   1.69522   1.71008   1.72932
 Alpha virt. eigenvalues --    1.73732   1.75467   1.75801   1.77415   1.78214
 Alpha virt. eigenvalues --    1.79106   1.80150   1.81483   1.84096   1.85112
 Alpha virt. eigenvalues --    1.85906   1.87571   1.92225   1.96067   1.98736
 Alpha virt. eigenvalues --    2.01828   2.05857   2.11889   2.16940   2.21639
 Alpha virt. eigenvalues --    2.23514   2.26301   2.32405   2.35162   2.38938
 Alpha virt. eigenvalues --    2.41649   2.43632   2.46086   2.48927   2.55102
 Alpha virt. eigenvalues --    2.59357   2.75829   2.76527   2.79565   2.80899
 Alpha virt. eigenvalues --    2.85029   2.90463   2.92703   2.93597   2.94637
 Alpha virt. eigenvalues --    2.95833   2.97792   2.99891   3.03035   3.03412
 Alpha virt. eigenvalues --    3.07366   3.07691   3.08925   3.09208   3.11972
 Alpha virt. eigenvalues --    3.12982   3.13738   3.18062   3.19570   3.21840
 Alpha virt. eigenvalues --    3.25455   3.26800   3.31766   3.33133   3.34921
 Alpha virt. eigenvalues --    3.35263   3.37605   3.38215   3.40733   3.41374
 Alpha virt. eigenvalues --    3.42028   3.44608   3.44853   3.47340   3.47725
 Alpha virt. eigenvalues --    3.48119   3.48844   3.49706   3.51188   3.52389
 Alpha virt. eigenvalues --    3.53367   3.54866   3.55179   3.55220   3.55764
 Alpha virt. eigenvalues --    3.56617   3.57591   3.58754   3.60164   3.60701
 Alpha virt. eigenvalues --    3.60793   3.62536   3.63520   3.63964   3.66235
 Alpha virt. eigenvalues --    3.66284   3.67028   3.67389   3.68321   3.69243
 Alpha virt. eigenvalues --    3.70580   3.71358   3.71866   3.73270   3.74426
 Alpha virt. eigenvalues --    3.74898   3.75971   3.76666   3.76863   3.78019
 Alpha virt. eigenvalues --    3.78841   3.80285   3.81593   3.83996   3.86233
 Alpha virt. eigenvalues --    3.87093   3.87590   3.89215   3.90353   3.91831
 Alpha virt. eigenvalues --    3.92867   3.93974   3.94134   3.95696   3.97781
 Alpha virt. eigenvalues --    4.00172   4.01868   4.02753   4.03339   4.03967
 Alpha virt. eigenvalues --    4.05274   4.05827   4.06458   4.07031   4.07325
 Alpha virt. eigenvalues --    4.07791   4.09634   4.10399   4.11603   4.11750
 Alpha virt. eigenvalues --    4.12719   4.13150   4.14777   4.15107   4.16031
 Alpha virt. eigenvalues --    4.17749   4.18314   4.18837   4.19264   4.20735
 Alpha virt. eigenvalues --    4.22120   4.23239   4.25016   4.26956   4.27784
 Alpha virt. eigenvalues --    4.28373   4.30470   4.30511   4.31346   4.32622
 Alpha virt. eigenvalues --    4.33677   4.34497   4.35720   4.37311   4.38785
 Alpha virt. eigenvalues --    4.40459   4.42465   4.45276   4.46087   4.47841
 Alpha virt. eigenvalues --    4.57287   4.60936   4.74952   4.76596   4.82635
 Alpha virt. eigenvalues --    4.85498   4.92838   4.95365   4.99025   5.01452
 Alpha virt. eigenvalues --    5.06652   5.07012   5.07670   5.08621   5.11783
 Alpha virt. eigenvalues --    5.12473   5.13922   5.16191   5.31073   5.39986
 Alpha virt. eigenvalues --    5.42167   5.58910   5.59910   5.67672   5.84623
 Alpha virt. eigenvalues --    5.90374   6.01059   7.02006   7.04742   7.05533
 Alpha virt. eigenvalues --    7.08471   7.10605   7.13364   7.14349   7.20408
 Alpha virt. eigenvalues --    7.27632   7.36782   7.40759   7.47395   7.54485
 Alpha virt. eigenvalues --    7.55030   7.64456  23.95872  23.97078  24.06924
 Alpha virt. eigenvalues --   24.07944  24.11162  24.11974  24.14189  24.15081
 Alpha virt. eigenvalues --   24.16185  24.21143  50.17951  50.19322  50.28176
          Condensed to atoms (all electrons):
               1          2          3          4          5          6
     1  C    5.621334   0.074959  -0.029957   0.001377  -0.437297   0.124537
     2  O    0.074959   8.280740   0.009508  -0.000505   0.275116  -0.038513
     3  C   -0.029957   0.009508   5.702510   0.000755  -0.284631   0.009093
     4  O    0.001377  -0.000505   0.000755   8.371518  -0.002238   0.001883
     5  C   -0.437297   0.275116  -0.284631  -0.002238   7.250449  -1.042338
     6  C    0.124537  -0.038513   0.009093   0.001883  -1.042338   6.984927
     7  C    0.005885   0.001207   0.001860  -0.036022  -0.073236  -0.009577
     8  O   -0.008306  -0.071943  -0.055260   0.004952   0.378321  -0.025938
     9  C   -0.034897   0.001984  -0.016321  -0.019833   0.204386   0.006658
    10  C    0.001111   0.004452   0.002244   0.093968   0.018678   0.013323
    11  C    0.114212  -0.028174   0.148574  -0.007359  -0.889845  -0.056992
    12  C    0.010168  -0.014714  -0.042067   0.168081   0.181512  -0.063707
    13  C   -0.144893  -0.055431   0.014565  -0.000178   0.317077  -0.175929
    14  H    0.469911  -0.029224   0.003927   0.000685  -0.035833   0.040423
    15  H    0.438601  -0.073427   0.005426   0.000287   0.000227  -0.007947
    16  H    0.001563   0.001728   0.506337  -0.000038  -0.024877  -0.029234
    17  H    0.006990  -0.003490   0.424848   0.000008   0.010033  -0.049921
    18  H   -0.029178  -0.076683  -0.028086  -0.001525   0.512021  -0.122787
    19  H    0.016142  -0.003178  -0.017584  -0.000018  -0.146988   0.542841
    20  H    0.005556   0.007598  -0.032382   0.000008  -0.019575   0.395127
    21  H   -0.000183   0.000001   0.000010   0.007363  -0.000236  -0.002700
    22  H    0.000264  -0.000399   0.000239  -0.006962  -0.007248   0.002151
    23  H    0.002459  -0.001601   0.005455   0.000914  -0.021128   0.018730
    24  H   -0.002534  -0.000081   0.001328  -0.000681   0.016203  -0.007820
    25  H   -0.000190   0.000260  -0.000069  -0.072323   0.002239   0.000726
    26  H    0.000554   0.000292   0.000829  -0.037079  -0.005082   0.001319
    27  H    0.006041   0.003583   0.008356   0.000726  -0.051940  -0.012809
    28  H    0.006433  -0.018717  -0.010881  -0.079957   0.053999  -0.021939
    29  H    0.007703   0.003033   0.009947  -0.032577  -0.090606  -0.021748
    30  H   -0.028498   0.008751  -0.046744   0.000005   0.008749  -0.011184
    31  H   -0.092137  -0.001596  -0.018972  -0.000001  -0.000465  -0.003794
               7          8          9         10         11         12
     1  C    0.005885  -0.008306  -0.034897   0.001111   0.114212   0.010168
     2  O    0.001207  -0.071943   0.001984   0.004452  -0.028174  -0.014714
     3  C    0.001860  -0.055260  -0.016321   0.002244   0.148574  -0.042067
     4  O   -0.036022   0.004952  -0.019833   0.093968  -0.007359   0.168081
     5  C   -0.073236   0.378321   0.204386   0.018678  -0.889845   0.181512
     6  C   -0.009577  -0.025938   0.006658   0.013323  -0.056992  -0.063707
     7  C    5.587137  -0.025031  -0.113048   0.091016   0.158156  -0.017116
     8  O   -0.025031   8.344779   0.008322   0.000139  -0.176529   0.042695
     9  C   -0.113048   0.008322   6.998667  -0.181674  -1.858251   0.496357
    10  C    0.091016   0.000139  -0.181674   5.388437   0.185132  -0.213588
    11  C    0.158156  -0.176529  -1.858251   0.185132   8.788742  -0.800660
    12  C   -0.017116   0.042695   0.496357  -0.213588  -0.800660   5.834722
    13  C   -0.002946   0.008978   0.014014  -0.000960  -0.057389   0.010809
    14  H   -0.001393   0.002489  -0.002590   0.000135  -0.010558   0.002985
    15  H   -0.000107   0.001014   0.000705   0.000250   0.002961   0.001409
    16  H   -0.000492  -0.000767   0.011463  -0.000827  -0.022122   0.002933
    17  H    0.000236  -0.000515  -0.002613   0.000151   0.009379  -0.002450
    18  H   -0.002256  -0.028486  -0.022753  -0.013231   0.048588   0.011848
    19  H   -0.000594   0.008958  -0.002092   0.000435  -0.000204   0.000737
    20  H   -0.001263   0.000900   0.003645   0.000366   0.009099  -0.000940
    21  H    0.428483  -0.002093  -0.038901  -0.036701   0.006513   0.003391
    22  H    0.507813   0.000298  -0.018906  -0.083234  -0.030019   0.005948
    23  H   -0.046910  -0.015186   0.455831  -0.006600   0.047598  -0.054511
    24  H   -0.003037   0.003969   0.434237   0.005939  -0.071100   0.011864
    25  H   -0.041302   0.000613   0.008058   0.426580  -0.004436   0.017609
    26  H   -0.045725  -0.000335  -0.019875   0.469985   0.036254  -0.032382
    27  H    0.009326  -0.096413  -0.111861   0.012445   0.648807  -0.114008
    28  H    0.018180   0.015581   0.038546  -0.007989  -0.138348   0.495499
    29  H    0.013227  -0.023060  -0.175998   0.003699   0.288677   0.314342
    30  H    0.000173   0.000181  -0.000314   0.000020   0.006322  -0.001003
    31  H   -0.000124  -0.000048   0.000933  -0.000157  -0.007001   0.001409
              13         14         15         16         17         18
     1  C   -0.144893   0.469911   0.438601   0.001563   0.006990  -0.029178
     2  O   -0.055431  -0.029224  -0.073427   0.001728  -0.003490  -0.076683
     3  C    0.014565   0.003927   0.005426   0.506337   0.424848  -0.028086
     4  O   -0.000178   0.000685   0.000287  -0.000038   0.000008  -0.001525
     5  C    0.317077  -0.035833   0.000227  -0.024877   0.010033   0.512021
     6  C   -0.175929   0.040423  -0.007947  -0.029234  -0.049921  -0.122787
     7  C   -0.002946  -0.001393  -0.000107  -0.000492   0.000236  -0.002256
     8  O    0.008978   0.002489   0.001014  -0.000767  -0.000515  -0.028486
     9  C    0.014014  -0.002590   0.000705   0.011463  -0.002613  -0.022753
    10  C   -0.000960   0.000135   0.000250  -0.000827   0.000151  -0.013231
    11  C   -0.057389  -0.010558   0.002961  -0.022122   0.009379   0.048588
    12  C    0.010809   0.002985   0.001409   0.002933  -0.002450   0.011848
    13  C    5.756444  -0.065060  -0.024784  -0.064327  -0.015352   0.021865
    14  H   -0.065060   0.492533  -0.012690  -0.001949  -0.000342   0.000741
    15  H   -0.024784  -0.012690   0.482133  -0.002066   0.000784   0.000664
    16  H   -0.064327  -0.001949  -0.002066   0.461722  -0.006337  -0.003022
    17  H   -0.015352  -0.000342   0.000784  -0.006337   0.465028   0.000831
    18  H    0.021865   0.000741   0.000664  -0.003022   0.000831   0.477418
    19  H   -0.017312  -0.000653   0.000170   0.003241  -0.004109  -0.016794
    20  H   -0.002900  -0.000823   0.001309  -0.004059  -0.008630  -0.006709
    21  H    0.000060  -0.000031  -0.000009   0.000016  -0.000023   0.000850
    22  H   -0.000047  -0.000003  -0.000008   0.000042   0.000024   0.000228
    23  H   -0.002553  -0.000597   0.000063   0.000383   0.000144  -0.015395
    24  H    0.001391   0.000454  -0.000087  -0.000244  -0.000007   0.003127
    25  H    0.000112  -0.000001   0.000008  -0.000029   0.000005  -0.000292
    26  H   -0.000657   0.000269  -0.000072   0.000020   0.000012  -0.001619
    27  H   -0.002147  -0.003615   0.000414  -0.001744   0.000377  -0.006022
    28  H   -0.011353  -0.005397  -0.000684   0.001281  -0.000506   0.008254
    29  H   -0.000789   0.000815  -0.001294  -0.001182   0.000316  -0.019237
    30  H    0.434608  -0.000867  -0.008010  -0.005215  -0.008004   0.001758
    31  H    0.487262   0.004842  -0.007067   0.002349  -0.001783   0.001325
              19         20         21         22         23         24
     1  C    0.016142   0.005556  -0.000183   0.000264   0.002459  -0.002534
     2  O   -0.003178   0.007598   0.000001  -0.000399  -0.001601  -0.000081
     3  C   -0.017584  -0.032382   0.000010   0.000239   0.005455   0.001328
     4  O   -0.000018   0.000008   0.007363  -0.006962   0.000914  -0.000681
     5  C   -0.146988  -0.019575  -0.000236  -0.007248  -0.021128   0.016203
     6  C    0.542841   0.395127  -0.002700   0.002151   0.018730  -0.007820
     7  C   -0.000594  -0.001263   0.428483   0.507813  -0.046910  -0.003037
     8  O    0.008958   0.000900  -0.002093   0.000298  -0.015186   0.003969
     9  C   -0.002092   0.003645  -0.038901  -0.018906   0.455831   0.434237
    10  C    0.000435   0.000366  -0.036701  -0.083234  -0.006600   0.005939
    11  C   -0.000204   0.009099   0.006513  -0.030019   0.047598  -0.071100
    12  C    0.000737  -0.000940   0.003391   0.005948  -0.054511   0.011864
    13  C   -0.017312  -0.002900   0.000060  -0.000047  -0.002553   0.001391
    14  H   -0.000653  -0.000823  -0.000031  -0.000003  -0.000597   0.000454
    15  H    0.000170   0.001309  -0.000009  -0.000008   0.000063  -0.000087
    16  H    0.003241  -0.004059   0.000016   0.000042   0.000383  -0.000244
    17  H   -0.004109  -0.008630  -0.000023   0.000024   0.000144  -0.000007
    18  H   -0.016794  -0.006709   0.000850   0.000228  -0.015395   0.003127
    19  H    0.454374  -0.004466  -0.000029  -0.000069   0.000645  -0.000295
    20  H   -0.004466   0.481856   0.000125   0.000037  -0.001377  -0.001458
    21  H   -0.000029   0.000125   0.493000  -0.008625  -0.003377  -0.009542
    22  H   -0.000069   0.000037  -0.008625   0.471616   0.002017  -0.007418
    23  H    0.000645  -0.001377  -0.003377   0.002017   0.485327  -0.021153
    24  H   -0.000295  -0.001458  -0.009542  -0.007418  -0.021153   0.474946
    25  H    0.000045  -0.000082  -0.009227  -0.004158  -0.002013   0.001170
    26  H   -0.000191   0.000153   0.004929   0.001585  -0.003727  -0.000093
    27  H    0.000085   0.001237  -0.001970  -0.000592   0.007967  -0.008364
    28  H   -0.000693  -0.000294   0.002251  -0.000664  -0.001439  -0.000300
    29  H   -0.000113   0.000928  -0.002372  -0.000085   0.003616  -0.003323
    30  H   -0.003053   0.001791   0.000006  -0.000003   0.000024  -0.000024
    31  H   -0.001657  -0.001931   0.000004   0.000007  -0.000161   0.000043
              25         26         27         28         29         30
     1  C   -0.000190   0.000554   0.006041   0.006433   0.007703  -0.028498
     2  O    0.000260   0.000292   0.003583  -0.018717   0.003033   0.008751
     3  C   -0.000069   0.000829   0.008356  -0.010881   0.009947  -0.046744
     4  O   -0.072323  -0.037079   0.000726  -0.079957  -0.032577   0.000005
     5  C    0.002239  -0.005082  -0.051940   0.053999  -0.090606   0.008749
     6  C    0.000726   0.001319  -0.012809  -0.021939  -0.021748  -0.011184
     7  C   -0.041302  -0.045725   0.009326   0.018180   0.013227   0.000173
     8  O    0.000613  -0.000335  -0.096413   0.015581  -0.023060   0.000181
     9  C    0.008058  -0.019875  -0.111861   0.038546  -0.175998  -0.000314
    10  C    0.426580   0.469985   0.012445  -0.007989   0.003699   0.000020
    11  C   -0.004436   0.036254   0.648807  -0.138348   0.288677   0.006322
    12  C    0.017609  -0.032382  -0.114008   0.495499   0.314342  -0.001003
    13  C    0.000112  -0.000657  -0.002147  -0.011353  -0.000789   0.434608
    14  H   -0.000001   0.000269  -0.003615  -0.005397   0.000815  -0.000867
    15  H    0.000008  -0.000072   0.000414  -0.000684  -0.001294  -0.008010
    16  H   -0.000029   0.000020  -0.001744   0.001281  -0.001182  -0.005215
    17  H    0.000005   0.000012   0.000377  -0.000506   0.000316  -0.008004
    18  H   -0.000292  -0.001619  -0.006022   0.008254  -0.019237   0.001758
    19  H    0.000045  -0.000191   0.000085  -0.000693  -0.000113  -0.003053
    20  H   -0.000082   0.000153   0.001237  -0.000294   0.000928   0.001791
    21  H   -0.009227   0.004929  -0.001970   0.002251  -0.002372   0.000006
    22  H   -0.004158   0.001585  -0.000592  -0.000664  -0.000085  -0.000003
    23  H   -0.002013  -0.003727   0.007967  -0.001439   0.003616   0.000024
    24  H    0.001170  -0.000093  -0.008364  -0.000300  -0.003323  -0.000024
    25  H    0.468664  -0.007609  -0.002443   0.002499  -0.002660  -0.000003
    26  H   -0.007609   0.496116   0.001076  -0.002597   0.005545  -0.000004
    27  H   -0.002443   0.001076   0.449219  -0.014682   0.020689   0.000425
    28  H    0.002499  -0.002597  -0.014682   0.499803  -0.044760   0.000493
    29  H   -0.002660   0.005545   0.020689  -0.044760   0.525529   0.000193
    30  H   -0.000003  -0.000004   0.000425   0.000493   0.000193   0.489181
    31  H   -0.000002   0.000008  -0.000440   0.000457  -0.000475  -0.012493
              31
     1  C   -0.092137
     2  O   -0.001596
     3  C   -0.018972
     4  O   -0.000001
     5  C   -0.000465
     6  C   -0.003794
     7  C   -0.000124
     8  O   -0.000048
     9  C    0.000933
    10  C   -0.000157
    11  C   -0.007001
    12  C    0.001409
    13  C    0.487262
    14  H    0.004842
    15  H   -0.007067
    16  H    0.002349
    17  H   -0.001783
    18  H    0.001325
    19  H   -0.001657
    20  H   -0.001931
    21  H    0.000004
    22  H    0.000007
    23  H   -0.000161
    24  H    0.000043
    25  H   -0.000002
    26  H    0.000008
    27  H   -0.000440
    28  H    0.000457
    29  H   -0.000475
    30  H   -0.012493
    31  H    0.486080
 Mulliken charges:
               1
     1  C   -0.107731
     2  O   -0.255535
     3  C   -0.272860
     4  O   -0.355233
     5  C   -0.095444
     6  C   -0.436859
     7  C   -0.402519
     8  O   -0.292282
     9  C   -0.063882
    10  C   -0.173543
    11  C   -0.340027
    12  C   -0.257173
    13  C   -0.422179
    14  H    0.151417
    15  H    0.201824
    16  H    0.175453
    17  H    0.184915
    18  H    0.304558
    19  H    0.192419
    20  H    0.177151
    21  H    0.169016
    22  H    0.176172
    23  H    0.166552
    24  H    0.182890
    25  H    0.218249
    26  H    0.138102
    27  H    0.258277
    28  H    0.217926
    29  H    0.222019
    30  H    0.172738
    31  H    0.165588
 Sum of Mulliken charges =  -0.00000
 Mulliken charges with hydrogens summed into heavy atoms:
               1
     1  C    0.245510
     2  O   -0.255535
     3  C    0.087508
     4  O   -0.355233
     5  C    0.209114
     6  C   -0.067290
     7  C   -0.057331
     8  O   -0.292282
     9  C    0.285560
    10  C    0.182809
    11  C   -0.081750
    12  C    0.182772
    13  C   -0.083854
 Electronic spatial extent (au):  <R**2>=           3032.4024
 Charge=             -0.0000 electrons
 Dipole moment (field-independent basis, Debye):
    X=             -0.5521    Y=              2.2757    Z=              0.7765  Tot=              2.4671
 Quadrupole moment (field-independent basis, Debye-Ang):
   XX=            -72.3701   YY=            -82.1798   ZZ=            -80.5367
   XY=              6.4569   XZ=              3.6490   YZ=              2.3521
 Traceless Quadrupole moment (field-independent basis, Debye-Ang):
   XX=              5.9921   YY=             -3.8176   ZZ=             -2.1745
   XY=              6.4569   XZ=              3.6490   YZ=              2.3521
 Octapole moment (field-independent basis, Debye-Ang**2):
  XXX=             -0.3394  YYY=             -1.0600  ZZZ=             -0.6234  XYY=            -12.1400
  XXY=             15.4758  XXZ=              6.6957  XZZ=              4.2523  YZZ=              0.6279
  YYZ=             -0.5870  XYZ=             -7.8082
 Hexadecapole moment (field-independent basis, Debye-Ang**3):
 XXXX=          -3008.8741 YYYY=           -632.2877 ZZZZ=           -244.6849 XXXY=             49.2709
 XXXZ=             32.2081 YYYX=             25.4473 YYYZ=             -1.1700 ZZZX=             -2.9106
 ZZZY=              1.5243 XXYY=           -651.3004 XXZZ=           -569.3802 YYZZ=           -151.0575
 XXYZ=             -2.2108 YYXZ=              4.6028 ZZXY=             -0.6253
 N-N= 8.974451583143D+02 E-N=-3.236708239880D+03  KE= 6.153357708344D+02
 D1PCM: PCM CHGder 1st derivatives, ID1Alg=3 FixD1E=F DoIter=F DoCFld=F I1PDM=0.
 Calling FoFJK, ICntrl=      2127 FMM=F ISym2X=0 I1Cent= 0 IOpClX= 0 NMat=1 NMatS=1 NMatT=0.
 ***** Axes restored to original set *****
 -------------------------------------------------------------------
 Center     Atomic                   Forces (Hartrees/Bohr)
 Number     Number              X              Y              Z
 -------------------------------------------------------------------
      1        6          -0.001810063    0.006355970    0.001001867
      2        8           0.004526478   -0.006786928    0.008811635
      3        6           0.001921869   -0.002516685    0.002420874
      4        8           0.004155378   -0.006980665   -0.004964308
      5        6          -0.003478575   -0.000458089   -0.005869810
      6        6          -0.000020474   -0.000769392   -0.002468056
      7        6          -0.001532665   -0.000539582    0.002697634
      8        8          -0.005630853    0.004090073   -0.009220787
      9        6           0.002324153   -0.004191148   -0.001727577
     10        6          -0.005143211    0.003100314   -0.003495769
     11        6          -0.002193396    0.000485573    0.007802502
     12        6           0.004118563    0.006028541   -0.002498768
     13        6           0.002085884    0.000847808   -0.001595360
     14        1           0.002309738    0.000903996   -0.005813636
     15        1          -0.001061624   -0.004097690    0.001332102
     16        1           0.002204702   -0.000069317   -0.002874506
     17        1          -0.002067112    0.001513209    0.000358479
     18        1           0.004940017    0.000963736    0.007085725
     19        1          -0.001439242   -0.000608331    0.003096895
     20        1           0.001296593    0.002822512   -0.000898809
     21        1           0.001583235    0.002242171    0.001281579
     22        1           0.000499417   -0.000473154   -0.003151440
     23        1          -0.001442270   -0.000380944    0.004252986
     24        1          -0.001124195    0.002361440   -0.001432615
     25        1           0.004134072   -0.001173392   -0.000807218
     26        1          -0.001154263    0.000971325    0.006071504
     27        1           0.002338876   -0.000753995   -0.005357289
     28        1          -0.003775102   -0.003165695   -0.002137360
     29        1          -0.003671058    0.001086115    0.006878725
     30        1          -0.001953795   -0.000617798   -0.001974969
     31        1          -0.000941076   -0.000189977    0.003195768
 -------------------------------------------------------------------
 Cartesian Forces:  Max     0.009220787 RMS     0.003484033

 GradGradGradGradGradGradGradGradGradGradGradGradGradGradGradGradGradGrad
 Berny optimization.
 FormGI is forming the generalized inverse of G from B-inverse, IUseBI=4.
 Internal  Forces:  Max     0.018673756 RMS     0.002353843
 Search for a local minimum.
 Step number   1 out of a maximum of  186
 All quantities printed in internal units (Hartrees-Bohrs-Radians)
 Mixed Optimization -- RFO/linear search
 Second derivative matrix not updated -- first step.
 ITU=  0
     Eigenvalues ---    0.00625   0.00627   0.00715   0.00723   0.01412
     Eigenvalues ---    0.01444   0.01694   0.02652   0.02703   0.03077
     Eigenvalues ---    0.03118   0.03848   0.04092   0.04602   0.04747
     Eigenvalues ---    0.04845   0.04891   0.05140   0.05146   0.05207
     Eigenvalues ---    0.05268   0.05685   0.05689   0.06104   0.06171
     Eigenvalues ---    0.06315   0.06558   0.07018   0.07606   0.07833
     Eigenvalues ---    0.07846   0.07958   0.07982   0.08053   0.08236
     Eigenvalues ---    0.08830   0.09236   0.09500   0.10717   0.11569
     Eigenvalues ---    0.11602   0.11698   0.11764   0.12400   0.12522
     Eigenvalues ---    0.14702   0.14903   0.16477   0.16555   0.17912
     Eigenvalues ---    0.19127   0.21438   0.21952   0.25000   0.28281
     Eigenvalues ---    0.28638   0.28642   0.28849   0.28939   0.29031
     Eigenvalues ---    0.30063   0.30297   0.35081   0.35092   0.35153
     Eigenvalues ---    0.35171   0.35188   0.35204   0.35240   0.35292
     Eigenvalues ---    0.35319   0.35338   0.35390   0.35423   0.35445
     Eigenvalues ---    0.35622   0.35828   0.35846   0.35926   0.36146
     Eigenvalues ---    0.40877   0.41413   0.42067   0.42463   0.43406
     Eigenvalues ---    0.456481000.000001000.000001000.000001000.00000
     Eigenvalues --- 1000.000001000.000001000.000001000.000001000.00000
     Eigenvalues --- 1000.000001000.000001000.000001000.000001000.00000
     Eigenvalues --- 1000.000001000.000001000.000001000.000001000.00000
     Eigenvalues --- 1000.000001000.000001000.000001000.000001000.00000
     Eigenvalues --- 1000.000001000.000001000.000001000.000001000.00000
     Eigenvalues --- 1000.000001000.000001000.000001000.000001000.00000
     Eigenvalues --- 1000.000001000.000001000.000001000.000001000.00000
     Eigenvalues --- 1000.000001000.000001000.000001000.000001000.00000
     Eigenvalues --- 1000.000001000.000001000.000001000.000001000.00000
     Eigenvalues --- 1000.000001000.000001000.000001000.000001000.00000
     Eigenvalues --- 1000.000001000.000001000.000001000.000001000.00000
     Eigenvalues --- 1000.000001000.000001000.000001000.000001000.00000
     Eigenvalues --- 1000.000001000.000001000.000001000.000001000.00000
     Eigenvalues --- 1000.000001000.000001000.000001000.000001000.00000
     Eigenvalues --- 1000.000001000.000001000.000001000.000001000.00000
     Eigenvalues --- 1000.000001000.000001000.000001000.000001000.00000
     Eigenvalues --- 1000.000001000.000001000.000001000.000001000.00000
     Eigenvalues --- 1000.000001000.000001000.000001000.000001000.00000
     Eigenvalues --- 1000.000001000.000001000.000001000.000001000.00000
 RFO step:  Lambda=-4.63910161D-03 EMin= 6.24982914D-03
 Linear search not attempted -- first point.
 Iteration  1 RMS(Cart)=  0.09060220 RMS(Int)=  0.00158373
 Iteration  2 RMS(Cart)=  0.00472166 RMS(Int)=  0.00006476
 Iteration  3 RMS(Cart)=  0.00000714 RMS(Int)=  0.00006462
 Iteration  4 RMS(Cart)=  0.00000000 RMS(Int)=  0.00006462
 Iteration  1 RMS(Cart)=  0.00000624 RMS(Int)=  0.00000145
 Iteration  2 RMS(Cart)=  0.00000346 RMS(Int)=  0.00000162
 Iteration  3 RMS(Cart)=  0.00000192 RMS(Int)=  0.00000184
 Iteration  4 RMS(Cart)=  0.00000106 RMS(Int)=  0.00000198
 Iteration  5 RMS(Cart)=  0.00000059 RMS(Int)=  0.00000207
 Variable       Old X    -DE/DX   Delta X   Delta X   Delta X     New X
                                 (Linear)    (Quad)   (Total)
    R1        2.68603   0.00287   0.00000   0.00661   0.00661   2.69264
    R2        2.87163   0.00022   0.00000   0.00105   0.00107   2.87270
    R3        2.04993   0.00622   0.00000   0.01734   0.01734   2.06727
    R4        2.04323   0.00443   0.00000   0.01221   0.01221   2.05544
    R5        2.65352   0.00368   0.00000   0.00766   0.00768   2.66120
    R6        2.89012  -0.00146   0.00000  -0.00475  -0.00476   2.88536
    R7        2.88870  -0.00072   0.00000  -0.00172  -0.00174   2.88696
    R8        2.05371   0.00343   0.00000   0.00962   0.00962   2.06332
    R9        2.05159   0.00258   0.00000   0.00722   0.00722   2.05881
   R10        2.67665   0.00330   0.00000   0.00773   0.00773   2.68437
   R11        2.66937   0.00399   0.00000   0.00897   0.00901   2.67838
   R12        2.87604  -0.00072   0.00000  -0.00274  -0.00276   2.87328
   R13        2.64530   0.00190   0.00000   0.00412   0.00412   2.64942
   R14        2.03854   0.00867   0.00000   0.02368   0.02368   2.06223
   R15        2.05345   0.00342   0.00000   0.00957   0.00957   2.06302
   R16        2.04959   0.00321   0.00000   0.00893   0.00893   2.05852
   R17        2.89398  -0.00071   0.00000  -0.00234  -0.00237   2.89161
   R18        2.87216   0.00057   0.00000   0.00159   0.00158   2.87374
   R19        2.05203   0.00301   0.00000   0.00841   0.00841   2.06043
   R20        2.05427   0.00314   0.00000   0.00881   0.00881   2.06308
   R21        2.68337  -0.00069   0.00000  -0.00160  -0.00160   2.68177
   R22        2.88381  -0.00155   0.00000  -0.00528  -0.00527   2.87854
   R23        2.05398   0.00441   0.00000   0.01236   0.01236   2.06634
   R24        2.05129   0.00292   0.00000   0.00817   0.00817   2.05946
   R25        2.04352   0.00437   0.00000   0.01204   0.01204   2.05556
   R26        2.05544   0.00614   0.00000   0.01727   0.01727   2.07271
   R27        2.88845  -0.00100   0.00000  -0.00304  -0.00303   2.88542
   R28        2.04677   0.00575   0.00000   0.01594   0.01594   2.06270
   R29        2.04197   0.00517   0.00000   0.01420   0.01420   2.05617
   R30        2.05047   0.00744   0.00000   0.02074   0.02074   2.07121
   R31        2.05287   0.00282   0.00000   0.00791   0.00791   2.06078
   R32        2.05526   0.00327   0.00000   0.00919   0.00919   2.06444
    A1        1.94525   0.00229   0.00000   0.00587   0.00585   1.95109
    A2        1.90972   0.00007   0.00000   0.00047   0.00052   1.91024
    A3        1.84199  -0.00132   0.00000  -0.00228  -0.00230   1.83969
    A4        1.93143  -0.00155   0.00000  -0.00665  -0.00670   1.92473
    A5        1.94580  -0.00023   0.00000  -0.00172  -0.00166   1.94414
    A6        1.88668   0.00075   0.00000   0.00460   0.00459   1.89127
    A7        2.02485  -0.00587   0.00000  -0.03730  -0.03717   1.98768
    A8        1.91298   0.00202   0.00000  -0.00078  -0.00078   1.91220
    A9        1.92235  -0.00098   0.00000  -0.00623  -0.00623   1.91612
   A10        1.91615  -0.00061   0.00000   0.00130   0.00128   1.91743
   A11        1.91441  -0.00092   0.00000  -0.00183  -0.00192   1.91249
   A12        1.93074  -0.00024   0.00000   0.00187   0.00194   1.93267
   A13        1.86684   0.00066   0.00000   0.00573   0.00574   1.87258
   A14        1.97971  -0.00443   0.00000  -0.02644  -0.02634   1.95337
   A15        1.93890   0.00367   0.00000   0.01544   0.01526   1.95416
   A16        1.93896  -0.00003   0.00000  -0.00354  -0.00339   1.93558
   A17        1.83263  -0.00249   0.00000  -0.01330  -0.01334   1.81929
   A18        1.89840  -0.00279   0.00000  -0.01256  -0.01247   1.88593
   A19        1.92844   0.00025   0.00000   0.00593   0.00599   1.93443
   A20        1.92630   0.00150   0.00000   0.00862   0.00860   1.93490
   A21        1.95416  -0.00198   0.00000  -0.01650  -0.01660   1.93755
   A22        1.90917   0.00126   0.00000   0.00722   0.00731   1.91648
   A23        1.94755  -0.00020   0.00000  -0.00094  -0.00106   1.94649
   A24        1.87300   0.00019   0.00000   0.00466   0.00465   1.87765
   A25        1.90057   0.00086   0.00000  -0.00043  -0.00042   1.90015
   A26        1.87630  -0.00004   0.00000   0.00714   0.00711   1.88342
   A27        1.92811  -0.00115   0.00000  -0.00632  -0.00639   1.92172
   A28        1.92894  -0.00021   0.00000   0.00045   0.00048   1.92942
   A29        1.91841   0.00071   0.00000   0.00008   0.00008   1.91849
   A30        1.91012   0.00071   0.00000   0.00466   0.00466   1.91478
   A31        1.90243   0.00003   0.00000  -0.00179  -0.00177   1.90066
   A32        1.87488  -0.00005   0.00000   0.00319   0.00318   1.87806
   A33        2.10067  -0.01867   0.00000  -0.07333  -0.07333   2.02734
   A34        1.91393   0.00133   0.00000  -0.00141  -0.00140   1.91253
   A35        1.90997  -0.00056   0.00000  -0.00015  -0.00020   1.90977
   A36        1.93293   0.00035   0.00000   0.00721   0.00722   1.94015
   A37        1.91838  -0.00087   0.00000  -0.00683  -0.00683   1.91156
   A38        1.91152  -0.00069   0.00000  -0.00217  -0.00219   1.90933
   A39        1.87680   0.00040   0.00000   0.00333   0.00332   1.88012
   A40        1.93410   0.00201   0.00000   0.00929   0.00933   1.94343
   A41        1.85567  -0.00121   0.00000  -0.00362  -0.00362   1.85205
   A42        1.90221   0.00066   0.00000   0.00693   0.00695   1.90915
   A43        1.94546  -0.00030   0.00000  -0.00312  -0.00313   1.94232
   A44        1.93221  -0.00171   0.00000  -0.01008  -0.01012   1.92209
   A45        1.89190   0.00058   0.00000   0.00100   0.00097   1.89287
   A46        1.95862   0.00058   0.00000  -0.00099  -0.00130   1.95732
   A47        1.98862  -0.00210   0.00000  -0.02061  -0.02068   1.96795
   A48        1.81151   0.00119   0.00000   0.01958   0.01962   1.83114
   A49        1.93316  -0.00018   0.00000  -0.00540  -0.00551   1.92765
   A50        1.89303   0.00066   0.00000   0.00623   0.00622   1.89925
   A51        1.87041   0.00006   0.00000   0.00458   0.00465   1.87506
   A52        1.90580   0.00156   0.00000   0.01105   0.01114   1.91693
   A53        1.86466  -0.00019   0.00000   0.00860   0.00860   1.87325
   A54        1.90510   0.00174   0.00000   0.01607   0.01616   1.92126
   A55        1.93722  -0.00086   0.00000  -0.00949  -0.00966   1.92756
   A56        1.94955  -0.00257   0.00000  -0.01936  -0.01951   1.93004
   A57        1.89937   0.00047   0.00000  -0.00519  -0.00551   1.89386
   A58        1.92281  -0.00100   0.00000  -0.00431  -0.00452   1.91829
   A59        1.90307   0.00056   0.00000   0.00297   0.00302   1.90609
   A60        1.90585   0.00009   0.00000  -0.00110  -0.00103   1.90482
   A61        1.93947  -0.00052   0.00000  -0.00219  -0.00216   1.93731
   A62        1.91602   0.00091   0.00000   0.00159   0.00167   1.91769
   A63        1.87577  -0.00000   0.00000   0.00325   0.00322   1.87898
    D1       -0.99992   0.00053   0.00000  -0.01397  -0.01384  -1.01376
    D2        1.14196   0.00016   0.00000  -0.01813  -0.01804   1.12392
    D3       -3.11493   0.00036   0.00000  -0.01375  -0.01366  -3.12859
    D4        0.95423   0.00134   0.00000   0.01868   0.01873   0.97296
    D5        3.08703   0.00042   0.00000   0.01514   0.01513   3.10216
    D6       -1.15132   0.00079   0.00000   0.02010   0.02013  -1.13119
    D7       -1.17516   0.00076   0.00000   0.01868   0.01874  -1.15642
    D8        0.95764  -0.00016   0.00000   0.01514   0.01514   0.97278
[...]
 .00000298,-0.00000263,-0.00000632,0.00000733,0.00000021,0.00000249,-0.
 00000395,-0.00000539,-0.00000014,0.00000154,-0.00000045,0.00000159,-0.
 00000498,0.00000095,-0.00000136,-0.00001336,0.00000551,0.00000919,-0.0
 0001245,0.00000313,0.00000271,0.00000039,0.00000115,-0.00000105,0.0002
 9889,-0.00028712,0.00027458,-0.00039505,-0.00081904,0.00060243,-0.0003
 7397,0.00014809,0.00023284,-0.00044917,0.00021416,0.00026069,-0.042315
 55,0.01860783,0.06020787,-0.00002347,-0.00002340,-0.00002977,0.0001039
 4,-0.00000002,0.00002482,0.00000337,-0.00000461,-0.00000350,-0.0024718
 5,-0.00685371,-0.02642178,-0.00005504,0.00003089,-0.00003059,-0.000002
 22,0.00000809,0.00001245,0.00132017,0.00157597,-0.00362196,0.00000865,
 0.00018508,0.00001496,0.00058071,-0.00033536,-0.00089149,-0.06658506,0
 .00074638,0.05643398,-0.00052482,0.00011616,0.00011388,0.00393936,-0.0
 0074396,-0.00450400,0.00000309,0.00000387,0.00000788,-0.00000045,-0.00
 000040,0.00000232,0.00000397,0.00000370,0.00000122,0.00000002,0.000000
 42,-0.00000037,0.00000391,-0.00000017,0.00000165,0.00002604,-0.0000008
 6,0.00003998,0.00000152,-0.00000096,-0.00000078,0.00000117,-0.00000342
 ,0.00000032,0.00023200,-0.00010918,0.00020348,0.00106628,0.00038719,-0
 .00048272,0.00018911,0.00012112,0.00006798,0.00004985,-0.00009845,0.00
 008986,-0.00425493,-0.00196154,0.02840553,0.06584521,0.00003661,0.0000
 2543,0.00002664,-0.00008970,-0.00000826,0.00000424,-0.00000354,0.00000
 524,0.00000612,-0.00560328,-0.00569836,-0.03109818,0.00007972,-0.00001
 053,-0.00004359,-0.00000558,-0.00001263,-0.00000065,-0.00682369,-0.002
 59397,0.03244777,-0.00008595,0.00031579,0.00000214,-0.00115365,0.00159
 447,0.00011192,-0.00097630,-0.04972857,0.01694894,-0.00028638,-0.00042
 343,0.00024700,0.00389689,-0.00000692,-0.00075373,-0.00000249,-0.00000
 309,-0.00000631,0.00000314,-0.00000027,-0.00000021,-0.00000372,-0.0000
 0407,-0.00000078,0.00000237,-0.00000150,0.00000078,-0.00000509,0.00000
 021,-0.00000215,-0.00000343,-0.00001048,-0.00001160,-0.00000757,0.0000
 0197,0.00000215,-0.00000108,0.00000173,-0.00000030,-0.00025720,0.00117
 974,-0.00085700,0.00155998,-0.00564736,0.00245502,0.00040341,-0.000061
 85,-0.00054762,-0.00015662,0.00001446,-0.00043901,0.00257946,0.0014362
 4,-0.01029937,0.00710091,0.05960374,0.00006768,0.00003938,0.00004449,-
 0.00017665,-0.00005504,0.00004489,-0.00000260,0.00000895,0.00000965,-0
 .00868824,-0.01217431,-0.02186482,0.00016254,0.00003535,-0.00027499,-0
 .00001066,-0.00002244,0.00002369,0.00439249,0.00199526,-0.01150064,-0.
 00055288,0.00026640,0.00007588,0.00008521,-0.00093789,0.00043345,0.052
 58738,0.01598994,-0.28039163,-0.00005549,-0.00033740,0.00026428,0.0033
 3887,0.00028625,0.00074483,-0.00000283,-0.00000323,-0.00001062,0.00000
 530,0.00000170,0.00000172,-0.00000762,-0.00000869,-0.00000039,0.000004
 42,-0.00000162,0.00000484,-0.00001003,0.00000062,-0.00000319,-0.000029
 70,0.00000254,-0.00000486,-0.00002205,0.00000760,0.00000561,-0.0000013
 3,0.00000141,-0.00000174,0.00008239,0.00054086,0.00022764,-0.00026270,
 0.00213597,0.00042295,-0.00067309,0.00021351,0.00008073,-0.00003862,0.
 00011034,0.00029684,0.00218643,0.00090878,-0.00351273,-0.05085727,-0.0
 0929858,0.31410785,0.00043717,0.00019743,0.00039232,-0.00048698,-0.001
 43810,0.00010580,0.00006252,0.00007736,0.00013674,0.00141094,0.0000934
 8,-0.00070335,-0.00242674,0.00497880,-0.00365152,-0.00055930,-0.000478
 20,0.00174523,0.00132711,0.00003039,-0.00053996,-0.02709144,0.00228655
 ,0.04022900,0.00364639,-0.00165578,-0.01845543,-0.00023850,-0.00016869
 ,-0.00020926,-0.05281964,0.00048438,0.04219145,0.00123395,0.00010065,-
 0.00436040,0.00001585,0.00002844,-0.00010158,-0.00000573,0.00002739,-0
 .00010101,-0.00005999,-0.00006838,-0.00003705,0.00001090,-0.00003731,-
 0.00004853,-0.00008834,-0.00000688,-0.00007561,-0.00007582,0.00000834,
 0.00041089,-0.00059084,0.00032285,0.00002254,0.00004000,0.00001691,-0.
 00003125,0.00016131,-0.00003066,0.00016229,-0.00024549,-0.00016240,0.0
 0023243,-0.00190382,-0.00283235,-0.00174348,0.00048279,0.00026890,0.00
 072453,-0.00000973,0.00005373,-0.00003225,-0.00006719,-0.00004499,0.00
 016070,0.07785589,-0.00003086,0.00004305,0.00007971,0.00014842,0.00060
 319,-0.00019521,-0.00002038,-0.00001453,-0.00002814,-0.00157827,0.0021
 3365,-0.00199869,0.00029770,-0.00117216,0.00105692,0.00014387,0.000101
 02,-0.00035392,0.00111334,0.00061518,0.00027647,0.00693697,0.00160094,
 -0.00940967,0.00241808,-0.00250822,-0.02656668,-0.00011305,-0.00020039
 ,-0.00004304,0.00012000,-0.05068773,-0.00720008,-0.00555551,-0.0028960
 3,0.03388507,-0.00001909,-0.00000973,-0.00000711,0.00005646,0.00000068
 ,-0.00003215,0.00001514,0.00000868,-0.00000021,-0.00000529,0.00000484,
 0.00001230,0.00001472,-0.00000121,0.00001504,-0.00004493,-0.00010092,-
 0.00004797,0.00012751,-0.00005640,-0.00001218,-0.00000902,0.00000782,-
 0.00000191,0.00007247,-0.00013465,0.00036830,-0.00034155,0.00020892,0.
 00041980,-0.00314891,-0.00269447,-0.00221565,0.00087134,0.00091666,0.0
 0046795,0.00002798,0.00008867,-0.00001678,-0.00010194,-0.00008090,-0.0
 0002895,-0.00305817,0.05777775,-0.00011637,-0.00007191,-0.00004685,0.0
 0027747,0.00028149,0.00000397,0.00004315,-0.00007019,-0.00000505,-0.00
 073304,-0.00110391,0.00188478,-0.00131904,-0.00087134,0.00296899,0.000
 03259,0.00019609,-0.00017491,0.00053404,0.00024981,0.00015755,0.004877
 00,-0.00038087,0.00098612,0.00146996,-0.00173986,-0.01533972,-0.000164
 39,0.00003422,0.00005990,0.05121822,-0.00839303,-0.30043235,0.00302372
 ,0.00130548,-0.01503617,-0.00000072,0.00001460,0.00001549,0.00009957,0
 .00001298,-0.00008873,0.00003004,0.00002763,-0.00000025,0.00000527,0.0
 0000848,-0.00004545,0.00004784,0.00001101,0.00001026,-0.00030454,0.000
 04654,0.00019858,0.00009001,-0.00004513,-0.00001349,-0.00000916,-0.000
 00112,0.00000507,-0.00018332,-0.00004293,0.00030593,-0.00062984,0.0002
 1533,0.00019715,-0.00155857,-0.00194531,-0.00000035,0.00007666,-0.0001
 2619,0.00086015,-0.00003154,0.00004288,-0.00002871,0.00018850,-0.00004
 082,-0.00006510,-0.05653034,0.00995693,0.32257466,-0.00017669,0.000084
 29,0.00060804,-0.00110707,0.00034518,0.00079984,0.00002499,0.00001296,
 0.00000128,-0.03156406,-0.02445155,-0.01725613,-0.00017110,0.00031621,
 0.00028353,-0.00002263,-0.00001513,-0.00005409,-0.00057803,-0.00014362
 ,-0.00040236,0.00155664,-0.00135738,-0.00003372,-0.00001912,0.00216817
 ,-0.00071560,-0.00341906,0.00402976,0.00367000,0.00467386,0.00432055,0
 .00416022,-0.11467935,-0.09588273,-0.06202382,-0.00006025,0.00004590,-
 0.00013640,-0.00015654,0.00006360,-0.00034416,0.00006651,-0.00007356,-
 0.00001824,-0.00000727,0.00000187,-0.00000455,-0.00000178,-0.00002174,
 0.00000210,0.00003734,-0.00002494,-0.00005833,0.00001035,-0.00000707,-
 0.00000016,0.00000495,0.00000268,-0.00000564,0.00009558,-0.00026960,0.
 00007832,0.00005301,-0.00002188,0.00004858,-0.00010391,-0.00012692,-0.
 00012731,0.00049435,0.00049466,0.00010190,-0.00122008,-0.00122755,-0.0
 0068449,0.00013666,0.00001384,-0.00029368,0.00011348,-0.00047028,0.000
 01437,0.14192051,0.00053369,0.00019924,-0.00011750,-0.00034707,0.00074
 431,0.00030542,-0.00000050,-0.00003583,0.00001599,0.00575731,0.0098478
 4,0.00570420,-0.00006688,-0.00111524,-0.00008055,0.00004647,0.00007779
 ,-0.00007634,0.00076294,0.00022040,-0.00000046,0.00088939,0.00256481,-
 0.00012144,0.00252286,-0.00437446,0.00405974,0.00250395,0.00049653,0.0
 0025423,-0.01713177,-0.02148448,-0.01555141,-0.10409740,-0.19319303,-0
 .09189172,-0.00004210,-0.00004300,0.00011686,0.00020608,-0.00003158,0.
 00019375,0.00001619,-0.00008058,0.00002680,0.00000274,-0.00000368,-0.0
 0000546,-0.00000252,0.00002025,0.00000270,-0.00002724,0.00002334,0.000
 10461,0.00002006,-0.00001133,-0.00000433,-0.00001702,0.00003092,-0.000
 00510,-0.00017097,0.00011208,-0.00007893,-0.00010434,0.00004736,0.0000
 3766,0.00017801,0.00019916,-0.00002426,-0.00124322,-0.00142810,-0.0007
 3486,0.00038438,0.00034018,0.00010787,-0.00000488,-0.00008225,-0.00004
 467,-0.00006295,0.00144205,0.00016580,0.10876740,0.20362853,0.00044335
 ,0.00016197,0.00037871,-0.00104690,0.00055572,0.00012700,0.00002607,-0
 .00005772,0.00000494,0.00419613,0.00508766,0.00414741,-0.00041674,-0.0
 0096526,-0.00027815,0.00008749,0.00017878,0.00009000,0.00000677,0.0000
 2216,-0.00002485,0.00075354,-0.00140475,-0.00002727,-0.00096310,0.0018
 9672,-0.00049239,0.00073065,0.00032566,0.00033249,0.00755096,0.0118049
 6,0.00650855,-0.06780657,-0.09239715,-0.11232932,-0.00002252,-0.000006
 87,-0.00003260,-0.00000579,-0.00002538,-0.00004987,0.00002210,-0.00002
 008,-0.00001889,0.00000025,0.00000308,-0.00000320,0.00001057,0.0000182
 9,0.00001208,0.00010728,0.00010209,0.00013273,0.00001323,0.00000169,-0
 .00000423,-0.00002750,0.00003082,-0.00000415,-0.00001918,-0.00000467,-
 0.00002832,0.00002821,-0.00004310,-0.00000498,0.00012925,0.00033511,0.
 00027434,0.00021671,0.00052165,0.00043071,-0.00005196,-0.00008718,0.00
 035931,0.00017980,0.00019692,0.00052043,0.00039647,-0.00069806,0.00084
 898,0.07062738,0.09666133,0.11205485,-0.00039827,-0.00019216,-0.000256
 19,-0.00189799,0.00000798,-0.00024472,0.00001073,-0.00005327,-0.000034
 95,-0.02750133,0.00257203,0.03591739,-0.00056302,0.00108799,-0.0006510
 0,-0.00000195,-0.00003963,0.00018545,-0.00044921,-0.00033115,-0.000504
 90,0.00041142,-0.00114041,0.00101260,-0.00012326,-0.00049673,0.0004817
 0,0.00314696,0.00292757,0.00537827,0.00351567,-0.00064335,-0.00748028,
 -0.05214587,-0.00398576,0.03593137,-0.00003221,0.00000997,0.00006799,0
 .00002295,0.00004015,0.00012316,0.00001026,0.00002170,0.00001529,-0.00
 000126,0.00000181,0.00000218,0.00002138,-0.00000047,0.00001610,-0.0002
 6620,0.00043381,0.00006416,-0.00001418,0.00000397,-0.00000281,0.000020
 89,-0.00003786,0.00000588,0.00010657,-0.00027217,-0.00001575,-0.000022
 15,0.00011614,-0.00010618,0.00009636,-0.00010595,0.00021857,-0.0000633
 3,0.00001227,0.00000316,0.00015582,0.00010947,-0.00040609,0.00046428,-
 0.00015942,-0.00137650,-0.00007319,0.00212796,-0.00048470,0.00404294,0
 .00079648,-0.01513740,0.07150899,-0.00012655,0.00004142,-0.00007343,0.
 00062849,0.00000339,-0.00061894,-0.00005714,0.00007341,0.00003403,0.00
 721909,0.00229154,-0.01074403,0.00095332,-0.00021111,0.00098187,-0.000
 06272,-0.00013198,-0.00028208,0.00006468,-0.00015516,0.00007330,0.0001
 2238,0.00094395,-0.00187743,0.00032468,0.00223674,0.00072218,-0.001753
 80,-0.00059035,0.00084347,-0.00599082,-0.00112061,0.03206327,-0.003808
 04,-0.05401179,0.00788948,-0.00001080,-0.00002403,0.00001867,0.0000007
 4,-0.00000566,0.00005269,-0.00001289,-0.00001873,-0.00001246,-0.000000
 31,-0.00000056,-0.00000503,-0.00002595,-0.00000729,-0.00002279,0.00052
 967,-0.00072639,-0.00047241,0.00002823,-0.00001795,0.00000420,0.000005
 16,0.00001486,-0.00000225,-0.00005575,0.00009814,-0.00003781,0.0000714
 5,0.00000557,-0.00011521,-0.00003915,-0.00020696,-0.00073236,0.0002672
 0,0.00019808,-0.00040187,0.00005394,-0.00004971,0.00005285,-0.00003520
 ,0.00019373,0.00036621,0.00108640,-0.00500182,0.00226317,0.00345976,0.
 00184018,-0.02222174,-0.00280835,0.05433360,-0.00011491,-0.00046812,-0
 .00064072,0.00200670,-0.00087506,0.00101662,0.00009672,-0.00003020,-0.
 00005764,0.01081169,-0.00278150,-0.00235647,0.00013160,0.00085689,-0.0
 0150386,-0.00004059,0.00011065,0.00034540,0.00020182,-0.00005520,0.000
 04637,-0.00130575,0.00092796,0.00119818,-0.00029262,-0.00077363,0.0007
 3616,-0.00179872,-0.00036007,0.00204232,0.00252507,-0.00092584,-0.0142
 9786,0.03715112,0.00729751,-0.29481657,0.00012893,0.00005595,0.0002079
 4,0.00000436,0.00001364,0.00012041,0.00002377,0.00003956,0.00002772,0.
 00000099,0.00000006,0.00002669,0.00003160,0.00000045,0.00003379,0.0002
 4680,-0.00016303,0.00044011,-0.00004807,0.00002099,-0.00000028,0.00002
 826,-0.00005625,0.00000328,0.00007797,0.00005888,-0.00000769,-0.000136
 66,-0.00003996,-0.00019205,0.00049213,0.00053034,0.00048169,-0.0002059
 1,0.00004840,0.00024665,0.00011142,0.00008310,0.00049037,0.00105569,0.
 00095045,0.00032065,-0.00029617,0.00232364,0.00020333,0.00177356,0.000
 98995,-0.01291339,-0.05272571,-0.00775005,0.31878808,-0.01357030,-0.01
 300638,-0.02020308,-0.00747726,0.00239168,-0.00156640,-0.00380725,-0.0
 0215300,-0.00309818,-0.00018523,0.00001122,0.00003538,0.00122532,0.002
 20169,-0.00045327,0.00108234,-0.00107375,0.00092222,0.00000460,-0.0000
 3017,-0.00001770,-0.00050764,-0.00026570,0.00049546,-0.00005469,0.0000
 2685,-0.00000063,0.00003652,0.00004134,0.00004826,0.00035577,-0.000023
 42,-0.00007711,0.00007671,-0.00003963,-0.00011350,-0.14431732,-0.05509
 178,-0.11296612,0.00080778,-0.00051747,0.00080492,0.00084437,0.0003193
 0,-0.00002774,0.00003898,0.00013722,-0.00000758,0.00035889,-0.00014710
 ,0.00031617,-0.00002469,-0.00020352,0.00000829,-0.00009814,-0.00004209
 ,-0.00026669,-0.00003896,0.00001631,-0.00036972,-0.00001923,-0.0000028
 0,-0.00000172,-0.00000712,0.00000367,0.00000487,0.00000991,0.00000808,
 0.00001555,-0.00000406,-0.00001009,0.00000555,-0.00001350,-0.00000176,
 -0.00000511,0.00000485,-0.00000492,-0.00000828,-0.00005087,0.00000123,
 0.00002548,0.00001001,-0.00001590,-0.00002163,0.00002544,-0.00001360,0
 .00007624,0.15524929,0.00783726,0.00733455,0.01355386,0.00598325,-0.00
 023390,0.00133088,-0.02009656,-0.01062956,-0.02416606,0.00003321,0.000
 03058,-0.00003113,0.00057328,-0.00198532,0.00030831,-0.00063725,-0.006
 56559,0.00278228,0.00000193,-0.00000678,-0.00000122,-0.00013471,0.0003
 5224,-0.00014432,-0.00001065,0.00001061,0.00000019,-0.00000470,-0.0000
 1399,-0.00000589,0.00005785,-0.00000722,0.00003054,-0.00002512,-0.0000
 3263,0.00006525,-0.05550056,-0.08016924,-0.06819834,-0.00054504,0.0006
 0095,-0.00036071,-0.00111516,0.00016489,0.00006119,0.00023168,0.001474
 57,0.00033652,0.00079876,0.00125890,-0.00025799,-0.00007318,0.00035237
 ,-0.00000317,0.00028665,0.00009711,0.00007874,-0.00170269,-0.00056576,
 -0.00133129,-0.00000397,0.00000216,-0.00000056,-0.00000150,0.00000113,
 0.00000087,0.00000713,-0.00000004,-0.00000075,0.00000268,0.00000115,-0
 .00000040,0.00000154,0.00000313,0.00000083,-0.00000119,0.00000078,0.00
 000056,-0.00002479,0.00000980,0.00000510,0.00000348,0.00000810,0.00001
 678,-0.00000597,-0.00000154,-0.00003559,0.06150220,0.08808524,0.001609
 57,0.00004971,-0.00136918,-0.00084103,-0.00013600,0.00150916,0.0055640
 1,0.00287732,0.00497735,-0.00006787,-0.00000193,0.00000230,0.00045789,
 0.00049896,-0.00027399,0.00022432,0.00116332,0.00076298,0.00000090,-0.
 00001028,-0.00000738,-0.00020744,-0.00009957,0.00012972,-0.00001921,0.
 00000935,0.00000459,0.00001189,0.00001616,0.00001780,0.00012815,0.0000
 0313,-0.00002636,0.00003201,0.00000461,-0.00001914,-0.11531577,-0.0685
 1571,-0.18607937,-0.00038123,0.00035682,0.00031361,-0.00014852,0.00019
 431,0.00004349,-0.00001171,-0.00062204,0.00064285,-0.00010103,-0.00059
 427,0.00001489,-0.00000986,-0.00001618,-0.00005797,0.00018503,0.000152
 80,0.00030664,-0.00002693,0.00022642,0.00028168,-0.00000699,-0.0000011
 0,-0.00000071,-0.00000158,0.00000097,0.00000171,0.00000334,0.00000287,
 0.00000272,-0.00000123,-0.00000393,0.00000148,-0.00000551,-0.00000135,
 -0.00000209,0.00000126,-0.00000173,-0.00000303,-0.00001847,0.00000028,
 0.00000990,0.00000443,-0.00001578,-0.00001180,0.00000252,-0.00000092,0
 .00002141,0.12591008,0.07379318,0.19797811,-0.01589769,-0.00105819,0.0
 2735155,0.00287760,-0.00074186,-0.00044632,-0.00311120,-0.00071749,0.0
 0507032,-0.00006032,-0.00000904,-0.00003081,-0.00025205,0.00004466,0.0
 0016020,-0.00008748,0.00025293,0.00056304,0.00000091,-0.00001145,-0.00
 000854,-0.00003149,-0.00018080,-0.00015749,-0.00002493,0.00000940,0.00
 000644,0.00000784,0.00001690,0.00002021,0.00014986,0.00000299,-0.00004
 032,0.00006786,0.00004437,0.00004118,-0.10418635,-0.01362806,0.1033808
 5,-0.00420246,0.00320582,-0.00042702,0.00127116,-0.00035744,-0.0006319
 2,0.00070527,-0.00104337,0.00018575,0.00044289,-0.00010519,-0.00041896
 ,-0.00005664,-0.00003494,0.00000355,-0.00017417,-0.00021538,-0.0001561
 8,0.00008092,-0.00000486,-0.00014371,-0.00000758,-0.00000096,-0.000000
 38,-0.00000123,0.00000134,0.00000175,0.00000139,0.00000092,0.00000064,
 -0.00000035,-0.00000429,0.00000013,-0.00000599,-0.00000172,-0.00000212
 ,0.00000088,-0.00000172,-0.00000319,-0.00000468,0.00000406,0.00001166,
 0.00004577,-0.00005319,-0.00000690,-0.00000725,-0.00001411,-0.00001132
 ,0.01004550,0.00256213,-0.01697100,0.11241402,0.00987463,0.00007083,-0
 .01940292,-0.00172150,0.00058446,0.00102689,-0.01575308,-0.00540968,0.
 03040814,0.00003525,0.00002172,0.00001379,-0.00002382,-0.00055320,0.00
 003367,0.00063886,0.00159479,0.00089985,0.00000016,0.00000007,0.000001
 41,0.00004812,0.00029568,-0.00000037,-0.00000145,0.00000575,-0.0000033
 6,-0.00000293,-0.00001188,-0.00001061,-0.00007364,-0.00000964,-0.00005
 446,-0.00006738,-0.00004778,-0.00001969,-0.01320017,-0.04987661,0.0225
 9576,0.00385536,-0.00123954,0.00067615,-0.00084419,0.00067364,-0.00029
 592,-0.00175904,-0.00617386,0.00067617,0.00064953,0.00144733,-0.000340
 08,-0.00006309,0.00011440,-0.00000802,-0.00002464,-0.00007348,-0.00072
 333,0.00043084,0.00005317,-0.00023266,0.00000127,0.00000130,0.00000004
 ,-0.00000021,0.00000021,-0.00000069,-0.00000002,0.00000030,0.00000012,
 0.00000254,0.00000260,0.00000060,0.00000367,0.00000191,0.00000137,-0.0
 0000054,0.00000092,0.00000120,0.00000763,-0.00000374,-0.00000493,-0.00
 003635,0.00004047,0.00001056,0.00000338,0.00000704,0.00000609,0.005982
 26,0.00042332,-0.00932940,0.01203854,0.05805950,-0.00125327,-0.0008259
 3,-0.00082137,0.00077021,0.00082469,0.00170747,0.00199234,0.00153047,-
 0.00577861,0.00005731,-0.00001904,-0.00000204,-0.00011126,-0.00028510,
 0.00011022,-0.00043025,-0.00045338,0.00074033,-0.00000114,0.00001457,0
 .00000844,0.00031010,0.00007273,-0.00011804,0.00002953,-0.00001473,0.0
 0000117,-0.00001364,-0.00000957,-0.00001687,-0.00020022,0.00003358,0.0
 0004199,-0.00003294,0.00002642,0.00001860,0.10559884,0.02190139,-0.250
 16569,-0.00035941,-0.00029358,0.00133436,0.00027959,-0.00048666,0.0004
 6720,-0.00013826,0.00129234,0.00122847,-0.00022009,0.00023806,0.000306
 11,0.00009850,0.00001722,-0.00002592,0.00043642,0.00007735,0.00031373,
 -0.00002963,0.00010707,0.00021484,0.00000939,0.00000027,0.00000071,0.0
 0000276,-0.00000206,-0.00000209,-0.00000486,-0.00000285,-0.00000506,0.
 00000027,0.00000350,-0.00000268,0.00000436,-0.00000058,0.00000106,-0.0
 0000130,0.00000154,0.00000331,0.00002527,-0.00000602,-0.00001364,-0.00
 001487,0.00000592,0.00000089,0.00000136,0.00000541,-0.00001063,0.01053
 598,0.00217234,-0.01917137,-0.11734110,-0.02592538,0.26963510\\0.00001
 643,0.00000383,0.00000036,-0.00000717,-0.00005508,0.00003137,-0.000006
 16,0.00000099,-0.00000638,-0.00000426,-0.00001607,-0.00001385,-0.00014
 599,-0.00045537,-0.00007595,-0.00001235,0.00002501,-0.00000139,-0.0000
 1911,-0.00000385,-0.00000972,0.00017081,0.00073615,-0.00002722,0.00001
 436,0.00016720,-0.00035762,0.00000293,0.00001413,-0.00001208,-0.000021
 46,-0.00044712,0.00046961,0.00001589,0.00001874,0.00000329,-0.00000082
 ,0.00000914,0.00000789,-0.00001275,-0.00000614,0.00001063,0.00000292,0
 .00000785,0.00000420,-0.00000051,0.00000203,0.00001505,0.00000219,-0.0
 0000857,-0.00000016,0.00001423,-0.00000191,-0.00003314,0.00001194,-0.0
 0000564,-0.00001531,0.00000974,0.00000209,0.00000740,0.00000764,-0.000
 00652,-0.00000309,-0.00000291,0.00000089,0.00000352,-0.00000653,0.0000
 0468,-0.00000565,-0.00000334,0.00000221,0.00000537,-0.00001128,0.00000
 361,0.00000361,0.00000329,0.00000413,0.00000113,-0.00000837,0.00000233
 ,-0.00000187,-0.00000125,0.00001193,0.00000377,-0.00001360,-0.00000031
 ,-0.00000310,0.00000122,-0.00001072,0.00000232,0.00000425,0.00000039,-
 0.00000300\\\@


 FORGIVE MY NONSENSE AS I ALSO FORGIVE THOSE WHO THINK THEY TALK SENSE

                                                       -- ROBERT FROST
 Job cpu time:       0 days 14 hours 56 minutes 28.7 seconds.
 Elapsed time:       0 days  0 hours 56 minutes  4.2 seconds.
 File lengths (MBytes):  RWF=    688 Int=      0 D2E=      0 Chk=     33 Scr=      1
 Normal termination of Gaussian 16 at Sun Nov  4 22:47:18 2018.
