 Entering Gaussian System, Link 0=g16
 Initial command:
 /apps/gaussian/g16a03/g16/l1.exe "/jobfs/local/2012066.r-man2/Gau-23534.inp" -scrdir="/jobfs/local/2012066.r-man2/"
 Entering Link 1 = /apps/gaussian/g16a03/g16/l1.exe PID=     23535.
  
 Copyright (c) 1988,1990,1992,1993,1995,1998,2003,2009,2016,
            Gaussian, Inc.  All Rights Reserved.
  
 This is part of the Gaussian(R) 16 program.  It is based on
 the Gaussian(R) 09 system (copyright 2009, Gaussian, Inc.),
 the Gaussian(R) 03 system (copyright 2003, Gaussian, Inc.),
 the Gaussian(R) 98 system (copyright 1998, Gaussian, Inc.),
 the Gaussian(R) 94 system (copyright 1995, Gaussian, Inc.),
 the Gaussian 92(TM) system (copyright 1992, Gaussian, Inc.),
 the Gaussian 90(TM) system (copyright 1990, Gaussian, Inc.),
 the Gaussian 88(TM) system (copyright 1988, Gaussian, Inc.),
 the Gaussian 86(TM) system (copyright 1986, Carnegie Mellon
 University), and the Gaussian 82(TM) system (copyright 1983,
 Carnegie Mellon University). Gaussian is a federally registered
 trademark of Gaussian, Inc.
  
 This software contains proprietary and confidential information,
 including trade secrets, belonging to Gaussian, Inc.
  
 This software is provided under written license and may be
 used, copied, transmitted, or stored only in accord with that
 written license.
  
 The following legend is applicable only to US Government
 contracts under FAR:
  
                    RESTRICTED RIGHTS LEGEND
  
 Use, reproduction and disclosure by the US Government is
 subject to restrictions as set forth in subparagraphs (a)
 and (c) of the Commercial Computer Software - Restricted
 Rights clause in FAR 52.227-19.
  
 Gaussian, Inc.
 340 Quinnipiac St., Bldg. 40, Wallingford CT 06492
  
  
 ---------------------------------------------------------------
 Warning -- This program may not be used in any manner that
 competes with the business of Gaussian, Inc. or will provide
 assistance to any competitor of Gaussian, Inc.  The licensee
 of this program is prohibited from giving any competitor of
 Gaussian, Inc. access to this program.  By using this program,
 the user acknowledges that Gaussian, Inc. is engaged in the
 business of creating and licensing software in the field of
 computational chemistry and represents and warrants to the
 licensee that it is not a competitor of Gaussian, Inc. and that
 it will not use this program in any manner prohibited above.
 ---------------------------------------------------------------
  

 Cite this work as:
 Gaussian 16, Revision A.03,
 M. J. Frisch, G. W. Trucks, H. B. Schlegel, G. E. Scuseria, 
 M. A. Robb, J. R. Cheeseman, G. Scalmani, V. Barone, 
 G. A. Petersson, H. Nakatsuji, X. Li, M. Caricato, A. V. Marenich, 
 J. Bloino, B. G. Janesko, R. Gomperts, B. Mennucci, H. P. Hratchian, 
 J. V. Ortiz, A. F. Izmaylov, J. L. Sonnenberg, D. Williams-Young, 
 F. Ding, F. Lipparini, F. Egidi, J. Goings, B. Peng, A. Petrone, 
 T. Henderson, D. Ranasinghe, V. G. Zakrzewski, J. Gao, N. Rega, 
 G. Zheng, W. Liang, M. Hada, M. Ehara, K. Toyota, R. Fukuda, 
 J. Hasegawa, M. Ishida, T. Nakajima, Y. Honda, O. Kitao, H. Nakai, 
 T. Vreven, K. Throssell, J. A. Montgomery, Jr., J. E. Peralta, 
 F. Ogliaro, M. J. Bearpark, J. J. Heyd, E. N. Brothers, K. N. Kudin, 
 V. N. Staroverov, T. A. Keith, R. Kobayashi, J. Normand, 
 K. Raghavachari, A. P. Rendell, J. C. Burant, S. S. Iyengar, 
 J. Tomasi, M. Cossi, J. M. Millam, M. Klene, C. Adamo, R. Cammi, 
 J. W. Ochterski, R. L. Martin, K. Morokuma, O. Farkas, 
 J. B. Foresman, and D. J. Fox, Gaussian, Inc., Wallingford CT, 2016.
 
 ******************************************
 Gaussian 16:  ES64L-G16RevA.03 25-Dec-2016
                 4-Nov-2018 
 ******************************************
 %mem=6000mb
 %nproc=24
 Will use up to   24 processors via shared memory.
 %chk=L_a1-e4_D_PSI.inp_extract_13.chk
 ----------------------------------------------------------------------
 #M062X/6-311++G(2d,2p) opt=ModRedundant freq=noraman SCRF=(Solvent=Wat
 er)
 ----------------------------------------------------------------------
 1/18=120,19=15,26=3,38=1/1,3;
 2/9=110,12=2,17=6,18=5,40=1/2;
 3/5=4,6=6,7=1212,11=2,25=1,30=1,70=2201,71=1,72=1,74=-55/1,2,3;
 4//1;
 5/5=2,38=5,53=1/2;
 6/7=2,8=2,9=2,10=2,28=1/1;
 7//1,2,3,16;
 1/18=20,19=15,26=3/3(2);
 2/9=110/2;
 99//99;
 2/9=110/2;
 3/5=4,6=6,7=1212,11=2,25=1,30=1,70=2205,71=1,72=1,74=-55/1,2,3;
 4/5=5,16=3,69=1/1;
 5/5=2,38=5,53=1/2;
 7//1,2,3,16;
 1/18=20,19=15,26=3/3(-5);
 2/9=110/2;
 6/7=2,8=2,9=2,10=2,19=2,28=1/1;
 99/9=1/99;
 ----------------------------
 L_a1-e4_D_PSI.inp_extract_13
 ----------------------------
 Symbolic Z-matrix:
 Charge =  0 Multiplicity = 1
 C                    -1.98002  -1.32292   0.7335 
 O                    -1.27875  -0.17479   1.1938 
 C                    -3.30839   0.12368  -0.80833 
 O                     2.89803  -1.1503   -0.74743 
 C                    -1.14787   0.88054   0.27601 
 C                    -2.50145   1.30745  -0.27453 
 C                     3.22892   0.8964    0.49785 
 O                    -0.32747   0.52873  -0.79954 
 C                     1.7151    1.13553   0.52988 
 C                     3.53935  -0.58689   0.38235 
 C                     1.0887    0.44623  -0.67895 
 C                     1.49269  -1.02477  -0.70704 
 C                    -3.37885  -0.96867   0.25819 
 H                    -1.41661  -1.79521  -0.06345 
 H                    -2.00665  -2.0017    1.57477 
 H                    -2.84377  -0.27232  -1.70746 
 H                    -4.30496   0.45351  -1.08546 
 H                    -0.70439   1.68584   0.83688 
 H                    -3.04625   1.7756    0.54089 
 H                    -2.34702   2.06243  -1.03772 
 H                     3.68714   1.28986   1.40011 
 H                     3.6704    1.41959  -0.3463 
 H                     1.3104    0.72755   1.45052 
 H                     1.50529   2.19999   0.51785 
 H                     4.59859  -0.75916   0.24936 
 H                     3.2146   -1.11677   1.27502 
 H                     1.47371   0.91479  -1.57717 
 H                     1.10876  -1.50539  -1.59635 
 H                     1.1038   -1.54196   0.16561 
 H                    -3.85781  -1.86372  -0.12861 
 H                    -3.9689   -0.62151   1.1033 
 
 The following ModRedundant input section has been read:
 D       5       8      11       9 F                                           
 

 GradGradGradGradGradGradGradGradGradGradGradGradGradGradGradGradGradGrad
 Berny optimization.
 Initialization pass.
                           ----------------------------
                           !    Initial Parameters    !
                           ! (Angstroms and Degrees)  !
 --------------------------                            --------------------------
 ! Name  Definition              Value          Derivative Info.                !
 --------------------------------------------------------------------------------
 ! R1    R(1,2)                  1.4219         estimate D2E/DX2                !
 ! R2    R(1,13)                 1.5193         estimate D2E/DX2                !
 ! R3    R(1,14)                 1.0843         estimate D2E/DX2                !
 ! R4    R(1,15)                 1.0813         estimate D2E/DX2                !
 ! R5    R(2,5)                  1.4047         estimate D2E/DX2                !
 ! R6    R(3,6)                  1.5289         estimate D2E/DX2                !
 ! R7    R(3,13)                 1.5283         estimate D2E/DX2                !
 ! R8    R(3,16)                 1.0868         estimate D2E/DX2                !
 ! R9    R(3,17)                 1.0857         estimate D2E/DX2                !
 ! R10   R(4,10)                 1.416          estimate D2E/DX2                !
 ! R11   R(4,12)                 1.4115         estimate D2E/DX2                !
 ! R12   R(5,6)                  1.5223         estimate D2E/DX2                !
 ! R13   R(5,8)                  1.3977         estimate D2E/DX2                !
 ! R14   R(5,18)                 1.0769         estimate D2E/DX2                !
 ! R15   R(6,19)                 1.0867         estimate D2E/DX2                !
 ! R16   R(6,20)                 1.0846         estimate D2E/DX2                !
 ! R17   R(7,9)                  1.5329         estimate D2E/DX2                !
 ! R18   R(7,10)                 1.5198         estimate D2E/DX2                !
 ! R19   R(7,21)                 1.0857         estimate D2E/DX2                !
 ! R20   R(7,22)                 1.0868         estimate D2E/DX2                !
 ! R21   R(8,11)                 1.4237         estimate D2E/DX2                !
 ! R22   R(9,11)                 1.526          estimate D2E/DX2                !
 ! R23   R(9,23)                 1.0853         estimate D2E/DX2                !
 ! R24   R(9,24)                 1.085          estimate D2E/DX2                !
 ! R25   R(10,25)                1.0814         estimate D2E/DX2                !
 ! R26   R(10,26)                1.0877         estimate D2E/DX2                !
 ! R27   R(11,12)                1.5257         estimate D2E/DX2                !
 ! R28   R(11,27)                1.0838         estimate D2E/DX2                !
 ! R29   R(12,28)                1.0813         estimate D2E/DX2                !
 ! R30   R(12,29)                1.0864         estimate D2E/DX2                !
 ! R31   R(13,30)                1.0863         estimate D2E/DX2                !
 ! R32   R(13,31)                1.0876         estimate D2E/DX2                !
 ! A1    A(2,1,13)             111.5367         estimate D2E/DX2                !
 ! A2    A(2,1,14)             109.474          estimate D2E/DX2                !
 ! A3    A(2,1,15)             105.496          estimate D2E/DX2                !
 ! A4    A(13,1,14)            110.4903         estimate D2E/DX2                !
 ! A5    A(13,1,15)            111.5371         estimate D2E/DX2                !
 ! A6    A(14,1,15)            108.1326         estimate D2E/DX2                !
 ! A7    A(1,2,5)              116.172          estimate D2E/DX2                !
 ! A8    A(6,3,13)             109.5181         estimate D2E/DX2                !
 ! A9    A(6,3,16)             110.2034         estimate D2E/DX2                !
 ! A10   A(6,3,17)             109.7782         estimate D2E/DX2                !
 ! A11   A(13,3,16)            109.6707         estimate D2E/DX2                !
 ! A12   A(13,3,17)            110.6675         estimate D2E/DX2                !
 ! A13   A(16,3,17)            106.9735         estimate D2E/DX2                !
 ! A14   A(10,4,12)            113.1229         estimate D2E/DX2                !
 ! A15   A(2,5,6)              111.3538         estimate D2E/DX2                !
 ! A16   A(2,5,8)              111.6141         estimate D2E/DX2                !
 ! A17   A(2,5,18)             105.0631         estimate D2E/DX2                !
 ! A18   A(6,5,8)              108.3122         estimate D2E/DX2                !
 ! A19   A(6,5,18)             110.1692         estimate D2E/DX2                !
 ! A20   A(8,5,18)             110.3203         estimate D2E/DX2                !
 ! A21   A(3,6,5)              112.2365         estimate D2E/DX2                !
 ! A22   A(3,6,19)             109.3263         estimate D2E/DX2                !
 ! A23   A(3,6,20)             111.6195         estimate D2E/DX2                !
 ! A24   A(5,6,19)             107.1708         estimate D2E/DX2                !
 ! A25   A(5,6,20)             108.8496         estimate D2E/DX2                !
 ! A26   A(19,6,20)            107.4285         estimate D2E/DX2                !
 ! A27   A(9,7,10)             110.8265         estimate D2E/DX2                !
 ! A28   A(9,7,21)             110.0524         estimate D2E/DX2                !
 ! A29   A(9,7,22)             110.0157         estimate D2E/DX2                !
 ! A30   A(10,7,21)            109.3068         estimate D2E/DX2                !
 ! A31   A(10,7,22)            109.1363         estimate D2E/DX2                !
 ! A32   A(21,7,22)            107.4316         estimate D2E/DX2                !
 ! A33   A(5,8,11)             122.2264         estimate D2E/DX2                !
 ! A34   A(7,9,11)             108.5633         estimate D2E/DX2                !
 ! A35   A(7,9,23)             109.1075         estimate D2E/DX2                !
 ! A36   A(7,9,24)             110.1072         estimate D2E/DX2                !
 ! A37   A(11,9,23)            110.4325         estimate D2E/DX2                !
 ! A38   A(11,9,24)            110.792          estimate D2E/DX2                !
 ! A39   A(23,9,24)            107.824          estimate D2E/DX2                !
 ! A40   A(4,10,7)             110.8824         estimate D2E/DX2                !
 ! A41   A(4,10,25)            106.3872         estimate D2E/DX2                !
 ! A42   A(4,10,26)            109.0104         estimate D2E/DX2                !
 ! A43   A(7,10,25)            111.4013         estimate D2E/DX2                !
 ! A44   A(7,10,26)            110.6154         estimate D2E/DX2                !
 ! A45   A(25,10,26)           108.4077         estimate D2E/DX2                !
 ! A46   A(8,11,9)             116.6944         estimate D2E/DX2                !
 ! A47   A(8,11,12)            108.5239         estimate D2E/DX2                !
 ! A48   A(8,11,27)            104.9585         estimate D2E/DX2                !
 ! A49   A(9,11,12)            109.9614         estimate D2E/DX2                !
 ! A50   A(9,11,27)            108.3851         estimate D2E/DX2                !
 ! A51   A(12,11,27)           107.9092         estimate D2E/DX2                !
 ! A52   A(4,12,11)            110.481          estimate D2E/DX2                !
 ! A53   A(4,12,28)            106.8847         estimate D2E/DX2                !
 ! A54   A(4,12,29)            109.6974         estimate D2E/DX2                !
 ! A55   A(11,12,28)           110.4659         estimate D2E/DX2                !
 ! A56   A(11,12,29)           110.4512         estimate D2E/DX2                !
 ! A57   A(28,12,29)           108.7796         estimate D2E/DX2                !
 ! A58   A(1,13,3)             110.0313         estimate D2E/DX2                !
 ! A59   A(1,13,30)            108.9792         estimate D2E/DX2                !
 ! A60   A(1,13,31)            109.32           estimate D2E/DX2                !
 ! A61   A(3,13,30)            111.1468         estimate D2E/DX2                !
 ! A62   A(3,13,31)            109.8232         estimate D2E/DX2                !
 ! A63   A(30,13,31)           107.4856         estimate D2E/DX2                !
 ! D1    D(13,1,2,5)           -56.9142         estimate D2E/DX2                !
 ! D2    D(14,1,2,5)            65.6815         estimate D2E/DX2                !
 ! D3    D(15,1,2,5)          -178.1768         estimate D2E/DX2                !
 ! D4    D(2,1,13,3)            55.1236         estimate D2E/DX2                !
 ! D5    D(2,1,13,30)          177.2274         estimate D2E/DX2                !
 ! D6    D(2,1,13,31)          -65.5612         estimate D2E/DX2                !
 ! D7    D(14,1,13,3)          -66.8877         estimate D2E/DX2                !
 ! D8    D(14,1,13,30)          55.2161         estimate D2E/DX2                !
 ! D9    D(14,1,13,31)         172.4275         estimate D2E/DX2                !
 ! D10   D(15,1,13,3)          172.8038         estimate D2E/DX2                !
 ! D11   D(15,1,13,30)         -65.0925         estimate D2E/DX2                !
 ! D12   D(15,1,13,31)          52.1189         estimate D2E/DX2                !
 ! D13   D(1,2,5,6)             54.1317         estimate D2E/DX2                !
 ! D14   D(1,2,5,8)            -67.0515         estimate D2E/DX2                !
 ! D15   D(1,2,5,18)           173.3804         estimate D2E/DX2                !
 ! D16   D(13,3,6,5)            51.9066         estimate D2E/DX2                !
 ! D17   D(13,3,6,19)          -66.8682         estimate D2E/DX2                !
 ! D18   D(13,3,6,20)          174.4194         estimate D2E/DX2                !
 ! D19   D(16,3,6,5)           -68.8236         estimate D2E/DX2                !
 ! D20   D(16,3,6,19)          172.4016         estimate D2E/DX2                !
 ! D21   D(16,3,6,20)           53.6891         estimate D2E/DX2                !
 ! D22   D(17,3,6,5)           173.6021         estimate D2E/DX2                !
 ! D23   D(17,3,6,19)           54.8272         estimate D2E/DX2                !
 ! D24   D(17,3,6,20)          -63.8852         estimate D2E/DX2                !
 ! D25   D(6,3,13,1)           -53.3081         estimate D2E/DX2                !
 ! D26   D(6,3,13,30)         -174.1177         estimate D2E/DX2                !
 ! D27   D(6,3,13,31)           67.0734         estimate D2E/DX2                !
 ! D28   D(16,3,13,1)           67.7451         estimate D2E/DX2                !
 ! D29   D(16,3,13,30)         -53.0645         estimate D2E/DX2                !
 ! D30   D(16,3,13,31)        -171.8734         estimate D2E/DX2                !
 ! D31   D(17,3,13,1)         -174.4675         estimate D2E/DX2                !
 ! D32   D(17,3,13,30)          64.7229         estimate D2E/DX2                !
 ! D33   D(17,3,13,31)         -54.0859         estimate D2E/DX2                !
 ! D34   D(12,4,10,7)          -59.7934         estimate D2E/DX2                !
 ! D35   D(12,4,10,25)         178.9225         estimate D2E/DX2                !
 ! D36   D(12,4,10,26)          62.2139         estimate D2E/DX2                !
 ! D37   D(10,4,12,11)          61.1437         estimate D2E/DX2                !
 ! D38   D(10,4,12,28)        -178.6292         estimate D2E/DX2                !
 ! D39   D(10,4,12,29)         -60.8539         estimate D2E/DX2                !
 ! D40   D(2,5,6,3)            -51.1688         estimate D2E/DX2                !
 ! D41   D(2,5,6,19)            68.8672         estimate D2E/DX2                !
 ! D42   D(2,5,6,20)          -175.2366         estimate D2E/DX2                !
 ! D43   D(8,5,6,3)             71.9239         estimate D2E/DX2                !
 ! D44   D(8,5,6,19)          -168.0401         estimate D2E/DX2                !
 ! D45   D(8,5,6,20)           -52.1439         estimate D2E/DX2                !
 ! D46   D(18,5,6,3)          -167.3286         estimate D2E/DX2                !
 ! D47   D(18,5,6,19)          -47.2926         estimate D2E/DX2                !
 ! D48   D(18,5,6,20)           68.6035         estimate D2E/DX2                !
 ! D49   D(2,5,8,11)           -75.0694         estimate D2E/DX2                !
 ! D50   D(6,5,8,11)           161.9956         estimate D2E/DX2                !
 ! D51   D(18,5,8,11)           41.3421         estimate D2E/DX2                !
 ! D52   D(10,7,9,11)          -53.2301         estimate D2E/DX2                !
 ! D53   D(10,7,9,23)           67.1726         estimate D2E/DX2                !
 ! D54   D(10,7,9,24)         -174.6768         estimate D2E/DX2                !
 ! D55   D(21,7,9,11)         -174.2552         estimate D2E/DX2                !
 ! D56   D(21,7,9,23)          -53.8525         estimate D2E/DX2                !
 ! D57   D(21,7,9,24)           64.2982         estimate D2E/DX2                !
 ! D58   D(22,7,9,11)           67.557          estimate D2E/DX2                !
 ! D59   D(22,7,9,23)         -172.0403         estimate D2E/DX2                !
 ! D60   D(22,7,9,24)          -53.8897         estimate D2E/DX2                !
 ! D61   D(9,7,10,4)            55.4501         estimate D2E/DX2                !
 ! D62   D(9,7,10,25)          173.7345         estimate D2E/DX2                !
 ! D63   D(9,7,10,26)          -65.615          estimate D2E/DX2                !
 ! D64   D(21,7,10,4)          176.9147         estimate D2E/DX2                !
 ! D65   D(21,7,10,25)         -64.8009         estimate D2E/DX2                !
 ! D66   D(21,7,10,26)          55.8497         estimate D2E/DX2                !
 ! D67   D(22,7,10,4)          -65.8565         estimate D2E/DX2                !
 ! D68   D(22,7,10,25)          52.4279         estimate D2E/DX2                !
 ! D69   D(22,7,10,26)         173.0784         estimate D2E/DX2                !
 ! D70   D(5,8,11,9)           -17.23           Frozen                          !
 ! D71   D(5,8,11,12)          107.6227         estimate D2E/DX2                !
 ! D72   D(5,8,11,27)         -137.2137         estimate D2E/DX2                !
 ! D73   D(7,9,11,8)           178.3427         estimate D2E/DX2                !
 ! D74   D(7,9,11,12)           54.2205         estimate D2E/DX2                !
 ! D75   D(7,9,11,27)          -63.5207         estimate D2E/DX2                !
 ! D76   D(23,9,11,8)           58.7652         estimate D2E/DX2                !
 ! D77   D(23,9,11,12)         -65.3569         estimate D2E/DX2                !
 ! D78   D(23,9,11,27)         176.9018         estimate D2E/DX2                !
 ! D79   D(24,9,11,8)          -60.6316         estimate D2E/DX2                !
 ! D80   D(24,9,11,12)         175.2462         estimate D2E/DX2                !
 ! D81   D(24,9,11,27)          57.505          estimate D2E/DX2                !
 ! D82   D(8,11,12,4)          173.1626         estimate D2E/DX2                !
 ! D83   D(8,11,12,28)          55.107          estimate D2E/DX2                !
 ! D84   D(8,11,12,29)         -65.2845         estimate D2E/DX2                !
 ! D85   D(9,11,12,4)          -58.0998         estimate D2E/DX2                !
 ! D86   D(9,11,12,28)        -176.1554         estimate D2E/DX2                !
 ! D87   D(9,11,12,29)          63.4531         estimate D2E/DX2                !
 ! D88   D(27,11,12,4)          59.9362         estimate D2E/DX2                !
 ! D89   D(27,11,12,28)        -58.1194         estimate D2E/DX2                !
 ! D90   D(27,11,12,29)       -178.5109         estimate D2E/DX2                !
 --------------------------------------------------------------------------------
 Trust Radius=3.00D-01 FncErr=1.00D-07 GrdErr=1.00D-06 EigMax=2.50D+02 EigMin=1.00D-04
 Number of steps in this run=    186 maximum allowed number of steps=    186.
 GradGradGradGradGradGradGradGradGradGradGradGradGradGradGradGradGradGrad

                          Input orientation:                          
 ---------------------------------------------------------------------
 Center     Atomic      Atomic             Coordinates (Angstroms)
 Number     Number       Type             X           Y           Z
 ---------------------------------------------------------------------
      1          6           0       -1.980015   -1.322919    0.733498
      2          8           0       -1.278745   -0.174793    1.193795
      3          6           0       -3.308387    0.123684   -0.808329
      4          8           0        2.898034   -1.150302   -0.747428
      5          6           0       -1.147872    0.880538    0.276006
      6          6           0       -2.501448    1.307448   -0.274527
      7          6           0        3.228920    0.896404    0.497853
      8          8           0       -0.327470    0.528732   -0.799537
      9          6           0        1.715104    1.135530    0.529880
     10          6           0        3.539349   -0.586888    0.382349
     11          6           0        1.088700    0.446231   -0.678948
     12          6           0        1.492694   -1.024775   -0.707039
     13          6           0       -3.378854   -0.968671    0.258186
     14          1           0       -1.416606   -1.795208   -0.063452
     15          1           0       -2.006650   -2.001705    1.574766
     16          1           0       -2.843774   -0.272324   -1.707458
     17          1           0       -4.304958    0.453510   -1.085460
     18          1           0       -0.704393    1.685843    0.836878
     19          1           0       -3.046252    1.775602    0.540885
     20          1           0       -2.347021    2.062426   -1.037723
     21          1           0        3.687135    1.289857    1.400107
     22          1           0        3.670400    1.419590   -0.346297
     23          1           0        1.310398    0.727554    1.450523
     24          1           0        1.505285    2.199987    0.517849
     25          1           0        4.598592   -0.759158    0.249364
     26          1           0        3.214599   -1.116770    1.275020
     27          1           0        1.473711    0.914793   -1.577166
     28          1           0        1.108758   -1.505389   -1.596354
     29          1           0        1.103799   -1.541962    0.165613
     30          1           0       -3.857812   -1.863723   -0.128607
     31          1           0       -3.968903   -0.621508    1.103296
 ---------------------------------------------------------------------
                    Distance matrix (angstroms):
                    1          2          3          4          5
     1  C    0.000000
     2  O    1.421916   0.000000
     3  C    2.496891   2.866537   0.000000
     4  O    5.100814   4.708019   6.336120   0.000000
     5  C    2.399372   1.404702   2.533068   4.641237   0.000000
     6  C    2.864758   2.418266   1.528853   5.951351   1.522336
     7  C    5.666915   4.685173   6.711154   2.418515   4.382440
     8  O    2.917141   2.318026   3.008323   3.636722   1.397719
     9  C    4.442897   3.334796   5.296234   2.873302   2.885499
    10  C    5.579285   4.903294   6.986710   1.416021   4.912707
    11  C    3.813385   3.081823   4.410799   2.413979   2.470387
    12  C    3.771438   3.466484   4.937570   1.411513   3.401350
    13  C    1.519264   2.432296   1.528286   6.359526   2.897787
    14  H    1.084258   2.055583   2.795679   4.415863   2.710547
    15  H    1.081292   2.003146   3.448324   5.493032   3.275912
    16  H    2.794297   3.297893   1.086794   5.887348   2.852947
    17  H    3.445238   3.840278   1.085698   7.387122   3.464554
    18  H    3.269640   1.979706   3.453669   4.850899   1.076925
    19  H    3.282498   2.711902   2.148936   6.749459   2.115454
    20  H    3.838291   3.335571   2.176136   6.157637   2.135580
    21  H    6.275951   5.181479   7.427952   3.344991   4.980807
    22  H    6.372951   5.422912   7.113109   2.713264   4.888106
    23  H    3.942763   2.753870   5.176895   3.298169   2.728733
    24  H    4.960311   3.721197   5.407515   3.842540   2.972991
    25  H    6.620444   5.981348   8.026110   2.009598   5.975882
    26  H    5.226831   4.591738   6.959053   2.047348   4.900859
    27  H    4.719613   4.054804   4.907690   2.642306   3.210626
    28  H    3.873245   3.905840   4.773472   2.012031   3.780312
    29  H    3.143307   2.933057   4.815633   2.050932   3.309186
    30  H    2.135841   3.354522   2.171100   6.821537   3.877945
    31  H    2.141122   2.728497   2.155436   7.131594   3.301328
                    6          7          8          9         10
     6  C    0.000000
     7  C    5.796779   0.000000
     8  O    2.368167   3.803461   0.000000
     9  C    4.296037   1.532921   2.511506   0.000000
    10  C    6.364843   1.519823   4.194491   2.513237   0.000000
    11  C    3.714083   2.483558   1.423687   1.526034   2.863454
    12  C    4.645374   2.856077   2.394773   2.499270   2.359514
    13  C    2.496866   6.870125   3.559767   5.518142   6.929842
    14  H    3.293616   5.398217   2.669969   4.329997   5.120573
    15  H    3.822984   6.080294   3.854876   4.978502   5.846509
    16  H    2.160129   6.565587   2.792454   5.269829   6.723876
    17  H    2.153943   7.711184   3.988461   6.270217   8.047984
    18  H    2.146581   4.026053   2.039321   2.500212   4.835416
    19  H    1.086681   6.336610   3.277681   4.804199   6.998331
    20  H    1.084577   5.899891   2.547064   4.451671   6.609449
    21  H    6.411183   1.085739   4.640560   2.161022   2.140057
    22  H    6.173284   1.086838   4.120925   2.161379   2.138704
    23  H    4.224008   2.148678   2.790145   1.085272   2.799460
    24  H    4.180717   2.161168   2.808485   1.085006   3.452890
    25  H    7.413224   2.163015   5.198552   3.461652   1.081368
    26  H    6.399306   2.158023   4.422411   2.806524   1.087704
    27  H    4.201540   2.717867   1.999501   2.132285   3.218945
    28  H    4.763703   3.827453   2.614444   3.444268   3.265989
    29  H    4.616348   3.251484   2.695889   2.770442   2.625080
    30  H    3.452150   7.631024   4.317094   6.362902   7.523920
    31  H    2.787955   7.381008   4.266598   5.976949   7.542865
                   11         12         13         14         15
    11  C    0.000000
    12  C    1.525732   0.000000
    13  C    4.779038   4.966567   0.000000
    14  H    3.417520   3.077629   2.153377   0.000000
    15  H    4.544536   4.290272   2.164136   1.753440   0.000000
    16  H    4.127773   4.513532   2.152897   2.656829   3.803226
    17  H    5.408960   5.995106   2.164637   3.800501   4.288019
    18  H    2.655099   3.815537   3.812358   3.665455   3.979744
    19  H    4.511435   5.477359   2.778773   3.971354   4.051880
    20  H    3.813789   4.937973   3.454216   4.086100   4.843358
    21  H    3.433080   3.822716   7.505540   6.140668   6.579063
    22  H    2.779075   3.293548   7.467340   6.024330   6.901061
    23  H    2.159384   2.785491   5.127176   4.011608   4.297336
    24  H    2.163683   3.449580   5.827747   4.983667   5.577184
    25  H    3.825450   3.260654   7.980202   6.111780   6.850535
    26  H    3.283353   2.627162   6.673043   4.868249   5.304187
    27  H    1.083780   2.125889   5.519361   4.241387   5.527526
    28  H    2.156585   1.081332   4.885289   2.968374   4.473041
    29  H    2.160190   1.086390   4.520112   2.543432   3.445572
    30  H    5.486961   5.446681   1.086337   2.443036   2.519389
    31  H    5.467706   5.767927   1.087608   3.041890   2.444926
                   16         17         18         19         20
    16  H    0.000000
    17  H    1.746074   0.000000
    18  H    3.858110   4.263578   0.000000
    19  H    3.047957   2.444845   2.362196   0.000000
    20  H    2.479187   2.534641   2.520748   1.750199   0.000000
    21  H    7.399334   8.411366   4.445172   6.805344   6.553695
    22  H    6.866571   8.067590   4.539781   6.784339   6.091031
    23  H    5.313167   6.167539   2.313928   4.572335   4.620602
    24  H    5.475274   6.275325   2.291026   4.571337   4.156800
    25  H    7.710705   9.084356   5.868974   8.059382   7.606541
    26  H    6.805303   8.036254   4.837882   6.935634   6.810850
    27  H    4.479609   5.817867   3.341596   5.065293   4.025674
    28  H    4.141896   5.779846   4.403646   5.709361   4.998378
    29  H    4.550133   5.899300   3.760170   5.326348   5.133010
    30  H    2.460405   2.546581   4.845166   3.788342   4.303908
    31  H    3.047652   2.461554   4.006479   2.629397   3.797100
                   21         22         23         24         25
    21  H    0.000000
    22  H    1.751296   0.000000
    23  H    2.442868   3.045831   0.000000
    24  H    2.523328   2.458351   1.753830   0.000000
    25  H    2.520600   2.441986   3.803330   4.289192   0.000000
    26  H    2.455767   3.044593   2.656749   3.807353   1.759345
    27  H    3.728817   2.568132   3.037866   2.458009   3.987882
    28  H    4.841509   4.084134   3.782876   4.284495   4.017770
    29  H    4.027009   3.952250   2.616177   3.779873   3.582370
    30  H    8.319150   8.215930   5.993226   6.759767   8.536609
    31  H    7.896602   8.039052   5.459996   6.186301   8.611046
                   26         27         28         29         30
    26  H    0.000000
    27  H    3.910614   0.000000
    28  H    3.581952   2.447619   0.000000
    29  H    2.422199   3.034758   1.762354   0.000000
    30  H    7.248938   6.184142   5.191291   4.980731   0.000000
    31  H    7.202602   6.258366   5.818247   5.240114   1.753004
                   31
    31  H    0.000000
 Stoichiometry    C10H18O3
 Framework group  C1[X(C10H18O3)]
 Deg. of freedom    87
 Full point group                 C1      NOp   1
 Largest Abelian subgroup         C1      NOp   1
 Largest concise Abelian subgroup C1      NOp   1
                         Standard orientation:                         
 ---------------------------------------------------------------------
 Center     Atomic      Atomic             Coordinates (Angstroms)
 Number     Number       Type             X           Y           Z
 ---------------------------------------------------------------------
      1          6           0        1.980015    1.322919    0.733498
      2          8           0        1.278745    0.174793    1.193795
      3          6           0        3.308387   -0.123684   -0.808329
      4          8           0       -2.898034    1.150302   -0.747428
      5          6           0        1.147872   -0.880538    0.276006
      6          6           0        2.501448   -1.307448   -0.274527
      7          6           0       -3.228920   -0.896404    0.497853
      8          8           0        0.327470   -0.528732   -0.799537
      9          6           0       -1.715104   -1.135530    0.529880
     10          6           0       -3.539349    0.586888    0.382349
     11          6           0       -1.088700   -0.446231   -0.678948
     12          6           0       -1.492694    1.024775   -0.707039
     13          6           0        3.378854    0.968671    0.258186
     14          1           0        1.416606    1.795208   -0.063452
     15          1           0        2.006650    2.001705    1.574766
     16          1           0        2.843774    0.272324   -1.707458
     17          1           0        4.304958   -0.453510   -1.085460
     18          1           0        0.704393   -1.685843    0.836878
     19          1           0        3.046252   -1.775602    0.540885
     20          1           0        2.347021   -2.062426   -1.037723
     21          1           0       -3.687135   -1.289857    1.400107
     22          1           0       -3.670400   -1.419590   -0.346297
     23          1           0       -1.310398   -0.727554    1.450523
     24          1           0       -1.505285   -2.199987    0.517849
     25          1           0       -4.598592    0.759158    0.249364
     26          1           0       -3.214599    1.116770    1.275020
     27          1           0       -1.473711   -0.914793   -1.577166
     28          1           0       -1.108758    1.505389   -1.596354
     29          1           0       -1.103799    1.541962    0.165613
     30          1           0        3.857812    1.863723   -0.128607
     31          1           0        3.968903    0.621508    1.103296
 ---------------------------------------------------------------------
 Rotational constants (GHZ):           1.8688269           0.4331237           0.4082165
 Standard basis: 6-311++G(2d,2p) (5D, 7F)
 There are   557 symmetry adapted cartesian basis functions of A   symmetry.
 There are   531 symmetry adapted basis functions of A   symmetry.
   531 basis functions,   762 primitive gaussians,   557 cartesian basis functions
    51 alpha electrons       51 beta electrons
       nuclear repulsion energy       901.3972345381 Hartrees.
 NAtoms=   31 NActive=   31 NUniq=   31 SFac= 1.00D+00 NAtFMM=   60 NAOKFM=F Big=F
 Integral buffers will be    131072 words long.
 Raffenetti 2 integral format.
 Two-electron integral symmetry is turned on.
 ------------------------------------------------------------------------------
 Polarizable Continuum Model (PCM)
 =================================
 Model                : PCM.
 Atomic radii         : UFF (Universal Force Field).
 Polarization charges : Total charges.
 Charge compensation  : None.
 Solution method      : On-the-fly selection.
 Cavity type          : Scaled VdW (van der Waals Surface) (Alpha=1.100).
 Cavity algorithm     : GePol (No added spheres)
                        Default sphere list used, NSphG=   31.
                        Lebedev-Laikov grids with approx.  5.0 points / Ang**2.
                        Smoothing algorithm: York/Karplus (Gamma=1.0000).
                        Polarization charges: spherical gaussians, with
                                              point-specific exponents (IZeta= 3).
                        Self-potential: point-specific (ISelfS= 7).
                        Self-field    : sphere-specific E.n sum rule (ISelfD= 2).
 1st derivatives      : Analytical E(r).r(x)/FMM algorithm (CHGder, D1EAlg=3).
                        Cavity 1st derivative terms included.
 Solvent              : Water, Eps=  78.355300 Eps(inf)=   1.777849
 ------------------------------------------------------------------------------
 One-electron integrals computed using PRISM.
 NBasis=   531 RedAO= T EigKep=  4.34D-06  NBF=   531
 NBsUse=   531 1.00D-06 EigRej= -1.00D+00 NBFU=   531
 ExpMin= 3.60D-02 ExpMax= 8.59D+03 ExpMxC= 1.30D+03 IAcc=3 IRadAn=         5 AccDes= 0.00D+00
 Harris functional with IExCor= 1009 and IRadAn=       5 diagonalized for initial guess.
 HarFok:  IExCor= 1009 AccDes= 0.00D+00 IRadAn=         5 IDoV= 1 UseB2=F ITyADJ=14
 ICtDFT=  3500011 ScaDFX=  1.000000  1.000000  1.000000  1.000000
 FoFCou: FMM=F IPFlag=           0 FMFlag=      100000 FMFlg1=           0
         NFxFlg=           0 DoJE=T BraDBF=F KetDBF=T FulRan=T
         wScrn=  0.000000 ICntrl=       500 IOpCl=  0 I1Cent=   200000004 NGrid=           0
         NMat0=    1 NMatS0=      1 NMatT0=    0 NMatD0=    1 NMtDS0=    0 NMtDT0=    0
 Petite list used in FoFCou.
 Requested convergence on RMS density matrix=1.00D-08 within 128 cycles.
 Requested convergence on MAX density matrix=1.00D-06.
 Requested convergence on             energy=1.00D-06.
 No special actions if energy rises.
 Inv3:  Mode=1 IEnd=    12423675.
 Iteration    1 A*A^-1 deviation from unit magnitude is 4.44D-15 for   2019.
 Iteration    1 A*A^-1 deviation from orthogonality  is 2.18D-15 for   2008    933.
 Iteration    1 A^-1*A deviation from unit magnitude is 4.22D-15 for   2019.
 Iteration    1 A^-1*A deviation from orthogonality  is 2.10D-15 for   2034   1582.
 Error on total polarization charges =  0.01465
 SCF Done:  E(RM062X) =  -617.498372412     A.U. after   12 cycles
            NFock= 12  Conv=0.68D-08     -V/T= 2.0035

 **********************************************************************

            Population analysis using the SCF density.

 **********************************************************************

 Orbital symmetries:
       Occupied  (A) (A) (A) (A) (A) (A) (A) (A) (A) (A) (A) (A)
                 (A) (A) (A) (A) (A) (A) (A) (A) (A) (A) (A) (A)
                 (A) (A) (A) (A) (A) (A) (A) (A) (A) (A) (A) (A)
                 (A) (A) (A) (A) (A) (A) (A) (A) (A) (A) (A) (A)
                 (A) (A) (A)
       Virtual   (A) (A) (A) (A) (A) (A) (A) (A) (A) (A) (A) (A)
                 (A) (A) (A) (A) (A) (A) (A) (A) (A) (A) (A) (A)
                 (A) (A) (A) (A) (A) (A) (A) (A) (A) (A) (A) (A)
                 (A) (A) (A) (A) (A) (A) (A) (A) (A) (A) (A) (A)
                 (A) (A) (A) (A) (A) (A) (A) (A) (A) (A) (A) (A)
                 (A) (A) (A) (A) (A) (A) (A) (A) (A) (A) (A) (A)
                 (A) (A) (A) (A) (A) (A) (A) (A) (A) (A) (A) (A)
                 (A) (A) (A) (A) (A) (A) (A) (A) (A) (A) (A) (A)
                 (A) (A) (A) (A) (A) (A) (A) (A) (A) (A) (A) (A)
                 (A) (A) (A) (A) (A) (A) (A) (A) (A) (A) (A) (A)
                 (A) (A) (A) (A) (A) (A) (A) (A) (A) (A) (A) (A)
                 (A) (A) (A) (A) (A) (A) (A) (A) (A) (A) (A) (A)
                 (A) (A) (A) (A) (A) (A) (A) (A) (A) (A) (A) (A)
                 (A) (A) (A) (A) (A) (A) (A) (A) (A) (A) (A) (A)
                 (A) (A) (A) (A) (A) (A) (A) (A) (A) (A) (A) (A)
                 (A) (A) (A) (A) (A) (A) (A) (A) (A) (A) (A) (A)
                 (A) (A) (A) (A) (A) (A) (A) (A) (A) (A) (A) (A)
                 (A) (A) (A) (A) (A) (A) (A) (A) (A) (A) (A) (A)
                 (A) (A) (A) (A) (A) (A) (A) (A) (A) (A) (A) (A)
                 (A) (A) (A) (A) (A) (A) (A) (A) (A) (A) (A) (A)
                 (A) (A) (A) (A) (A) (A) (A) (A) (A) (A) (A) (A)
                 (A) (A) (A) (A) (A) (A) (A) (A) (A) (A) (A) (A)
                 (A) (A) (A) (A) (A) (A) (A) (A) (A) (A) (A) (A)
                 (A) (A) (A) (A) (A) (A) (A) (A) (A) (A) (A) (A)
                 (A) (A) (A) (A) (A) (A) (A) (A) (A) (A) (A) (A)
                 (A) (A) (A) (A) (A) (A) (A) (A) (A) (A) (A) (A)
                 (A) (A) (A) (A) (A) (A) (A) (A) (A) (A) (A) (A)
                 (A) (A) (A) (A) (A) (A) (A) (A) (A) (A) (A) (A)
                 (A) (A) (A) (A) (A) (A) (A) (A) (A) (A) (A) (A)
                 (A) (A) (A) (A) (A) (A) (A) (A) (A) (A) (A) (A)
                 (A) (A) (A) (A) (A) (A) (A) (A) (A) (A) (A) (A)
                 (A) (A) (A) (A) (A) (A) (A) (A) (A) (A) (A) (A)
                 (A) (A) (A) (A) (A) (A) (A) (A) (A) (A) (A) (A)
                 (A) (A) (A) (A) (A) (A) (A) (A) (A) (A) (A) (A)
                 (A) (A) (A) (A) (A) (A) (A) (A) (A) (A) (A) (A)
                 (A) (A) (A) (A) (A) (A) (A) (A) (A) (A) (A) (A)
                 (A) (A) (A) (A) (A) (A) (A) (A) (A) (A) (A) (A)
                 (A) (A) (A) (A) (A) (A) (A) (A) (A) (A) (A) (A)
                 (A) (A) (A) (A) (A) (A) (A) (A) (A) (A) (A) (A)
                 (A) (A) (A) (A) (A) (A) (A) (A) (A) (A) (A) (A)
 The electronic state is 1-A.
 Alpha  occ. eigenvalues --  -19.62904 -19.62863 -19.62632 -10.63329 -10.58846
 Alpha  occ. eigenvalues --  -10.57877 -10.57666 -10.57584 -10.53446 -10.53293
 Alpha  occ. eigenvalues --  -10.52922 -10.52881 -10.52721  -1.19889  -1.16717
 Alpha  occ. eigenvalues --   -1.13365  -0.90961  -0.89725  -0.87757  -0.84658
 Alpha  occ. eigenvalues --   -0.75447  -0.74118  -0.73143  -0.70946  -0.66861
 Alpha  occ. eigenvalues --   -0.62572  -0.60391  -0.58592  -0.57452  -0.55903
 Alpha  occ. eigenvalues --   -0.53910  -0.53305  -0.52786  -0.51035  -0.49870
 Alpha  occ. eigenvalues --   -0.49045  -0.46710  -0.46190  -0.45458  -0.45118
 Alpha  occ. eigenvalues --   -0.43852  -0.43228  -0.40823  -0.40227  -0.39167
 Alpha  occ. eigenvalues --   -0.38378  -0.37941  -0.36042  -0.35014  -0.33226
 Alpha  occ. eigenvalues --   -0.31698
 Alpha virt. eigenvalues --   -0.00094   0.00773   0.00887   0.00953   0.02216
 Alpha virt. eigenvalues --    0.02499   0.02653   0.03360   0.03576   0.04407
 Alpha virt. eigenvalues --    0.04682   0.04875   0.05627   0.05883   0.07172
 Alpha virt. eigenvalues --    0.07435   0.07576   0.08146   0.08808   0.09508
 Alpha virt. eigenvalues --    0.10301   0.10817   0.11182   0.11683   0.11975
 Alpha virt. eigenvalues --    0.12684   0.12759   0.13053   0.13227   0.13426
 Alpha virt. eigenvalues --    0.13547   0.14176   0.14416   0.14822   0.14993
 Alpha virt. eigenvalues --    0.15249   0.15424   0.15641   0.16014   0.16274
 Alpha virt. eigenvalues --    0.16809   0.16924   0.17356   0.17567   0.17736
 Alpha virt. eigenvalues --    0.18005   0.18083   0.18508   0.18860   0.19067
 Alpha virt. eigenvalues --    0.19731   0.20185   0.20396   0.21200   0.21453
 Alpha virt. eigenvalues --    0.21701   0.22614   0.23242   0.23606   0.24105
 Alpha virt. eigenvalues --    0.24560   0.25791   0.26411   0.27019   0.27524
 Alpha virt. eigenvalues --    0.27969   0.28405   0.28648   0.29303   0.29506
 Alpha virt. eigenvalues --    0.29983   0.30221   0.30456   0.31685   0.31988
 Alpha virt. eigenvalues --    0.32144   0.32970   0.33537   0.34027   0.34649
 Alpha virt. eigenvalues --    0.35011   0.35507   0.35763   0.36037   0.36433
 Alpha virt. eigenvalues --    0.36837   0.36985   0.37523   0.37707   0.38118
 Alpha virt. eigenvalues --    0.38644   0.38903   0.39215   0.39845   0.40413
 Alpha virt. eigenvalues --    0.41952   0.42234   0.42649   0.43782   0.44795
 Alpha virt. eigenvalues --    0.45907   0.47114   0.49440   0.49695   0.50728
 Alpha virt. eigenvalues --    0.51075   0.52702   0.53642   0.54336   0.55277
 Alpha virt. eigenvalues --    0.56588   0.57024   0.58092   0.58217   0.59633
 Alpha virt. eigenvalues --    0.60110   0.60376   0.61157   0.61718   0.61850
 Alpha virt. eigenvalues --    0.62348   0.62910   0.63393   0.63908   0.64575
 Alpha virt. eigenvalues --    0.64907   0.65545   0.65815   0.66631   0.67456
 Alpha virt. eigenvalues --    0.68342   0.68506   0.69724   0.69930   0.71202
 Alpha virt. eigenvalues --    0.71565   0.72394   0.72696   0.72832   0.73010
 Alpha virt. eigenvalues --    0.74164   0.74289   0.74705   0.75163   0.76041
 Alpha virt. eigenvalues --    0.76337   0.76974   0.77231   0.77960   0.78821
 Alpha virt. eigenvalues --    0.79840   0.81644   0.82938   0.83379   0.85632
 Alpha virt. eigenvalues --    0.86843   0.87680   0.88219   0.88845   0.89664
 Alpha virt. eigenvalues --    0.91321   0.91791   0.92781   0.93740   0.95572
 Alpha virt. eigenvalues --    0.95966   0.97338   0.99598   1.01207   1.01709
 Alpha virt. eigenvalues --    1.02566   1.03539   1.05254   1.05529   1.06982
 Alpha virt. eigenvalues --    1.08530   1.08982   1.09956   1.11423   1.12262
 Alpha virt. eigenvalues --    1.12984   1.13734   1.15555   1.15985   1.17167
 Alpha virt. eigenvalues --    1.17282   1.18331   1.19332   1.19583   1.20658
 Alpha virt. eigenvalues --    1.21111   1.22025   1.22596   1.24480   1.24977
 Alpha virt. eigenvalues --    1.25583   1.26426   1.26595   1.27246   1.27662
 Alpha virt. eigenvalues --    1.28594   1.29088   1.29798   1.31728   1.32508
 Alpha virt. eigenvalues --    1.32683   1.33651   1.33716   1.34651   1.35172
 Alpha virt. eigenvalues --    1.35391   1.36279   1.36838   1.37276   1.38468
 Alpha virt. eigenvalues --    1.39229   1.40390   1.41025   1.41789   1.42268
 Alpha virt. eigenvalues --    1.42635   1.43532   1.44300   1.45259   1.45514
 Alpha virt. eigenvalues --    1.45713   1.47111   1.47795   1.47986   1.48381
 Alpha virt. eigenvalues --    1.49078   1.49916   1.50675   1.51537   1.51930
 Alpha virt. eigenvalues --    1.52911   1.53546   1.54418   1.56211   1.56237
 Alpha virt. eigenvalues --    1.56428   1.57245   1.57782   1.58481   1.58912
 Alpha virt. eigenvalues --    1.60157   1.60617   1.61266   1.62214   1.62870
 Alpha virt. eigenvalues --    1.63467   1.64895   1.65640   1.66305   1.67872
 Alpha virt. eigenvalues --    1.68389   1.69385   1.70098   1.71844   1.72687
 Alpha virt. eigenvalues --    1.73980   1.74397   1.74866   1.75757   1.76522
 Alpha virt. eigenvalues --    1.79000   1.79721   1.81232   1.82375   1.83874
 Alpha virt. eigenvalues --    1.85487   1.89392   1.90548   1.94044   1.97452
 Alpha virt. eigenvalues --    2.04952   2.05885   2.12506   2.18731   2.21464
 Alpha virt. eigenvalues --    2.23429   2.27368   2.31585   2.33795   2.39818
 Alpha virt. eigenvalues --    2.41242   2.44259   2.45582   2.46650   2.55178
 Alpha virt. eigenvalues --    2.60142   2.76442   2.76754   2.81388   2.83282
 Alpha virt. eigenvalues --    2.83692   2.89213   2.92520   2.93236   2.94963
 Alpha virt. eigenvalues --    2.95281   2.98222   3.02158   3.03446   3.04424
 Alpha virt. eigenvalues --    3.07463   3.08138   3.09155   3.09754   3.12075
 Alpha virt. eigenvalues --    3.13014   3.15678   3.17811   3.20504   3.22758
 Alpha virt. eigenvalues --    3.23585   3.27405   3.32010   3.33336   3.33727
 Alpha virt. eigenvalues --    3.35998   3.37434   3.38153   3.40290   3.41336
 Alpha virt. eigenvalues --    3.43253   3.43528   3.44609   3.45551   3.47392
 Alpha virt. eigenvalues --    3.48122   3.49796   3.50219   3.51369   3.52664
 Alpha virt. eigenvalues --    3.53064   3.53824   3.55171   3.55401   3.56340
 Alpha virt. eigenvalues --    3.57011   3.58040   3.58736   3.59540   3.60025
 Alpha virt. eigenvalues --    3.60785   3.61827   3.62874   3.63641   3.64750
 Alpha virt. eigenvalues --    3.65721   3.66269   3.68162   3.68367   3.70074
 Alpha virt. eigenvalues --    3.70435   3.71093   3.71779   3.73791   3.74597
 Alpha virt. eigenvalues --    3.75292   3.75893   3.76591   3.76714   3.78312
 Alpha virt. eigenvalues --    3.78679   3.78920   3.79194   3.83128   3.84224
 Alpha virt. eigenvalues --    3.87129   3.88145   3.88714   3.90640   3.91830
 Alpha virt. eigenvalues --    3.93663   3.94199   3.95858   3.97093   3.98308
 Alpha virt. eigenvalues --    3.99238   4.00597   4.02418   4.03335   4.03982
 Alpha virt. eigenvalues --    4.04857   4.05932   4.07289   4.07750   4.08131
 Alpha virt. eigenvalues --    4.08305   4.09278   4.10463   4.10724   4.11785
 Alpha virt. eigenvalues --    4.12655   4.13806   4.14857   4.15619   4.16441
 Alpha virt. eigenvalues --    4.17996   4.18167   4.18783   4.19961   4.21207
 Alpha virt. eigenvalues --    4.23122   4.24954   4.26297   4.27042   4.28186
 Alpha virt. eigenvalues --    4.28982   4.30760   4.31142   4.32167   4.32826
 Alpha virt. eigenvalues --    4.34402   4.35440   4.37426   4.38954   4.39169
 Alpha virt. eigenvalues --    4.41090   4.42556   4.43946   4.47060   4.49071
 Alpha virt. eigenvalues --    4.58047   4.61177   4.75401   4.76452   4.83866
 Alpha virt. eigenvalues --    4.85551   4.92616   4.95371   4.99420   5.01534
 Alpha virt. eigenvalues --    5.06789   5.07129   5.08129   5.08399   5.12262
 Alpha virt. eigenvalues --    5.12592   5.14183   5.15779   5.30484   5.39261
 Alpha virt. eigenvalues --    5.41142   5.58137   5.60036   5.66394   5.85435
 Alpha virt. eigenvalues --    5.88378   6.02117   7.01735   7.05155   7.05955
 Alpha virt. eigenvalues --    7.09288   7.10852   7.12918   7.16494   7.20517
 Alpha virt. eigenvalues --    7.28446   7.36376   7.40626   7.44685   7.53493
 Alpha virt. eigenvalues --    7.54865   7.65124  23.96401  23.97285  24.06874
 Alpha virt. eigenvalues --   24.07086  24.10707  24.11488  24.13637  24.16063
 Alpha virt. eigenvalues --   24.18583  24.21214  50.16281  50.18671  50.26816
          Condensed to atoms (all electrons):
               1          2          3          4          5          6
     1  C    5.584530   0.107812   0.018920   0.002086  -0.466085   0.167004
     2  O    0.107812   8.217276   0.011612   0.000238   0.258565  -0.015690
     3  C    0.018920   0.011612   5.752203   0.000589  -0.190797  -0.139395
     4  O    0.002086   0.000238   0.000589   8.340992  -0.007758   0.004904
     5  C   -0.466085   0.258565  -0.190797  -0.007758   8.053270  -1.854162
     6  C    0.167004  -0.015690  -0.139395   0.004904  -1.854162   7.917168
     7  C    0.008082  -0.024637   0.003912  -0.024092  -0.156277  -0.052830
     8  O   -0.003846  -0.050344  -0.009534  -0.000153   0.323087  -0.117895
     9  C   -0.022168  -0.070369  -0.000205  -0.026742   0.527947  -0.431080
    10  C   -0.005207   0.002909   0.001420   0.079412  -0.025423  -0.004289
    11  C    0.117584   0.121925   0.066453   0.001312  -1.186543   0.527381
    12  C   -0.004289  -0.042984  -0.022730   0.183415   0.278076  -0.116075
    13  C   -0.210009  -0.068315  -0.042689  -0.000708   0.251638  -0.114975
    14  H    0.454347  -0.028688   0.012275   0.002678  -0.003890   0.016349
    15  H    0.423612  -0.070420   0.004737   0.000490   0.000409  -0.009708
    16  H    0.004709   0.002889   0.521775   0.000030  -0.020208  -0.047449
    17  H    0.013500  -0.005430   0.431436   0.000030   0.009623  -0.047685
    18  H   -0.037213  -0.079466  -0.027377  -0.001461   0.599741  -0.147216
    19  H    0.013015  -0.005843  -0.004174   0.000008  -0.179215   0.547573
    20  H    0.006817   0.008974  -0.033338  -0.000052   0.016979   0.381102
    21  H    0.000227  -0.000782  -0.000305   0.009396   0.000861  -0.000037
    22  H    0.000453   0.000290   0.000239  -0.009409  -0.000161   0.001300
    23  H    0.003382  -0.002344   0.001195   0.000479  -0.026625  -0.020731
    24  H   -0.000104   0.003603   0.002099  -0.000384  -0.010223   0.022078
    25  H   -0.000239  -0.000130   0.000198  -0.070894  -0.003008  -0.000747
    26  H   -0.000483   0.000987  -0.000043  -0.038803   0.004490   0.002514
    27  H    0.003624   0.001980   0.001498   0.007364  -0.029289   0.018713
    28  H   -0.005401   0.000144  -0.007856  -0.061712   0.017701   0.002684
    29  H    0.029079  -0.001427  -0.004783  -0.048493  -0.054090   0.026411
    30  H   -0.035080   0.008494  -0.044353   0.000002   0.024154  -0.024135
    31  H   -0.081774   0.002620  -0.023227  -0.000009  -0.004656   0.003442
               7          8          9         10         11         12
     1  C    0.008082  -0.003846  -0.022168  -0.005207   0.117584  -0.004289
     2  O   -0.024637  -0.050344  -0.070369   0.002909   0.121925  -0.042984
     3  C    0.003912  -0.009534  -0.000205   0.001420   0.066453  -0.022730
     4  O   -0.024092  -0.000153  -0.026742   0.079412   0.001312   0.183415
     5  C   -0.156277   0.323087   0.527947  -0.025423  -1.186543   0.278076
     6  C   -0.052830  -0.117895  -0.431080  -0.004289   0.527381  -0.116075
     7  C    6.225342   0.010888  -0.454587   0.121428  -0.037237   0.092803
     8  O    0.010888   8.337596   0.017602   0.000074  -0.061740  -0.037966
     9  C   -0.454587   0.017602   6.711412  -0.105261  -1.129215   0.440828
    10  C    0.121428   0.000074  -0.105261   5.386167   0.151168  -0.204949
    11  C   -0.037237  -0.061740  -1.129215   0.151168   7.787081  -0.895695
    12  C    0.092803  -0.037966   0.440828  -0.204949  -0.895695   6.035944
    13  C   -0.009079  -0.020456   0.001296   0.004852   0.004685  -0.005248
    14  H   -0.003593   0.012711   0.011110  -0.002564  -0.043042   0.019860
    15  H    0.000217  -0.000147   0.005239  -0.001355  -0.005845   0.008111
    16  H    0.000949  -0.002127  -0.002020   0.000145  -0.003697   0.002158
    17  H   -0.000364  -0.000660  -0.002534   0.000040   0.009731  -0.003090
    18  H    0.002402  -0.021690   0.075652   0.004651  -0.142838   0.030512
    19  H    0.000746   0.008600  -0.008804  -0.000007   0.022809  -0.002812
    20  H   -0.000803  -0.001978   0.011548  -0.000799  -0.026387   0.007784
    21  H    0.436968  -0.001386  -0.039357  -0.035921   0.001243   0.000478
    22  H    0.447524   0.000315   0.011849  -0.075740  -0.012937   0.000053
    23  H   -0.061293  -0.004138   0.469263  -0.004187   0.041809  -0.059429
    24  H    0.021557  -0.000183   0.365780  -0.002674   0.000895   0.001992
    25  H   -0.023302   0.000549  -0.008231   0.427022   0.001812   0.015834
    26  H   -0.053725  -0.001014  -0.006446   0.457213   0.036533  -0.031704
    27  H   -0.028915  -0.069422  -0.035533   0.008185   0.549009  -0.132572
    28  H   -0.006107   0.002616   0.018683   0.001708  -0.083465   0.474665
    29  H    0.023749   0.000056  -0.117723  -0.010597   0.140134   0.323824
    30  H    0.000470   0.000762   0.002980  -0.000032  -0.002593   0.001821
    31  H   -0.000415  -0.000682  -0.002483   0.000119  -0.003402  -0.000225
              13         14         15         16         17         18
     1  C   -0.210009   0.454347   0.423612   0.004709   0.013500  -0.037213
     2  O   -0.068315  -0.028688  -0.070420   0.002889  -0.005430  -0.079466
     3  C   -0.042689   0.012275   0.004737   0.521775   0.431436  -0.027377
     4  O   -0.000708   0.002678   0.000490   0.000030   0.000030  -0.001461
     5  C    0.251638  -0.003890   0.000409  -0.020208   0.009623   0.599741
     6  C   -0.114975   0.016349  -0.009708  -0.047449  -0.047685  -0.147216
     7  C   -0.009079  -0.003593   0.000217   0.000949  -0.000364   0.002402
     8  O   -0.020456   0.012711  -0.000147  -0.002127  -0.000660  -0.021690
     9  C    0.001296   0.011110   0.005239  -0.002020  -0.002534   0.075652
    10  C    0.004852  -0.002564  -0.001355   0.000145   0.000040   0.004651
    11  C    0.004685  -0.043042  -0.005845  -0.003697   0.009731  -0.142838
    12  C   -0.005248   0.019860   0.008111   0.002158  -0.003090   0.030512
    13  C    5.921868  -0.075837  -0.004292  -0.078066  -0.030350   0.019487
    14  H   -0.075837   0.528694  -0.020146   0.000158  -0.001340   0.000385
    15  H   -0.004292  -0.020146   0.480926  -0.002828   0.001300  -0.000395
    16  H   -0.078066   0.000158  -0.002828   0.459242  -0.005729  -0.003595
    17  H   -0.030350  -0.001340   0.001300  -0.005729   0.461605   0.001261
    18  H    0.019487   0.000385  -0.000395  -0.003595   0.001261   0.496195
    19  H   -0.011071  -0.001421   0.000859   0.002204  -0.003210  -0.020654
    20  H   -0.005864  -0.000499   0.001043  -0.001840  -0.009531  -0.009660
    21  H    0.000097  -0.000272   0.000086   0.000026  -0.000008   0.001378
    22  H   -0.000071   0.000362  -0.000003  -0.000109   0.000023  -0.000865
    23  H    0.002896  -0.001598   0.000368  -0.000642   0.000118  -0.004138
    24  H   -0.000002   0.000679  -0.000034   0.000305  -0.000032  -0.013326
    25  H    0.000024  -0.000140  -0.000039   0.000020  -0.000002  -0.000452
    26  H    0.000016   0.001043  -0.000386   0.000058   0.000003  -0.000223
    27  H   -0.001905   0.000893  -0.000272   0.000747   0.000209  -0.006667
    28  H    0.012287  -0.010966   0.001910  -0.002184  -0.000010   0.001029
    29  H   -0.029093  -0.000977  -0.005473   0.003175  -0.000185  -0.005263
    30  H    0.437757  -0.000676  -0.009500  -0.003494  -0.008469   0.001768
    31  H    0.480214   0.003964  -0.007194   0.001320  -0.000293   0.000692
              19         20         21         22         23         24
     1  C    0.013015   0.006817   0.000227   0.000453   0.003382  -0.000104
     2  O   -0.005843   0.008974  -0.000782   0.000290  -0.002344   0.003603
     3  C   -0.004174  -0.033338  -0.000305   0.000239   0.001195   0.002099
     4  O    0.000008  -0.000052   0.009396  -0.009409   0.000479  -0.000384
     5  C   -0.179215   0.016979   0.000861  -0.000161  -0.026625  -0.010223
     6  C    0.547573   0.381102  -0.000037   0.001300  -0.020731   0.022078
     7  C    0.000746  -0.000803   0.436968   0.447524  -0.061293   0.021557
     8  O    0.008600  -0.001978  -0.001386   0.000315  -0.004138  -0.000183
     9  C   -0.008804   0.011548  -0.039357   0.011849   0.469263   0.365780
    10  C   -0.000007  -0.000799  -0.035921  -0.075740  -0.004187  -0.002674
    11  C    0.022809  -0.026387   0.001243  -0.012937   0.041809   0.000895
    12  C   -0.002812   0.007784   0.000478   0.000053  -0.059429   0.001992
    13  C   -0.011071  -0.005864   0.000097  -0.000071   0.002896  -0.000002
    14  H   -0.001421  -0.000499  -0.000272   0.000362  -0.001598   0.000679
    15  H    0.000859   0.001043   0.000086  -0.000003   0.000368  -0.000034
    16  H    0.002204  -0.001840   0.000026  -0.000109  -0.000642   0.000305
    17  H   -0.003210  -0.009531  -0.000008   0.000023   0.000118  -0.000032
    18  H   -0.020654  -0.009660   0.001378  -0.000865  -0.004138  -0.013326
    19  H    0.455512  -0.003912   0.000064  -0.000061   0.000137   0.001121
    20  H   -0.003912   0.474067  -0.000077   0.000160   0.000109  -0.000665
    21  H    0.000064  -0.000077   0.491597  -0.010388  -0.006968  -0.011516
    22  H   -0.000061   0.000160  -0.010388   0.476490   0.003338  -0.006453
    23  H    0.000137   0.000109  -0.006968   0.003338   0.454124  -0.025790
    24  H    0.001121  -0.000665  -0.011516  -0.006453  -0.025790   0.477817
    25  H    0.000017  -0.000037  -0.009823  -0.003315   0.000171   0.001055
    26  H   -0.000036   0.000000   0.005903   0.001393  -0.010101   0.001064
    27  H    0.000388  -0.001030  -0.000601  -0.003203   0.007731  -0.001475
    28  H    0.000325  -0.000127   0.001420  -0.000207  -0.000576  -0.000397
    29  H    0.000082  -0.000197   0.000137  -0.002318  -0.002656  -0.000020
    30  H   -0.002515   0.001220   0.000014  -0.000005   0.000249  -0.000109
    31  H   -0.003734  -0.000971  -0.000021   0.000001  -0.000396   0.000076
              25         26         27         28         29         30
     1  C   -0.000239  -0.000483   0.003624  -0.005401   0.029079  -0.035080
     2  O   -0.000130   0.000987   0.001980   0.000144  -0.001427   0.008494
     3  C    0.000198  -0.000043   0.001498  -0.007856  -0.004783  -0.044353
     4  O   -0.070894  -0.038803   0.007364  -0.061712  -0.048493   0.000002
     5  C   -0.003008   0.004490  -0.029289   0.017701  -0.054090   0.024154
     6  C   -0.000747   0.002514   0.018713   0.002684   0.026411  -0.024135
     7  C   -0.023302  -0.053725  -0.028915  -0.006107   0.023749   0.000470
     8  O    0.000549  -0.001014  -0.069422   0.002616   0.000056   0.000762
     9  C   -0.008231  -0.006446  -0.035533   0.018683  -0.117723   0.002980
    10  C    0.427022   0.457213   0.008185   0.001708  -0.010597  -0.000032
    11  C    0.001812   0.036533   0.549009  -0.083465   0.140134  -0.002593
    12  C    0.015834  -0.031704  -0.132572   0.474665   0.323824   0.001821
    13  C    0.000024   0.000016  -0.001905   0.012287  -0.029093   0.437757
    14  H   -0.000140   0.001043   0.000893  -0.010966  -0.000977  -0.000676
    15  H   -0.000039  -0.000386  -0.000272   0.001910  -0.005473  -0.009500
    16  H    0.000020   0.000058   0.000747  -0.002184   0.003175  -0.003494
    17  H   -0.000002   0.000003   0.000209  -0.000010  -0.000185  -0.008469
    18  H   -0.000452  -0.000223  -0.006667   0.001029  -0.005263   0.001768
    19  H    0.000017  -0.000036   0.000388   0.000325   0.000082  -0.002515
    20  H   -0.000037   0.000000  -0.001030  -0.000127  -0.000197   0.001220
    21  H   -0.009823   0.005903  -0.000601   0.001420   0.000137   0.000014
    22  H   -0.003315   0.001393  -0.003203  -0.000207  -0.002318  -0.000005
    23  H    0.000171  -0.010101   0.007731  -0.000576  -0.002656   0.000249
    24  H    0.001055   0.001064  -0.001475  -0.000397  -0.000020  -0.000109
    25  H    0.467785  -0.007276  -0.001029   0.002447  -0.001846   0.000008
    26  H   -0.007276   0.498024   0.001408  -0.003636   0.002635  -0.000061
    27  H   -0.001029   0.001408   0.451455  -0.009941   0.009463  -0.000119
    28  H    0.002447  -0.003636  -0.009941   0.477919  -0.032651   0.000063
    29  H   -0.001846   0.002635   0.009463  -0.032651   0.545755  -0.000215
    30  H    0.000008  -0.000061  -0.000119   0.000063  -0.000215   0.488993
    31  H   -0.000002   0.000031  -0.000067  -0.000017   0.000936  -0.011516
              31
     1  C   -0.081774
     2  O    0.002620
     3  C   -0.023227
     4  O   -0.000009
     5  C   -0.004656
     6  C    0.003442
     7  C   -0.000415
     8  O   -0.000682
     9  C   -0.002483
    10  C    0.000119
    11  C   -0.003402
    12  C   -0.000225
    13  C    0.480214
    14  H    0.003964
    15  H   -0.007194
    16  H    0.001320
    17  H   -0.000293
    18  H    0.000692
    19  H   -0.003734
    20  H   -0.000971
    21  H   -0.000021
    22  H    0.000001
    23  H   -0.000396
    24  H    0.000076
    25  H   -0.000002
    26  H    0.000031
    27  H   -0.000067
    28  H   -0.000017
    29  H    0.000936
    30  H   -0.011516
    31  H    0.483299
 Mulliken charges:
               1
     1  C   -0.086887
     2  O   -0.283448
     3  C   -0.279757
     4  O   -0.342756
     5  C   -0.148130
     6  C   -0.494522
     7  C   -0.459781
     8  O   -0.309496
     9  C   -0.208433
    10  C   -0.167508
    11  C    0.053073
    12  C   -0.358391
    13  C   -0.429087
    14  H    0.130141
    15  H    0.208732
    16  H    0.174079
    17  H    0.190043
    18  H    0.287347
    19  H    0.194011
    20  H    0.187965
    21  H    0.167565
    22  H    0.181456
    23  H    0.246243
    24  H    0.173265
    25  H    0.213574
    26  H    0.140622
    27  H    0.259370
    28  H    0.209655
    29  H    0.212572
    30  H    0.174115
    31  H    0.164371
 Sum of Mulliken charges =  -0.00000
 Mulliken charges with hydrogens summed into heavy atoms:
               1
     1  C    0.251985
     2  O   -0.283448
     3  C    0.084365
     4  O   -0.342756
     5  C    0.139216
     6  C   -0.112547
     7  C   -0.110760
     8  O   -0.309496
     9  C    0.211075
    10  C    0.186688
    11  C    0.312444
    12  C    0.063836
    13  C   -0.090602
 Electronic spatial extent (au):  <R**2>=           2926.9637
 Charge=             -0.0000 electrons
 Dipole moment (field-independent basis, Debye):
    X=              0.8866    Y=             -1.2984    Z=              1.1565  Tot=              1.9517
 Quadrupole moment (field-independent basis, Debye-Ang):
   XX=            -74.5346   YY=            -77.4645   ZZ=            -84.1376
   XY=              5.7687   XZ=             -5.8369   YZ=              1.0109
 Traceless Quadrupole moment (field-independent basis, Debye-Ang):
   XX=              4.1776   YY=              1.2478   ZZ=             -5.4254
   XY=              5.7687   XZ=             -5.8369   YZ=              1.0109
 Octapole moment (field-independent basis, Debye-Ang**2):
  XXX=              5.3627  YYY=             -1.9511  ZZZ=             -3.0691  XYY=              9.8672
  XXY=            -12.6367  XXZ=             18.1869  XZZ=             -3.0044  YZZ=              0.9882
  YYZ=              4.5251  XYZ=             -5.1079
 Hexadecapole moment (field-independent basis, Debye-Ang**3):
 XXXX=          -2861.8491 YYYY=           -571.4495 ZZZZ=           -365.2186 XXXY=             29.2985
 XXXZ=            -54.1585 YYYX=             11.0791 YYYZ=              4.1894 ZZZX=              2.3220
 ZZZY=              1.1560 XXYY=           -600.0099 XXZZ=           -569.4722 YYZZ=           -149.2009
 XXYZ=             22.7191 YYXZ=             -1.2996 ZZXY=              6.6207
 N-N= 9.013972345381D+02 E-N=-3.244608719734D+03  KE= 6.153353064681D+02
 D1PCM: PCM CHGder 1st derivatives, ID1Alg=3 FixD1E=F DoIter=F DoCFld=F I1PDM=0.
 Calling FoFJK, ICntrl=      2127 FMM=F ISym2X=0 I1Cent= 0 IOpClX= 0 NMat=1 NMatS=1 NMatT=0.
 ***** Axes restored to original set *****
 -------------------------------------------------------------------
 Center     Atomic                   Forces (Hartrees/Bohr)
 Number     Number              X              Y              Z
 -------------------------------------------------------------------
      1        6          -0.003593746    0.005497346   -0.002225074
      2        8           0.004640322    0.000496340    0.010869870
      3        6           0.002012270    0.000060308    0.003399076
      4        8           0.004532295   -0.004060638   -0.006916843
      5        6          -0.002333092   -0.006608674   -0.004042094
      6        6           0.000389367   -0.002187038   -0.001661521
      7        6          -0.001802654   -0.001451321    0.001585139
      8        8          -0.005195580    0.001124858   -0.010348434
      9        6           0.002251661   -0.001717169   -0.004626437
     10        6          -0.005028198    0.004293887   -0.002471773
     11        6          -0.002885884   -0.003256640    0.009441547
     12        6           0.005104876    0.005658894    0.001303677
     13        6           0.002070317    0.000179051   -0.002049049
     14        1           0.003007337   -0.002427400   -0.005739830
     15        1          -0.000188064   -0.002762412    0.003435062
     16        1           0.002520614   -0.001154872   -0.002321922
     17        1          -0.002395220    0.000799120   -0.000537110
     18        1           0.003305512    0.005742290    0.005336176
     19        1          -0.001622545    0.000938620    0.002901397
     20        1           0.000669399    0.001901699   -0.002377389
     21        1           0.001209919    0.001433690    0.002417820
     22        1           0.001059261    0.001048308   -0.002929035
     23        1          -0.003024838   -0.002900711    0.003448353
     24        1          -0.000919976    0.003436453   -0.000220289
     25        1           0.004294564   -0.000533457   -0.000579271
     26        1          -0.002027412   -0.001884322    0.005563141
     27        1           0.003576220    0.002008861   -0.004554541
     28        1          -0.002459066   -0.001536369   -0.004018050
     29        1          -0.004467546   -0.001453869    0.006324869
     30        1          -0.001523002   -0.002130154   -0.001154074
     31        1          -0.001177110    0.001445320    0.002746611
 -------------------------------------------------------------------
 Cartesian Forces:  Max     0.010869870 RMS     0.003599603

 GradGradGradGradGradGradGradGradGradGradGradGradGradGradGradGradGradGrad
 Berny optimization.
 FormGI is forming the generalized inverse of G from B-inverse, IUseBI=4.
 Internal  Forces:  Max     0.017177647 RMS     0.002317578
 Search for a local minimum.
 Step number   1 out of a maximum of  186
 All quantities printed in internal units (Hartrees-Bohrs-Radians)
 Mixed Optimization -- RFO/linear search
 Second derivative matrix not updated -- first step.
 ITU=  0
     Eigenvalues ---    0.00629   0.00636   0.00724   0.00734   0.01401
     Eigenvalues ---    0.01438   0.01722   0.02629   0.02697   0.03077
     Eigenvalues ---    0.03163   0.03894   0.04087   0.04536   0.04752
     Eigenvalues ---    0.04856   0.04891   0.05142   0.05159   0.05217
     Eigenvalues ---    0.05292   0.05699   0.05768   0.06150   0.06187
     Eigenvalues ---    0.06423   0.06517   0.07000   0.07587   0.07647
     Eigenvalues ---    0.07835   0.07938   0.08035   0.08049   0.08281
     Eigenvalues ---    0.08847   0.09199   0.09379   0.10829   0.11603
     Eigenvalues ---    0.11613   0.11699   0.11766   0.12404   0.12486
     Eigenvalues ---    0.14736   0.14739   0.16419   0.16508   0.17809
     Eigenvalues ---    0.19135   0.21489   0.21962   0.25000   0.28398
     Eigenvalues ---    0.28518   0.28649   0.28883   0.28969   0.29029
     Eigenvalues ---    0.30148   0.30297   0.35079   0.35091   0.35181
     Eigenvalues ---    0.35186   0.35199   0.35233   0.35239   0.35310
     Eigenvalues ---    0.35315   0.35365   0.35396   0.35447   0.35485
     Eigenvalues ---    0.35541   0.35829   0.35834   0.35839   0.36368
     Eigenvalues ---    0.40808   0.41508   0.41910   0.42244   0.43350
     Eigenvalues ---    0.460011000.000001000.000001000.000001000.00000
     Eigenvalues --- 1000.000001000.000001000.000001000.000001000.00000
     Eigenvalues --- 1000.000001000.000001000.000001000.000001000.00000
     Eigenvalues --- 1000.000001000.000001000.000001000.000001000.00000
     Eigenvalues --- 1000.000001000.000001000.000001000.000001000.00000
     Eigenvalues --- 1000.000001000.000001000.000001000.000001000.00000
     Eigenvalues --- 1000.000001000.000001000.000001000.000001000.00000
     Eigenvalues --- 1000.000001000.000001000.000001000.000001000.00000
     Eigenvalues --- 1000.000001000.000001000.000001000.000001000.00000
     Eigenvalues --- 1000.000001000.000001000.000001000.000001000.00000
     Eigenvalues --- 1000.000001000.000001000.000001000.000001000.00000
     Eigenvalues --- 1000.000001000.000001000.000001000.000001000.00000
     Eigenvalues --- 1000.000001000.000001000.000001000.000001000.00000
     Eigenvalues --- 1000.000001000.000001000.000001000.000001000.00000
     Eigenvalues --- 1000.000001000.000001000.000001000.000001000.00000
     Eigenvalues --- 1000.000001000.000001000.000001000.000001000.00000
     Eigenvalues --- 1000.000001000.000001000.000001000.000001000.00000
     Eigenvalues --- 1000.000001000.000001000.000001000.000001000.00000
     Eigenvalues --- 1000.000001000.000001000.000001000.000001000.00000
     Eigenvalues --- 1000.000001000.000001000.000001000.000001000.00000
 RFO step:  Lambda=-4.62661329D-03 EMin= 6.28668229D-03
 Linear search not attempted -- first point.
 Iteration  1 RMS(Cart)=  0.10056264 RMS(Int)=  0.00172033
 Iteration  2 RMS(Cart)=  0.00514835 RMS(Int)=  0.00007593
 Iteration  3 RMS(Cart)=  0.00000773 RMS(Int)=  0.00007582
 Iteration  4 RMS(Cart)=  0.00000000 RMS(Int)=  0.00007582
 Iteration  1 RMS(Cart)=  0.00004677 RMS(Int)=  0.00001080
 Iteration  2 RMS(Cart)=  0.00002576 RMS(Int)=  0.00001206
 Iteration  3 RMS(Cart)=  0.00001419 RMS(Int)=  0.00001364
 Iteration  4 RMS(Cart)=  0.00000782 RMS(Int)=  0.00001470
 Iteration  5 RMS(Cart)=  0.00000431 RMS(Int)=  0.00001532
 Iteration  6 RMS(Cart)=  0.00000237 RMS(Int)=  0.00001567
 Iteration  7 RMS(Cart)=  0.00000131 RMS(Int)=  0.00001587
 Iteration  8 RMS(Cart)=  0.00000072 RMS(Int)=  0.00001598
 Variable       Old X    -DE/DX   Delta X   Delta X   Delta X     New X
                                 (Linear)    (Quad)   (Total)
    R1        2.68703   0.00284   0.00000   0.00649   0.00649   2.69352
    R2        2.87099   0.00020   0.00000   0.00077   0.00079   2.87178
    R3        2.04895   0.00684   0.00000   0.01903   0.01903   2.06798
    R4        2.04335   0.00441   0.00000   0.01215   0.01215   2.05550
    R5        2.65450   0.00404   0.00000   0.00852   0.00853   2.66303
    R6        2.88911  -0.00143   0.00000  -0.00454  -0.00454   2.88457
    R7        2.88804  -0.00072   0.00000  -0.00179  -0.00180   2.88624
    R8        2.05374   0.00342   0.00000   0.00959   0.00959   2.06333
    R9        2.05167   0.00258   0.00000   0.00721   0.00721   2.05888
   R10        2.67589   0.00350   0.00000   0.00758   0.00755   2.68344
   R11        2.66737   0.00308   0.00000   0.00696   0.00699   2.67436
   R12        2.87680  -0.00064   0.00000  -0.00225  -0.00226   2.87453
   R13        2.64131   0.00163   0.00000   0.00351   0.00351   2.64482
   R14        2.03509   0.00843   0.00000   0.02290   0.02290   2.05799
   R15        2.05353   0.00340   0.00000   0.00952   0.00952   2.06305
   R16        2.04955   0.00309   0.00000   0.00861   0.00861   2.05816
   R17        2.89680  -0.00067   0.00000  -0.00233  -0.00236   2.89444
   R18        2.87205   0.00056   0.00000   0.00098   0.00093   2.87297
   R19        2.05175   0.00304   0.00000   0.00849   0.00849   2.06024
   R20        2.05383   0.00321   0.00000   0.00901   0.00901   2.06283
   R21        2.69038  -0.00021   0.00000  -0.00050  -0.00050   2.68988
   R22        2.88379  -0.00282   0.00000  -0.00861  -0.00858   2.87521
   R23        2.05087   0.00514   0.00000   0.01436   0.01436   2.06522
   R24        2.05036   0.00355   0.00000   0.00990   0.00990   2.06027
   R25        2.04349   0.00436   0.00000   0.01202   0.01202   2.05551
   R26        2.05546   0.00609   0.00000   0.01713   0.01713   2.07259
   R27        2.88322  -0.00086   0.00000  -0.00202  -0.00197   2.88125
   R28        2.04805   0.00591   0.00000   0.01643   0.01643   2.06447
   R29        2.04342   0.00486   0.00000   0.01339   0.01339   2.05682
   R30        2.05298   0.00737   0.00000   0.02065   0.02065   2.07363
   R31        2.05288   0.00284   0.00000   0.00795   0.00795   2.06083
   R32        2.05528   0.00323   0.00000   0.00910   0.00910   2.06438
    A1        1.94668   0.00226   0.00000   0.00576   0.00571   1.95239
    A2        1.91068   0.00012   0.00000   0.00112   0.00118   1.91186
    A3        1.84125  -0.00128   0.00000  -0.00170  -0.00172   1.83953
    A4        1.92842  -0.00156   0.00000  -0.00683  -0.00688   1.92154
    A5        1.94669  -0.00021   0.00000  -0.00161  -0.00155   1.94514
    A6        1.88727   0.00067   0.00000   0.00357   0.00356   1.89083
    A7        2.02758  -0.00582   0.00000  -0.03674  -0.03663   1.99095
    A8        1.91145   0.00208   0.00000  -0.00015  -0.00013   1.91133
    A9        1.92341  -0.00099   0.00000  -0.00662  -0.00663   1.91678
   A10        1.91599  -0.00061   0.00000   0.00162   0.00160   1.91760
   A11        1.91412  -0.00097   0.00000  -0.00218  -0.00227   1.91184
   A12        1.93151  -0.00025   0.00000   0.00168   0.00173   1.93325
   A13        1.86704   0.00067   0.00000   0.00568   0.00569   1.87273
   A14        1.97437  -0.00487   0.00000  -0.02750  -0.02746   1.94691
   A15        1.94349   0.00362   0.00000   0.01389   0.01368   1.95717
   A16        1.94803  -0.00054   0.00000  -0.00890  -0.00875   1.93928
   A17        1.83370  -0.00251   0.00000  -0.01416  -0.01419   1.81951
   A18        1.89041  -0.00266   0.00000  -0.01266  -0.01257   1.87784
   A19        1.92281   0.00038   0.00000   0.00876   0.00882   1.93164
   A20        1.92545   0.00183   0.00000   0.01395   0.01393   1.93938
   A21        1.95890  -0.00194   0.00000  -0.01565  -0.01576   1.94313
   A22        1.90810   0.00129   0.00000   0.00745   0.00754   1.91565
   A23        1.94813  -0.00026   0.00000  -0.00160  -0.00171   1.94642
   A24        1.87048   0.00010   0.00000   0.00416   0.00415   1.87463
   A25        1.89978   0.00092   0.00000  -0.00026  -0.00025   1.89953
   A26        1.87498  -0.00003   0.00000   0.00711   0.00708   1.88207
   A27        1.93429  -0.00112   0.00000  -0.00690  -0.00697   1.92732
   A28        1.92078  -0.00023   0.00000   0.00063   0.00067   1.92145
   A29        1.92014   0.00078   0.00000   0.00096   0.00094   1.92108
   A30        1.90776   0.00075   0.00000   0.00436   0.00436   1.91212
   A31        1.90479  -0.00008   0.00000  -0.00181  -0.00177   1.90302
   A32        1.87504  -0.00005   0.00000   0.00309   0.00307   1.87811
   A33        2.13325  -0.01718   0.00000  -0.06746  -0.06746   2.06579
   A34        1.89479   0.00109   0.00000  -0.00010  -0.00004   1.89474
   A35        1.90429   0.00028   0.00000   0.00651   0.00646   1.91075
   A36        1.92173  -0.00002   0.00000   0.00440   0.00438   1.92612
   A37        1.92741  -0.00157   0.00000  -0.01340  -0.01338   1.91403
   A38        1.93369  -0.00019   0.00000  -0.00093  -0.00098   1.93271
   A39        1.88188   0.00041   0.00000   0.00365   0.00361   1.88549
   A40        1.93526   0.00223   0.00000   0.00937   0.00942   1.94468
   A41        1.85681  -0.00124   0.00000  -0.00299  -0.00298   1.85383
   A42        1.90259   0.00058   0.00000   0.00645   0.00646   1.90905
   A43        1.94432  -0.00041   0.00000  -0.00316  -0.00316   1.94116
   A44        1.93060  -0.00176   0.00000  -0.01050  -0.01055   1.92005
   A45        1.89207   0.00063   0.00000   0.00123   0.00120   1.89327
   A46        2.03670  -0.00235   0.00000  -0.02058  -0.02086   2.01584
   A47        1.89410   0.00044   0.00000  -0.00929  -0.00978   1.88432
   A48        1.83187   0.00148   0.00000   0.02642   0.02658   1.85845
   A49        1.91919   0.00031   0.00000  -0.00891  -0.00916   1.91003
   A50        1.89168   0.00043   0.00000   0.00957   0.00974   1.90141
   A51        1.88337  -0.00015   0.00000   0.00645   0.00646   1.88983
   A52        1.92826   0.00173   0.00000   0.01133   0.01148   1.93974
   A53        1.86549  -0.00038   0.00000   0.00509   0.00507   1.87056
   A54        1.91458   0.00167   0.00000   0.01412   0.01418   1.92876
   A55        1.92799  -0.00074   0.00000  -0.00808  -0.00826   1.91974
   A56        1.92774  -0.00311   0.00000  -0.02273  -0.02280   1.90493
   A57        1.89856   0.00095   0.00000   0.00127   0.00102   1.89958
   A58        1.92041  -0.00092   0.00000  -0.00395  -0.00416   1.91625
   A59        1.90205   0.00057   0.00000   0.00355   0.00360   1.90565
   A60        1.90799  -0.00000   0.00000  -0.00231  -0.00225   1.90575
   A61        1.93988  -0.00055   0.00000  -0.00202  -0.00200   1.93788
   A62        1.91678   0.00092   0.00000   0.00159   0.00167   1.91845
   A63        1.87598   0.00001   0.00000   0.00331   0.00328   1.87926
    D1       -0.99334   0.00051   0.00000  -0.01596  -0.01583  -1.00917
    D2        1.14636   0.00013   0.00000  -0.01998  -0.01989   1.12647
    D3       -3.10977   0.00030   0.00000  -0.01618  -0.01609  -3.12586
    D4        0.96209   0.00132   0.00000   0.01761   0.01767   0.97976
    D5        3.09320   0.00042   0.00000   0.01488   0.01488   3.10808
    D6       -1.14426   0.00076   0.00000   0.01958   0.01961  -1.12465
[...]
 00032,-0.00003270,0.00020444,0.00009045,-0.00058503,-0.00034101,0.0002
 8189,-0.00050699,0.00004175,0.00012796,0.00041407,-0.00016085,0.000339
 17,-0.02204033,0.00934959,0.05969773,-0.00001865,-0.00002917,0.0000232
 1,0.00009290,0.00002170,-0.00000962,0.00000704,-0.00000648,-0.00000222
 ,0.00354095,0.00485786,-0.01801937,-0.00008582,0.00003690,0.00003495,-
 0.00000164,0.00001604,-0.00000104,0.00201885,0.00369556,-0.00374341,0.
 00005228,0.00003595,0.00007287,0.00090920,0.00014874,-0.00090851,-0.09
 092677,-0.04379300,0.07604754,-0.00044741,0.00012797,0.00002826,0.0037
 2482,0.00122980,-0.00350182,0.00000040,0.00000131,-0.00001000,-0.00000
 984,-0.00001239,-0.00001844,0.00000501,0.00000295,-0.00000545,-0.00000
 216,-0.00000058,-0.00000202,0.00000568,0.00000221,0.00000261,-0.000006
 30,0.00001214,0.00000592,0.00000617,-0.00000173,-0.00000101,0.00000194
 ,-0.00000158,0.00000241,0.00021426,-0.00040382,0.00013789,0.00096045,0
 .00099061,-0.00024996,0.00020130,0.00005137,0.00020551,0.00007952,-0.0
 0014009,0.00005316,-0.00965847,-0.01523514,0.02404619,0.08870128,0.000
 01478,0.00000603,-0.00000951,-0.00001537,0.00003395,-0.00001344,0.0000
 0043,-0.00000265,0.00000175,0.00212706,0.00855910,-0.01715090,-0.00002
 191,-0.00002307,0.00004156,-0.00000321,0.00000559,0.00000084,-0.013466
 64,-0.01822457,0.02704246,0.00010069,0.00015437,0.00009650,-0.00123167
 ,0.00162998,0.00049776,-0.04381623,-0.10899756,0.09632227,-0.00021789,
 -0.00029383,-0.00004317,0.00231368,0.00031730,-0.00056263,-0.00000011,
 0.00000073,0.00000605,0.00000838,0.00000221,0.00000688,0.00000268,-0.0
 0000043,-0.00000033,-0.00000018,-0.00000075,-0.00000123,0.00000084,0.0
 0000122,-0.00000137,0.00000359,0.00000912,0.00000358,0.00000166,-0.000
 00066,-0.00000040,-0.00000104,0.00000026,-0.00000082,-0.00020181,0.001
 09576,-0.00046737,0.00188023,-0.00623752,-0.00052248,0.00082874,0.0001
 3297,-0.00037501,-0.00006178,0.00022945,-0.00051387,0.00232148,0.00386
 169,-0.00539610,0.04904358,0.11807678,0.00003711,0.00002690,-0.0000217
 8,-0.00007924,-0.00005849,0.00008366,-0.00000407,0.00001112,0.00000166
 ,-0.00208962,0.00334460,-0.04182244,0.00013309,0.00001443,-0.00032107,
 -0.00001962,-0.00000411,0.00005354,0.00060694,-0.00043812,0.00320382,-
 0.00058419,0.00039246,0.00019281,-0.00034512,-0.00032579,0.00006676,0.
 07199178,0.09534663,-0.19680972,-0.00025385,-0.00058951,0.00006253,0.0
 0541146,0.00031335,0.00060488,-0.00000043,0.00000114,0.00000935,0.0000
 1572,0.00001793,0.00001290,-0.00000936,-0.00000716,0.00000736,0.000002
 31,0.00000057,0.00000392,-0.00000904,-0.00000391,-0.00000332,-0.000002
 06,0.00000544,0.00002259,-0.00002837,0.00000319,-0.00000107,0.00000189
 ,-0.00000196,-0.00000123,-0.00007802,0.00090859,0.00031054,0.00045958,
 -0.00097004,0.00109384,-0.00039093,0.00025473,-0.00018423,-0.00011620,
 0.00002957,0.00010502,0.00225794,0.00169755,-0.00054316,-0.07533223,-0
 .09964121,0.23284576,0.00041482,0.00058676,0.00026288,-0.00084099,-0.0
 0131865,0.00222441,0.00005982,0.00014790,0.00005515,0.00191156,-0.0001
 9471,0.00003111,-0.00123397,-0.00438833,-0.00584749,-0.00027475,0.0004
 0582,0.00095853,0.00103369,0.00013131,-0.00056840,-0.03640436,-0.00658
 298,0.02959254,0.00498247,0.00489324,-0.00980514,-0.00014851,-0.000062
 83,-0.00031265,-0.07678386,-0.04016939,0.07435921,0.00287371,0.0024075
 3,-0.00456290,0.00003958,-0.00005375,-0.00009892,-0.00004186,0.0000268
 9,-0.00006573,-0.00005875,-0.00008722,0.00003511,0.00002585,-0.0000036
 5,0.00003652,-0.00009115,-0.00004697,-0.00002326,0.00014888,0.00018273
 ,0.00032889,-0.00039295,0.00014030,-0.00009265,-0.00002953,0.00002954,
 -0.00005206,0.00017351,0.00001566,0.00002773,-0.00006530,-0.00027739,-
 0.00008852,-0.00065624,-0.00106841,-0.00235984,0.00024318,-0.00012494,
 0.00057153,-0.00000155,0.00004030,0.00000026,-0.00010938,-0.00009521,0
 .00013437,0.10513347,0.00004260,-0.00007242,-0.00011274,-0.00005319,0.
 00012018,-0.00010579,-0.00001120,-0.00001403,0.00000762,-0.00015514,0.
 00324971,-0.00160987,0.00151236,-0.00015019,-0.00045113,0.00006345,-0.
 00004362,-0.00016029,0.00068280,0.00027150,0.00053112,0.00246293,0.005
 92843,-0.00571706,0.00496180,0.00679781,-0.01493478,-0.00003457,-0.000
 20678,-0.00022392,-0.04209853,-0.09989365,0.09167827,-0.01252889,-0.01
 927289,0.03028006,-0.00000060,0.00003633,0.00006563,0.00010696,0.00003
 501,0.00008783,-0.00000150,-0.00000089,-0.00000335,0.00000297,0.000007
 60,0.00000293,-0.00000126,0.00001253,-0.00000176,-0.00003011,0.0000331
 1,-0.00002840,0.00004566,-0.00002453,0.00001946,-0.00001202,-0.0000155
 1,0.00002866,0.00014560,-0.00015122,0.00013505,-0.00007787,-0.00003223
 ,0.00022961,-0.00152902,-0.00055677,-0.00294572,0.00065448,0.00079587,
 0.00065954,0.00004130,0.00006306,0.00003701,-0.00017056,-0.00004872,-0
 .00002493,0.04441972,0.10753261,-0.00007978,-0.00010779,0.00002146,0.0
 0004945,0.00001599,0.00041410,0.00001827,-0.00003879,-0.00000114,-0.00
 124923,-0.00008612,0.00014628,-0.00096400,-0.00001986,0.00087337,0.000
 00480,0.00008423,-0.00005838,0.00125357,0.00041124,0.00050338,-0.00019
 731,-0.00222713,0.00625279,0.00870432,0.01119080,-0.02492138,-0.000160
 96,-0.00002026,-0.00003328,0.07951370,0.09113506,-0.22633604,0.0008518
 2,-0.00068092,0.00054983,0.00000332,0.00002209,0.00001391,0.00001758,-
 0.00000614,-0.00001947,0.00001354,0.00001982,-0.00001641,-0.00001192,-
 0.00000055,-0.00000981,0.00002550,0.00001688,0.00000872,-0.00003056,0.
 00012416,-0.00011853,0.00004408,0.00000197,-0.00001040,0.00001774,0.00
 001206,-0.00000897,-0.00015069,-0.00031772,0.00037645,-0.00082863,-0.0
 0004071,0.00040377,-0.00241775,-0.00252556,-0.00343558,0.00036380,-0.0
 0023522,0.00127054,-0.00002162,0.00009355,0.00001022,0.00011240,-0.000
 07496,-0.00005803,-0.08486213,-0.09679754,0.24228274,0.00008726,0.0000
 9596,0.00017932,-0.00014267,0.00017219,-0.00007638,-0.00000005,0.00000
 979,0.00001117,-0.02577149,-0.01557785,-0.03453857,0.00002546,-0.00003
 906,0.00026125,0.00000173,0.00000291,-0.00004585,-0.00054846,0.0000566
 3,-0.00050855,0.00125188,-0.00027126,0.00058468,-0.00024023,0.00212975
 ,0.00025771,-0.00481344,0.00203223,0.00389302,0.00252680,0.00175047,0.
 00541375,-0.07592031,-0.03845564,-0.06826850,0.00001288,-0.00003041,-0
 .00005469,0.00005272,-0.00003590,-0.00006228,-0.00000072,-0.00000171,-
 0.00002355,0.00001370,-0.00001128,-0.00001428,-0.00000016,-0.00000449,
 -0.00000110,-0.00002757,0.00001891,0.00000892,0.00000952,-0.00000294,-
 0.00000579,-0.00000547,0.00000103,-0.00000547,0.00012635,-0.00027563,-
 0.00001626,0.00004390,-0.00003916,0.00004500,-0.00005044,-0.00007290,-
 0.00029767,0.00038293,0.00043080,0.00036643,-0.00094231,-0.00079348,-0
 .00147576,0.00014298,0.00014643,-0.00035504,0.00031383,-0.00034391,-0.
 00026431,0.09755739,0.00013037,0.00001154,0.00006215,-0.00006511,0.000
 18119,0.00005771,0.00001537,-0.00001079,0.00000341,0.00191078,0.004384
 79,0.00624781,0.00011614,0.00024626,-0.00005540,0.00002889,0.00005886,
 -0.00002485,0.00067056,0.00020159,0.00028794,-0.00134348,0.00203935,0.
 00121533,0.00260061,-0.00596315,0.00161366,0.00177734,0.00025930,0.000
 66429,-0.01119886,-0.01538417,-0.02905380,-0.04249744,-0.10317768,-0.0
 9801443,0.00001136,-0.00000548,-0.00003022,0.00016088,-0.00000727,-0.0
 0012596,-0.00000914,0.00000764,-0.00001016,0.00000493,-0.00000736,-0.0
 0000229,0.00000572,0.00000599,0.00000261,-0.00018030,0.00007699,0.0001
 7422,0.00000362,-0.00000956,-0.00000507,-0.00001000,-0.00000405,-0.000
 00201,-0.00011548,0.00009880,-0.00003850,-0.00012762,0.00003642,0.0000
 4196,0.00009850,0.00007041,-0.00006070,-0.00085828,-0.00094212,-0.0017
 3430,0.00031340,0.00033737,0.00014825,-0.00002350,-0.00003050,-0.00032
 630,-0.00034332,0.00166014,0.00045921,0.04369180,0.10872673,-0.0001706
 9,-0.00038901,-0.00022741,0.00043825,0.00001493,-0.00002738,0.00000527
 ,-0.00002225,-0.00001212,-0.00174136,0.00185244,0.00298385,-0.00003788
 ,0.00016316,0.00007942,0.00002127,-0.00000927,-0.00003347,0.00025154,0
 .00015894,-0.00001654,0.00126855,0.00003102,0.00025133,-0.00000831,-0.
 00045551,0.00103136,0.00054552,0.00074301,0.00200862,-0.00036171,0.002
 02819,0.00074193,-0.07823640,-0.09853270,-0.23954366,-0.00000025,0.000
 03981,0.00008894,0.00019281,0.00011773,-0.00010716,-0.00004317,0.00003
 141,0.00006563,0.00001321,-0.00000283,0.00000475,0.00000122,0.00001076
 ,0.00000499,-0.00005722,0.00003339,0.00005302,0.00001696,0.00000176,0.
 00000207,0.00000367,0.00000167,0.00000497,-0.00005889,-0.00000634,-0.0
 0006199,-0.00001687,-0.00002776,0.00000695,0.00005618,0.00018025,0.000
 40878,-0.00028857,-0.00007576,0.00002033,-0.00016880,-0.00028131,0.000
 04448,0.00011844,-0.00003338,0.00040144,0.00027144,-0.00054542,0.00078
 187,0.08626850,0.10648054,0.25028452,-0.00121802,0.00032952,0.00032292
 ,-0.00072266,-0.00026352,0.00041607,0.00003335,-0.00000086,-0.00001719
 ,-0.03652175,-0.01314542,0.02697943,-0.00010627,0.00047180,-0.00011284
 ,-0.00000196,-0.00002417,0.00002906,-0.00034902,-0.00004578,-0.0006988
 5,0.00175662,-0.00159938,0.00007458,-0.00009104,-0.00058057,-0.0000099
 8,0.00245855,0.00073623,0.00632596,0.00392378,0.00355465,-0.00521337,-
 0.07667870,-0.04035735,0.06632079,-0.00008944,-0.00001431,-0.00002556,
 -0.00116513,-0.00010856,-0.00019045,0.00010859,-0.00009221,0.00004829,
 -0.00000244,0.00000296,-0.00000206,0.00000905,-0.00001390,0.00002197,0
 .00001981,-0.00003952,0.00000075,0.00000161,-0.00000072,-0.00000055,0.
 00001905,-0.00000721,0.00000848,0.00012408,-0.00026206,-0.00011703,-0.
 00000912,0.00012579,0.00001029,0.00001165,-0.00029083,0.00001538,-0.00
 002762,-0.00000846,-0.00003650,0.00017479,0.00028965,-0.00038697,0.000
 58852,0.00034090,-0.00134145,-0.00015385,0.00193204,0.00021557,0.00590
 266,0.00522100,-0.00826131,0.10195981,0.00037857,0.00052980,-0.0002239
 9,-0.00061711,0.00032599,-0.00048783,-0.00001538,-0.00001121,0.0000490
 9,0.00270582,0.00654931,-0.00586722,0.00036404,-0.00107306,0.00098877,
 0.00006584,-0.00000466,-0.00017704,-0.00002807,-0.00015557,-0.00000697
 ,0.00018836,0.00280227,-0.00195923,-0.00012517,0.00184012,0.00158372,-
 0.00066990,-0.00015844,-0.00031031,-0.01317919,-0.01848590,0.02956026,
 -0.03940803,-0.10046700,0.08831090,-0.00005802,-0.00001263,0.00011692,
 -0.00017256,0.00020398,0.00010777,0.00004175,-0.00008725,0.00004380,0.
 00000434,-0.00000528,-0.00000739,-0.00001260,0.00001141,-0.00001333,0.
 00002051,0.00001453,-0.00005912,0.00004338,-0.00000961,0.00001000,-0.0
 0003422,0.00001944,-0.00002413,-0.00008073,0.00006195,-0.00001726,0.00
 013909,0.00003004,0.00000874,-0.00010048,-0.00008372,-0.00098780,0.000
 38342,0.00040104,-0.00028688,0.00001532,-0.00002171,-0.00015924,-0.000
 45545,-0.00025719,0.00002328,0.00141460,-0.00606683,-0.00041030,0.0054
 2057,0.00714059,-0.01151971,0.04386436,0.10695399,0.00022232,0.0000040
 8,0.00073958,0.00108264,-0.00061090,-0.00039405,0.00000584,0.00003388,
 -0.00003979,0.00604592,-0.00169222,0.00272498,0.00001695,0.00060951,-0
 .00063143,-0.00004432,0.00000203,0.00013005,0.00016650,-0.00010746,-0.
 00008550,-0.00150452,0.00036880,0.00053502,-0.00035931,-0.00072452,0.0
 0083389,-0.00208149,-0.00134905,0.00257935,0.00156909,-0.00064034,-0.0
 0146112,0.06968477,0.08977284,-0.22011059,0.00008361,-0.00013851,-0.00
 036171,-0.00030915,-0.00022622,-0.00040864,-0.00007386,0.00008807,-0.0
 0013306,-0.00000749,0.00000041,-0.00000338,0.00001132,-0.00002479,0.00
 001477,-0.00001511,-0.00003646,0.00005410,-0.00002875,0.00000445,-0.00
 000769,0.00001979,-0.00002843,0.00002159,0.00006331,0.00003536,-0.0000
 0340,-0.00006231,0.00010248,-0.00021981,0.00032432,0.00015796,0.000508
 92,-0.00013077,0.00004915,0.00012153,0.00006992,-0.00008095,0.00035947
 ,0.00091114,0.00079014,0.00068497,-0.00016426,-0.00009072,0.00111948,0
 .00871831,0.01201864,-0.01923425,-0.08436970,-0.09824768,0.23259854,-0
 .00896000,-0.02782509,-0.00921851,-0.00861988,-0.00133380,-0.00254804,
 0.00002648,0.00120143,0.00156598,-0.00008283,0.00003768,0.00000279,0.0
 0043483,0.00197518,-0.00188176,0.00104039,0.00067818,-0.00010263,0.000
 01905,-0.00002923,0.00001358,-0.00039815,-0.00009949,0.00061664,-0.000
 07108,0.00001403,-0.00006292,0.00000745,-0.00001090,0.00002226,0.00032
 323,0.00000523,-0.00007964,0.00004541,-0.00003862,-0.00002939,-0.09671
 159,-0.09274951,-0.03789269,0.00098648,0.00018490,0.00102927,0.0010254
 3,0.00042090,-0.00024354,0.00003608,-0.00020142,-0.00004003,0.00022299
 ,-0.00001883,0.00050422,0.00006025,-0.00020900,0.00016270,-0.00011850,
 -0.00029032,-0.00020221,0.00032426,0.00013282,-0.00015512,-0.00001685,
 0.00000054,-0.00000718,-0.00002529,0.00000510,0.00000712,0.00005830,-0
 .00000464,0.00008126,-0.00000973,-0.00000414,0.00001583,-0.00000846,0.
 00000814,-0.00000074,0.00000519,-0.00000029,-0.00000482,-0.00005422,0.
 00000075,0.00001855,-0.00000809,0.00000041,0.00001356,0.00002346,-0.00
 003134,-0.00000228,0.10260547,0.00251136,0.00567614,0.00226605,0.00207
 711,0.00168004,0.00095034,-0.00951527,-0.01848994,-0.00876573,-0.00006
 923,0.00003035,-0.00000411,0.00116204,-0.00033228,0.00035740,0.0006144
 7,-0.00210184,0.00512398,0.00001014,-0.00000411,-0.00001442,-0.0003953
 4,0.00009052,-0.00002133,-0.00004249,0.00002243,0.00001225,0.00000628,
 -0.00000058,0.00002343,0.00019624,0.00002481,0.00001152,0.00000376,-0.
 00004310,-0.00002564,-0.09447471,-0.23475297,-0.07781420,-0.00057267,0
 .00035748,-0.00022464,-0.00079383,0.00014393,-0.00009570,-0.00008199,0
 .00104575,0.00002264,0.00051116,0.00057980,-0.00049793,-0.00010030,0.0
 0013496,-0.00014304,0.00023794,0.00030066,0.00003965,-0.00112436,-0.00
 114055,-0.00055098,-0.00001162,0.00000037,-0.00000395,-0.00000437,0.00
 000045,0.00000223,0.00000332,-0.00000689,0.00000631,0.00000743,0.00000
 517,-0.00000514,-0.00000511,0.00000316,-0.00000180,0.00000208,0.000000
 10,-0.00000410,-0.00003973,-0.00000191,0.00000978,0.00000100,0.0000027
 5,0.00000183,0.00001065,-0.00000765,0.00001107,0.10352813,0.25482469,-
 0.00090085,-0.00808648,-0.00427767,-0.00377646,-0.00074456,0.00063157,
 0.01199522,0.02138244,0.00900136,-0.00003693,-0.00001003,0.00000969,-0
 .00029238,0.00097303,-0.00113911,-0.00048396,0.00327274,-0.00378280,0.
 00000404,-0.00001304,0.00001053,-0.00001248,-0.00014882,0.00031273,-0.
 00001005,-0.00000016,-0.00003824,0.00000597,0.00000067,0.00001035,0.00
 005725,0.00000850,-0.00004836,0.00003420,0.00002211,-0.00004020,-0.039
 42289,-0.07862461,-0.07889534,-0.00005877,0.00020982,0.00035903,0.0004
 6571,0.00013735,-0.00004764,0.00013295,-0.00092679,0.00106259,-0.00029
 212,-0.00101369,0.00089235,0.00008127,-0.00018283,0.00007629,-0.000052
 62,0.00018722,0.00014163,0.00069934,0.00123514,0.00049674,-0.00000267,
 -0.00000052,-0.00000213,-0.00000908,0.00000208,0.00000260,0.00001556,0
 .00000027,0.00003517,-0.00000857,-0.00000713,0.00000804,-0.00000294,0.
 00000070,-0.00000065,0.00000188,-0.00000064,-0.00000153,-0.00000680,-0
 .00000194,0.00000422,0.00000011,0.00000108,0.00000291,0.00000574,-0.00
 002300,0.00001963,0.04337360,0.08249664,0.08368940,-0.01982109,0.01273
 915,0.02667865,0.00339068,-0.00048565,-0.00031200,0.00044914,-0.000438
 02,-0.00132315,-0.00022260,-0.00006636,0.00002271,-0.00031364,0.000138
 58,0.00003360,-0.00018523,0.00006074,0.00028475,0.00000581,-0.00000118
 ,-0.00001855,0.00002012,-0.00028846,0.00001248,-0.00000615,0.00000053,
 0.00001587,0.00002991,0.00003067,0.00007728,0.00013244,0.00009198,0.00
 000761,0.00012585,0.00007980,-0.00023259,-0.11753332,0.04024449,0.1060
 7706,-0.00548365,0.00106149,-0.00231897,0.00154237,-0.00035901,-0.0003
 2304,0.00100052,0.00041730,-0.00028255,0.00041345,-0.00050395,-0.00000
 757,-0.00003074,-0.00006029,0.00004325,-0.00015788,-0.00028311,0.00011
 809,0.00000715,-0.00009122,-0.00008220,-0.00000762,-0.00000530,-0.0000
 0486,-0.00000243,-0.00000018,0.00000260,0.00000316,0.00000311,0.000003
 56,-0.00000131,-0.00000732,-0.00000758,-0.00001162,-0.00000318,-0.0000
 0796,0.00000769,-0.00000181,-0.00000852,-0.00001315,-0.00002705,0.0000
 1087,0.00001941,0.00001082,-0.00003496,0.00002165,-0.00006172,0.000157
 59,0.00783992,-0.00365211,-0.01150327,0.12878119,0.00390512,-0.0048129
 9,-0.00705916,-0.00055104,0.00147444,0.00089922,-0.01300631,0.00685803
 ,0.01992968,0.00009909,0.00001164,-0.00000195,-0.00006150,-0.00042288,
 0.00047666,-0.00017730,0.00161847,0.00041168,-0.00000475,0.00000088,0.
 00000138,0.00017223,0.00015127,-0.00022480,0.00000016,0.00000042,0.000
 00782,-0.00001236,-0.00000953,-0.00003250,-0.00011888,-0.00007635,-0.0
 0004283,-0.00006694,-0.00000157,0.00008272,0.04194699,-0.07532574,-0.0
 6618492,0.00166047,0.00085312,0.00108046,-0.00023274,0.00000163,-0.000
 16618,-0.00040535,-0.00294724,0.00364977,0.00023407,0.00098879,-0.0009
 2375,-0.00001947,0.00006049,-0.00007665,0.00022471,-0.00025180,-0.0003
 0714,0.00031362,0.00011645,-0.00015382,0.00000386,0.00000194,0.0000028
 7,0.00000448,-0.00000063,-0.00000210,-0.00000837,0.00000069,-0.0000110
 3,0.00000166,0.00000220,0.00000234,0.00000575,-0.00000015,0.00000271,-
 0.00000329,0.00000081,0.00000415,0.00001519,0.00000830,-0.00000724,-0.
 00000484,-0.00000457,0.00001040,-0.00002472,0.00002326,-0.00005063,0.0
 1465320,-0.00804173,-0.02014555,-0.04854274,0.07972233,-0.00649785,0.0
 0331727,0.00825597,0.00127632,0.00106601,0.00036501,0.01211583,-0.0070
 5830,-0.02137842,-0.00002402,-0.00004072,0.00001767,-0.00008315,0.0000
 9576,0.00002605,-0.00041805,-0.00121481,0.00086765,-0.00000459,0.00000
 646,0.00000430,0.00025926,-0.00007394,-0.00003451,0.00004480,-0.000009
 43,0.00000214,0.00000466,0.00001149,0.00000661,-0.00013930,0.00005984,
 0.00003933,-0.00000174,0.00005728,-0.00006286,0.10774329,-0.06635244,-
 0.21134038,-0.00238688,0.00007938,0.00048102,0.00080172,-0.00011345,0.
 00083638,-0.00027196,0.00421381,-0.00236969,-0.00046958,-0.00039517,0.
 00078839,0.00012870,-0.00001984,0.00000968,0.00026099,0.00057604,0.000
 49350,-0.00032508,0.00015267,0.00023494,0.00000755,-0.00000198,0.00000
 167,0.00000444,-0.00000116,-0.00000136,-0.00000597,0.00000596,-0.00000
 968,-0.00000198,-0.00000500,-0.00000015,0.00000044,-0.00000362,-0.0000
 0146,0.00000072,-0.00000099,0.00000023,0.00002108,-0.00000740,-0.00000
 568,0.00000588,0.00000516,-0.00000817,-0.00001148,-0.00001485,0.000048
 54,0.00504413,-0.00316242,-0.00849314,-0.11707819,0.06882841,0.2312264
 3\\0.00000243,0.00001027,-0.00001591,0.00001793,-0.00002283,-0.0000356
 7,0.00001436,-0.00002612,-0.00001529,0.00002011,0.00001618,0.00002293,
 0.00021064,0.00231497,-0.00047838,-0.00003263,0.00001037,0.00001590,-0
 .00001726,0.00002386,-0.00003713,-0.00043814,-0.00426639,0.00129819,-0
 .00025253,-0.00183435,0.00110408,-0.00001331,-0.00002208,-0.00002903,0
 .00047506,0.00379094,-0.00189595,0.00000568,0.00000023,-0.00000102,-0.
 00000676,0.00005192,0.00002647,-0.00000799,0.00000659,0.00002446,-0.00
 000748,0.00002287,-0.00001204,-0.00000750,0.00000369,0.00000223,0.0000
 1532,-0.00001444,0.00001629,-0.00001328,-0.00002450,-0.00001786,0.0000
 1832,-0.00000599,-0.00000565,0.00001244,-0.00002010,0.00001846,-0.0000
 0581,-0.00001398,-0.00000992,-0.00000313,-0.00000567,0.00001145,-0.000
 00426,0.00000750,-0.00000600,-0.00000125,-0.00002217,0.00000328,-0.000
 02994,0.00000074,-0.00000082,0.00000802,0.00000700,-0.00000236,0.00000
 425,-0.00000408,0.00000863,0.00001798,0.00001210,0.00003081,0.00000230
 ,0.00001119,-0.00000806,0.00001936,0.00000138,-0.00000030,-0.00000293,
 -0.00000908,-0.00001181\\\@


 THERE IS AN OLD, OLD RECIPE IN MAINE FOR STEWING COOT. PLACE THE
 BIRD IN A KETTLE OF WATER WITH A RED BUILDING BRICK FREE OF MORTAR AND
 BLEMISHES. PARBOIL THE COOT AND BRICK TOGETHER FOR THREE HOURS.
 POUR OFF THE WATER, REFILL THE KETTLE, AND AGAIN PARBOIL FOR THREE HOURS.
 ONCE AGAIN POUR OFF THE WATER, FOR THE LAST TIME ADD FRESH WATER,
 AND LET THE COOT AND BRICK SIMMER TOGETHER OVERNIGHT. IN THE MORNING,
 THROW AWAY THE COOT AND EAT THE BRICK.
 Job cpu time:       0 days 14 hours 25 minutes 26.4 seconds.
 Elapsed time:       0 days  0 hours 54 minutes  6.5 seconds.
 File lengths (MBytes):  RWF=    690 Int=      0 D2E=      0 Chk=     33 Scr=      1
 Normal termination of Gaussian 16 at Sun Nov  4 22:51:16 2018.
