 Entering Gaussian System, Link 0=g16
 Initial command:
 /apps/gaussian/g16a03/g16/l1.exe "/jobfs/local/2012081.r-man2/Gau-13800.inp" -scrdir="/jobfs/local/2012081.r-man2/"
 Entering Link 1 = /apps/gaussian/g16a03/g16/l1.exe PID=     13801.
  
 Copyright (c) 1988,1990,1992,1993,1995,1998,2003,2009,2016,
            Gaussian, Inc.  All Rights Reserved.
  
 This is part of the Gaussian(R) 16 program.  It is based on
 the Gaussian(R) 09 system (copyright 2009, Gaussian, Inc.),
 the Gaussian(R) 03 system (copyright 2003, Gaussian, Inc.),
 the Gaussian(R) 98 system (copyright 1998, Gaussian, Inc.),
 the Gaussian(R) 94 system (copyright 1995, Gaussian, Inc.),
 the Gaussian 92(TM) system (copyright 1992, Gaussian, Inc.),
 the Gaussian 90(TM) system (copyright 1990, Gaussian, Inc.),
 the Gaussian 88(TM) system (copyright 1988, Gaussian, Inc.),
 the Gaussian 86(TM) system (copyright 1986, Carnegie Mellon
 University), and the Gaussian 82(TM) system (copyright 1983,
 Carnegie Mellon University). Gaussian is a federally registered
 trademark of Gaussian, Inc.
  
 This software contains proprietary and confidential information,
 including trade secrets, belonging to Gaussian, Inc.
  
 This software is provided under written license and may be
 used, copied, transmitted, or stored only in accord with that
 written license.
  
 The following legend is applicable only to US Government
 contracts under FAR:
  
                    RESTRICTED RIGHTS LEGEND
  
 Use, reproduction and disclosure by the US Government is
 subject to restrictions as set forth in subparagraphs (a)
 and (c) of the Commercial Computer Software - Restricted
 Rights clause in FAR 52.227-19.
  
 Gaussian, Inc.
 340 Quinnipiac St., Bldg. 40, Wallingford CT 06492
  
  
 ---------------------------------------------------------------
 Warning -- This program may not be used in any manner that
 competes with the business of Gaussian, Inc. or will provide
 assistance to any competitor of Gaussian, Inc.  The licensee
 of this program is prohibited from giving any competitor of
 Gaussian, Inc. access to this program.  By using this program,
 the user acknowledges that Gaussian, Inc. is engaged in the
 business of creating and licensing software in the field of
 computational chemistry and represents and warrants to the
 licensee that it is not a competitor of Gaussian, Inc. and that
 it will not use this program in any manner prohibited above.
 ---------------------------------------------------------------
  

 Cite this work as:
 Gaussian 16, Revision A.03,
 M. J. Frisch, G. W. Trucks, H. B. Schlegel, G. E. Scuseria, 
 M. A. Robb, J. R. Cheeseman, G. Scalmani, V. Barone, 
 G. A. Petersson, H. Nakatsuji, X. Li, M. Caricato, A. V. Marenich, 
 J. Bloino, B. G. Janesko, R. Gomperts, B. Mennucci, H. P. Hratchian, 
 J. V. Ortiz, A. F. Izmaylov, J. L. Sonnenberg, D. Williams-Young, 
 F. Ding, F. Lipparini, F. Egidi, J. Goings, B. Peng, A. Petrone, 
 T. Henderson, D. Ranasinghe, V. G. Zakrzewski, J. Gao, N. Rega, 
 G. Zheng, W. Liang, M. Hada, M. Ehara, K. Toyota, R. Fukuda, 
 J. Hasegawa, M. Ishida, T. Nakajima, Y. Honda, O. Kitao, H. Nakai, 
 T. Vreven, K. Throssell, J. A. Montgomery, Jr., J. E. Peralta, 
 F. Ogliaro, M. J. Bearpark, J. J. Heyd, E. N. Brothers, K. N. Kudin, 
 V. N. Staroverov, T. A. Keith, R. Kobayashi, J. Normand, 
 K. Raghavachari, A. P. Rendell, J. C. Burant, S. S. Iyengar, 
 J. Tomasi, M. Cossi, J. M. Millam, M. Klene, C. Adamo, R. Cammi, 
 J. W. Ochterski, R. L. Martin, K. Morokuma, O. Farkas, 
 J. B. Foresman, and D. J. Fox, Gaussian, Inc., Wallingford CT, 2016.
 
 ******************************************
 Gaussian 16:  ES64L-G16RevA.03 25-Dec-2016
                 4-Nov-2018 
 ******************************************
 %mem=6000mb
 %nproc=24
 Will use up to   24 processors via shared memory.
 %chk=L_a1-e4_D_PSI.inp_extract_23.chk
 ----------------------------------------------------------------------
 #M062X/6-311++G(2d,2p) opt=ModRedundant freq=noraman SCRF=(Solvent=Wat
 er)
 ----------------------------------------------------------------------
 1/18=120,19=15,26=3,38=1/1,3;
 2/9=110,12=2,17=6,18=5,40=1/2;
 3/5=4,6=6,7=1212,11=2,25=1,30=1,70=2201,71=1,72=1,74=-55/1,2,3;
 4//1;
 5/5=2,38=5,53=1/2;
 6/7=2,8=2,9=2,10=2,28=1/1;
 7//1,2,3,16;
 1/18=20,19=15,26=3/3(2);
 2/9=110/2;
 99//99;
 2/9=110/2;
 3/5=4,6=6,7=1212,11=2,25=1,30=1,70=2205,71=1,72=1,74=-55/1,2,3;
 4/5=5,16=3,69=1/1;
 5/5=2,38=5,53=1/2;
 7//1,2,3,16;
 1/18=20,19=15,26=3/3(-5);
 2/9=110/2;
 6/7=2,8=2,9=2,10=2,19=2,28=1/1;
 99/9=1/99;
 ----------------------------
 L_a1-e4_D_PSI.inp_extract_23
 ----------------------------
 Symbolic Z-matrix:
 Charge =  0 Multiplicity = 1
 C                    -2.37742   1.40174  -0.38151 
 O                    -1.6849    0.48517  -1.22006 
 C                    -3.17115  -0.50759   1.02094 
 O                     3.27321  -0.95904  -0.43653 
 C                    -1.24722  -0.70045  -0.60888 
 C                    -2.38914  -1.42818   0.08302 
 C                     3.02594   1.3817    0.12891 
 O                    -0.24098  -0.44209   0.32709 
 C                     1.57289   1.13046   0.5413 
 C                     3.8527    0.11496   0.28297 
 C                     1.03242  -0.09161  -0.18688 
 C                     1.96933  -1.27921  -0.00241 
 C                    -3.58908   0.75537   0.26832 
 H                    -1.69817   1.78351   0.3726 
 H                    -2.66273   2.22276  -1.02456 
 H                    -2.55875  -0.23757   1.87716 
 H                    -4.04193  -1.02936   1.40579 
 H                    -0.84421  -1.29666  -1.41557 
 H                    -3.05214  -1.80025  -0.6932 
 H                    -1.98922  -2.28802   0.60937 
 H                     3.46146   2.17086   0.73444 
 H                     3.06626   1.70758  -0.90747 
 H                     1.5211    0.94875   1.61262 
 H                     0.95497   1.99586   0.32555 
 H                     4.85025   0.24361  -0.1142 
 H                     3.93381  -0.16464   1.33099 
 H                     0.94744   0.12837  -1.24483 
 H                     1.63932  -2.12551  -0.5896 
 H                     1.99081  -1.57043   1.04539 
 H                    -4.05651   1.47266   0.93694 
 H                    -4.31618   0.50304  -0.50011 
 
 The following ModRedundant input section has been read:
 D       5       8      11       9 F                                           
 

 GradGradGradGradGradGradGradGradGradGradGradGradGradGradGradGradGradGrad
 Berny optimization.
 Initialization pass.
                           ----------------------------
                           !    Initial Parameters    !
                           ! (Angstroms and Degrees)  !
 --------------------------                            --------------------------
 ! Name  Definition              Value          Derivative Info.                !
 --------------------------------------------------------------------------------
 ! R1    R(1,2)                  1.4223         estimate D2E/DX2                !
 ! R2    R(1,13)                 1.5193         estimate D2E/DX2                !
 ! R3    R(1,14)                 1.0843         estimate D2E/DX2                !
 ! R4    R(1,15)                 1.0812         estimate D2E/DX2                !
 ! R5    R(2,5)                  1.4038         estimate D2E/DX2                !
 ! R6    R(3,6)                  1.5293         estimate D2E/DX2                !
 ! R7    R(3,13)                 1.5285         estimate D2E/DX2                !
 ! R8    R(3,16)                 1.0868         estimate D2E/DX2                !
 ! R9    R(3,17)                 1.0856         estimate D2E/DX2                !
 ! R10   R(4,10)                 1.4167         estimate D2E/DX2                !
 ! R11   R(4,12)                 1.4111         estimate D2E/DX2                !
 ! R12   R(5,6)                  1.5206         estimate D2E/DX2                !
 ! R13   R(5,8)                  1.3983         estimate D2E/DX2                !
 ! R14   R(5,18)                 1.081          estimate D2E/DX2                !
 ! R15   R(6,19)                 1.0865         estimate D2E/DX2                !
 ! R16   R(6,20)                 1.0846         estimate D2E/DX2                !
 ! R17   R(7,9)                  1.5312         estimate D2E/DX2                !
 ! R18   R(7,10)                 1.5205         estimate D2E/DX2                !
 ! R19   R(7,21)                 1.0859         estimate D2E/DX2                !
 ! R20   R(7,22)                 1.0872         estimate D2E/DX2                !
 ! R21   R(8,11)                 1.4172         estimate D2E/DX2                !
 ! R22   R(9,11)                 1.5218         estimate D2E/DX2                !
 ! R23   R(9,23)                 1.0879         estimate D2E/DX2                !
 ! R24   R(9,24)                 1.085          estimate D2E/DX2                !
 ! R25   R(10,25)                1.0814         estimate D2E/DX2                !
 ! R26   R(10,26)                1.0877         estimate D2E/DX2                !
 ! R27   R(11,12)                1.5239         estimate D2E/DX2                !
 ! R28   R(11,27)                1.0839         estimate D2E/DX2                !
 ! R29   R(12,28)                1.0816         estimate D2E/DX2                !
 ! R30   R(12,29)                1.0877         estimate D2E/DX2                !
 ! R31   R(13,30)                1.0863         estimate D2E/DX2                !
 ! R32   R(13,31)                1.0876         estimate D2E/DX2                !
 ! A1    A(2,1,13)             111.4892         estimate D2E/DX2                !
 ! A2    A(2,1,14)             109.3845         estimate D2E/DX2                !
 ! A3    A(2,1,15)             105.4973         estimate D2E/DX2                !
 ! A4    A(13,1,14)            110.6039         estimate D2E/DX2                !
 ! A5    A(13,1,15)            111.5312         estimate D2E/DX2                !
 ! A6    A(14,1,15)            108.1545         estimate D2E/DX2                !
 ! A7    A(1,2,5)              116.0649         estimate D2E/DX2                !
 ! A8    A(6,3,13)             109.5869         estimate D2E/DX2                !
 ! A9    A(6,3,16)             110.1584         estimate D2E/DX2                !
 ! A10   A(6,3,17)             109.7702         estimate D2E/DX2                !
 ! A11   A(13,3,16)            109.6774         estimate D2E/DX2                !
 ! A12   A(13,3,17)            110.6316         estimate D2E/DX2                !
 ! A13   A(16,3,17)            106.9846         estimate D2E/DX2                !
 ! A14   A(10,4,12)            113.1876         estimate D2E/DX2                !
 ! A15   A(2,5,6)              111.6014         estimate D2E/DX2                !
 ! A16   A(2,5,8)              111.0827         estimate D2E/DX2                !
 ! A17   A(2,5,18)             104.9003         estimate D2E/DX2                !
 ! A18   A(6,5,8)              108.9203         estimate D2E/DX2                !
 ! A19   A(6,5,18)             110.8273         estimate D2E/DX2                !
 ! A20   A(8,5,18)             109.4581         estimate D2E/DX2                !
 ! A21   A(3,6,5)              112.0227         estimate D2E/DX2                !
 ! A22   A(3,6,19)             109.406          estimate D2E/DX2                !
 ! A23   A(3,6,20)             111.6015         estimate D2E/DX2                !
 ! A24   A(5,6,19)             107.2808         estimate D2E/DX2                !
 ! A25   A(5,6,20)             108.864          estimate D2E/DX2                !
 ! A26   A(19,6,20)            107.4717         estimate D2E/DX2                !
 ! A27   A(9,7,10)             110.6103         estimate D2E/DX2                !
 ! A28   A(9,7,21)             110.4669         estimate D2E/DX2                !
 ! A29   A(9,7,22)             109.9451         estimate D2E/DX2                !
 ! A30   A(10,7,21)            109.3218         estimate D2E/DX2                !
 ! A31   A(10,7,22)            109.0358         estimate D2E/DX2                !
 ! A32   A(21,7,22)            107.3908         estimate D2E/DX2                !
 ! A33   A(5,8,11)             116.7127         estimate D2E/DX2                !
 ! A34   A(7,9,11)             109.8721         estimate D2E/DX2                !
 ! A35   A(7,9,23)             109.7441         estimate D2E/DX2                !
 ! A36   A(7,9,24)             110.8555         estimate D2E/DX2                !
 ! A37   A(11,9,23)            108.674          estimate D2E/DX2                !
 ! A38   A(11,9,24)            110.0657         estimate D2E/DX2                !
 ! A39   A(23,9,24)            107.5737         estimate D2E/DX2                !
 ! A40   A(4,10,7)             110.9596         estimate D2E/DX2                !
 ! A41   A(4,10,25)            106.3193         estimate D2E/DX2                !
 ! A42   A(4,10,26)            108.9642         estimate D2E/DX2                !
 ! A43   A(7,10,25)            111.424          estimate D2E/DX2                !
 ! A44   A(7,10,26)            110.6298         estimate D2E/DX2                !
 ! A45   A(25,10,26)           108.4015         estimate D2E/DX2                !
 ! A46   A(8,11,9)             110.131          estimate D2E/DX2                !
 ! A47   A(8,11,12)            108.409          estimate D2E/DX2                !
 ! A48   A(8,11,27)            109.4944         estimate D2E/DX2                !
 ! A49   A(9,11,12)            110.4604         estimate D2E/DX2                !
 ! A50   A(9,11,27)            109.3843         estimate D2E/DX2                !
 ! A51   A(12,11,27)           108.9368         estimate D2E/DX2                !
 ! A52   A(4,12,11)            110.7352         estimate D2E/DX2                !
 ! A53   A(4,12,28)            107.0047         estimate D2E/DX2                !
 ! A54   A(4,12,29)            109.808          estimate D2E/DX2                !
 ! A55   A(11,12,28)           110.8832         estimate D2E/DX2                !
 ! A56   A(11,12,29)           109.7189         estimate D2E/DX2                !
 ! A57   A(28,12,29)           108.6314         estimate D2E/DX2                !
 ! A58   A(1,13,3)             110.1264         estimate D2E/DX2                !
 ! A59   A(1,13,30)            108.9964         estimate D2E/DX2                !
 ! A60   A(1,13,31)            109.2496         estimate D2E/DX2                !
 ! A61   A(3,13,30)            111.1122         estimate D2E/DX2                !
 ! A62   A(3,13,31)            109.8162         estimate D2E/DX2                !
 ! A63   A(30,13,31)           107.4818         estimate D2E/DX2                !
 ! D1    D(13,1,2,5)           -56.787          estimate D2E/DX2                !
 ! D2    D(14,1,2,5)            65.8588         estimate D2E/DX2                !
 ! D3    D(15,1,2,5)          -178.0165         estimate D2E/DX2                !
 ! D4    D(2,1,13,3)            54.979          estimate D2E/DX2                !
 ! D5    D(2,1,13,30)          177.1114         estimate D2E/DX2                !
 ! D6    D(2,1,13,31)          -65.7119         estimate D2E/DX2                !
 ! D7    D(14,1,13,3)          -66.9647         estimate D2E/DX2                !
 ! D8    D(14,1,13,30)          55.1676         estimate D2E/DX2                !
 ! D9    D(14,1,13,31)         172.3444         estimate D2E/DX2                !
 ! D10   D(15,1,13,3)          172.626          estimate D2E/DX2                !
 ! D11   D(15,1,13,30)         -65.2416         estimate D2E/DX2                !
 ! D12   D(15,1,13,31)          51.9351         estimate D2E/DX2                !
 ! D13   D(1,2,5,6)             54.3099         estimate D2E/DX2                !
 ! D14   D(1,2,5,8)            -67.4536         estimate D2E/DX2                !
 ! D15   D(1,2,5,18)           174.3809         estimate D2E/DX2                !
 ! D16   D(13,3,6,5)            51.8208         estimate D2E/DX2                !
 ! D17   D(13,3,6,19)          -67.0102         estimate D2E/DX2                !
 ! D18   D(13,3,6,20)          174.1835         estimate D2E/DX2                !
 ! D19   D(16,3,6,5)           -68.9332         estimate D2E/DX2                !
 ! D20   D(16,3,6,19)          172.2359         estimate D2E/DX2                !
 ! D21   D(16,3,6,20)           53.4296         estimate D2E/DX2                !
 ! D22   D(17,3,6,5)           173.5108         estimate D2E/DX2                !
 ! D23   D(17,3,6,19)           54.6798         estimate D2E/DX2                !
 ! D24   D(17,3,6,20)          -64.1265         estimate D2E/DX2                !
 ! D25   D(6,3,13,1)           -53.2415         estimate D2E/DX2                !
 ! D26   D(6,3,13,30)         -174.1135         estimate D2E/DX2                !
 ! D27   D(6,3,13,31)           67.1084         estimate D2E/DX2                !
 ! D28   D(16,3,13,1)           67.8037         estimate D2E/DX2                !
 ! D29   D(16,3,13,30)         -53.0683         estimate D2E/DX2                !
 ! D30   D(16,3,13,31)        -171.8464         estimate D2E/DX2                !
 ! D31   D(17,3,13,1)         -174.4129         estimate D2E/DX2                !
 ! D32   D(17,3,13,30)          64.7152         estimate D2E/DX2                !
 ! D33   D(17,3,13,31)         -54.063          estimate D2E/DX2                !
 ! D34   D(12,4,10,7)          -60.4702         estimate D2E/DX2                !
 ! D35   D(12,4,10,25)         178.2162         estimate D2E/DX2                !
 ! D36   D(12,4,10,26)          61.5741         estimate D2E/DX2                !
 ! D37   D(10,4,12,11)          60.9647         estimate D2E/DX2                !
 ! D38   D(10,4,12,28)        -178.0811         estimate D2E/DX2                !
 ! D39   D(10,4,12,29)         -60.3551         estimate D2E/DX2                !
 ! D40   D(2,5,6,3)            -51.3047         estimate D2E/DX2                !
 ! D41   D(2,5,6,19)            68.7741         estimate D2E/DX2                !
 ! D42   D(2,5,6,20)          -175.2133         estimate D2E/DX2                !
 ! D43   D(8,5,6,3)             71.7            estimate D2E/DX2                !
 ! D44   D(8,5,6,19)          -168.2212         estimate D2E/DX2                !
 ! D45   D(8,5,6,20)           -52.2086         estimate D2E/DX2                !
 ! D46   D(18,5,6,3)          -167.8254         estimate D2E/DX2                !
 ! D47   D(18,5,6,19)          -47.7466         estimate D2E/DX2                !
 ! D48   D(18,5,6,20)           68.266          estimate D2E/DX2                !
 ! D49   D(2,5,8,11)           -72.6673         estimate D2E/DX2                !
 ! D50   D(6,5,8,11)           164.0178         estimate D2E/DX2                !
 ! D51   D(18,5,8,11)           42.7039         estimate D2E/DX2                !
 ! D52   D(10,7,9,11)          -51.5734         estimate D2E/DX2                !
 ! D53   D(10,7,9,23)           67.8625         estimate D2E/DX2                !
 ! D54   D(10,7,9,24)         -173.4506         estimate D2E/DX2                !
 ! D55   D(21,7,9,11)         -172.7503         estimate D2E/DX2                !
 ! D56   D(21,7,9,23)          -53.3143         estimate D2E/DX2                !
 ! D57   D(21,7,9,24)           65.3725         estimate D2E/DX2                !
 ! D58   D(22,7,9,11)           68.9021         estimate D2E/DX2                !
 ! D59   D(22,7,9,23)         -171.662          estimate D2E/DX2                !
 ! D60   D(22,7,9,24)          -52.9751         estimate D2E/DX2                !
 ! D61   D(9,7,10,4)            54.9714         estimate D2E/DX2                !
 ! D62   D(9,7,10,25)          173.2356         estimate D2E/DX2                !
 ! D63   D(9,7,10,26)          -66.0967         estimate D2E/DX2                !
 ! D64   D(21,7,10,4)          176.8241         estimate D2E/DX2                !
 ! D65   D(21,7,10,25)         -64.9117         estimate D2E/DX2                !
 ! D66   D(21,7,10,26)          55.756          estimate D2E/DX2                !
 ! D67   D(22,7,10,4)          -66.0451         estimate D2E/DX2                !
 ! D68   D(22,7,10,25)          52.2191         estimate D2E/DX2                !
 ! D69   D(22,7,10,26)         172.8868         estimate D2E/DX2                !
 ! D70   D(5,8,11,9)           132.7701         Frozen                          !
 ! D71   D(5,8,11,12)         -106.2735         estimate D2E/DX2                !
 ! D72   D(5,8,11,27)           12.4545         estimate D2E/DX2                !
 ! D73   D(7,9,11,8)           171.7759         estimate D2E/DX2                !
 ! D74   D(7,9,11,12)           52.0563         estimate D2E/DX2                !
 ! D75   D(7,9,11,27)          -67.8422         estimate D2E/DX2                !
 ! D76   D(23,9,11,8)           51.6879         estimate D2E/DX2                !
 ! D77   D(23,9,11,12)         -68.0317         estimate D2E/DX2                !
 ! D78   D(23,9,11,27)         172.0698         estimate D2E/DX2                !
 ! D79   D(24,9,11,8)          -65.8774         estimate D2E/DX2                !
 ! D80   D(24,9,11,12)         174.403          estimate D2E/DX2                !
 ! D81   D(24,9,11,27)          54.5045         estimate D2E/DX2                !
 ! D82   D(8,11,12,4)         -176.9922         estimate D2E/DX2                !
 ! D83   D(8,11,12,28)          64.3794         estimate D2E/DX2                !
 ! D84   D(8,11,12,29)         -55.6198         estimate D2E/DX2                !
 ! D85   D(9,11,12,4)          -56.2397         estimate D2E/DX2                !
 ! D86   D(9,11,12,28)        -174.8681         estimate D2E/DX2                !
 ! D87   D(9,11,12,29)          65.1327         estimate D2E/DX2                !
 ! D88   D(27,11,12,4)          63.9277         estimate D2E/DX2                !
 ! D89   D(27,11,12,28)        -54.7006         estimate D2E/DX2                !
 ! D90   D(27,11,12,29)       -174.6999         estimate D2E/DX2                !
 --------------------------------------------------------------------------------
 Trust Radius=3.00D-01 FncErr=1.00D-07 GrdErr=1.00D-06 EigMax=2.50D+02 EigMin=1.00D-04
 Number of steps in this run=    186 maximum allowed number of steps=    186.
 GradGradGradGradGradGradGradGradGradGradGradGradGradGradGradGradGradGrad

                          Input orientation:                          
 ---------------------------------------------------------------------
 Center     Atomic      Atomic             Coordinates (Angstroms)
 Number     Number       Type             X           Y           Z
 ---------------------------------------------------------------------
      1          6           0       -2.377420    1.401743   -0.381508
      2          8           0       -1.684895    0.485166   -1.220058
      3          6           0       -3.171147   -0.507590    1.020942
      4          8           0        3.273208   -0.959038   -0.436534
      5          6           0       -1.247219   -0.700450   -0.608881
      6          6           0       -2.389140   -1.428183    0.083019
      7          6           0        3.025944    1.381698    0.128907
      8          8           0       -0.240976   -0.442088    0.327092
      9          6           0        1.572890    1.130459    0.541298
     10          6           0        3.852703    0.114962    0.282972
     11          6           0        1.032424   -0.091614   -0.186881
     12          6           0        1.969332   -1.279206   -0.002410
     13          6           0       -3.589078    0.755369    0.268322
     14          1           0       -1.698171    1.783506    0.372603
     15          1           0       -2.662728    2.222755   -1.024556
     16          1           0       -2.558747   -0.237568    1.877158
     17          1           0       -4.041928   -1.029355    1.405787
     18          1           0       -0.844212   -1.296656   -1.415567
     19          1           0       -3.052136   -1.800245   -0.693196
     20          1           0       -1.989218   -2.288021    0.609372
     21          1           0        3.461464    2.170856    0.734443
     22          1           0        3.066256    1.707575   -0.907472
     23          1           0        1.521098    0.948746    1.612618
     24          1           0        0.954968    1.995864    0.325548
     25          1           0        4.850249    0.243605   -0.114197
     26          1           0        3.933807   -0.164635    1.330986
     27          1           0        0.947441    0.128372   -1.244828
     28          1           0        1.639315   -2.125511   -0.589596
     29          1           0        1.990811   -1.570433    1.045388
     30          1           0       -4.056512    1.472664    0.936938
     31          1           0       -4.316182    0.503037   -0.500113
 ---------------------------------------------------------------------
                    Distance matrix (angstroms):
                    1          2          3          4          5
     1  C    0.000000
     2  O    1.422276   0.000000
     3  C    2.498484   2.866460   0.000000
     4  O    6.124207   5.223258   6.622519   0.000000
     5  C    2.397555   1.403846   2.528837   4.531096   0.000000
     6  C    2.867822   2.419685   1.529289   5.705455   1.520626
     7  C    5.427455   4.981514   6.539807   2.420725   4.810363
     8  O    2.909677   2.310492   3.011913   3.633160   1.398328
     9  C    4.065724   3.759247   5.041741   2.865874   3.553611
    10  C    6.396231   5.749882   7.089897   1.416679   5.241136
    11  C    3.727604   2.963773   4.393391   2.415753   2.396985
    12  C    5.121080   4.236632   5.297845   1.411051   3.323998
    13  C    1.519274   2.431912   1.528453   7.108233   2.893648
    14  H    1.084346   2.054856   2.799843   5.735055   2.708635
    15  H    1.081190   2.003396   3.449251   6.760541   3.274382
    16  H    2.796747   3.298289   1.086762   6.315488   2.848641
    17  H    3.446048   3.839849   1.085635   7.543892   3.460847
    18  H    3.271294   1.979864   3.460322   4.245661   1.081027
    19  H    3.287114   2.714781   2.150207   6.386195   2.115274
    20  H    3.840170   3.336164   2.176300   5.527499   2.134264
    21  H    5.994118   5.757312   7.158749   3.347068   5.676320
    22  H    5.477571   4.915835   6.894268   2.715776   4.949122
    23  H    4.402293   4.303179   4.948551   3.302810   3.913884
    24  H    3.457993   3.411742   4.876031   3.832291   3.604566
    25  H    7.324748   6.632450   8.136070   2.009306   6.189917
    26  H    6.724415   6.204827   7.119980   2.047338   5.558166
    27  H    3.663536   2.656522   4.743514   2.691652   2.430619
    28  H    5.349671   4.273580   5.324664   2.013379   3.219200
    29  H    5.472778   4.782107   5.270298   2.052910   3.738758
    30  H    2.136043   3.354452   2.170791   7.843749   3.873514
    31  H    2.140219   2.728060   2.155477   7.729201   3.298294
                    6          7          8          9         10
     6  C    0.000000
     7  C    6.100875   0.000000
     8  O    2.376250   3.746764   0.000000
     9  C    4.738602   1.531193   2.410166   0.000000
    10  C    6.432875   1.520489   4.131641   2.509086   0.000000
    11  C    3.683254   2.498898   1.417232   1.521779   2.866602
    12  C    4.361854   2.866022   2.386378   2.501853   2.360558
    13  C    2.498417   6.646070   3.556282   5.182772   7.469300
    14  H    3.297915   4.747431   2.660593   3.339876   5.796919
    15  H    3.825039   5.865053   3.846196   4.646016   6.971604
    16  H    2.159923   6.071835   2.795817   4.552630   6.616071
    17  H    2.154179   7.576174   3.994459   6.077690   8.055766
    18  H    2.156354   4.953492   2.032496   3.944945   5.190251
    19  H    1.086510   6.909680   3.284539   5.612831   7.231716
    20  H    1.084577   6.232939   2.558027   4.937535   6.325259
    21  H    6.899783   1.085874   4.549887   2.164819   2.140933
    22  H    6.369882   1.087153   4.133157   2.159199   2.138240
    23  H    4.824876   2.157176   2.586871   1.087855   2.810611
    24  H    4.792283   2.169057   2.715492   1.085035   3.454920
    25  H    7.432531   2.163896   5.156111   3.457928   1.081383
    26  H    6.567620   2.158786   4.302743   2.806208   1.087697
    27  H    3.913926   2.788933   2.051510   2.141404   3.282514
    28  H    4.143323   3.839206   2.685093   3.447416   3.268055
    29  H    4.486687   3.259834   2.601919   2.779133   2.624591
    30  H    3.453146   7.128981   4.312366   5.653654   8.051503
    31  H    2.789829   7.421221   4.264368   6.013266   8.215504
                   11         12         13         14         15
    11  C    0.000000
    12  C    1.523877   0.000000
    13  C    4.720474   5.925261   0.000000
    14  H    3.359352   4.792851   2.154871   0.000000
    15  H    4.439837   5.896142   2.163996   1.753671   0.000000
    16  H    4.144643   5.012114   2.153105   2.662521   3.805778
    17  H    5.400463   6.179053   2.164287   3.804320   4.287771
    18  H    2.546283   3.148547   3.818452   3.662540   3.980722
    19  H    4.456389   5.095469   2.782802   3.976483   4.055363
    20  H    3.819495   4.130630   3.455154   4.088777   4.844630
    21  H    3.444974   3.830449   7.206318   5.186791   6.372009
    22  H    2.809414   3.308057   6.825149   4.933976   5.753293
    23  H    2.135263   2.788010   5.287573   3.549388   5.107072
    24  H    2.150848   3.444209   4.710675   2.662040   3.868072
    25  H    3.833203   3.260542   8.463478   6.744633   7.822443
    26  H    3.275252   2.622856   7.653069   6.035969   7.400168
    27  H    1.083913   2.137555   4.823148   3.514942   4.179507
    28  H    2.160378   1.081633   6.030886   5.229250   6.132225
    29  H    2.150325   1.087729   6.094944   5.030918   6.350462
    30  H    5.441250   6.690737   1.086303   2.444764   2.520462
    31  H    5.390669   6.552235   1.087586   3.042239   2.442618
                   16         17         18         19         20
    16  H    0.000000
    17  H    1.746122   0.000000
    18  H    3.860484   4.272807   0.000000
    19  H    3.048297   2.445340   2.377047   0.000000
    20  H    2.477096   2.536165   2.528680   1.750544   0.000000
    21  H    6.584014   8.184922   5.931697   7.761107   7.043235
    22  H    6.571028   7.960417   4.957351   7.055880   6.619926
    23  H    4.257048   5.907869   4.450441   5.812762   4.879086
    24  H    4.443186   5.940357   4.136329   5.612946   5.205810
    25  H    7.687018   9.110521   6.040932   8.182924   7.328778
    26  H    6.515894   8.022823   5.626232   7.454927   6.333381
    27  H    4.708934   5.767139   2.295621   4.474425   4.230955
    28  H    5.222349   6.120428   2.745384   4.703854   3.824943
    29  H    4.813195   6.067668   3.764121   5.339176   4.067637
    30  H    2.460123   2.545610   4.849978   3.791839   4.303923
    31  H    3.047703   2.460873   4.016407   2.634426   3.799437
                   21         22         23         24         25
    21  H    0.000000
    22  H    1.751201   0.000000
    23  H    2.455558   3.051916   0.000000
    24  H    2.545651   2.461907   1.753142   0.000000
    25  H    2.522540   2.440312   3.816066   4.293833   0.000000
    26  H    2.456316   3.044423   2.672096   3.814727   1.759284
    27  H    3.795993   2.664032   3.027721   2.440013   4.064913
    28  H    4.850987   4.102408   3.783488   4.276862   4.018558
    29  H    4.031966   3.964288   2.624622   3.782805   3.579351
    30  H    7.553042   7.361444   5.642762   5.075674   9.052395
    31  H    8.049691   7.491144   6.223835   5.540331   9.178218
                   26         27         28         29         30
    26  H    0.000000
    27  H    3.954624   0.000000
    28  H    3.577480   2.447040   0.000000
    29  H    2.415174   3.036387   1.762054   0.000000
    30  H    8.165857   5.621990   6.907939   6.770695   0.000000
    31  H    8.477088   5.329231   6.510393   6.816598   1.752918
                   31
    31  H    0.000000
 Stoichiometry    C10H18O3
 Framework group  C1[X(C10H18O3)]
 Deg. of freedom    87
 Full point group                 C1      NOp   1
 Largest Abelian subgroup         C1      NOp   1
 Largest concise Abelian subgroup C1      NOp   1
                         Standard orientation:                         
 ---------------------------------------------------------------------
 Center     Atomic      Atomic             Coordinates (Angstroms)
 Number     Number       Type             X           Y           Z
 ---------------------------------------------------------------------
      1          6           0       -2.377420    1.401743   -0.381508
      2          8           0       -1.684895    0.485166   -1.220058
      3          6           0       -3.171147   -0.507590    1.020942
      4          8           0        3.273208   -0.959038   -0.436534
      5          6           0       -1.247219   -0.700450   -0.608881
      6          6           0       -2.389140   -1.428183    0.083019
      7          6           0        3.025944    1.381698    0.128907
      8          8           0       -0.240976   -0.442088    0.327092
      9          6           0        1.572890    1.130459    0.541298
     10          6           0        3.852703    0.114962    0.282972
     11          6           0        1.032424   -0.091614   -0.186881
     12          6           0        1.969332   -1.279206   -0.002410
     13          6           0       -3.589078    0.755369    0.268322
     14          1           0       -1.698171    1.783506    0.372603
     15          1           0       -2.662728    2.222755   -1.024556
     16          1           0       -2.558747   -0.237568    1.877158
     17          1           0       -4.041928   -1.029355    1.405787
     18          1           0       -0.844212   -1.296656   -1.415567
     19          1           0       -3.052136   -1.800245   -0.693196
     20          1           0       -1.989218   -2.288021    0.609372
     21          1           0        3.461464    2.170856    0.734443
     22          1           0        3.066256    1.707575   -0.907472
     23          1           0        1.521098    0.948746    1.612618
     24          1           0        0.954968    1.995864    0.325548
     25          1           0        4.850249    0.243605   -0.114197
     26          1           0        3.933807   -0.164635    1.330986
     27          1           0        0.947441    0.128372   -1.244828
     28          1           0        1.639315   -2.125511   -0.589596
     29          1           0        1.990811   -1.570433    1.045388
     30          1           0       -4.056512    1.472664    0.936938
     31          1           0       -4.316182    0.503037   -0.500113
 ---------------------------------------------------------------------
 Rotational constants (GHZ):           1.9576555           0.4035995           0.3703684
 Standard basis: 6-311++G(2d,2p) (5D, 7F)
 There are   557 symmetry adapted cartesian basis functions of A   symmetry.
 There are   531 symmetry adapted basis functions of A   symmetry.
   531 basis functions,   762 primitive gaussians,   557 cartesian basis functions
    51 alpha electrons       51 beta electrons
       nuclear repulsion energy       890.7809251729 Hartrees.
 NAtoms=   31 NActive=   31 NUniq=   31 SFac= 1.00D+00 NAtFMM=   60 NAOKFM=F Big=F
 Integral buffers will be    131072 words long.
 Raffenetti 2 integral format.
 Two-electron integral symmetry is turned on.
 ------------------------------------------------------------------------------
 Polarizable Continuum Model (PCM)
 =================================
 Model                : PCM.
 Atomic radii         : UFF (Universal Force Field).
 Polarization charges : Total charges.
 Charge compensation  : None.
 Solution method      : On-the-fly selection.
 Cavity type          : Scaled VdW (van der Waals Surface) (Alpha=1.100).
 Cavity algorithm     : GePol (No added spheres)
                        Default sphere list used, NSphG=   31.
                        Lebedev-Laikov grids with approx.  5.0 points / Ang**2.
                        Smoothing algorithm: York/Karplus (Gamma=1.0000).
                        Polarization charges: spherical gaussians, with
                                              point-specific exponents (IZeta= 3).
                        Self-potential: point-specific (ISelfS= 7).
                        Self-field    : sphere-specific E.n sum rule (ISelfD= 2).
 1st derivatives      : Analytical E(r).r(x)/FMM algorithm (CHGder, D1EAlg=3).
                        Cavity 1st derivative terms included.
 Solvent              : Water, Eps=  78.355300 Eps(inf)=   1.777849
 ------------------------------------------------------------------------------
 One-electron integrals computed using PRISM.
 NBasis=   531 RedAO= T EigKep=  5.15D-06  NBF=   531
 NBsUse=   531 1.00D-06 EigRej= -1.00D+00 NBFU=   531
 ExpMin= 3.60D-02 ExpMax= 8.59D+03 ExpMxC= 1.30D+03 IAcc=3 IRadAn=         5 AccDes= 0.00D+00
 Harris functional with IExCor= 1009 and IRadAn=       5 diagonalized for initial guess.
 HarFok:  IExCor= 1009 AccDes= 0.00D+00 IRadAn=         5 IDoV= 1 UseB2=F ITyADJ=14
 ICtDFT=  3500011 ScaDFX=  1.000000  1.000000  1.000000  1.000000
 FoFCou: FMM=F IPFlag=           0 FMFlag=      100000 FMFlg1=           0
         NFxFlg=           0 DoJE=T BraDBF=F KetDBF=T FulRan=T
         wScrn=  0.000000 ICntrl=       500 IOpCl=  0 I1Cent=   200000004 NGrid=           0
         NMat0=    1 NMatS0=      1 NMatT0=    0 NMatD0=    1 NMtDS0=    0 NMtDT0=    0
 Petite list used in FoFCou.
 Requested convergence on RMS density matrix=1.00D-08 within 128 cycles.
 Requested convergence on MAX density matrix=1.00D-06.
 Requested convergence on             energy=1.00D-06.
 No special actions if energy rises.
 Inv3:  Mode=1 IEnd=    13004172.
 Iteration    1 A*A^-1 deviation from unit magnitude is 4.88D-15 for   2079.
 Iteration    1 A*A^-1 deviation from orthogonality  is 1.83D-15 for   2061   1625.
 Iteration    1 A^-1*A deviation from unit magnitude is 4.66D-15 for   2079.
 Iteration    1 A^-1*A deviation from orthogonality  is 1.87D-15 for   2077    937.
 Error on total polarization charges =  0.01495
 SCF Done:  E(RM062X) =  -617.502618872     A.U. after   12 cycles
            NFock= 12  Conv=0.48D-08     -V/T= 2.0035

 **********************************************************************

            Population analysis using the SCF density.

 **********************************************************************

 Orbital symmetries:
       Occupied  (A) (A) (A) (A) (A) (A) (A) (A) (A) (A) (A) (A)
                 (A) (A) (A) (A) (A) (A) (A) (A) (A) (A) (A) (A)
                 (A) (A) (A) (A) (A) (A) (A) (A) (A) (A) (A) (A)
                 (A) (A) (A) (A) (A) (A) (A) (A) (A) (A) (A) (A)
                 (A) (A) (A)
       Virtual   (A) (A) (A) (A) (A) (A) (A) (A) (A) (A) (A) (A)
                 (A) (A) (A) (A) (A) (A) (A) (A) (A) (A) (A) (A)
                 (A) (A) (A) (A) (A) (A) (A) (A) (A) (A) (A) (A)
                 (A) (A) (A) (A) (A) (A) (A) (A) (A) (A) (A) (A)
                 (A) (A) (A) (A) (A) (A) (A) (A) (A) (A) (A) (A)
                 (A) (A) (A) (A) (A) (A) (A) (A) (A) (A) (A) (A)
                 (A) (A) (A) (A) (A) (A) (A) (A) (A) (A) (A) (A)
                 (A) (A) (A) (A) (A) (A) (A) (A) (A) (A) (A) (A)
                 (A) (A) (A) (A) (A) (A) (A) (A) (A) (A) (A) (A)
                 (A) (A) (A) (A) (A) (A) (A) (A) (A) (A) (A) (A)
                 (A) (A) (A) (A) (A) (A) (A) (A) (A) (A) (A) (A)
                 (A) (A) (A) (A) (A) (A) (A) (A) (A) (A) (A) (A)
                 (A) (A) (A) (A) (A) (A) (A) (A) (A) (A) (A) (A)
                 (A) (A) (A) (A) (A) (A) (A) (A) (A) (A) (A) (A)
                 (A) (A) (A) (A) (A) (A) (A) (A) (A) (A) (A) (A)
                 (A) (A) (A) (A) (A) (A) (A) (A) (A) (A) (A) (A)
                 (A) (A) (A) (A) (A) (A) (A) (A) (A) (A) (A) (A)
                 (A) (A) (A) (A) (A) (A) (A) (A) (A) (A) (A) (A)
                 (A) (A) (A) (A) (A) (A) (A) (A) (A) (A) (A) (A)
                 (A) (A) (A) (A) (A) (A) (A) (A) (A) (A) (A) (A)
                 (A) (A) (A) (A) (A) (A) (A) (A) (A) (A) (A) (A)
                 (A) (A) (A) (A) (A) (A) (A) (A) (A) (A) (A) (A)
                 (A) (A) (A) (A) (A) (A) (A) (A) (A) (A) (A) (A)
                 (A) (A) (A) (A) (A) (A) (A) (A) (A) (A) (A) (A)
                 (A) (A) (A) (A) (A) (A) (A) (A) (A) (A) (A) (A)
                 (A) (A) (A) (A) (A) (A) (A) (A) (A) (A) (A) (A)
                 (A) (A) (A) (A) (A) (A) (A) (A) (A) (A) (A) (A)
                 (A) (A) (A) (A) (A) (A) (A) (A) (A) (A) (A) (A)
                 (A) (A) (A) (A) (A) (A) (A) (A) (A) (A) (A) (A)
                 (A) (A) (A) (A) (A) (A) (A) (A) (A) (A) (A) (A)
                 (A) (A) (A) (A) (A) (A) (A) (A) (A) (A) (A) (A)
                 (A) (A) (A) (A) (A) (A) (A) (A) (A) (A) (A) (A)
                 (A) (A) (A) (A) (A) (A) (A) (A) (A) (A) (A) (A)
                 (A) (A) (A) (A) (A) (A) (A) (A) (A) (A) (A) (A)
                 (A) (A) (A) (A) (A) (A) (A) (A) (A) (A) (A) (A)
                 (A) (A) (A) (A) (A) (A) (A) (A) (A) (A) (A) (A)
                 (A) (A) (A) (A) (A) (A) (A) (A) (A) (A) (A) (A)
                 (A) (A) (A) (A) (A) (A) (A) (A) (A) (A) (A) (A)
                 (A) (A) (A) (A) (A) (A) (A) (A) (A) (A) (A) (A)
                 (A) (A) (A) (A) (A) (A) (A) (A) (A) (A) (A) (A)
 The electronic state is 1-A.
 Alpha  occ. eigenvalues --  -19.63100 -19.62904 -19.62757 -10.63468 -10.58616
 Alpha  occ. eigenvalues --  -10.57866 -10.57801 -10.57613 -10.53155 -10.53116
 Alpha  occ. eigenvalues --  -10.53005 -10.52965 -10.52759  -1.20299  -1.16749
 Alpha  occ. eigenvalues --   -1.13626  -0.91044  -0.89786  -0.87468  -0.84688
 Alpha  occ. eigenvalues --   -0.74728  -0.74198  -0.73370  -0.71147  -0.65852
 Alpha  occ. eigenvalues --   -0.64274  -0.59986  -0.58652  -0.57729  -0.56357
 Alpha  occ. eigenvalues --   -0.54273  -0.53327  -0.51980  -0.51453  -0.49847
 Alpha  occ. eigenvalues --   -0.47982  -0.47440  -0.46052  -0.45472  -0.45125
 Alpha  occ. eigenvalues --   -0.44210  -0.42341  -0.40751  -0.40431  -0.39314
 Alpha  occ. eigenvalues --   -0.38580  -0.38062  -0.36101  -0.35514  -0.33426
 Alpha  occ. eigenvalues --   -0.31678
 Alpha virt. eigenvalues --   -0.00070   0.00756   0.00875   0.01040   0.02149
 Alpha virt. eigenvalues --    0.02481   0.02628   0.03391   0.03586   0.04342
 Alpha virt. eigenvalues --    0.04669   0.04758   0.05469   0.05955   0.07039
 Alpha virt. eigenvalues --    0.07486   0.07612   0.07950   0.08585   0.08986
 Alpha virt. eigenvalues --    0.10169   0.10823   0.11009   0.11717   0.11926
 Alpha virt. eigenvalues --    0.12170   0.12620   0.12816   0.13045   0.13430
 Alpha virt. eigenvalues --    0.13878   0.14038   0.14288   0.14521   0.14994
 Alpha virt. eigenvalues --    0.15044   0.15307   0.15531   0.15731   0.16126
 Alpha virt. eigenvalues --    0.16499   0.16683   0.17228   0.17617   0.17912
 Alpha virt. eigenvalues --    0.18078   0.18282   0.18713   0.19286   0.19432
 Alpha virt. eigenvalues --    0.19917   0.20319   0.21014   0.21159   0.21716
 Alpha virt. eigenvalues --    0.22102   0.22477   0.22612   0.23257   0.23721
 Alpha virt. eigenvalues --    0.24938   0.25583   0.25940   0.26556   0.26718
 Alpha virt. eigenvalues --    0.27676   0.27992   0.28204   0.28922   0.29540
 Alpha virt. eigenvalues --    0.29863   0.30292   0.30639   0.31081   0.31405
 Alpha virt. eigenvalues --    0.31946   0.32299   0.32511   0.33787   0.34598
 Alpha virt. eigenvalues --    0.34967   0.35218   0.35551   0.35838   0.36289
 Alpha virt. eigenvalues --    0.36573   0.37140   0.37398   0.37686   0.37839
 Alpha virt. eigenvalues --    0.38481   0.38972   0.39468   0.39703   0.40791
 Alpha virt. eigenvalues --    0.41820   0.42245   0.43334   0.43819   0.44199
 Alpha virt. eigenvalues --    0.45693   0.48106   0.48474   0.50003   0.51041
 Alpha virt. eigenvalues --    0.51862   0.52223   0.53078   0.54487   0.54865
 Alpha virt. eigenvalues --    0.56156   0.56630   0.58008   0.58706   0.59486
 Alpha virt. eigenvalues --    0.59818   0.60434   0.61010   0.61272   0.61950
 Alpha virt. eigenvalues --    0.62116   0.63015   0.63564   0.64301   0.64567
 Alpha virt. eigenvalues --    0.64825   0.65098   0.65780   0.66253   0.66711
 Alpha virt. eigenvalues --    0.67548   0.67868   0.68777   0.68999   0.69949
 Alpha virt. eigenvalues --    0.70717   0.71232   0.71657   0.72561   0.73232
 Alpha virt. eigenvalues --    0.73559   0.74177   0.74649   0.75134   0.75627
 Alpha virt. eigenvalues --    0.76167   0.76733   0.77028   0.78587   0.79374
 Alpha virt. eigenvalues --    0.80374   0.81407   0.84332   0.84614   0.85757
 Alpha virt. eigenvalues --    0.86050   0.87054   0.87307   0.87969   0.89388
 Alpha virt. eigenvalues --    0.90337   0.91447   0.92662   0.94244   0.95610
 Alpha virt. eigenvalues --    0.96073   0.97090   0.99588   1.00674   1.01888
 Alpha virt. eigenvalues --    1.03028   1.04170   1.04696   1.05053   1.06405
 Alpha virt. eigenvalues --    1.07844   1.08472   1.09200   1.10141   1.12418
 Alpha virt. eigenvalues --    1.12747   1.13728   1.14348   1.16319   1.17034
 Alpha virt. eigenvalues --    1.17431   1.17980   1.18493   1.19679   1.20248
 Alpha virt. eigenvalues --    1.20834   1.22970   1.23455   1.23644   1.24274
 Alpha virt. eigenvalues --    1.25408   1.25772   1.26630   1.26807   1.27672
 Alpha virt. eigenvalues --    1.28105   1.28756   1.29528   1.30305   1.31129
 Alpha virt. eigenvalues --    1.31665   1.32330   1.33244   1.33866   1.34117
 Alpha virt. eigenvalues --    1.34291   1.35361   1.35635   1.36379   1.37005
 Alpha virt. eigenvalues --    1.38329   1.39253   1.39691   1.40783   1.41314
 Alpha virt. eigenvalues --    1.41913   1.42364   1.42641   1.44269   1.45128
 Alpha virt. eigenvalues --    1.45544   1.46228   1.46523   1.47632   1.48458
 Alpha virt. eigenvalues --    1.48896   1.49259   1.50093   1.50362   1.52216
 Alpha virt. eigenvalues --    1.52968   1.53553   1.54187   1.55655   1.55752
 Alpha virt. eigenvalues --    1.56496   1.57033   1.58110   1.58190   1.58507
 Alpha virt. eigenvalues --    1.59480   1.59946   1.60418   1.61161   1.61639
 Alpha virt. eigenvalues --    1.62964   1.63479   1.64353   1.64684   1.66572
 Alpha virt. eigenvalues --    1.67328   1.68285   1.69172   1.71604   1.72188
 Alpha virt. eigenvalues --    1.73730   1.74125   1.75357   1.76832   1.77305
 Alpha virt. eigenvalues --    1.78482   1.78910   1.80573   1.81090   1.84181
 Alpha virt. eigenvalues --    1.85797   1.90146   1.91312   1.94861   1.97046
 Alpha virt. eigenvalues --    2.00693   2.06716   2.12607   2.17123   2.20063
 Alpha virt. eigenvalues --    2.24823   2.26252   2.31601   2.33075   2.37928
 Alpha virt. eigenvalues --    2.42320   2.43740   2.44313   2.46470   2.52454
 Alpha virt. eigenvalues --    2.60092   2.75745   2.76747   2.79811   2.80559
 Alpha virt. eigenvalues --    2.82902   2.89376   2.91912   2.92788   2.93302
 Alpha virt. eigenvalues --    2.95855   2.97002   3.01495   3.02740   3.02973
 Alpha virt. eigenvalues --    3.05977   3.07463   3.08561   3.09154   3.11715
 Alpha virt. eigenvalues --    3.12576   3.14680   3.17127   3.19077   3.22106
 Alpha virt. eigenvalues --    3.26573   3.30014   3.31025   3.33010   3.34805
 Alpha virt. eigenvalues --    3.35778   3.36461   3.37554   3.40681   3.41580
 Alpha virt. eigenvalues --    3.42139   3.43365   3.44956   3.45569   3.46691
 Alpha virt. eigenvalues --    3.47309   3.49474   3.50284   3.50899   3.52669
 Alpha virt. eigenvalues --    3.52930   3.53327   3.54147   3.54941   3.55840
 Alpha virt. eigenvalues --    3.56380   3.57541   3.58549   3.59232   3.59773
 Alpha virt. eigenvalues --    3.60210   3.61373   3.63139   3.63994   3.64909
 Alpha virt. eigenvalues --    3.65193   3.67318   3.68015   3.68347   3.69658
 Alpha virt. eigenvalues --    3.69758   3.70488   3.71013   3.72421   3.73725
 Alpha virt. eigenvalues --    3.74169   3.74484   3.76596   3.76713   3.77776
 Alpha virt. eigenvalues --    3.77899   3.78969   3.79434   3.81378   3.83703
 Alpha virt. eigenvalues --    3.86778   3.87629   3.89539   3.91065   3.92509
 Alpha virt. eigenvalues --    3.93415   3.93618   3.94213   3.96746   3.97751
 Alpha virt. eigenvalues --    3.99125   4.01512   4.02379   4.02930   4.04121
 Alpha virt. eigenvalues --    4.04345   4.05463   4.06438   4.07212   4.07623
 Alpha virt. eigenvalues --    4.08021   4.08535   4.09262   4.10586   4.11125
 Alpha virt. eigenvalues --    4.12294   4.12430   4.13231   4.15126   4.15778
 Alpha virt. eigenvalues --    4.16464   4.17512   4.18533   4.19276   4.20066
 Alpha virt. eigenvalues --    4.21188   4.24066   4.24335   4.24886   4.28179
 Alpha virt. eigenvalues --    4.28690   4.29214   4.30305   4.30817   4.32300
 Alpha virt. eigenvalues --    4.33277   4.33971   4.34394   4.34830   4.40062
 Alpha virt. eigenvalues --    4.40737   4.42336   4.44545   4.45866   4.46868
 Alpha virt. eigenvalues --    4.58386   4.61414   4.74870   4.76903   4.82973
 Alpha virt. eigenvalues --    4.85153   4.92719   4.95288   4.99663   5.00648
 Alpha virt. eigenvalues --    5.06389   5.07155   5.07926   5.08795   5.11705
 Alpha virt. eigenvalues --    5.12406   5.13845   5.15366   5.30530   5.38269
 Alpha virt. eigenvalues --    5.41943   5.57243   5.58893   5.64136   5.85811
 Alpha virt. eigenvalues --    5.87522   6.05809   7.03272   7.04615   7.05702
 Alpha virt. eigenvalues --    7.08183   7.10379   7.12907   7.15315   7.19752
 Alpha virt. eigenvalues --    7.27930   7.34858   7.38702   7.44053   7.53002
 Alpha virt. eigenvalues --    7.55533   7.66721  23.96178  23.97175  24.06801
 Alpha virt. eigenvalues --   24.07168  24.11166  24.13115  24.14016  24.15454
 Alpha virt. eigenvalues --   24.16205  24.20258  50.16225  50.17417  50.26365
          Condensed to atoms (all electrons):
               1          2          3          4          5          6
     1  C    5.461347   0.140096   0.005894   0.000504  -0.506260   0.169867
     2  O    0.140096   8.177903  -0.000381   0.000451   0.340211  -0.079345
     3  C    0.005894  -0.000381   5.614827   0.000167  -0.059826  -0.085243
     4  O    0.000504   0.000451   0.000167   8.321771   0.003152   0.000151
     5  C   -0.506260   0.340211  -0.059826   0.003152   7.147672  -0.911758
     6  C    0.169867  -0.079345  -0.085243   0.000151  -0.911758   6.779444
     7  C   -0.016065   0.001388  -0.000312  -0.032154   0.001812   0.003622
     8  O    0.001248  -0.033824  -0.028958   0.002427   0.312430  -0.078459
     9  C    0.046828  -0.105074   0.035861  -0.020179   0.219608  -0.245839
    10  C    0.001688   0.001963  -0.003845   0.103746  -0.047523  -0.000358
    11  C    0.111743   0.059810  -0.037121   0.019271  -1.053598   0.087811
    12  C   -0.027028   0.023276   0.007180   0.164423   0.174212   0.110139
    13  C   -0.066100  -0.082862   0.028637   0.000014   0.215185  -0.154602
    14  H    0.476515  -0.035223  -0.004364  -0.000307   0.002082   0.024378
    15  H    0.431179  -0.070291   0.009451   0.000028  -0.019216   0.003801
    16  H    0.006346   0.002274   0.518381   0.000022  -0.009073  -0.054883
    17  H    0.012703  -0.005295   0.426300  -0.000003   0.023241  -0.052581
    18  H   -0.023383  -0.061819  -0.001543   0.001947   0.478670  -0.066836
    19  H    0.018293  -0.008471  -0.012389  -0.000085  -0.154110   0.536067
    20  H    0.006919   0.010025  -0.038121   0.000421  -0.020343   0.419965
    21  H    0.001341  -0.000498   0.000093   0.006825  -0.004489  -0.002137
    22  H   -0.000225   0.000171   0.000685  -0.000236   0.007845   0.003395
    23  H    0.003276   0.000545  -0.001549   0.000306  -0.001555   0.005238
    24  H   -0.005492   0.004600   0.001134  -0.001710   0.023206   0.003179
    25  H   -0.000005   0.000139  -0.000220  -0.072282  -0.003891   0.000021
    26  H   -0.000179  -0.000145   0.000496  -0.044670   0.006033   0.000814
    27  H    0.009485  -0.008484  -0.005036  -0.012808  -0.047751  -0.026387
    28  H    0.001375   0.000436   0.003440  -0.077299   0.019180  -0.020196
    29  H   -0.001554  -0.000044   0.000940  -0.038355   0.001051   0.010437
    30  H   -0.043379   0.010709  -0.038059   0.000009   0.004256  -0.008404
    31  H   -0.080746  -0.000372  -0.025173  -0.000008   0.006718  -0.007901
               7          8          9         10         11         12
     1  C   -0.016065   0.001248   0.046828   0.001688   0.111743  -0.027028
     2  O    0.001388  -0.033824  -0.105074   0.001963   0.059810   0.023276
     3  C   -0.000312  -0.028958   0.035861  -0.003845  -0.037121   0.007180
     4  O   -0.032154   0.002427  -0.020179   0.103746   0.019271   0.164423
     5  C    0.001812   0.312430   0.219608  -0.047523  -1.053598   0.174212
     6  C    0.003622  -0.078459  -0.245839  -0.000358   0.087811   0.110139
     7  C    5.802234   0.013578  -0.202516   0.011058  -0.177785   0.252466
     8  O    0.013578   8.255649  -0.120539   0.012777   0.132116  -0.190882
     9  C   -0.202516  -0.120539   8.050715  -0.121251  -2.066473  -0.168699
    10  C    0.011058   0.012777  -0.121251   5.446888   0.294764  -0.290957
    11  C   -0.177785   0.132116  -2.066473   0.294764   9.082463  -0.730768
    12  C    0.252466  -0.190882  -0.168699  -0.290957  -0.730768   6.307899
    13  C    0.007091  -0.004686  -0.091250   0.003774   0.110966  -0.000468
    14  H   -0.007796   0.006782   0.018617  -0.001454  -0.048437   0.007827
    15  H   -0.001699   0.000215   0.001341   0.000215   0.011526  -0.002124
    16  H    0.000901  -0.004026   0.003070  -0.000554  -0.012462   0.003675
    17  H   -0.000106  -0.000147  -0.001256   0.000047   0.002110  -0.000841
    18  H   -0.006218  -0.022915   0.007343   0.000511   0.038607  -0.028182
    19  H   -0.000048   0.009391  -0.010566   0.000479   0.020692   0.001005
    20  H   -0.001190  -0.003286   0.017320  -0.001487  -0.024894   0.003570
    21  H    0.412078  -0.001934   0.011637  -0.028562  -0.022840  -0.012316
    22  H    0.484583  -0.000031  -0.016564  -0.086696  -0.032178   0.013188
    23  H   -0.104498  -0.006690   0.476592  -0.002396   0.039834  -0.048154
    24  H    0.057671   0.006261   0.391796  -0.019792  -0.088537   0.034752
    25  H   -0.043190   0.000960  -0.001817   0.435389   0.006811   0.014298
    26  H   -0.032051   0.000482  -0.023483   0.448615   0.031973  -0.032317
    27  H   -0.031694  -0.025543   0.090189   0.015739   0.459711  -0.105548
    28  H    0.014373   0.000224   0.052585   0.004838  -0.090775   0.434368
    29  H   -0.004393   0.011272  -0.022031   0.002831  -0.017265   0.386355
    30  H   -0.000150   0.000630   0.004564   0.000139   0.000364  -0.002097
    31  H    0.000405  -0.000468  -0.002267  -0.000153  -0.007268   0.002446
              13         14         15         16         17         18
     1  C   -0.066100   0.476515   0.431179   0.006346   0.012703  -0.023383
     2  O   -0.082862  -0.035223  -0.070291   0.002274  -0.005295  -0.061819
     3  C    0.028637  -0.004364   0.009451   0.518381   0.426300  -0.001543
     4  O    0.000014  -0.000307   0.000028   0.000022  -0.000003   0.001947
     5  C    0.215185   0.002082  -0.019216  -0.009073   0.023241   0.478670
     6  C   -0.154602   0.024378   0.003801  -0.054883  -0.052581  -0.066836
     7  C    0.007091  -0.007796  -0.001699   0.000901  -0.000106  -0.006218
     8  O   -0.004686   0.006782   0.000215  -0.004026  -0.000147  -0.022915
     9  C   -0.091250   0.018617   0.001341   0.003070  -0.001256   0.007343
    10  C    0.003774  -0.001454   0.000215  -0.000554   0.000047   0.000511
    11  C    0.110966  -0.048437   0.011526  -0.012462   0.002110   0.038607
    12  C   -0.000468   0.007827  -0.002124   0.003675  -0.000841  -0.028182
    13  C    5.679805  -0.072518  -0.017791  -0.070758  -0.027806   0.014227
    14  H   -0.072518   0.519722  -0.018392  -0.001599  -0.001947  -0.000461
    15  H   -0.017791  -0.018392   0.480425  -0.002326   0.001999   0.000096
    16  H   -0.070758  -0.001599  -0.002326   0.457112  -0.006927  -0.002719
    17  H   -0.027806  -0.001947   0.001999  -0.006927   0.464331   0.002444
    18  H    0.014227  -0.000461   0.000096  -0.002719   0.002444   0.449166
    19  H   -0.019375  -0.000973   0.000577   0.001349  -0.002765  -0.012227
    20  H   -0.005886   0.000241   0.001067  -0.001252  -0.008511  -0.009327
    21  H   -0.000668  -0.000368   0.000040   0.000020  -0.000013  -0.000076
    22  H   -0.000615   0.000849  -0.000019  -0.000045   0.000030   0.000474
    23  H   -0.001529   0.000032   0.000327  -0.000911  -0.000006   0.000691
    24  H   -0.002121  -0.000925  -0.000648   0.001414   0.000070  -0.000778
    25  H    0.000219  -0.000280   0.000007   0.000014  -0.000003  -0.000112
    26  H   -0.000214   0.000236  -0.000026  -0.000043   0.000028   0.000442
    27  H    0.000430  -0.001529   0.001192   0.000018  -0.000328  -0.003563
    28  H   -0.001350  -0.000760  -0.000030   0.000320  -0.000159  -0.008589
    29  H    0.002122  -0.000269   0.000015  -0.000564   0.000362   0.002159
    30  H    0.444472  -0.000276  -0.009245  -0.003956  -0.006654   0.001174
    31  H    0.482702   0.003876  -0.007011   0.001715  -0.002663   0.000276
              19         20         21         22         23         24
     1  C    0.018293   0.006919   0.001341  -0.000225   0.003276  -0.005492
     2  O   -0.008471   0.010025  -0.000498   0.000171   0.000545   0.004600
     3  C   -0.012389  -0.038121   0.000093   0.000685  -0.001549   0.001134
     4  O   -0.000085   0.000421   0.006825  -0.000236   0.000306  -0.001710
     5  C   -0.154110  -0.020343  -0.004489   0.007845  -0.001555   0.023206
     6  C    0.536067   0.419965  -0.002137   0.003395   0.005238   0.003179
     7  C   -0.000048  -0.001190   0.412078   0.484583  -0.104498   0.057671
     8  O    0.009391  -0.003286  -0.001934  -0.000031  -0.006690   0.006261
     9  C   -0.010566   0.017320   0.011637  -0.016564   0.476592   0.391796
    10  C    0.000479  -0.001487  -0.028562  -0.086696  -0.002396  -0.019792
    11  C    0.020692  -0.024894  -0.022840  -0.032178   0.039834  -0.088537
    12  C    0.001005   0.003570  -0.012316   0.013188  -0.048154   0.034752
    13  C   -0.019375  -0.005886  -0.000668  -0.000615  -0.001529  -0.002121
    14  H   -0.000973   0.000241  -0.000368   0.000849   0.000032  -0.000925
    15  H    0.000577   0.001067   0.000040  -0.000019   0.000327  -0.000648
    16  H    0.001349  -0.001252   0.000020  -0.000045  -0.000911   0.001414
    17  H   -0.002765  -0.008511  -0.000013   0.000030  -0.000006   0.000070
    18  H   -0.012227  -0.009327  -0.000076   0.000474   0.000691  -0.000778
    19  H    0.450408  -0.003409  -0.000032  -0.000088   0.000147  -0.000190
    20  H   -0.003409   0.477998   0.000023   0.000156   0.000175   0.000048
    21  H   -0.000032   0.000023   0.493304  -0.008891  -0.004277  -0.014940
    22  H   -0.000088   0.000156  -0.008891   0.475975   0.003353  -0.001857
    23  H    0.000147   0.000175  -0.004277   0.003353   0.460457  -0.020120
    24  H   -0.000190   0.000048  -0.014940  -0.001857  -0.020120   0.507301
    25  H    0.000035  -0.000096  -0.008232  -0.005327  -0.001081   0.001029
    26  H   -0.000060   0.000089   0.001523   0.003731  -0.006282   0.001617
    27  H    0.000802   0.000565   0.001501  -0.007708   0.005054  -0.008504
    28  H    0.000088  -0.000139   0.002924  -0.002752  -0.002628   0.000047
    29  H   -0.000160  -0.001611  -0.002669   0.002402  -0.003170  -0.000892
    30  H   -0.002102   0.001012   0.000038  -0.000031  -0.000101  -0.000258
    31  H   -0.003106  -0.001100  -0.000022   0.000009  -0.000036   0.000708
              25         26         27         28         29         30
     1  C   -0.000005  -0.000179   0.009485   0.001375  -0.001554  -0.043379
     2  O    0.000139  -0.000145  -0.008484   0.000436  -0.000044   0.010709
     3  C   -0.000220   0.000496  -0.005036   0.003440   0.000940  -0.038059
     4  O   -0.072282  -0.044670  -0.012808  -0.077299  -0.038355   0.000009
     5  C   -0.003891   0.006033  -0.047751   0.019180   0.001051   0.004256
     6  C    0.000021   0.000814  -0.026387  -0.020196   0.010437  -0.008404
     7  C   -0.043190  -0.032051  -0.031694   0.014373  -0.004393  -0.000150
     8  O    0.000960   0.000482  -0.025543   0.000224   0.011272   0.000630
     9  C   -0.001817  -0.023483   0.090189   0.052585  -0.022031   0.004564
    10  C    0.435389   0.448615   0.015739   0.004838   0.002831   0.000139
    11  C    0.006811   0.031973   0.459711  -0.090775  -0.017265   0.000364
    12  C    0.014298  -0.032317  -0.105548   0.434368   0.386355  -0.002097
    13  C    0.000219  -0.000214   0.000430  -0.001350   0.002122   0.444472
    14  H   -0.000280   0.000236  -0.001529  -0.000760  -0.000269  -0.000276
    15  H    0.000007  -0.000026   0.001192  -0.000030   0.000015  -0.009245
    16  H    0.000014  -0.000043   0.000018   0.000320  -0.000564  -0.003956
    17  H   -0.000003   0.000028  -0.000328  -0.000159   0.000362  -0.006654
    18  H   -0.000112   0.000442  -0.003563  -0.008589   0.002159   0.001174
    19  H    0.000035  -0.000060   0.000802   0.000088  -0.000160  -0.002102
    20  H   -0.000096   0.000089   0.000565  -0.000139  -0.001611   0.001012
    21  H   -0.008232   0.001523   0.001501   0.002924  -0.002669   0.000038
    22  H   -0.005327   0.003731  -0.007708  -0.002752   0.002402  -0.000031
    23  H   -0.001081  -0.006282   0.005054  -0.002628  -0.003170  -0.000101
    24  H    0.001029   0.001617  -0.008504   0.000047  -0.000892  -0.000258
    25  H    0.475307  -0.008268   0.000141   0.002859  -0.002713   0.000002
    26  H   -0.008268   0.503155  -0.003100  -0.004984   0.011426   0.000005
    27  H    0.000141  -0.003100   0.434992  -0.000266  -0.005059   0.000270
    28  H    0.002859  -0.004984  -0.000266   0.503592  -0.022248   0.000068
    29  H   -0.002713   0.011426  -0.005059  -0.022248   0.494300   0.000043
    30  H    0.000002   0.000005   0.000270   0.000068   0.000043   0.487278
    31  H    0.000001  -0.000004  -0.000330  -0.000089  -0.000035  -0.011896
              31
     1  C   -0.080746
     2  O   -0.000372
     3  C   -0.025173
     4  O   -0.000008
     5  C    0.006718
     6  C   -0.007901
     7  C    0.000405
     8  O   -0.000468
     9  C   -0.002267
    10  C   -0.000153
    11  C   -0.007268
    12  C    0.002446
    13  C    0.482702
    14  H    0.003876
    15  H   -0.007011
    16  H    0.001715
    17  H   -0.002663
    18  H    0.000276
    19  H   -0.003106
    20  H   -0.001100
    21  H   -0.000022
    22  H    0.000009
    23  H   -0.000036
    24  H    0.000708
    25  H    0.000001
    26  H   -0.000004
    27  H   -0.000330
    28  H   -0.000089
    29  H   -0.000035
    30  H   -0.011896
    31  H    0.484786
 Mulliken charges:
               1
     1  C   -0.136232
     2  O   -0.281868
     3  C   -0.311346
     4  O   -0.325538
     5  C   -0.147172
     6  C   -0.363401
     7  C   -0.401397
     8  O   -0.244055
     9  C   -0.208263
    10  C   -0.180433
    11  C   -0.100168
    12  C   -0.300698
    13  C   -0.369043
    14  H    0.136721
    15  H    0.205316
    16  H    0.175469
    17  H    0.184348
    18  H    0.250520
    19  H    0.190823
    20  H    0.181060
    21  H    0.181617
    22  H    0.166417
    23  H    0.208954
    24  H    0.131930
    25  H    0.210286
    26  H    0.145161
    27  H    0.273551
    28  H    0.191545
    29  H    0.197317
    30  H    0.171578
    31  H    0.167004
 Sum of Mulliken charges =  -0.00000
 Mulliken charges with hydrogens summed into heavy atoms:
               1
     1  C    0.205804
     2  O   -0.281868
     3  C    0.048470
     4  O   -0.325538
     5  C    0.103348
     6  C    0.008481
     7  C   -0.053364
     8  O   -0.244055
     9  C    0.132621
    10  C    0.175014
    11  C    0.173383
    12  C    0.088164
    13  C   -0.030461
 Electronic spatial extent (au):  <R**2>=           3121.9892
 Charge=             -0.0000 electrons
 Dipole moment (field-independent basis, Debye):
    X=             -1.0977    Y=              1.0709    Z=              1.6317  Tot=              2.2392
 Quadrupole moment (field-independent basis, Debye-Ang):
   XX=            -76.1579   YY=            -76.9731   ZZ=            -83.3706
   XY=              5.8835   XZ=              2.2800   YZ=              1.1876
 Traceless Quadrupole moment (field-independent basis, Debye-Ang):
   XX=              2.6760   YY=              1.8608   ZZ=             -4.5368
   XY=              5.8835   XZ=              2.2800   YZ=              1.1876
 Octapole moment (field-independent basis, Debye-Ang**2):
  XXX=            -15.9386  YYY=             -0.0487  ZZZ=              1.5710  XYY=             -8.7863
  XXY=             24.9063  XXZ=             19.3418  XZZ=              5.3749  YZZ=             -2.2961
  YYZ=             -2.3656  XYZ=             -4.9253
 Hexadecapole moment (field-independent basis, Debye-Ang**3):
 XXXX=          -3160.4901 YYYY=           -608.5538 ZZZZ=           -304.7098 XXXY=             77.1451
 XXXZ=             44.0853 YYYX=            -12.1984 YYYZ=             -0.9398 ZZZX=             -0.4081
 ZZZY=              2.8730 XXYY=           -645.5465 XXZZ=           -601.6538 YYZZ=           -148.0873
 XXYZ=            -13.0281 YYXZ=              9.3714 ZZXY=              0.8268
 N-N= 8.907809251729D+02 E-N=-3.223369521370D+03  KE= 6.153508436455D+02
 D1PCM: PCM CHGder 1st derivatives, ID1Alg=3 FixD1E=F DoIter=F DoCFld=F I1PDM=0.
 Calling FoFJK, ICntrl=      2127 FMM=F ISym2X=0 I1Cent= 0 IOpClX= 0 NMat=1 NMatS=1 NMatT=0.
 ***** Axes restored to original set *****
 -------------------------------------------------------------------
 Center     Atomic                   Forces (Hartrees/Bohr)
 Number     Number              X              Y              Z
 -------------------------------------------------------------------
      1        6          -0.002246279   -0.006150553    0.002006021
      2        8           0.001674613    0.001460795   -0.010949231
      3        6           0.001157761    0.000992369   -0.003677994
      4        8           0.004280695   -0.004441547   -0.006947364
      5        6          -0.003866325    0.003646203    0.005188108
      6        6           0.000770516    0.001918403    0.001834409
      7        6          -0.000776115   -0.001518551    0.002256880
      8        8          -0.001958397   -0.000571148    0.011960540
      9        6           0.003129089   -0.002643727   -0.003080836
     10        6          -0.006529705    0.001642464   -0.001777702
     11        6          -0.000897500   -0.000180290    0.003345763
     12        6           0.002648599    0.006960401   -0.001097548
     13        6           0.002447097   -0.000275495    0.001370954
     14        1           0.003744006    0.001494621    0.005261964
     15        1          -0.001272151    0.003282837   -0.002668971
     16        1           0.002791943    0.001029820    0.002022380
     17        1          -0.002082269   -0.001269525    0.000811003
     18        1           0.002245166   -0.003917968   -0.006570290
     19        1          -0.002070797   -0.000596397   -0.002653046
     20        1           0.001400290   -0.002295266    0.001714217
     21        1           0.000915861    0.002412458    0.001546998
     22        1           0.000052914    0.000304431   -0.003205842
     23        1          -0.000396266   -0.001649588    0.003476597
     24        1          -0.002509125    0.002234200   -0.000826033
     25        1           0.003950026    0.000602553   -0.001711232
     26        1          -0.000041080   -0.000525445    0.006177647
     27        1           0.000285608    0.001843831   -0.006633603
     28        1          -0.002170261   -0.003695841   -0.002714828
     29        1          -0.001599406   -0.000637799    0.006329329
     30        1          -0.001418533    0.001604523    0.001884598
     31        1          -0.001659973   -0.001060769   -0.002672891
 -------------------------------------------------------------------
 Cartesian Forces:  Max     0.011960540 RMS     0.003361464

 GradGradGradGradGradGradGradGradGradGradGradGradGradGradGradGradGradGrad
 Berny optimization.
 FormGI is forming the generalized inverse of G from B-inverse, IUseBI=4.
 Internal  Forces:  Max     0.010304594 RMS     0.001995279
 Search for a local minimum.
 Step number   1 out of a maximum of  186
 All quantities printed in internal units (Hartrees-Bohrs-Radians)
 Mixed Optimization -- RFO/linear search
 Second derivative matrix not updated -- first step.
 ITU=  0
     Eigenvalues ---    0.00628   0.00644   0.00730   0.00743   0.01406
     Eigenvalues ---    0.01447   0.01714   0.02699   0.02766   0.03077
     Eigenvalues ---    0.03161   0.04096   0.04220   0.04632   0.04751
     Eigenvalues ---    0.04859   0.04887   0.05129   0.05140   0.05171
     Eigenvalues ---    0.05247   0.05690   0.05740   0.06159   0.06176
     Eigenvalues ---    0.06377   0.06497   0.06953   0.07584   0.07843
     Eigenvalues ---    0.07874   0.07953   0.08011   0.08101   0.08252
     Eigenvalues ---    0.08839   0.09310   0.09324   0.10870   0.11609
     Eigenvalues ---    0.11616   0.11708   0.11766   0.12407   0.12507
     Eigenvalues ---    0.14617   0.14786   0.16282   0.16506   0.17527
     Eigenvalues ---    0.19214   0.21170   0.21953   0.25000   0.28459
     Eigenvalues ---    0.28676   0.28685   0.28886   0.28966   0.29399
     Eigenvalues ---    0.30173   0.30371   0.35062   0.35076   0.35080
     Eigenvalues ---    0.35093   0.35144   0.35190   0.35219   0.35243
     Eigenvalues ---    0.35294   0.35322   0.35393   0.35447   0.35474
     Eigenvalues ---    0.35526   0.35798   0.35828   0.35851   0.35871
     Eigenvalues ---    0.40761   0.41388   0.42307   0.42880   0.43472
     Eigenvalues ---    0.458991000.000001000.000001000.000001000.00000
     Eigenvalues --- 1000.000001000.000001000.000001000.000001000.00000
     Eigenvalues --- 1000.000001000.000001000.000001000.000001000.00000
     Eigenvalues --- 1000.000001000.000001000.000001000.000001000.00000
     Eigenvalues --- 1000.000001000.000001000.000001000.000001000.00000
     Eigenvalues --- 1000.000001000.000001000.000001000.000001000.00000
     Eigenvalues --- 1000.000001000.000001000.000001000.000001000.00000
     Eigenvalues --- 1000.000001000.000001000.000001000.000001000.00000
     Eigenvalues --- 1000.000001000.000001000.000001000.000001000.00000
     Eigenvalues --- 1000.000001000.000001000.000001000.000001000.00000
     Eigenvalues --- 1000.000001000.000001000.000001000.000001000.00000
     Eigenvalues --- 1000.000001000.000001000.000001000.000001000.00000
     Eigenvalues --- 1000.000001000.000001000.000001000.000001000.00000
     Eigenvalues --- 1000.000001000.000001000.000001000.000001000.00000
     Eigenvalues --- 1000.000001000.000001000.000001000.000001000.00000
     Eigenvalues --- 1000.000001000.000001000.000001000.000001000.00000
     Eigenvalues --- 1000.000001000.000001000.000001000.000001000.00000
     Eigenvalues --- 1000.000001000.000001000.000001000.000001000.00000
     Eigenvalues --- 1000.000001000.000001000.000001000.000001000.00000
     Eigenvalues --- 1000.000001000.000001000.000001000.000001000.00000
 RFO step:  Lambda=-3.11458004D-03 EMin= 6.28361593D-03
 Linear search not attempted -- first point.
 Iteration  1 RMS(Cart)=  0.05297673 RMS(Int)=  0.00059315
 Iteration  2 RMS(Cart)=  0.00173422 RMS(Int)=  0.00004809
 Iteration  3 RMS(Cart)=  0.00000097 RMS(Int)=  0.00004809
 Iteration  1 RMS(Cart)=  0.00000392 RMS(Int)=  0.00000092
 Iteration  2 RMS(Cart)=  0.00000217 RMS(Int)=  0.00000102
 Iteration  3 RMS(Cart)=  0.00000120 RMS(Int)=  0.00000116
 Iteration  4 RMS(Cart)=  0.00000066 RMS(Int)=  0.00000125
 Variable       Old X    -DE/DX   Delta X   Delta X   Delta X     New X
                                 (Linear)    (Quad)   (Total)
    R1        2.68771   0.00300   0.00000   0.00687   0.00687   2.69458
    R2        2.87101   0.00009   0.00000   0.00048   0.00050   2.87151
    R3        2.04912   0.00653   0.00000   0.01825   0.01825   2.06737
    R4        2.04315   0.00442   0.00000   0.01221   0.01221   2.05537
    R5        2.65288   0.00329   0.00000   0.00687   0.00688   2.65976
    R6        2.88994  -0.00142   0.00000  -0.00449  -0.00450   2.88544
    R7        2.88836  -0.00087   0.00000  -0.00230  -0.00230   2.88606
    R8        2.05368   0.00342   0.00000   0.00965   0.00965   2.06333
    R9        2.05155   0.00257   0.00000   0.00720   0.00720   2.05876
   R10        2.67714   0.00333   0.00000   0.00782   0.00784   2.68498
   R11        2.66650   0.00315   0.00000   0.00725   0.00727   2.67377
   R12        2.87357  -0.00075   0.00000  -0.00267  -0.00269   2.87087
   R13        2.64246   0.00360   0.00000   0.00779   0.00779   2.65025
   R14        2.04284   0.00790   0.00000   0.02183   0.02183   2.06468
   R15        2.05321   0.00336   0.00000   0.00946   0.00946   2.06267
   R16        2.04955   0.00317   0.00000   0.00886   0.00886   2.05841
   R17        2.89354  -0.00069   0.00000  -0.00251  -0.00253   2.89101
   R18        2.87331   0.00030   0.00000   0.00096   0.00096   2.87427
   R19        2.05200   0.00298   0.00000   0.00837   0.00837   2.06038
   R20        2.05442   0.00315   0.00000   0.00889   0.00889   2.06331
   R21        2.67818   0.00225   0.00000   0.00521   0.00521   2.68339
   R22        2.87575  -0.00219   0.00000  -0.00732  -0.00735   2.86840
   R23        2.05575   0.00372   0.00000   0.01051   0.01051   2.06626
   R24        2.05042   0.00337   0.00000   0.00945   0.00945   2.05987
   R25        2.04352   0.00434   0.00000   0.01202   0.01202   2.05554
   R26        2.05545   0.00608   0.00000   0.01719   0.01719   2.07264
   R27        2.87971   0.00005   0.00000   0.00022   0.00022   2.87993
   R28        2.04830   0.00683   0.00000   0.01905   0.01905   2.06735
   R29        2.04399   0.00503   0.00000   0.01393   0.01393   2.05792
   R30        2.05551   0.00624   0.00000   0.01762   0.01762   2.07314
   R31        2.05281   0.00283   0.00000   0.00796   0.00796   2.06078
   R32        2.05524   0.00324   0.00000   0.00916   0.00916   2.06440
    A1        1.94585   0.00228   0.00000   0.00556   0.00548   1.95134
    A2        1.90912   0.00015   0.00000   0.00144   0.00152   1.91064
    A3        1.84127  -0.00131   0.00000  -0.00199  -0.00200   1.83928
    A4        1.93040  -0.00157   0.00000  -0.00719  -0.00723   1.92317
    A5        1.94659  -0.00028   0.00000  -0.00176  -0.00169   1.94490
    A6        1.88765   0.00073   0.00000   0.00429   0.00428   1.89193
    A7        2.02571  -0.00565   0.00000  -0.03672  -0.03665   1.98907
    A8        1.91265   0.00188   0.00000  -0.00138  -0.00137   1.91128
    A9        1.92263  -0.00093   0.00000  -0.00603  -0.00604   1.91658
   A10        1.91585  -0.00054   0.00000   0.00163   0.00163   1.91748
   A11        1.91423  -0.00086   0.00000  -0.00198  -0.00207   1.91216
   A12        1.93089  -0.00023   0.00000   0.00219   0.00224   1.93313
   A13        1.86723   0.00062   0.00000   0.00565   0.00566   1.87289
   A14        1.97550  -0.00460   0.00000  -0.02655  -0.02648   1.94902
   A15        1.94781   0.00337   0.00000   0.01191   0.01169   1.95950
   A16        1.93876   0.00017   0.00000  -0.00339  -0.00324   1.93552
   A17        1.83085  -0.00227   0.00000  -0.01109  -0.01109   1.81977
   A18        1.90102  -0.00318   0.00000  -0.01532  -0.01524   1.88578
   A19        1.93430   0.00004   0.00000   0.00376   0.00385   1.93815
   A20        1.91040   0.00199   0.00000   0.01496   0.01495   1.92535
   A21        1.95516  -0.00165   0.00000  -0.01461  -0.01475   1.94041
   A22        1.90950   0.00118   0.00000   0.00706   0.00715   1.91664
   A23        1.94781  -0.00028   0.00000  -0.00135  -0.00144   1.94638
   A24        1.87240   0.00007   0.00000   0.00361   0.00361   1.87601
   A25        1.90004   0.00075   0.00000  -0.00052  -0.00049   1.89955
   A26        1.87573  -0.00000   0.00000   0.00688   0.00685   1.88258
   A27        1.93051  -0.00088   0.00000  -0.00660  -0.00665   1.92386
   A28        1.92801  -0.00038   0.00000  -0.00009  -0.00007   1.92794
   A29        1.91890   0.00076   0.00000   0.00126   0.00126   1.92017
   A30        1.90803   0.00075   0.00000   0.00516   0.00518   1.91321
   A31        1.90303  -0.00021   0.00000  -0.00258  -0.00258   1.90045
   A32        1.87432  -0.00002   0.00000   0.00314   0.00313   1.87745
   A33        2.03702  -0.01030   0.00000  -0.04071  -0.04071   1.99631
   A34        1.91763   0.00140   0.00000  -0.00170  -0.00174   1.91589
   A35        1.91540  -0.00015   0.00000   0.00360   0.00358   1.91898
   A36        1.93479   0.00011   0.00000   0.00612   0.00613   1.94092
   A37        1.89672  -0.00110   0.00000  -0.00754  -0.00753   1.88918
   A38        1.92101  -0.00074   0.00000  -0.00445  -0.00442   1.91659
   A39        1.87752   0.00042   0.00000   0.00382   0.00377   1.88129
   A40        1.93661   0.00193   0.00000   0.00877   0.00877   1.94538
   A41        1.85562  -0.00119   0.00000  -0.00371  -0.00371   1.85192
   A42        1.90178   0.00065   0.00000   0.00680   0.00683   1.90862
   A43        1.94472  -0.00035   0.00000  -0.00325  -0.00326   1.94146
   A44        1.93085  -0.00161   0.00000  -0.00960  -0.00963   1.92123
   A45        1.89196   0.00059   0.00000   0.00138   0.00134   1.89331
   A46        1.92215  -0.00105   0.00000  -0.00494  -0.00492   1.91722
   A47        1.89209   0.00088   0.00000   0.00511   0.00511   1.89721
   A48        1.91104   0.00029   0.00000   0.00625   0.00623   1.91726
   A49        1.92790  -0.00036   0.00000  -0.00392  -0.00396   1.92394
   A50        1.90912   0.00044   0.00000  -0.00288  -0.00287   1.90625
   A51        1.90131  -0.00019   0.00000   0.00060   0.00058   1.90188
   A52        1.93269   0.00191   0.00000   0.00915   0.00918   1.94187
   A53        1.86758  -0.00073   0.00000   0.00179   0.00180   1.86939
   A54        1.91651   0.00124   0.00000   0.01181   0.01187   1.92838
   A55        1.93528  -0.00071   0.00000  -0.00659  -0.00664   1.92863
   A56        1.91496  -0.00242   0.00000  -0.01652  -0.01659   1.89837
   A57        1.89598   0.00077   0.00000   0.00096   0.00082   1.89679
   A58        1.92207  -0.00104   0.00000  -0.00556  -0.00577   1.91630
   A59        1.90235   0.00062   0.00000   0.00387   0.00393   1.90628
   A60        1.90676   0.00005   0.00000  -0.00151  -0.00145   1.90531
   A61        1.93927  -0.00050   0.00000  -0.00159  -0.00156   1.93771
   A62        1.91665   0.00091   0.00000   0.00143   0.00151   1.91816
   A63        1.87591  -0.00001   0.00000   0.00359   0.00356   1.87947
    D1       -0.99112   0.00037   0.00000  -0.01863  -0.01850  -1.00962
    D2        1.14945   0.00002   0.00000  -0.02302  -0.02294   1.12652
    D3       -3.10697   0.00025   0.00000  -0.01838  -0.01828  -3.12525
    D4        0.95956   0.00133   0.00000   0.02005   0.02011   0.97968
    D5        3.09118   0.00045   0.00000   0.01705   0.01704   3.10822
    D6       -1.14689   0.00082   0.00000   0.02271   0.02274  -1.12415
    D7       -1.16875   0.00066   0.00000   0.01940   0.01947  -1.14928
    D8        0.96286  -0.00021   0.00000   0.01640   0.01641   0.97926
    D9        3.00798   0.00016   0.00000   0.02207   0.02210   3.03008
   D10        3.01289   0.00099   0.00000   0.02002   0.02007   3.03296
[...]
 07390,0.00008650,-0.00047195,-0.00008684,-0.00094231,-0.00197282,-0.00
 185425,0.00000190,0.00000049,0.00000449,-0.00000123,0.00000121,0.00000
 463,-0.00000134,0.00000129,0.00000002,0.00000024,-0.00000001,-0.000001
 14,-0.00000189,0.00000091,0.00000076,0.00001245,-0.00000314,0.00000290
 ,-0.00000361,-0.00000160,0.00000061,0.00000049,-0.00000001,-0.00000009
 ,0.00024151,-0.00014376,0.00009688,-0.00016698,-0.00071666,0.00059657,
 -0.00041855,-0.00008154,0.00028294,0.00012848,0.00009010,0.00026198,-0
 .09905051,-0.01212569,0.09429616,-0.00000338,0.00000250,-0.00000321,0.
 00001525,-0.00000496,0.00000378,0.00000091,0.00000089,0.00000007,-0.00
 291977,-0.00409682,-0.01684499,-0.00001823,-0.00000532,0.00000497,-0.0
 0000062,-0.00000257,-0.00000124,-0.00123946,0.00774401,-0.01807161,-0.
 00011748,0.00005566,0.00009991,0.00114046,-0.00045528,-0.00120501,-0.0
 5640900,0.00482879,-0.00979957,-0.00035379,-0.00004308,0.00014638,0.00
 187560,0.00129363,-0.00383424,0.00000158,-0.00000019,0.00000172,-0.000
 00195,0.00000246,0.00000265,0.00000156,-0.00000087,0.00000052,-0.00000
 112,-0.00000043,0.00000076,0.00000020,0.00000001,-0.00000095,0.0000037
 8,-0.00000027,-0.00000157,0.00000065,-0.00000031,0.00000019,-0.0000001
 4,-0.00000035,-0.00000053,0.00061612,-0.00034853,0.00039668,-0.0013267
 2,0.00307296,-0.00052750,-0.00016260,0.00005049,0.00036128,0.00019587,
 -0.00006795,0.00028611,0.00385313,-0.00832873,0.02728733,0.05447342,0.
 00000081,-0.00000407,-0.00000428,-0.00000662,0.00001152,-0.00001213,0.
 00000105,-0.00000082,0.00000105,-0.01017374,-0.00163907,-0.03507816,0.
 00003500,0.00003502,0.00004179,0.00000230,0.00000087,0.00000163,0.0022
 2624,-0.00909465,0.02812847,-0.00018326,0.00023720,0.00009960,-0.00135
 586,0.00094682,0.00010828,0.00427713,-0.07145015,0.07565167,-0.0002033
 0,-0.00053273,0.00021973,0.00365807,0.00217158,-0.00338900,0.00000055,
 0.00000013,0.00000106,-0.00000284,0.00000002,0.00000216,-0.00000025,0.
 00000050,-0.00000029,-0.00000056,-0.00000066,-0.00000123,-0.00000101,0
 .00000044,-0.00000038,0.00000844,-0.00000103,-0.00000180,0.00000084,-0
 .00000071,-0.00000059,0.00000035,0.00000019,0.00000019,-0.00067895,0.0
 0087947,-0.00043942,0.00419447,-0.00405294,0.00022419,0.00042058,0.000
 29945,-0.00054860,-0.00018155,-0.00002099,-0.00036957,0.00090899,-0.00
 037850,0.00392507,-0.00359059,0.08271678,0.00003725,-0.00003259,-0.000
 02202,-0.00011173,0.00008443,-0.00005452,-0.00000133,-0.00001202,-0.00
 000339,-0.00928531,-0.01084972,-0.02516622,0.00024562,0.00001452,0.000
 28780,-0.00002349,0.00000781,-0.00003851,0.00107871,0.00235619,-0.0025
 1157,-0.00071273,0.00000583,-0.00006888,0.00003719,-0.00060307,0.00050
 310,-0.01299864,0.07291731,-0.26965082,0.00022896,-0.00043297,0.000138
 03,0.00329260,0.00161406,0.00069792,0.00000165,0.00000258,0.00000334,0
 .00000546,-0.00000704,-0.00000267,-0.00000820,0.00000642,-0.00000268,0
 .00000157,0.00000037,-0.00000549,-0.00000883,0.00000170,0.00000488,0.0
 0000625,-0.00000721,-0.00002104,-0.00002279,-0.00000785,0.00000554,0.0
 0000129,0.00000040,0.00000111,-0.00035147,0.00072018,0.00017769,0.0000
 0117,0.00034644,0.00119859,-0.00060847,-0.00011085,0.00001575,-0.00008
 427,0.00004237,0.00019525,-0.00005363,0.00444555,-0.00974098,0.0208172
 1,-0.06993004,0.30302738,-0.00003651,0.00043867,0.00026170,-0.00083274
 ,0.00041344,-0.00043905,0.00001977,-0.00002692,0.00004799,0.00197096,-
 0.00064035,0.00055268,0.00130386,-0.00095769,0.00485716,0.00018820,-0.
 00004139,-0.00022850,0.00065192,0.00039896,-0.00053237,-0.01147378,-0.
 01235246,0.03604512,-0.00026322,0.00271900,-0.01029761,-0.00007357,-0.
 00004897,-0.00004623,-0.05464777,0.00825145,-0.03885677,-0.00230248,0.
 00566618,-0.02067098,-0.00000107,-0.00013701,-0.00002789,-0.00003968,-
 0.00008736,-0.00005409,0.00000248,-0.00003006,-0.00003997,0.00001764,-
 0.00005210,-0.00014363,-0.00006104,0.00000929,-0.00005193,-0.00018540,
 -0.00032153,-0.00037890,-0.00012851,0.00002154,-0.00002721,0.00004824,
 0.00011176,-0.00004748,0.00007773,-0.00001966,0.00007459,-0.00013557,-
 0.00023809,0.00012953,-0.00030368,-0.00195504,-0.00098300,0.00041652,-
 0.00014095,0.00070612,-0.00004268,0.00001163,-0.00000810,0.00007166,-0
 .00001819,0.00008674,0.06734881,0.00010427,-0.00002524,-0.00002228,0.0
 0013494,0.00019120,-0.00051178,0.00004077,0.00003457,-0.00001772,-0.00
 118607,0.00163466,-0.00164281,0.00001895,0.00131683,0.00301284,0.00008
 070,-0.00027520,-0.00018909,0.00110024,0.00096470,-0.00000592,-0.00578
 556,-0.00410846,0.00929892,-0.00390590,0.00505018,-0.02843213,-0.00009
 235,-0.00033509,-0.00017602,0.00755639,-0.06252381,0.05327625,0.005251
 63,-0.00793085,0.02763998,0.00001542,-0.00000787,-0.00002560,0.0000174
 4,-0.00003107,-0.00002967,-0.00000171,-0.00001378,-0.00000476,0.000014
 26,-0.00002027,-0.00003814,-0.00000424,-0.00001763,-0.00002892,-0.0003
 4476,-0.00056722,-0.00014212,-0.00004804,0.00000838,-0.00000959,-0.000
 03166,0.00002840,-0.00001764,0.00023882,-0.00011587,0.00026458,-0.0002
 0288,-0.00014608,0.00047429,-0.00237649,-0.00383534,-0.00313957,0.0005
 9530,0.00123998,0.00065888,-0.00001994,0.00009760,-0.00000261,-0.00007
 208,-0.00012766,0.00007135,-0.00343939,0.07165878,0.00009248,-0.000309
 12,-0.00018007,-0.00138354,-0.00120607,0.00125046,-0.00017689,-0.00003
 648,-0.00001369,-0.00118140,-0.00074156,0.00085464,-0.00420243,-0.0000
 1087,-0.00228534,0.00001686,0.00029456,0.00027170,0.00027183,0.0004006
 7,0.00020272,0.00958880,0.00584403,-0.01283478,-0.00305074,0.00221555,
 -0.01675200,-0.00005223,0.00000509,0.00006463,-0.02885779,0.05512728,-
 0.28829816,-0.00007021,0.00086688,-0.00219386,-0.00006015,0.00005659,0
 .00007923,0.00006103,0.00003515,-0.00000242,0.00001181,0.00001140,0.00
 000403,0.00001287,0.00000858,0.00006781,0.00001500,0.00002049,0.000033
 02,0.00015571,0.00023341,0.00092260,0.00013620,0.00004583,-0.00003142,
 0.00001715,-0.00006022,0.00004695,-0.00004179,-0.00017699,0.00034382,-
 0.00054792,-0.00009031,0.00036292,-0.00094910,-0.00233948,-0.00051857,
 0.00039834,0.00013691,0.00079667,-0.00002732,0.00003668,0.00000230,0.0
 0010508,0.00001567,-0.00011398,0.02959835,-0.06078451,0.31636362,-0.00
 003263,0.00004393,0.00008534,0.00010796,-0.00016256,0.00001203,0.00004
 269,0.00005252,-0.00000369,-0.02092085,-0.03236660,-0.01858208,-0.0003
 6017,0.00042198,0.00004264,-0.00001430,-0.00016260,-0.00009032,-0.0007
 0037,-0.00048955,-0.00029799,0.00252683,-0.00135246,-0.00053869,-0.003
 43276,0.00335666,-0.00085720,-0.00421454,0.00107048,0.00461287,0.00737
 903,0.01688309,0.01274762,-0.06757560,-0.05301694,-0.03868484,-0.00000
 973,-0.00000420,-0.00002366,0.00002377,-0.00000366,-0.00001625,0.00000
 839,-0.00001524,-0.00000328,-0.00000012,-0.00000201,0.00000095,0.00001
 849,-0.00001413,-0.00001755,-0.00027778,0.00004532,-0.00042368,0.00000
 187,0.00000660,0.00000228,0.00001481,-0.00000661,0.00000133,0.00026110
 ,-0.00020985,-0.00000652,0.00010734,-0.00000521,-0.00000059,-0.0000669
 2,-0.00014582,-0.00006154,0.00054047,0.00132602,0.00058499,-0.00078016
 ,-0.00161375,-0.00071116,0.00007435,0.00015522,-0.00015258,0.00085484,
 -0.00095025,-0.00023563,0.08569362,-0.00002369,-0.00000358,-0.00007845
 ,-0.00002012,0.00015936,0.00013422,-0.00002765,-0.00003763,0.00001582,
 -0.00815301,-0.00643372,-0.00272862,0.00037918,-0.00036461,-0.00053401
 ,0.00006938,0.00010411,0.00012644,0.00026757,0.00034344,-0.00020896,-0
 .00002006,0.00224292,0.00101407,0.00428296,-0.00238900,0.00193545,-0.0
 0000202,0.00193513,0.00223300,-0.00826699,-0.02130486,-0.01567315,-0.0
 5939421,-0.21198375,-0.11528611,0.00001029,0.00000567,0.00001870,-0.00
 002994,0.00001764,0.00002419,-0.00000408,0.00001124,0.00001159,-0.0000
 0212,0.00000170,0.00000529,-0.00000752,0.00001119,0.00000826,0.0004108
 1,0.00001225,0.00034874,0.00002776,0.00001070,-0.00001118,0.00001540,-
 0.00001733,0.00000229,-0.00008006,-0.00006542,-0.00001745,-0.00006606,
 -0.00001207,0.00008029,0.00002089,0.00012798,-0.00009538,-0.00054260,-
 0.00129971,-0.00081475,-0.00016585,-0.00027084,-0.00030351,-0.00000730
 ,-0.00005128,-0.00028153,-0.00052101,0.00114596,0.00028689,0.06869010,
 0.23012826,-0.00002769,0.00003002,0.00000287,0.00005263,0.00001868,0.0
 0007261,0.00001008,0.00001543,0.00000062,0.00616660,0.01204208,0.00859
 164,-0.00001789,-0.00012414,-0.00021500,0.00002206,-0.00005973,0.00000
 054,0.00019072,0.00021026,-0.00001420,0.00083896,-0.00019396,-0.000163
 35,-0.00029327,0.00014800,0.00071176,0.00162626,0.00074199,-0.00024688
 ,0.00039383,0.00560651,0.00297630,-0.04662443,-0.12054148,-0.13832996,
 -0.00000114,0.00000120,-0.00000332,-0.00000305,0.00000227,0.00000293,0
 .00000303,-0.00000172,0.00000553,-0.00000126,0.00000132,0.00000449,0.0
 0000822,-0.00000396,-0.00000459,-0.00017015,0.00008108,-0.00005588,0.0
 0000932,0.00001078,-0.00000301,0.00000581,0.00000706,-0.00000505,-0.00
 009662,0.00001761,-0.00003062,0.00000700,-0.00002559,-0.00000797,0.000
 05604,0.00032319,0.00036786,-0.00013607,-0.00003699,0.00027000,0.00022
 558,0.00014741,0.00044450,0.00021036,0.00014752,0.00049419,0.00071865,
 -0.00026529,0.00062319,0.04500821,0.12521756,0.13963965,0.00006174,-0.
 00014104,-0.00010270,-0.00048094,0.00000750,0.00014636,-0.00001745,-0.
 00001797,-0.00000776,-0.01423859,-0.01592742,0.03794391,0.00030662,0.0
 0007350,-0.00016846,-0.00002305,0.00003945,-0.00000656,-0.00037292,-0.
 00027358,-0.00047498,0.00198930,-0.00046891,-0.00014283,0.00047580,-0.
 00131811,-0.00017645,0.00288161,0.00307045,0.00495349,-0.00192676,0.00
 690236,-0.02145486,-0.04937761,0.00458537,-0.02437101,-0.00000866,0.00
 003249,0.00002685,0.00002161,0.00000072,0.00000693,-0.00001408,0.00001
 717,0.00000251,0.00000435,0.00000258,0.00000093,-0.00001026,0.00000316
 ,0.00001134,0.00010704,0.00004414,0.00007418,-0.00001310,-0.00000401,0
 .00000188,0.00000299,-0.00001254,0.00000648,0.00024192,-0.00018470,-0.
 00009523,-0.00012129,0.00007312,-0.00004407,0.00017835,0.00008405,0.00
 055017,-0.00008479,-0.00017693,0.00023331,0.00000386,0.00021554,-0.000
 25460,0.00022857,0.00050664,-0.00140926,-0.00247483,0.00329488,0.00035
 989,0.00072362,0.00315726,-0.00818649,0.06195416,-0.00006788,0.0001042
 1,0.00003480,0.00019225,0.00017908,-0.00016053,0.00000381,0.00000317,0
 .00000927,-0.00688399,-0.00137445,0.00829377,-0.00009536,-0.00001841,0
 .00000622,0.00003102,0.00000244,0.00002946,-0.00006012,-0.00029198,-0.
 00022140,-0.00154142,0.00071283,-0.00136677,-0.00038486,0.00153663,0.0
 0118824,0.00059116,0.00055151,0.00288793,0.00465305,-0.00881274,0.0279
 6560,0.00558964,-0.07006135,0.05731259,0.00000495,-0.00001613,-0.00001
 783,-0.00001591,-0.00000108,0.00000216,0.00000582,-0.00000402,0.000006
 38,-0.00000476,0.00000073,0.00000073,0.00000427,-0.00000004,-0.0000034
 2,0.00002692,0.00002544,0.00001666,0.00001304,0.00000326,-0.00000278,0
 .00000090,-0.00000004,0.00000010,-0.00000518,-0.00005071,-0.00004225,0
 .00001423,0.00010417,-0.00009159,0.00004446,-0.00022955,-0.00060491,0.
 00004511,0.00032050,-0.00038216,0.00002294,0.00004607,-0.00020823,-0.0
 0002620,0.00005511,-0.00036286,0.00293801,-0.00329131,0.00013366,-0.00
 152470,0.00797274,-0.02351631,-0.00358033,0.07253248,0.00003338,-0.000
 04587,-0.00001854,0.00001722,0.00006835,0.00007997,-0.00001311,-0.0000
 2734,-0.00000239,0.01348946,0.00654655,-0.01205631,0.00021558,-0.00014
 043,0.00018262,-0.00003383,0.00004143,-0.00003041,0.00031003,0.0000846
 7,0.00010746,-0.00120197,-0.00055585,0.00127327,0.00019686,-0.00057297
 ,0.00070675,-0.00165704,-0.00232374,0.00134257,0.00002595,0.00096639,-
 0.00641598,-0.02225907,0.05963713,-0.27710856,0.00000450,0.00000718,0.
 00000695,-0.00000307,-0.00000546,-0.00000364,-0.00001004,0.00000863,-0
 .00000370,0.00000189,0.00000189,-0.00000584,-0.00001355,0.00000504,0.0
 0000879,0.00011274,0.00002769,0.00003455,-0.00002449,-0.00001329,0.000
 00696,-0.00000812,-0.00000367,0.00000266,-0.00000444,0.00014151,0.0000
 0580,-0.00013772,-0.00004781,-0.00017756,0.00034065,0.00049694,0.00043
 800,-0.00010737,-0.00000208,0.00020777,0.00020620,0.00003730,0.0004950
 3,0.00056615,0.00120772,0.00065016,-0.00020915,0.00078720,0.00090186,-
 0.00239344,0.00457408,-0.01512892,0.01256731,-0.07090130,0.30449918,-0
 .00824683,0.02079328,0.01455627,-0.00644341,-0.00063642,0.00425973,-0.
 00385754,0.00479918,0.00362748,-0.00008194,0.00000454,0.00000170,0.001
 10540,-0.00179598,0.00091009,0.00080109,0.00075988,-0.00141131,0.00000
 736,-0.00001724,-0.00002633,-0.00056111,0.00005583,-0.00034453,-0.0000
 3405,0.00002570,0.00002996,0.00001763,0.00001313,0.00002404,0.00024369
 ,0.00009415,-0.00005099,0.00004169,-0.00004964,-0.00001490,-0.09190782
 ,0.07090159,0.06492983,0.00070932,0.00016772,-0.00109485,0.00085337,-0
 .00031248,-0.00004195,0.00007871,-0.00019426,0.00025622,0.00028961,-0.
 00017434,-0.00034792,-0.00002087,0.00018709,-0.00009472,-0.00005386,0.
 00023068,0.00029547,0.00008689,0.00021068,0.00036261,-0.00001621,-0.00
 000656,0.00000084,-0.00000104,0.00000117,0.00000277,-0.00000327,-0.000
 00514,-0.00001179,0.00000884,-0.00000069,0.00000524,-0.00000677,-0.000
 00081,-0.00000089,0.00000014,-0.00000035,-0.00000537,0.00002910,0.0000
 0451,-0.00002155,0.00000821,-0.00000298,0.00000275,-0.00001628,0.00000
 920,-0.00000796,0.09718058,-0.00368702,0.00943753,0.00761600,-0.003829
 19,0.00109028,0.00247544,0.01078716,-0.01786164,-0.01773251,0.00004182
 ,-0.00000392,0.00000139,-0.00080289,-0.00110913,0.00090297,0.00113926,
 -0.00391574,0.00487541,-0.00000201,0.00001008,0.00001684,0.00023276,0.
 00020908,-0.00022279,0.00003804,0.00000324,-0.00002618,-0.00000619,-0.
 00000425,-0.00001118,-0.00011767,-0.00001672,0.00009586,-0.00001465,0.
 00003175,-0.00001758,0.07230943,-0.17023107,-0.11202072,0.00053168,0.0
 0046184,-0.00051829,0.00096299,0.00018374,-0.00026053,-0.00004723,0.00
 124104,0.00008045,-0.00075410,0.00081245,-0.00040244,0.00008320,0.0002
 4662,-0.00016884,-0.00026800,0.00023440,0.00015747,0.00120870,-0.00101
 482,-0.00116849,0.00000912,0.00000338,-0.00000100,0.00000091,-0.000000
 04,-0.00000181,0.00000116,-0.00000242,0.00000218,-0.00000378,-0.000004
 27,0.00000141,0.00000346,-0.00000027,0.00000060,-0.00000028,0.00000009
 ,0.00000255,0.00002397,0.00000253,-0.00002016,-0.00000481,0.00000006,-
 0.00000146,-0.00000168,0.00000031,0.00000233,-0.08013340,0.18508334,0.
 00190582,-0.01058233,-0.00859343,0.00491890,0.00010715,-0.00099395,-0.
 00868362,0.01297347,0.01225629,0.00004248,-0.00000260,-0.00000248,-0.0
 0054315,0.00149186,-0.00106436,-0.00077303,0.00318633,-0.00162741,-0.0
 0000409,-0.00000093,0.00001582,0.00034398,-0.00016734,0.00030592,0.000
 01127,-0.00000054,-0.00001657,-0.00000697,-0.00000312,-0.00001431,-0.0
 0013994,-0.00004588,-0.00000063,-0.00002685,0.00002100,0.00001829,0.06
 683910,-0.11230380,-0.14828005,0.00006087,0.00019742,0.00056806,-0.000
 51601,0.00021201,0.00004938,0.00019646,-0.00087042,0.00082040,0.000382
 70,-0.00093636,0.00056531,-0.00003472,-0.00021672,0.00005359,0.0000265
 7,0.00015311,0.00012535,-0.00047405,0.00077220,0.00060493,0.00000848,0
 .00000383,0.00000010,0.00000053,-0.00000057,-0.00000217,0.00000254,0.0
 0000348,0.00000793,-0.00000907,-0.00001303,-0.00000123,0.00000490,-0.0
 0000104,0.00000033,-0.00000067,0.00000005,0.00000316,-0.00002692,-0.00
 000072,0.00002498,-0.00000161,0.00000009,-0.00000113,0.00001235,-0.000
 00674,0.00000380,-0.07298288,0.12018408,0.15878371,-0.02130247,-0.0085
 8120,-0.02056872,0.00288905,0.00093499,-0.00021110,-0.00489394,-0.0012
 3351,-0.00515498,-0.00003635,0.00001014,0.00000203,-0.00026735,-0.0000
 9200,-0.00004584,-0.00006741,-0.00045968,-0.00018445,-0.00000351,0.000
 05041,-0.00003133,-0.00006578,0.00022041,0.00007475,-0.00000629,-0.000
 11662,0.00004476,-0.00001074,-0.00002152,0.00001821,0.00019922,-0.0000
 1550,-0.00008127,0.00002586,-0.00002055,0.00001791,-0.16303644,-0.0362
 3526,-0.12162509,-0.00373945,-0.00215947,0.00290881,0.00132563,0.00038
 993,0.00028667,0.00072397,0.00114858,-0.00060900,0.00056497,0.00031204
 ,0.00023004,-0.00008170,0.00004302,0.00000096,-0.00019784,0.00033097,0
 .00016519,0.00012960,0.00009667,0.00014107,-0.00000851,-0.00000599,-0.
 00000081,-0.00000325,-0.00000165,0.00000569,-0.00000834,0.00001390,-0.
 00000982,0.00002375,0.00009261,-0.00001329,-0.00000992,0.00000916,0.00
 000079,0.00000101,0.00000042,-0.00000356,0.00000078,-0.00000718,0.0000
 1729,-0.00000144,0.00000568,0.00000198,-0.00000093,-0.00000007,-0.0000
 0354,0.00978935,0.00229925,0.00946661,0.17806846,-0.01016021,-0.005705
 75,-0.01156298,0.00136762,0.00129759,0.00081428,0.01970981,0.00521398,
 0.02122869,-0.00001732,0.00000326,0.00000165,0.00013754,-0.00053888,0.
 00031621,-0.00008782,0.00171367,0.00056499,-0.00000123,0.00002864,-0.0
 0001797,-0.00019244,0.00021597,-0.00011183,-0.00000342,-0.00006836,0.0
 0003216,-0.00000700,-0.00001238,0.00001115,0.00011074,-0.00004019,-0.0
 0011511,0.00001957,-0.00000638,0.00000159,-0.03744633,-0.06110215,-0.0
 4193335,-0.00254196,-0.00004741,0.00200973,0.00048286,0.00021857,-0.00
 039519,0.00180298,-0.00438725,0.00284979,-0.00059520,0.00121311,-0.000
 66402,0.00001134,0.00009248,-0.00006754,-0.00027200,-0.00022893,-0.000
 42169,-0.00040369,0.00007096,-0.00006980,-0.00000545,-0.00000408,-0.00
 000026,-0.00000225,-0.00000097,0.00000343,-0.00000678,0.00000968,-0.00
 000672,0.00002184,0.00005471,-0.00000694,-0.00000608,0.00000542,0.0000
 0075,0.00000072,0.00000007,-0.00000231,0.00002426,-0.00000101,0.000000
 43,-0.00000097,0.00000342,0.00000067,-0.00000317,0.00000113,-0.0000022
 2,-0.01492802,-0.00488748,-0.01415391,0.04299205,0.06688855,0.01185941
 ,0.00371371,0.01042014,-0.00178956,0.00084131,0.00113828,-0.01162789,-
 0.00301265,-0.01441941,-0.00003441,0.00000053,0.00000050,0.00019694,0.
 ,0.00010867,0.00074661,-0.00086381,0.00064261,0.00000601,-0.00003302,0
 .00000040,-0.00029825,-0.00011949,-0.00002818,0.00000054,0.00005442,-0
 .00000231,0.00001456,0.00001506,0.00000413,0.00009367,0.00009409,-0.00
 001209,0.00000759,-0.00002262,-0.00000233,-0.12354569,-0.04263710,-0.1
 8009500,0.00299861,0.00090566,-0.00038981,-0.00078689,-0.00045574,0.00
 085218,-0.00054602,0.00359717,-0.00059573,0.00043536,-0.00029127,0.000
 36310,-0.00011519,-0.00002797,0.00002813,-0.00019765,0.00028826,0.0005
 4971,0.00025066,0.00014876,0.00014668,-0.00000503,-0.00000070,0.000000
 89,0.00000017,0.00000084,-0.00000017,0.00000172,-0.00000595,0.00000284
 ,-0.00001128,-0.00004035,0.00000387,0.00000053,-0.00000436,-0.00000060
 ,-0.00000004,-0.00000036,-0.00000113,-0.00000885,0.00000261,0.00000714
 ,0.00000404,-0.00000386,0.00000123,-0.00000266,0.00000149,-0.00000231,
 -0.01280706,-0.00384100,-0.01360964,0.13516006,0.04169634,0.19488819\\
 0.00001034,0.00000169,-0.00001910,-0.00000517,0.00002028,0.00001309,-0
 .00000895,-0.00000254,0.00000905,0.00000052,0.00000633,0.00000476,-0.0
 0011482,0.00037729,0.00002492,-0.00000431,0.00000213,0.00000348,-0.000
 00481,0.00000685,0.00000004,0.00010840,-0.00050135,-0.00013956,-0.0001
 8529,0.00025018,-0.00026010,0.00001706,-0.00000690,-0.00000541,0.00019
 816,-0.00015675,0.00035948,-0.00000922,-0.00001507,-0.00000110,-0.0000
 0446,0.00000288,0.00000485,-0.00000509,-0.00000216,-0.00000434,-0.0000
 0027,0.00000224,0.00000464,-0.00000033,0.00000074,-0.00000298,0.000007
 30,0.00000211,0.00000077,-0.00000632,0.00000811,0.00000903,-0.00000128
 ,0.00000162,0.00000259,-0.00000225,0.00000367,-0.00000327,0.00000336,0
 .00000034,-0.00000581,0.00000106,-0.00000352,0.00000159,-0.00000068,0.
 00000209,-0.00000697,0.00000261,-0.00000241,0.00000222,-0.00000264,0.0
 0000009,0.00000508,-0.00000058,0.00000266,-0.00000651,0.00000465,-0.00
 000460,0.00001227,-0.00000220,-0.00000092,0.00000750,0.00000085,0.0000
 0199,-0.00000895,0.00000097,0.00000316,-0.00000533,0.00000341,-0.00000
 023,0.00000406\\\@


 I take a simple view of life: keep your eyes open and get on with it.
 -- Laurence Olivier
 Job cpu time:       0 days 14 hours 16 minutes 46.9 seconds.
 Elapsed time:       0 days  0 hours 53 minutes 35.0 seconds.
 File lengths (MBytes):  RWF=    690 Int=      0 D2E=      0 Chk=     33 Scr=      1
 Normal termination of Gaussian 16 at Sun Nov  4 22:42:27 2018.
