 Entering Gaussian System, Link 0=g16
 Initial command:
 /apps/gaussian/g16a03/g16/l1.exe "/jobfs/local/2012091.r-man2/Gau-10893.inp" -scrdir="/jobfs/local/2012091.r-man2/"
 Entering Link 1 = /apps/gaussian/g16a03/g16/l1.exe PID=     10894.
  
 Copyright (c) 1988,1990,1992,1993,1995,1998,2003,2009,2016,
            Gaussian, Inc.  All Rights Reserved.
  
 This is part of the Gaussian(R) 16 program.  It is based on
 the Gaussian(R) 09 system (copyright 2009, Gaussian, Inc.),
 the Gaussian(R) 03 system (copyright 2003, Gaussian, Inc.),
 the Gaussian(R) 98 system (copyright 1998, Gaussian, Inc.),
 the Gaussian(R) 94 system (copyright 1995, Gaussian, Inc.),
 the Gaussian 92(TM) system (copyright 1992, Gaussian, Inc.),
 the Gaussian 90(TM) system (copyright 1990, Gaussian, Inc.),
 the Gaussian 88(TM) system (copyright 1988, Gaussian, Inc.),
 the Gaussian 86(TM) system (copyright 1986, Carnegie Mellon
 University), and the Gaussian 82(TM) system (copyright 1983,
 Carnegie Mellon University). Gaussian is a federally registered
 trademark of Gaussian, Inc.
  
 This software contains proprietary and confidential information,
 including trade secrets, belonging to Gaussian, Inc.
  
 This software is provided under written license and may be
 used, copied, transmitted, or stored only in accord with that
 written license.
  
 The following legend is applicable only to US Government
 contracts under FAR:
  
                    RESTRICTED RIGHTS LEGEND
  
 Use, reproduction and disclosure by the US Government is
 subject to restrictions as set forth in subparagraphs (a)
 and (c) of the Commercial Computer Software - Restricted
 Rights clause in FAR 52.227-19.
  
 Gaussian, Inc.
 340 Quinnipiac St., Bldg. 40, Wallingford CT 06492
  
  
 ---------------------------------------------------------------
 Warning -- This program may not be used in any manner that
 competes with the business of Gaussian, Inc. or will provide
 assistance to any competitor of Gaussian, Inc.  The licensee
 of this program is prohibited from giving any competitor of
 Gaussian, Inc. access to this program.  By using this program,
 the user acknowledges that Gaussian, Inc. is engaged in the
 business of creating and licensing software in the field of
 computational chemistry and represents and warrants to the
 licensee that it is not a competitor of Gaussian, Inc. and that
 it will not use this program in any manner prohibited above.
 ---------------------------------------------------------------
  

 Cite this work as:
 Gaussian 16, Revision A.03,
 M. J. Frisch, G. W. Trucks, H. B. Schlegel, G. E. Scuseria, 
 M. A. Robb, J. R. Cheeseman, G. Scalmani, V. Barone, 
 G. A. Petersson, H. Nakatsuji, X. Li, M. Caricato, A. V. Marenich, 
 J. Bloino, B. G. Janesko, R. Gomperts, B. Mennucci, H. P. Hratchian, 
 J. V. Ortiz, A. F. Izmaylov, J. L. Sonnenberg, D. Williams-Young, 
 F. Ding, F. Lipparini, F. Egidi, J. Goings, B. Peng, A. Petrone, 
 T. Henderson, D. Ranasinghe, V. G. Zakrzewski, J. Gao, N. Rega, 
 G. Zheng, W. Liang, M. Hada, M. Ehara, K. Toyota, R. Fukuda, 
 J. Hasegawa, M. Ishida, T. Nakajima, Y. Honda, O. Kitao, H. Nakai, 
 T. Vreven, K. Throssell, J. A. Montgomery, Jr., J. E. Peralta, 
 F. Ogliaro, M. J. Bearpark, J. J. Heyd, E. N. Brothers, K. N. Kudin, 
 V. N. Staroverov, T. A. Keith, R. Kobayashi, J. Normand, 
 K. Raghavachari, A. P. Rendell, J. C. Burant, S. S. Iyengar, 
 J. Tomasi, M. Cossi, J. M. Millam, M. Klene, C. Adamo, R. Cammi, 
 J. W. Ochterski, R. L. Martin, K. Morokuma, O. Farkas, 
 J. B. Foresman, and D. J. Fox, Gaussian, Inc., Wallingford CT, 2016.
 
 ******************************************
 Gaussian 16:  ES64L-G16RevA.03 25-Dec-2016
                 4-Nov-2018 
 ******************************************
 %mem=6000mb
 %nproc=24
 Will use up to   24 processors via shared memory.
 %chk=L_a1-e4_D_PSI.inp_extract_8.chk
 ----------------------------------------------------------------------
 #M062X/6-311++G(2d,2p) opt=ModRedundant freq=noraman SCRF=(Solvent=Wat
 er)
 ----------------------------------------------------------------------
 1/18=120,19=15,26=3,38=1/1,3;
 2/9=110,12=2,17=6,18=5,40=1/2;
 3/5=4,6=6,7=1212,11=2,25=1,30=1,70=2201,71=1,72=1,74=-55/1,2,3;
 4//1;
 5/5=2,38=5,53=1/2;
 6/7=2,8=2,9=2,10=2,28=1/1;
 7//1,2,3,16;
 1/18=20,19=15,26=3/3(2);
 2/9=110/2;
 99//99;
 2/9=110/2;
 3/5=4,6=6,7=1212,11=2,25=1,30=1,70=2205,71=1,72=1,74=-55/1,2,3;
 4/5=5,16=3,69=1/1;
 5/5=2,38=5,53=1/2;
 7//1,2,3,16;
 1/18=20,19=15,26=3/3(-5);
 2/9=110/2;
 6/7=2,8=2,9=2,10=2,19=2,28=1/1;
 99/9=1/99;
 ---------------------------
 L_a1-e4_D_PSI.inp_extract_8
 ---------------------------
 Symbolic Z-matrix:
 Charge =  0 Multiplicity = 1
 C                    -2.38588  -1.38769  -0.34235 
 O                    -1.47114  -1.01125   0.67812 
 C                    -3.26967   0.95117  -0.37566 
 O                     2.79473  -1.36438  -0.15288 
 C                    -1.04978   0.32693   0.66139 
 C                    -2.23921   1.27547   0.70722 
 C                     3.43935   0.96146  -0.24311 
 O                    -0.3011    0.61513  -0.4842 
 C                     1.96919   1.3632   -0.10401 
 C                     3.67627  -0.39867   0.39117 
 C                     1.06468   0.23353  -0.58559 
 C                     1.43062  -1.08881   0.09072 
 C                    -3.64021  -0.53044  -0.30635 
 H                    -1.89833  -1.31397  -1.30863 
 H                    -2.61231  -2.42889  -0.15884 
 H                    -2.86549   1.18172  -1.35767 
 H                    -4.1505    1.57169  -0.24218 
 H                    -0.43982   0.44265   1.54482 
 H                    -2.6988    1.17042   1.68624 
 H                    -1.88004   2.29536   0.62312 
 H                     4.08308   1.6988    0.22717 
 H                     3.71264   0.91392  -1.29428 
 H                     1.7451    1.58046   0.93841 
 H                     1.75874   2.26082  -0.67658 
 H                     4.67761  -0.75816   0.1975 
 H                     3.53044  -0.3524    1.46806 
 H                     1.22406   0.09554  -1.64857 
 H                     0.87051  -1.91016  -0.32954 
 H                     1.26014  -1.0582    1.16169 
 H                    -4.2856   -0.81126  -1.13381 
 H                    -4.18348  -0.73114   0.61421 
 
 The following ModRedundant input section has been read:
 D       5       8      11       9 F                                           
 

 GradGradGradGradGradGradGradGradGradGradGradGradGradGradGradGradGradGrad
 Berny optimization.
 Initialization pass.
                           ----------------------------
                           !    Initial Parameters    !
                           ! (Angstroms and Degrees)  !
 --------------------------                            --------------------------
 ! Name  Definition              Value          Derivative Info.                !
 --------------------------------------------------------------------------------
 ! R1    R(1,2)                  1.4212         estimate D2E/DX2                !
 ! R2    R(1,13)                 1.5197         estimate D2E/DX2                !
 ! R3    R(1,14)                 1.0848         estimate D2E/DX2                !
 ! R4    R(1,15)                 1.0812         estimate D2E/DX2                !
 ! R5    R(2,5)                  1.403          estimate D2E/DX2                !
 ! R6    R(3,6)                  1.5296         estimate D2E/DX2                !
 ! R7    R(3,13)                 1.5288         estimate D2E/DX2                !
 ! R8    R(3,16)                 1.0867         estimate D2E/DX2                !
 ! R9    R(3,17)                 1.0857         estimate D2E/DX2                !
 ! R10   R(4,10)                 1.4162         estimate D2E/DX2                !
 ! R11   R(4,12)                 1.4128         estimate D2E/DX2                !
 ! R12   R(5,6)                  1.522          estimate D2E/DX2                !
 ! R13   R(5,8)                  1.3985         estimate D2E/DX2                !
 ! R14   R(5,18)                 1.0798         estimate D2E/DX2                !
 ! R15   R(6,19)                 1.0866         estimate D2E/DX2                !
 ! R16   R(6,20)                 1.0846         estimate D2E/DX2                !
 ! R17   R(7,9)                  1.5304         estimate D2E/DX2                !
 ! R18   R(7,10)                 1.5193         estimate D2E/DX2                !
 ! R19   R(7,21)                 1.0859         estimate D2E/DX2                !
 ! R20   R(7,22)                 1.0872         estimate D2E/DX2                !
 ! R21   R(8,11)                 1.4217         estimate D2E/DX2                !
 ! R22   R(9,11)                 1.5252         estimate D2E/DX2                !
 ! R23   R(9,23)                 1.0881         estimate D2E/DX2                !
 ! R24   R(9,24)                 1.0853         estimate D2E/DX2                !
 ! R25   R(10,25)                1.0814         estimate D2E/DX2                !
 ! R26   R(10,26)                1.0877         estimate D2E/DX2                !
 ! R27   R(11,12)                1.5297         estimate D2E/DX2                !
 ! R28   R(11,27)                1.0837         estimate D2E/DX2                !
 ! R29   R(12,28)                1.0793         estimate D2E/DX2                !
 ! R30   R(12,29)                1.0849         estimate D2E/DX2                !
 ! R31   R(13,30)                1.0863         estimate D2E/DX2                !
 ! R32   R(13,31)                1.0876         estimate D2E/DX2                !
 ! A1    A(2,1,13)             111.3964         estimate D2E/DX2                !
 ! A2    A(2,1,14)             109.4086         estimate D2E/DX2                !
 ! A3    A(2,1,15)             105.5451         estimate D2E/DX2                !
 ! A4    A(13,1,14)            110.7146         estimate D2E/DX2                !
 ! A5    A(13,1,15)            111.4899         estimate D2E/DX2                !
 ! A6    A(14,1,15)            108.1037         estimate D2E/DX2                !
 ! A7    A(1,2,5)              115.9356         estimate D2E/DX2                !
 ! A8    A(6,3,13)             109.6734         estimate D2E/DX2                !
 ! A9    A(6,3,16)             110.1339         estimate D2E/DX2                !
 ! A10   A(6,3,17)             109.7765         estimate D2E/DX2                !
 ! A11   A(13,3,16)            109.6778         estimate D2E/DX2                !
 ! A12   A(13,3,17)            110.5903         estimate D2E/DX2                !
 ! A13   A(16,3,17)            106.9537         estimate D2E/DX2                !
 ! A14   A(10,4,12)            113.6875         estimate D2E/DX2                !
 ! A15   A(2,5,6)              111.0599         estimate D2E/DX2                !
 ! A16   A(2,5,8)              111.5357         estimate D2E/DX2                !
 ! A17   A(2,5,18)             105.1951         estimate D2E/DX2                !
 ! A18   A(6,5,8)              108.3359         estimate D2E/DX2                !
 ! A19   A(6,5,18)             110.489          estimate D2E/DX2                !
 ! A20   A(8,5,18)             110.2239         estimate D2E/DX2                !
 ! A21   A(3,6,5)              111.9018         estimate D2E/DX2                !
 ! A22   A(3,6,19)             109.4158         estimate D2E/DX2                !
 ! A23   A(3,6,20)             111.5668         estimate D2E/DX2                !
 ! A24   A(5,6,19)             107.3024         estimate D2E/DX2                !
 ! A25   A(5,6,20)             108.9603         estimate D2E/DX2                !
 ! A26   A(19,6,20)            107.508          estimate D2E/DX2                !
 ! A27   A(9,7,10)             110.2947         estimate D2E/DX2                !
 ! A28   A(9,7,21)             110.6009         estimate D2E/DX2                !
 ! A29   A(9,7,22)             109.9286         estimate D2E/DX2                !
 ! A30   A(10,7,21)            109.5495         estimate D2E/DX2                !
 ! A31   A(10,7,22)            108.9843         estimate D2E/DX2                !
 ! A32   A(21,7,22)            107.422          estimate D2E/DX2                !
 ! A33   A(5,8,11)             121.1564         estimate D2E/DX2                !
 ! A34   A(7,9,11)             110.278          estimate D2E/DX2                !
 ! A35   A(7,9,23)             109.7137         estimate D2E/DX2                !
 ! A36   A(7,9,24)             110.8202         estimate D2E/DX2                !
 ! A37   A(11,9,23)            109.1618         estimate D2E/DX2                !
 ! A38   A(11,9,24)            109.3303         estimate D2E/DX2                !
 ! A39   A(23,9,24)            107.4779         estimate D2E/DX2                !
 ! A40   A(4,10,7)             110.671          estimate D2E/DX2                !
 ! A41   A(4,10,25)            106.3132         estimate D2E/DX2                !
 ! A42   A(4,10,26)            109.02           estimate D2E/DX2                !
 ! A43   A(7,10,25)            111.5441         estimate D2E/DX2                !
 ! A44   A(7,10,26)            110.7524         estimate D2E/DX2                !
 ! A45   A(25,10,26)           108.397          estimate D2E/DX2                !
 ! A46   A(8,11,9)             110.3893         estimate D2E/DX2                !
 ! A47   A(8,11,12)            115.4874         estimate D2E/DX2                !
 ! A48   A(8,11,27)            104.2067         estimate D2E/DX2                !
 ! A49   A(9,11,12)            111.0266         estimate D2E/DX2                !
 ! A50   A(9,11,27)            108.4707         estimate D2E/DX2                !
 ! A51   A(12,11,27)           106.7633         estimate D2E/DX2                !
 ! A52   A(4,12,11)            108.8664         estimate D2E/DX2                !
 ! A53   A(4,12,28)            106.5877         estimate D2E/DX2                !
 ! A54   A(4,12,29)            109.1134         estimate D2E/DX2                !
 ! A55   A(11,12,28)           111.1947         estimate D2E/DX2                !
 ! A56   A(11,12,29)           111.9919         estimate D2E/DX2                !
 ! A57   A(28,12,29)           108.9228         estimate D2E/DX2                !
 ! A58   A(1,13,3)             110.2155         estimate D2E/DX2                !
 ! A59   A(1,13,30)            109.0561         estimate D2E/DX2                !
 ! A60   A(1,13,31)            109.1622         estimate D2E/DX2                !
 ! A61   A(3,13,30)            111.0996         estimate D2E/DX2                !
 ! A62   A(3,13,31)            109.7726         estimate D2E/DX2                !
 ! A63   A(30,13,31)           107.4727         estimate D2E/DX2                !
 ! D1    D(13,1,2,5)           -57.5383         estimate D2E/DX2                !
 ! D2    D(14,1,2,5)            65.2022         estimate D2E/DX2                !
 ! D3    D(15,1,2,5)          -178.6955         estimate D2E/DX2                !
 ! D4    D(2,1,13,3)            54.5938         estimate D2E/DX2                !
 ! D5    D(2,1,13,30)          176.8062         estimate D2E/DX2                !
 ! D6    D(2,1,13,31)          -66.0434         estimate D2E/DX2                !
 ! D7    D(14,1,13,3)          -67.394          estimate D2E/DX2                !
 ! D8    D(14,1,13,30)          54.8184         estimate D2E/DX2                !
 ! D9    D(14,1,13,31)         171.9687         estimate D2E/DX2                !
 ! D10   D(15,1,13,3)          172.2137         estimate D2E/DX2                !
 ! D11   D(15,1,13,30)         -65.5739         estimate D2E/DX2                !
 ! D12   D(15,1,13,31)          51.5764         estimate D2E/DX2                !
 ! D13   D(1,2,5,6)             55.6557         estimate D2E/DX2                !
 ! D14   D(1,2,5,8)            -65.299          estimate D2E/DX2                !
 ! D15   D(1,2,5,18)           175.2104         estimate D2E/DX2                !
 ! D16   D(13,3,6,5)            51.926          estimate D2E/DX2                !
 ! D17   D(13,3,6,19)          -66.8628         estimate D2E/DX2                !
 ! D18   D(13,3,6,20)          174.301          estimate D2E/DX2                !
 ! D19   D(16,3,6,5)           -68.8682         estimate D2E/DX2                !
 ! D20   D(16,3,6,19)          172.3429         estimate D2E/DX2                !
 ! D21   D(16,3,6,20)           53.5068         estimate D2E/DX2                !
 ! D22   D(17,3,6,5)           173.6243         estimate D2E/DX2                !
 ! D23   D(17,3,6,19)           54.8354         estimate D2E/DX2                !
 ! D24   D(17,3,6,20)          -64.0007         estimate D2E/DX2                !
 ! D25   D(6,3,13,1)           -52.6561         estimate D2E/DX2                !
 ! D26   D(6,3,13,30)         -173.6546         estimate D2E/DX2                !
 ! D27   D(6,3,13,31)           67.6143         estimate D2E/DX2                !
 ! D28   D(16,3,13,1)           68.4138         estimate D2E/DX2                !
 ! D29   D(16,3,13,30)         -52.5847         estimate D2E/DX2                !
 ! D30   D(16,3,13,31)        -171.3159         estimate D2E/DX2                !
 ! D31   D(17,3,13,1)         -173.8653         estimate D2E/DX2                !
 ! D32   D(17,3,13,30)          65.1362         estimate D2E/DX2                !
 ! D33   D(17,3,13,31)         -53.595          estimate D2E/DX2                !
 ! D34   D(12,4,10,7)          -62.5467         estimate D2E/DX2                !
 ! D35   D(12,4,10,25)         176.1633         estimate D2E/DX2                !
 ! D36   D(12,4,10,26)          59.502          estimate D2E/DX2                !
 ! D37   D(10,4,12,11)          62.4633         estimate D2E/DX2                !
 ! D38   D(10,4,12,28)        -177.5071         estimate D2E/DX2                !
 ! D39   D(10,4,12,29)         -60.0331         estimate D2E/DX2                !
 ! D40   D(2,5,6,3)            -52.2464         estimate D2E/DX2                !
 ! D41   D(2,5,6,19)            67.7867         estimate D2E/DX2                !
 ! D42   D(2,5,6,20)          -176.097          estimate D2E/DX2                !
 ! D43   D(8,5,6,3)             70.5741         estimate D2E/DX2                !
 ! D44   D(8,5,6,19)          -169.3927         estimate D2E/DX2                !
 ! D45   D(8,5,6,20)           -53.2764         estimate D2E/DX2                !
 ! D46   D(18,5,6,3)          -168.5879         estimate D2E/DX2                !
 ! D47   D(18,5,6,19)          -48.5547         estimate D2E/DX2                !
 ! D48   D(18,5,6,20)           67.5616         estimate D2E/DX2                !
 ! D49   D(2,5,8,11)           -78.6569         estimate D2E/DX2                !
 ! D50   D(6,5,8,11)           158.8117         estimate D2E/DX2                !
 ! D51   D(18,5,8,11)           37.8095         estimate D2E/DX2                !
 ! D52   D(10,7,9,11)          -50.5543         estimate D2E/DX2                !
 ! D53   D(10,7,9,23)           69.7174         estimate D2E/DX2                !
 ! D54   D(10,7,9,24)         -171.755          estimate D2E/DX2                !
 ! D55   D(21,7,9,11)         -171.8966         estimate D2E/DX2                !
 ! D56   D(21,7,9,23)          -51.6249         estimate D2E/DX2                !
 ! D57   D(21,7,9,24)           66.9027         estimate D2E/DX2                !
 ! D58   D(22,7,9,11)           69.645          estimate D2E/DX2                !
 ! D59   D(22,7,9,23)         -170.0832         estimate D2E/DX2                !
 ! D60   D(22,7,9,24)          -51.5556         estimate D2E/DX2                !
 ! D61   D(9,7,10,4)            54.7495         estimate D2E/DX2                !
 ! D62   D(9,7,10,25)          172.8954         estimate D2E/DX2                !
 ! D63   D(9,7,10,26)          -66.278          estimate D2E/DX2                !
 ! D64   D(21,7,10,4)          176.7151         estimate D2E/DX2                !
 ! D65   D(21,7,10,25)         -65.139          estimate D2E/DX2                !
 ! D66   D(21,7,10,26)          55.6875         estimate D2E/DX2                !
 ! D67   D(22,7,10,4)          -66.0165         estimate D2E/DX2                !
 ! D68   D(22,7,10,25)          52.1294         estimate D2E/DX2                !
 ! D69   D(22,7,10,26)         172.9559         estimate D2E/DX2                !
 ! D70   D(5,8,11,9)           -92.23           Frozen                          !
 ! D71   D(5,8,11,12)           34.7286         estimate D2E/DX2                !
 ! D72   D(5,8,11,27)          151.4902         estimate D2E/DX2                !
 ! D73   D(7,9,11,8)          -178.7565         estimate D2E/DX2                !
 ! D74   D(7,9,11,12)           51.8458         estimate D2E/DX2                !
 ! D75   D(7,9,11,27)          -65.166          estimate D2E/DX2                !
 ! D76   D(23,9,11,8)           60.6403         estimate D2E/DX2                !
 ! D77   D(23,9,11,12)         -68.7573         estimate D2E/DX2                !
 ! D78   D(23,9,11,27)         174.2308         estimate D2E/DX2                !
 ! D79   D(24,9,11,8)          -56.6722         estimate D2E/DX2                !
 ! D80   D(24,9,11,12)         173.9301         estimate D2E/DX2                !
 ! D81   D(24,9,11,27)          56.9183         estimate D2E/DX2                !
 ! D82   D(8,11,12,4)          177.0349         estimate D2E/DX2                !
 ! D83   D(8,11,12,28)          59.9            estimate D2E/DX2                !
 ! D84   D(8,11,12,29)         -62.2219         estimate D2E/DX2                !
 ! D85   D(9,11,12,4)          -56.3286         estimate D2E/DX2                !
 ! D86   D(9,11,12,28)        -173.4635         estimate D2E/DX2                !
 ! D87   D(9,11,12,29)          64.4146         estimate D2E/DX2                !
 ! D88   D(27,11,12,4)          61.7233         estimate D2E/DX2                !
 ! D89   D(27,11,12,28)        -55.4116         estimate D2E/DX2                !
 ! D90   D(27,11,12,29)       -177.5334         estimate D2E/DX2                !
 --------------------------------------------------------------------------------
 Trust Radius=3.00D-01 FncErr=1.00D-07 GrdErr=1.00D-06 EigMax=2.50D+02 EigMin=1.00D-04
 Number of steps in this run=    186 maximum allowed number of steps=    186.
 GradGradGradGradGradGradGradGradGradGradGradGradGradGradGradGradGradGrad

                          Input orientation:                          
 ---------------------------------------------------------------------
 Center     Atomic      Atomic             Coordinates (Angstroms)
 Number     Number       Type             X           Y           Z
 ---------------------------------------------------------------------
      1          6           0       -2.385880   -1.387693   -0.342348
      2          8           0       -1.471140   -1.011252    0.678118
      3          6           0       -3.269669    0.951165   -0.375656
      4          8           0        2.794733   -1.364381   -0.152884
      5          6           0       -1.049783    0.326927    0.661385
      6          6           0       -2.239213    1.275465    0.707220
      7          6           0        3.439351    0.961459   -0.243109
      8          8           0       -0.301103    0.615130   -0.484197
      9          6           0        1.969191    1.363196   -0.104008
     10          6           0        3.676266   -0.398670    0.391170
     11          6           0        1.064681    0.233533   -0.585594
     12          6           0        1.430624   -1.088806    0.090718
     13          6           0       -3.640210   -0.530437   -0.306346
     14          1           0       -1.898331   -1.313973   -1.308631
     15          1           0       -2.612313   -2.428893   -0.158840
     16          1           0       -2.865491    1.181717   -1.357668
     17          1           0       -4.150504    1.571686   -0.242180
     18          1           0       -0.439823    0.442646    1.544818
     19          1           0       -2.698800    1.170423    1.686241
     20          1           0       -1.880041    2.295355    0.623122
     21          1           0        4.083079    1.698804    0.227171
     22          1           0        3.712641    0.913922   -1.294276
     23          1           0        1.745098    1.580456    0.938410
     24          1           0        1.758744    2.260820   -0.676582
     25          1           0        4.677606   -0.758161    0.197495
     26          1           0        3.530442   -0.352396    1.468064
     27          1           0        1.224058    0.095538   -1.648572
     28          1           0        0.870509   -1.910161   -0.329543
     29          1           0        1.260140   -1.058199    1.161692
     30          1           0       -4.285604   -0.811261   -1.133813
     31          1           0       -4.183483   -0.731143    0.614207
 ---------------------------------------------------------------------
                    Distance matrix (angstroms):
                    1          2          3          4          5
     1  C    0.000000
     2  O    1.421199   0.000000
     3  C    2.500490   2.862905   0.000000
     4  O    5.184129   4.360383   6.495256   0.000000
     5  C    2.394276   1.403048   2.528442   4.278301   0.000000
     6  C    2.866272   2.412438   1.529585   5.748841   1.522028
     7  C    6.281853   5.371515   6.710337   2.415203   4.623101
     8  O    2.894428   2.316264   2.989496   3.689503   1.398550
     9  C    5.156631   4.252717   5.262054   2.850190   3.282360
    10  C    6.185938   5.191665   7.117309   1.416225   4.789055
    11  C    3.820198   3.094648   4.398370   2.394504   2.456550
    12  C    3.852607   2.961636   5.145070   1.412826   2.912453
    13  C    1.519713   2.430065   1.528806   6.490570   2.895149
    14  H    1.084823   2.054581   2.807465   4.833543   2.700657
    15  H    1.081224   2.003118   3.450206   5.510841   3.272432
    16  H    2.804063   3.301174   1.086675   6.322362   2.846759
    17  H    3.447007   3.833733   1.085694   7.540874   3.461261
    18  H    3.270883   1.982070   3.457577   4.075523   1.079767
    19  H    3.279794   2.698734   2.150671   6.323489   2.116854
    20  H    3.840944   3.332248   2.176114   5.987434   2.136703
    21  H    7.190149   6.196540   7.415205   3.344754   5.330747
    22  H    6.587530   5.870964   7.042578   2.708504   5.181685
    23  H    5.245496   4.138706   5.222132   3.311302   3.075620
    24  H    5.531841   4.793101   5.204872   3.806523   3.663048
    25  H    7.112002   6.172692   8.149201   2.008850   5.847700
    26  H    6.273141   5.106264   7.165200   2.047646   4.700071
    27  H    4.115562   3.728614   4.748262   2.614472   3.249584
    28  H    3.298061   2.703098   5.032930   2.007915   3.110309
    29  H    3.957798   2.774155   5.188463   2.043730   2.739457
    30  H    2.137204   3.353252   2.170961   7.169333   3.871530
    31  H    2.139493   2.727517   2.155237   7.048753   3.307841
                    6          7          8          9         10
     6  C    0.000000
     7  C    5.766092   0.000000
     8  O    2.368921   3.764182   0.000000
     9  C    4.286776   1.530396   2.420409   0.000000
    10  C    6.155933   1.519338   4.196847   2.502694   0.000000
    11  C    3.697662   2.507235   1.421711   1.525189   2.859043
    12  C    4.408804   2.889639   2.496558   2.517993   2.368431
    13  C    2.500278   7.235326   3.534627   5.923864   7.350831
    14  H    3.299249   5.899473   2.636715   4.855520   5.899427
    15  H    3.822503   6.937163   3.835834   5.947531   6.631029
    16  H    2.159809   6.406387   2.767681   4.997874   6.953463
    17  H    2.154563   7.614347   3.973847   6.124804   8.095787
    18  H    2.152432   4.302771   2.041053   3.060946   4.356708
    19  H    1.086617   6.437620   3.281479   5.003228   6.691840
    20  H    1.084552   5.552078   2.557803   4.026689   6.179330
    21  H    6.354608   1.085922   4.571810   2.165833   2.142846
    22  H    6.289775   1.087152   4.105563   2.158287   2.136574
    23  H    4.002649   2.156302   2.672565   1.088143   2.818833
    24  H    4.343903   2.168105   2.643535   1.085292   3.448169
    25  H    7.227575   2.164371   5.209431   3.453487   1.081400
    26  H    6.042990   2.159311   4.407739   2.802173   1.087707
    27  H    4.351578   2.762728   1.987929   2.132571   3.227710
    28  H    4.570937   3.853910   2.788133   3.460178   3.267461
    29  H    4.230603   3.286555   2.818947   2.822748   2.620372
    30  H    3.454207   7.975639   4.281687   6.701584   8.117092
    31  H    2.795588   7.855412   4.253448   6.538921   7.869939
                   11         12         13         14         15
    11  C    0.000000
    12  C    1.529671   0.000000
    13  C    4.774686   5.116912   0.000000
    14  H    3.420087   3.618124   2.156999   0.000000
    15  H    4.559706   4.266550   2.163901   1.753521   0.000000
    16  H    4.115994   5.070473   2.153355   2.676989   3.812846
    17  H    5.395066   6.191771   2.164125   3.812693   4.286911
    18  H    2.616470   2.821050   3.823111   3.654467   3.983453
    19  H    4.494751   4.970106   2.783807   3.972686   4.045600
    20  H    3.792557   4.764085   3.456473   4.093807   4.844193
    21  H    3.452294   3.850313   8.056261   6.871156   7.874971
    22  H    2.824332   3.337174   7.558214   6.037113   7.243526
    23  H    2.144704   2.818233   5.916657   5.167348   6.022115
    24  H    2.144737   3.452015   6.089080   5.152944   6.431765
    25  H    3.827520   3.265520   8.336173   6.769069   7.487405
    26  H    3.262024   2.616986   7.389078   6.173025   6.685215
    27  H    1.083682   2.114349   5.084734   3.442614   4.828022
    28  H    2.167646   1.079339   4.717071   2.996753   3.525375
    29  H    2.181693   1.084890   5.142674   4.017942   4.314916
    30  H    5.478840   5.852501   1.086323   2.445885   2.523333
    31  H    5.469310   5.649793   1.087587   3.042847   2.438961
                   16         17         18         19         20
    16  H    0.000000
    17  H    1.745751   0.000000
    18  H    3.854156   4.270509   0.000000
    19  H    3.048491   2.446889   2.377527   0.000000
    20  H    2.476859   2.535241   2.521167   1.751017   0.000000
    21  H    7.145748   8.247929   4.875528   6.957151   6.005951
    22  H    6.583886   7.960440   5.052278   7.075016   6.071480
    23  H    5.166091   6.012653   2.536971   4.524998   3.708385
    24  H    4.797071   5.965134   3.615809   5.161550   3.864088
    25  H    7.942290   9.140953   5.426352   7.768344   7.246230
    26  H    7.158647   8.100862   4.049813   6.416388   6.082585
    27  H    4.241323   5.748293   3.617558   5.259769   4.431165
    28  H    4.957262   6.110766   3.281143   5.127704   5.114632
    29  H    5.327779   6.177558   2.299825   4.573304   4.625702
    30  H    2.457396   2.547881   4.851534   3.794433   4.304023
    31  H    3.047036   2.457134   4.032221   2.639980   3.803369
                   21         22         23         24         25
    21  H    0.000000
    22  H    1.751589   0.000000
    23  H    2.446635   3.049652   0.000000
    24  H    2.556397   2.452222   1.752507   0.000000
    25  H    2.528047   2.439754   3.823308   4.289290   0.000000
    26  H    2.460212   3.044221   2.684009   3.816716   1.759254
    27  H    3.776622   2.643544   3.028026   2.432920   4.007962
    28  H    4.863658   4.121149   3.815366   4.278607   4.012339
    29  H    4.055044   3.991967   2.692125   3.826715   3.563534
    30  H    8.842373   8.183760   6.810564   6.795652   9.061696
    31  H    8.624992   8.288385   6.371552   6.777023   8.870923
                   26         27         28         29         30
    26  H    0.000000
    27  H    3.903008   0.000000
    28  H    3.568370   2.426451   0.000000
    29  H    2.397143   3.038091   1.761089   0.000000
    30  H    8.250509   5.607463   5.332910   6.007129   0.000000
    31  H    7.770274   5.919888   5.274806   5.480852   1.752832
                   31
    31  H    0.000000
 Stoichiometry    C10H18O3
 Framework group  C1[X(C10H18O3)]
 Deg. of freedom    87
 Full point group                 C1      NOp   1
 Largest Abelian subgroup         C1      NOp   1
 Largest concise Abelian subgroup C1      NOp   1
                         Standard orientation:                         
 ---------------------------------------------------------------------
 Center     Atomic      Atomic             Coordinates (Angstroms)
 Number     Number       Type             X           Y           Z
 ---------------------------------------------------------------------
      1          6           0       -2.385880   -1.387693   -0.342348
      2          8           0       -1.471140   -1.011252    0.678118
      3          6           0       -3.269669    0.951165   -0.375656
      4          8           0        2.794733   -1.364381   -0.152884
      5          6           0       -1.049783    0.326927    0.661385
      6          6           0       -2.239213    1.275465    0.707220
      7          6           0        3.439351    0.961459   -0.243109
      8          8           0       -0.301103    0.615130   -0.484197
      9          6           0        1.969191    1.363196   -0.104008
     10          6           0        3.676266   -0.398670    0.391170
     11          6           0        1.064681    0.233533   -0.585594
     12          6           0        1.430624   -1.088806    0.090718
     13          6           0       -3.640210   -0.530437   -0.306346
     14          1           0       -1.898331   -1.313973   -1.308631
     15          1           0       -2.612313   -2.428893   -0.158840
     16          1           0       -2.865491    1.181717   -1.357668
     17          1           0       -4.150504    1.571686   -0.242180
     18          1           0       -0.439823    0.442646    1.544818
     19          1           0       -2.698800    1.170423    1.686241
     20          1           0       -1.880041    2.295355    0.623122
     21          1           0        4.083079    1.698804    0.227171
     22          1           0        3.712641    0.913922   -1.294276
     23          1           0        1.745098    1.580456    0.938410
     24          1           0        1.758744    2.260820   -0.676582
     25          1           0        4.677606   -0.758161    0.197495
     26          1           0        3.530442   -0.352396    1.468064
     27          1           0        1.224058    0.095538   -1.648572
     28          1           0        0.870509   -1.910161   -0.329543
     29          1           0        1.260140   -1.058199    1.161692
     30          1           0       -4.285604   -0.811261   -1.133813
     31          1           0       -4.183483   -0.731143    0.614207
 ---------------------------------------------------------------------
 Rotational constants (GHZ):           2.0108809           0.4240000           0.3786540
 Standard basis: 6-311++G(2d,2p) (5D, 7F)
 There are   557 symmetry adapted cartesian basis functions of A   symmetry.
 There are   531 symmetry adapted basis functions of A   symmetry.
   531 basis functions,   762 primitive gaussians,   557 cartesian basis functions
    51 alpha electrons       51 beta electrons
       nuclear repulsion energy       897.5358195652 Hartrees.
 NAtoms=   31 NActive=   31 NUniq=   31 SFac= 1.00D+00 NAtFMM=   60 NAOKFM=F Big=F
 Integral buffers will be    131072 words long.
 Raffenetti 2 integral format.
 Two-electron integral symmetry is turned on.
 ------------------------------------------------------------------------------
 Polarizable Continuum Model (PCM)
 =================================
 Model                : PCM.
 Atomic radii         : UFF (Universal Force Field).
 Polarization charges : Total charges.
 Charge compensation  : None.
 Solution method      : On-the-fly selection.
 Cavity type          : Scaled VdW (van der Waals Surface) (Alpha=1.100).
 Cavity algorithm     : GePol (No added spheres)
                        Default sphere list used, NSphG=   31.
                        Lebedev-Laikov grids with approx.  5.0 points / Ang**2.
                        Smoothing algorithm: York/Karplus (Gamma=1.0000).
                        Polarization charges: spherical gaussians, with
                                              point-specific exponents (IZeta= 3).
                        Self-potential: point-specific (ISelfS= 7).
                        Self-field    : sphere-specific E.n sum rule (ISelfD= 2).
 1st derivatives      : Analytical E(r).r(x)/FMM algorithm (CHGder, D1EAlg=3).
                        Cavity 1st derivative terms included.
 Solvent              : Water, Eps=  78.355300 Eps(inf)=   1.777849
 ------------------------------------------------------------------------------
 One-electron integrals computed using PRISM.
 NBasis=   531 RedAO= T EigKep=  5.55D-06  NBF=   531
 NBsUse=   531 1.00D-06 EigRej= -1.00D+00 NBFU=   531
 ExpMin= 3.60D-02 ExpMax= 8.59D+03 ExpMxC= 1.30D+03 IAcc=3 IRadAn=         5 AccDes= 0.00D+00
 Harris functional with IExCor= 1009 and IRadAn=       5 diagonalized for initial guess.
 HarFok:  IExCor= 1009 AccDes= 0.00D+00 IRadAn=         5 IDoV= 1 UseB2=F ITyADJ=14
 ICtDFT=  3500011 ScaDFX=  1.000000  1.000000  1.000000  1.000000
 FoFCou: FMM=F IPFlag=           0 FMFlag=      100000 FMFlg1=           0
         NFxFlg=           0 DoJE=T BraDBF=F KetDBF=T FulRan=T
         wScrn=  0.000000 ICntrl=       500 IOpCl=  0 I1Cent=   200000004 NGrid=           0
         NMat0=    1 NMatS0=      1 NMatT0=    0 NMatD0=    1 NMtDS0=    0 NMtDT0=    0
 Petite list used in FoFCou.
 Requested convergence on RMS density matrix=1.00D-08 within 128 cycles.
 Requested convergence on MAX density matrix=1.00D-06.
 Requested convergence on             energy=1.00D-06.
 No special actions if energy rises.
 Inv3:  Mode=1 IEnd=    12399267.
 Iteration    1 A*A^-1 deviation from unit magnitude is 4.22D-15 for   2011.
 Iteration    1 A*A^-1 deviation from orthogonality  is 2.26D-15 for   1989    848.
 Iteration    1 A^-1*A deviation from unit magnitude is 4.22D-15 for   2011.
 Iteration    1 A^-1*A deviation from orthogonality  is 2.17D-15 for   2030    658.
 Error on total polarization charges =  0.01479
 SCF Done:  E(RM062X) =  -617.497907984     A.U. after   12 cycles
            NFock= 12  Conv=0.56D-08     -V/T= 2.0035

 **********************************************************************

            Population analysis using the SCF density.

 **********************************************************************

 Orbital symmetries:
       Occupied  (A) (A) (A) (A) (A) (A) (A) (A) (A) (A) (A) (A)
                 (A) (A) (A) (A) (A) (A) (A) (A) (A) (A) (A) (A)
                 (A) (A) (A) (A) (A) (A) (A) (A) (A) (A) (A) (A)
                 (A) (A) (A) (A) (A) (A) (A) (A) (A) (A) (A) (A)
                 (A) (A) (A)
       Virtual   (A) (A) (A) (A) (A) (A) (A) (A) (A) (A) (A) (A)
                 (A) (A) (A) (A) (A) (A) (A) (A) (A) (A) (A) (A)
                 (A) (A) (A) (A) (A) (A) (A) (A) (A) (A) (A) (A)
                 (A) (A) (A) (A) (A) (A) (A) (A) (A) (A) (A) (A)
                 (A) (A) (A) (A) (A) (A) (A) (A) (A) (A) (A) (A)
                 (A) (A) (A) (A) (A) (A) (A) (A) (A) (A) (A) (A)
                 (A) (A) (A) (A) (A) (A) (A) (A) (A) (A) (A) (A)
                 (A) (A) (A) (A) (A) (A) (A) (A) (A) (A) (A) (A)
                 (A) (A) (A) (A) (A) (A) (A) (A) (A) (A) (A) (A)
                 (A) (A) (A) (A) (A) (A) (A) (A) (A) (A) (A) (A)
                 (A) (A) (A) (A) (A) (A) (A) (A) (A) (A) (A) (A)
                 (A) (A) (A) (A) (A) (A) (A) (A) (A) (A) (A) (A)
                 (A) (A) (A) (A) (A) (A) (A) (A) (A) (A) (A) (A)
                 (A) (A) (A) (A) (A) (A) (A) (A) (A) (A) (A) (A)
                 (A) (A) (A) (A) (A) (A) (A) (A) (A) (A) (A) (A)
                 (A) (A) (A) (A) (A) (A) (A) (A) (A) (A) (A) (A)
                 (A) (A) (A) (A) (A) (A) (A) (A) (A) (A) (A) (A)
                 (A) (A) (A) (A) (A) (A) (A) (A) (A) (A) (A) (A)
                 (A) (A) (A) (A) (A) (A) (A) (A) (A) (A) (A) (A)
                 (A) (A) (A) (A) (A) (A) (A) (A) (A) (A) (A) (A)
                 (A) (A) (A) (A) (A) (A) (A) (A) (A) (A) (A) (A)
                 (A) (A) (A) (A) (A) (A) (A) (A) (A) (A) (A) (A)
                 (A) (A) (A) (A) (A) (A) (A) (A) (A) (A) (A) (A)
                 (A) (A) (A) (A) (A) (A) (A) (A) (A) (A) (A) (A)
                 (A) (A) (A) (A) (A) (A) (A) (A) (A) (A) (A) (A)
                 (A) (A) (A) (A) (A) (A) (A) (A) (A) (A) (A) (A)
                 (A) (A) (A) (A) (A) (A) (A) (A) (A) (A) (A) (A)
                 (A) (A) (A) (A) (A) (A) (A) (A) (A) (A) (A) (A)
                 (A) (A) (A) (A) (A) (A) (A) (A) (A) (A) (A) (A)
                 (A) (A) (A) (A) (A) (A) (A) (A) (A) (A) (A) (A)
                 (A) (A) (A) (A) (A) (A) (A) (A) (A) (A) (A) (A)
                 (A) (A) (A) (A) (A) (A) (A) (A) (A) (A) (A) (A)
                 (A) (A) (A) (A) (A) (A) (A) (A) (A) (A) (A) (A)
                 (A) (A) (A) (A) (A) (A) (A) (A) (A) (A) (A) (A)
                 (A) (A) (A) (A) (A) (A) (A) (A) (A) (A) (A) (A)
                 (A) (A) (A) (A) (A) (A) (A) (A) (A) (A) (A) (A)
                 (A) (A) (A) (A) (A) (A) (A) (A) (A) (A) (A) (A)
                 (A) (A) (A) (A) (A) (A) (A) (A) (A) (A) (A) (A)
                 (A) (A) (A) (A) (A) (A) (A) (A) (A) (A) (A) (A)
                 (A) (A) (A) (A) (A) (A) (A) (A) (A) (A) (A) (A)
 The electronic state is 1-A.
 Alpha  occ. eigenvalues --  -19.62901 -19.62892 -19.62649 -10.63447 -10.58807
 Alpha  occ. eigenvalues --  -10.57967 -10.57844 -10.57586 -10.53096 -10.53026
 Alpha  occ. eigenvalues --  -10.52940 -10.52899 -10.52727  -1.20030  -1.16734
 Alpha  occ. eigenvalues --   -1.13464  -0.90834  -0.89688  -0.87418  -0.84897
 Alpha  occ. eigenvalues --   -0.75125  -0.74350  -0.73157  -0.71051  -0.66570
 Alpha  occ. eigenvalues --   -0.62965  -0.60481  -0.58859  -0.56624  -0.55850
 Alpha  occ. eigenvalues --   -0.54620  -0.53476  -0.51926  -0.50669  -0.50396
 Alpha  occ. eigenvalues --   -0.49188  -0.46825  -0.45883  -0.45406  -0.44798
 Alpha  occ. eigenvalues --   -0.43748  -0.42614  -0.41645  -0.40419  -0.39568
 Alpha  occ. eigenvalues --   -0.38559  -0.37729  -0.36235  -0.34166  -0.33229
 Alpha  occ. eigenvalues --   -0.31861
 Alpha virt. eigenvalues --   -0.00080   0.00731   0.00798   0.01144   0.02130
 Alpha virt. eigenvalues --    0.02498   0.02587   0.03336   0.03646   0.04317
 Alpha virt. eigenvalues --    0.04549   0.04778   0.05528   0.05922   0.07105
 Alpha virt. eigenvalues --    0.07363   0.07664   0.07909   0.09049   0.09341
 Alpha virt. eigenvalues --    0.10145   0.10987   0.11306   0.11528   0.11909
 Alpha virt. eigenvalues --    0.12400   0.12602   0.12957   0.13159   0.13477
 Alpha virt. eigenvalues --    0.13601   0.13783   0.14228   0.14471   0.14830
 Alpha virt. eigenvalues --    0.14984   0.15259   0.15444   0.15942   0.16309
 Alpha virt. eigenvalues --    0.16655   0.16683   0.17189   0.17426   0.17885
 Alpha virt. eigenvalues --    0.18054   0.18142   0.18794   0.19004   0.19416
 Alpha virt. eigenvalues --    0.20033   0.20161   0.20882   0.21101   0.21460
 Alpha virt. eigenvalues --    0.22018   0.22278   0.22917   0.23670   0.24357
 Alpha virt. eigenvalues --    0.25187   0.25438   0.25935   0.26407   0.26816
 Alpha virt. eigenvalues --    0.27541   0.28376   0.28714   0.29281   0.29525
 Alpha virt. eigenvalues --    0.29892   0.30351   0.30811   0.31481   0.31754
 Alpha virt. eigenvalues --    0.32341   0.32861   0.33275   0.33703   0.34469
 Alpha virt. eigenvalues --    0.34870   0.35142   0.35615   0.36036   0.36167
 Alpha virt. eigenvalues --    0.36662   0.37086   0.37377   0.37765   0.37989
 Alpha virt. eigenvalues --    0.38234   0.39038   0.39952   0.40545   0.41228
 Alpha virt. eigenvalues --    0.41236   0.42757   0.42896   0.43906   0.45493
 Alpha virt. eigenvalues --    0.46740   0.46986   0.48746   0.50154   0.50877
 Alpha virt. eigenvalues --    0.52046   0.52517   0.52786   0.54036   0.54385
 Alpha virt. eigenvalues --    0.55405   0.56705   0.57651   0.58897   0.60068
 Alpha virt. eigenvalues --    0.60290   0.60483   0.61223   0.61574   0.62142
 Alpha virt. eigenvalues --    0.62438   0.63052   0.63119   0.64058   0.64611
 Alpha virt. eigenvalues --    0.64790   0.65077   0.65884   0.66530   0.67201
 Alpha virt. eigenvalues --    0.68093   0.68462   0.68754   0.70059   0.70851
 Alpha virt. eigenvalues --    0.71429   0.71795   0.72278   0.72880   0.73178
 Alpha virt. eigenvalues --    0.73371   0.74006   0.74645   0.74950   0.75338
 Alpha virt. eigenvalues --    0.75782   0.77468   0.77950   0.78774   0.79071
 Alpha virt. eigenvalues --    0.79760   0.82641   0.83827   0.85107   0.85654
 Alpha virt. eigenvalues --    0.86779   0.87491   0.88503   0.89060   0.89757
 Alpha virt. eigenvalues --    0.90236   0.90480   0.92093   0.93146   0.95472
 Alpha virt. eigenvalues --    0.96390   0.99353   0.99932   1.00684   1.02251
 Alpha virt. eigenvalues --    1.02967   1.04184   1.04951   1.06113   1.07120
 Alpha virt. eigenvalues --    1.07932   1.09819   1.10564   1.11102   1.11901
 Alpha virt. eigenvalues --    1.13018   1.14488   1.14758   1.16438   1.16586
 Alpha virt. eigenvalues --    1.17638   1.17935   1.18473   1.19768   1.20968
 Alpha virt. eigenvalues --    1.21162   1.22282   1.22383   1.23433   1.24422
 Alpha virt. eigenvalues --    1.24677   1.25411   1.26602   1.27143   1.27778
 Alpha virt. eigenvalues --    1.28270   1.28739   1.29725   1.30345   1.31269
 Alpha virt. eigenvalues --    1.31509   1.32115   1.32390   1.34116   1.34373
 Alpha virt. eigenvalues --    1.35734   1.36168   1.37022   1.37676   1.38415
 Alpha virt. eigenvalues --    1.38825   1.39497   1.40499   1.41598   1.41943
 Alpha virt. eigenvalues --    1.43009   1.43145   1.44063   1.45380   1.45878
 Alpha virt. eigenvalues --    1.46020   1.46327   1.47511   1.48176   1.48656
 Alpha virt. eigenvalues --    1.49273   1.49584   1.51404   1.51638   1.52609
 Alpha virt. eigenvalues --    1.52941   1.54021   1.54552   1.55253   1.56578
 Alpha virt. eigenvalues --    1.56848   1.57655   1.57750   1.58223   1.59066
 Alpha virt. eigenvalues --    1.59273   1.59693   1.61322   1.61519   1.62544
 Alpha virt. eigenvalues --    1.63992   1.64742   1.65778   1.66128   1.66934
 Alpha virt. eigenvalues --    1.67133   1.68823   1.69357   1.71412   1.72895
 Alpha virt. eigenvalues --    1.73673   1.75010   1.76149   1.76633   1.78293
 Alpha virt. eigenvalues --    1.78960   1.80659   1.81995   1.83253   1.84349
 Alpha virt. eigenvalues --    1.86447   1.87647   1.93826   1.96165   2.00085
 Alpha virt. eigenvalues --    2.01964   2.05672   2.12187   2.16461   2.21534
 Alpha virt. eigenvalues --    2.22983   2.26383   2.33927   2.34941   2.39034
 Alpha virt. eigenvalues --    2.42068   2.44300   2.45546   2.49663   2.54714
 Alpha virt. eigenvalues --    2.61089   2.75787   2.76683   2.78883   2.80860
 Alpha virt. eigenvalues --    2.85003   2.90353   2.92560   2.94151   2.94984
 Alpha virt. eigenvalues --    2.95963   2.96796   3.01013   3.03233   3.03517
 Alpha virt. eigenvalues --    3.06861   3.08080   3.08531   3.10300   3.11476
 Alpha virt. eigenvalues --    3.12716   3.13959   3.18691   3.18867   3.21203
 Alpha virt. eigenvalues --    3.25728   3.26514   3.31916   3.33007   3.35204
 Alpha virt. eigenvalues --    3.35273   3.37881   3.38284   3.40274   3.42216
 Alpha virt. eigenvalues --    3.42538   3.44541   3.44846   3.46190   3.47540
 Alpha virt. eigenvalues --    3.47872   3.48753   3.50510   3.50869   3.52992
 Alpha virt. eigenvalues --    3.53196   3.54553   3.54767   3.55712   3.55848
 Alpha virt. eigenvalues --    3.56722   3.57840   3.58554   3.59964   3.60610
 Alpha virt. eigenvalues --    3.60948   3.62243   3.63305   3.64673   3.65886
 Alpha virt. eigenvalues --    3.66530   3.67639   3.67879   3.67930   3.69290
 Alpha virt. eigenvalues --    3.70733   3.71407   3.71759   3.73799   3.74326
 Alpha virt. eigenvalues --    3.74927   3.75629   3.76627   3.77045   3.77809
 Alpha virt. eigenvalues --    3.79276   3.80320   3.81202   3.84003   3.86254
 Alpha virt. eigenvalues --    3.86789   3.87640   3.89059   3.91284   3.91616
 Alpha virt. eigenvalues --    3.93416   3.93693   3.94330   3.95968   3.97781
 Alpha virt. eigenvalues --    4.00318   4.01785   4.02913   4.03704   4.04398
 Alpha virt. eigenvalues --    4.05389   4.06393   4.07059   4.07324   4.07638
 Alpha virt. eigenvalues --    4.07847   4.09320   4.10671   4.11654   4.11962
 Alpha virt. eigenvalues --    4.12483   4.12738   4.14454   4.14990   4.16287
 Alpha virt. eigenvalues --    4.17604   4.18026   4.18301   4.19768   4.20197
 Alpha virt. eigenvalues --    4.20836   4.23492   4.24557   4.26985   4.27691
 Alpha virt. eigenvalues --    4.29208   4.29611   4.31220   4.31687   4.32617
 Alpha virt. eigenvalues --    4.33917   4.35032   4.36590   4.37253   4.37558
 Alpha virt. eigenvalues --    4.39988   4.40649   4.44336   4.46132   4.47992
 Alpha virt. eigenvalues --    4.57537   4.60814   4.74970   4.77059   4.82578
 Alpha virt. eigenvalues --    4.85091   4.92672   4.95303   4.98705   5.01428
 Alpha virt. eigenvalues --    5.06641   5.06965   5.07830   5.08630   5.11909
 Alpha virt. eigenvalues --    5.12440   5.13883   5.15473   5.31196   5.40454
 Alpha virt. eigenvalues --    5.42514   5.58613   5.59754   5.67748   5.84769
 Alpha virt. eigenvalues --    5.90592   6.02004   7.02709   7.05133   7.05476
 Alpha virt. eigenvalues --    7.08761   7.10800   7.13352   7.14590   7.20979
 Alpha virt. eigenvalues --    7.28406   7.37041   7.40610   7.47839   7.53392
 Alpha virt. eigenvalues --    7.55129   7.64276  23.95842  23.96962  24.06899
 Alpha virt. eigenvalues --   24.08338  24.11162  24.11800  24.14311  24.15060
 Alpha virt. eigenvalues --   24.16295  24.21109  50.17599  50.19388  50.28970
          Condensed to atoms (all electrons):
               1          2          3          4          5          6
     1  C    5.628563   0.074042  -0.023237   0.001733  -0.422439   0.078020
     2  O    0.074042   8.286858   0.004348  -0.001374   0.304061  -0.044522
     3  C   -0.023237   0.004348   5.687881   0.000739  -0.284528   0.041104
     4  O    0.001733  -0.001374   0.000739   8.376306  -0.001624   0.001146
     5  C   -0.422439   0.304061  -0.284528  -0.001624   7.226068  -1.043038
     6  C    0.078020  -0.044522   0.041104   0.001146  -1.043038   6.959424
     7  C    0.004363  -0.000657  -0.000669  -0.050314  -0.071918  -0.019939
     8  O   -0.008399  -0.070300  -0.060368   0.006497   0.336166  -0.030319
     9  C   -0.053429  -0.003498  -0.014019  -0.026262   0.335327  -0.022324
    10  C    0.001300   0.007458   0.003162   0.101676   0.008021   0.021203
    11  C    0.121456  -0.017543   0.133467  -0.003468  -1.000602   0.053372
    12  C    0.027067  -0.043337  -0.042612   0.172504   0.211061  -0.110335
    13  C   -0.145852  -0.054605   0.000222  -0.000374   0.267692  -0.129773
    14  H    0.465187  -0.027493   0.000788   0.000775  -0.020933   0.040826
    15  H    0.436400  -0.073210   0.010490   0.000396  -0.011331  -0.007952
    16  H   -0.001830   0.001935   0.510132  -0.000039  -0.021043  -0.038843
    17  H    0.005633  -0.004285   0.425405   0.000004   0.007872  -0.046108
    18  H   -0.032638  -0.070380  -0.022456  -0.000974   0.517421  -0.090893
    19  H    0.016784  -0.004295  -0.012018  -0.000037  -0.145008   0.524623
    20  H    0.008111   0.007263  -0.035335   0.000055  -0.017630   0.404353
    21  H   -0.000326  -0.000017  -0.000065   0.006741   0.001594  -0.002820
    22  H    0.000300  -0.000482   0.000257  -0.005422  -0.006566   0.001767
    23  H    0.003245  -0.000509   0.003532   0.001068  -0.026999   0.007776
    24  H   -0.002600  -0.000036   0.001402  -0.000828   0.016637  -0.005958
    25  H   -0.000170   0.000482  -0.000008  -0.071020   0.000322   0.000876
    26  H    0.000491  -0.000114   0.000681  -0.036288  -0.001148   0.001497
    27  H    0.011708   0.000833   0.006786  -0.001064  -0.061658  -0.009926
    28  H    0.006727  -0.016387  -0.009984  -0.083215   0.062534  -0.029988
    29  H    0.006294   0.000721   0.007534  -0.031469  -0.083598  -0.015318
    30  H   -0.028484   0.009007  -0.045163   0.000013   0.006627  -0.010839
    31  H   -0.094594  -0.000788  -0.016783  -0.000009   0.005130  -0.007599
               7          8          9         10         11         12
     1  C    0.004363  -0.008399  -0.053429   0.001300   0.121456   0.027067
     2  O   -0.000657  -0.070300  -0.003498   0.007458  -0.017543  -0.043337
     3  C   -0.000669  -0.060368  -0.014019   0.003162   0.133467  -0.042612
     4  O   -0.050314   0.006497  -0.026262   0.101676  -0.003468   0.172504
     5  C   -0.071918   0.336166   0.335327   0.008021  -1.000602   0.211061
     6  C   -0.019939  -0.030319  -0.022324   0.021203   0.053372  -0.110335
     7  C    5.600256  -0.024447  -0.190124   0.090466   0.250801  -0.035755
     8  O   -0.024447   8.371561  -0.052803   0.002868  -0.123743   0.049836
     9  C   -0.190124  -0.052803   7.179310  -0.155897  -2.028008   0.529556
    10  C    0.090466   0.002868  -0.155897   5.362481   0.164553  -0.200124
    11  C    0.250801  -0.123743  -2.028008   0.164553   8.906898  -0.880136
    12  C   -0.035755   0.049836   0.529556  -0.200124  -0.880136   5.910075
    13  C   -0.001480   0.011034   0.014818  -0.000411  -0.032862  -0.002913
    14  H   -0.001729   0.003436   0.002045   0.000275  -0.021466   0.004239
    15  H   -0.000174   0.001501  -0.001309   0.000255   0.007209   0.002527
    16  H   -0.000724  -0.000800   0.011976  -0.000758  -0.020351   0.001953
    17  H    0.000092  -0.000553  -0.002779   0.000224   0.009849  -0.003071
    18  H    0.000671  -0.025543   0.010022  -0.014262  -0.007943   0.017880
    19  H   -0.000362   0.009732  -0.005693   0.000468   0.011269  -0.000810
    20  H   -0.000932  -0.001122   0.008646  -0.000185  -0.007294   0.003061
    21  H    0.424912  -0.002798  -0.023004  -0.039747  -0.005614   0.005221
    22  H    0.501861  -0.000031  -0.026662  -0.078848  -0.019620   0.003176
    23  H   -0.043456  -0.009889   0.430141  -0.011584   0.083078  -0.056489
    24  H   -0.014355   0.001278   0.451229   0.008988  -0.081188   0.013587
    25  H   -0.043508   0.000674   0.005719   0.427996   0.004696   0.012598
    26  H   -0.049067  -0.000648  -0.017706   0.473286   0.031454  -0.033037
    27  H    0.019424  -0.088498  -0.130205   0.009247   0.645941  -0.107913
    28  H    0.018590   0.008950   0.056214  -0.012052  -0.147276   0.498058
    29  H    0.023600  -0.015688  -0.203324   0.006574   0.284294   0.312706
    30  H    0.000195   0.000066  -0.000525  -0.000012   0.005840  -0.000261
    31  H   -0.000079   0.000020   0.001824  -0.000152  -0.007625   0.001043
              13         14         15         16         17         18
     1  C   -0.145852   0.465187   0.436400  -0.001830   0.005633  -0.032638
     2  O   -0.054605  -0.027493  -0.073210   0.001935  -0.004285  -0.070380
     3  C    0.000222   0.000788   0.010490   0.510132   0.425405  -0.022456
     4  O   -0.000374   0.000775   0.000396  -0.000039   0.000004  -0.000974
     5  C    0.267692  -0.020933  -0.011331  -0.021043   0.007872   0.517421
     6  C   -0.129773   0.040826  -0.007952  -0.038843  -0.046108  -0.090893
     7  C   -0.001480  -0.001729  -0.000174  -0.000724   0.000092   0.000671
     8  O    0.011034   0.003436   0.001501  -0.000800  -0.000553  -0.025543
     9  C    0.014818   0.002045  -0.001309   0.011976  -0.002779   0.010022
    10  C   -0.000411   0.000275   0.000255  -0.000758   0.000224  -0.014262
    11  C   -0.032862  -0.021466   0.007209  -0.020351   0.009849  -0.007943
    12  C   -0.002913   0.004239   0.002527   0.001953  -0.003071   0.017880
    13  C    5.776994  -0.066796  -0.021110  -0.058970  -0.015811   0.020228
    14  H   -0.066796   0.495628  -0.013976  -0.001027  -0.000860   0.001355
    15  H   -0.021110  -0.013976   0.481843  -0.002478   0.001314  -0.000415
    16  H   -0.058970  -0.001027  -0.002478   0.460652  -0.006517  -0.002524
    17  H   -0.015811  -0.000860   0.001314  -0.006517   0.463987   0.000775
    18  H    0.020228   0.001355  -0.000415  -0.002524   0.000775   0.470112
    19  H   -0.016141  -0.000839   0.000457   0.002464  -0.003252  -0.015894
    20  H   -0.005140  -0.001002   0.001307  -0.003576  -0.008380  -0.008638
    21  H    0.000053  -0.000019  -0.000015   0.000028  -0.000026   0.000727
    22  H   -0.000063   0.000069  -0.000013   0.000037   0.000016   0.000081
    23  H   -0.002029  -0.000662   0.000090   0.000260   0.000122  -0.013360
    24  H    0.000935   0.000612  -0.000074  -0.000269  -0.000028   0.002521
    25  H    0.000147  -0.000002   0.000003  -0.000031   0.000009  -0.000249
    26  H   -0.000701   0.000304  -0.000049   0.000019   0.000003  -0.001238
    27  H   -0.002053  -0.007140   0.001033  -0.001295   0.000407  -0.007233
    28  H   -0.014289  -0.003040  -0.002683   0.001122  -0.000677   0.008993
    29  H    0.001196  -0.000700   0.000339  -0.001114   0.000324  -0.023986
    30  H    0.433924  -0.002360  -0.007416  -0.005092  -0.007948   0.001269
    31  H    0.486487   0.006440  -0.008231   0.002388  -0.001943   0.001410
              19         20         21         22         23         24
     1  C    0.016784   0.008111  -0.000326   0.000300   0.003245  -0.002600
     2  O   -0.004295   0.007263  -0.000017  -0.000482  -0.000509  -0.000036
     3  C   -0.012018  -0.035335  -0.000065   0.000257   0.003532   0.001402
     4  O   -0.000037   0.000055   0.006741  -0.005422   0.001068  -0.000828
     5  C   -0.145008  -0.017630   0.001594  -0.006566  -0.026999   0.016637
     6  C    0.524623   0.404353  -0.002820   0.001767   0.007776  -0.005958
     7  C   -0.000362  -0.000932   0.424912   0.501861  -0.043456  -0.014355
     8  O    0.009732  -0.001122  -0.002798  -0.000031  -0.009889   0.001278
     9  C   -0.005693   0.008646  -0.023004  -0.026662   0.430141   0.451229
    10  C    0.000468  -0.000185  -0.039747  -0.078848  -0.011584   0.008988
    11  C    0.011269  -0.007294  -0.005614  -0.019620   0.083078  -0.081188
    12  C   -0.000810   0.003061   0.005221   0.003176  -0.056489   0.013587
    13  C   -0.016141  -0.005140   0.000053  -0.000063  -0.002029   0.000935
    14  H   -0.000839  -0.001002  -0.000019   0.000069  -0.000662   0.000612
    15  H    0.000457   0.001307  -0.000015  -0.000013   0.000090  -0.000074
    16  H    0.002464  -0.003576   0.000028   0.000037   0.000260  -0.000269
    17  H   -0.003252  -0.008380  -0.000026   0.000016   0.000122  -0.000028
    18  H   -0.015894  -0.008638   0.000727   0.000081  -0.013360   0.002521
    19  H    0.451831  -0.004207  -0.000047  -0.000049   0.000576  -0.000309
    20  H   -0.004207   0.480415   0.000154   0.000048  -0.000845  -0.000462
    21  H   -0.000047   0.000154   0.495013  -0.008973  -0.005095  -0.008319
    22  H   -0.000049   0.000048  -0.008973   0.473711   0.003226  -0.007904
    23  H    0.000576  -0.000845  -0.005095   0.003226   0.479695  -0.020889
    24  H   -0.000309  -0.000462  -0.008319  -0.007904  -0.020889   0.475870
    25  H    0.000041  -0.000097  -0.010077  -0.003630  -0.002005   0.001203
    26  H   -0.000197   0.000260   0.005008   0.001701  -0.003366  -0.000393
    27  H    0.000443   0.000492  -0.003018   0.000226   0.010774  -0.010162
    28  H   -0.001024   0.000099   0.002761  -0.001163  -0.001962  -0.000055
    29  H    0.000808   0.000175  -0.003107   0.000193   0.006514  -0.004032
    30  H   -0.002442   0.001721   0.000005  -0.000004   0.000052  -0.000049
    31  H   -0.002351  -0.002090   0.000008   0.000007  -0.000122   0.000053
              25         26         27         28         29         30
     1  C   -0.000170   0.000491   0.011708   0.006727   0.006294  -0.028484
     2  O    0.000482  -0.000114   0.000833  -0.016387   0.000721   0.009007
     3  C   -0.000008   0.000681   0.006786  -0.009984   0.007534  -0.045163
     4  O   -0.071020  -0.036288  -0.001064  -0.083215  -0.031469   0.000013
     5  C    0.000322  -0.001148  -0.061658   0.062534  -0.083598   0.006627
     6  C    0.000876   0.001497  -0.009926  -0.029988  -0.015318  -0.010839
     7  C   -0.043508  -0.049067   0.019424   0.018590   0.023600   0.000195
     8  O    0.000674  -0.000648  -0.088498   0.008950  -0.015688   0.000066
     9  C    0.005719  -0.017706  -0.130205   0.056214  -0.203324  -0.000525
    10  C    0.427996   0.473286   0.009247  -0.012052   0.006574  -0.000012
    11  C    0.004696   0.031454   0.645941  -0.147276   0.284294   0.005840
    12  C    0.012598  -0.033037  -0.107913   0.498058   0.312706  -0.000261
    13  C    0.000147  -0.000701  -0.002053  -0.014289   0.001196   0.433924
    14  H   -0.000002   0.000304  -0.007140  -0.003040  -0.000700  -0.002360
    15  H    0.000003  -0.000049   0.001033  -0.002683   0.000339  -0.007416
    16  H   -0.000031   0.000019  -0.001295   0.001122  -0.001114  -0.005092
    17  H    0.000009   0.000003   0.000407  -0.000677   0.000324  -0.007948
    18  H   -0.000249  -0.001238  -0.007233   0.008993  -0.023986   0.001269
    19  H    0.000041  -0.000197   0.000443  -0.001024   0.000808  -0.002442
    20  H   -0.000097   0.000260   0.000492   0.000099   0.000175   0.001721
    21  H   -0.010077   0.005008  -0.003018   0.002761  -0.003107   0.000005
    22  H   -0.003630   0.001701   0.000226  -0.001163   0.000193  -0.000004
    23  H   -0.002005  -0.003366   0.010774  -0.001962   0.006514   0.000052
    24  H    0.001203  -0.000393  -0.010162  -0.000055  -0.004032  -0.000049
    25  H    0.469046  -0.006589  -0.002084   0.001486  -0.001071  -0.000004
    26  H   -0.006589   0.496110   0.000855  -0.002119   0.004030  -0.000005
    27  H   -0.002084   0.000855   0.462931  -0.014729   0.018523   0.000707
    28  H    0.001486  -0.002119  -0.014729   0.499211  -0.045719   0.000592
    29  H   -0.001071   0.004030   0.018523  -0.045719   0.526325   0.000151
    30  H   -0.000004  -0.000005   0.000707   0.000592   0.000151   0.489372
    31  H   -0.000002   0.000011  -0.000660   0.000593  -0.000638  -0.013145
              31
     1  C   -0.094594
     2  O   -0.000788
     3  C   -0.016783
     4  O   -0.000009
     5  C    0.005130
     6  C   -0.007599
     7  C   -0.000079
     8  O    0.000020
     9  C    0.001824
    10  C   -0.000152
    11  C   -0.007625
    12  C    0.001043
    13  C    0.486487
    14  H    0.006440
    15  H   -0.008231
    16  H    0.002388
    17  H   -0.001943
    18  H    0.001410
    19  H   -0.002351
    20  H   -0.002090
    21  H    0.000008
    22  H    0.000007
    23  H   -0.000122
    24  H    0.000053
    25  H   -0.000002
    26  H    0.000011
    27  H   -0.000660
    28  H    0.000593
    29  H   -0.000638
    30  H   -0.013145
    31  H    0.487394
 Mulliken charges:
               1
     1  C   -0.083426
     2  O   -0.263175
     3  C   -0.270682
     4  O   -0.355873
     5  C   -0.086471
     6  C   -0.469492
     7  C   -0.385543
     8  O   -0.287672
     9  C   -0.079255
    10  C   -0.176468
    11  C   -0.309440
    12  C   -0.259356
    13  C   -0.442357
    14  H    0.148065
    15  H    0.205271
    16  H    0.174313
    17  H    0.186200
    18  H    0.285162
    19  H    0.195477
    20  H    0.180775
    21  H    0.170862
    22  H    0.172755
    23  H    0.169114
    24  H    0.183597
    25  H    0.215249
    26  H    0.136953
    27  H    0.257308
    28  H    0.220435
    29  H    0.229465
    30  H    0.174209
    31  H    0.164002
 Sum of Mulliken charges =  -0.00000
 Mulliken charges with hydrogens summed into heavy atoms:
               1
     1  C    0.269910
     2  O   -0.263175
     3  C    0.089831
     4  O   -0.355873
     5  C    0.198691
     6  C   -0.093239
     7  C   -0.041926
     8  O   -0.287672
     9  C    0.273455
    10  C    0.175734
    11  C   -0.052132
    12  C    0.190543
    13  C   -0.104146
 Electronic spatial extent (au):  <R**2>=           3034.4237
 Charge=             -0.0000 electrons
 Dipole moment (field-independent basis, Debye):
    X=             -0.5285    Y=              2.1311    Z=              0.6348  Tot=              2.2856
 Quadrupole moment (field-independent basis, Debye-Ang):
   XX=            -71.9821   YY=            -83.0965   ZZ=            -79.7494
   XY=              6.2426   XZ=              3.3057   YZ=              2.5940
 Traceless Quadrupole moment (field-independent basis, Debye-Ang):
   XX=              6.2939   YY=             -4.8205   ZZ=             -1.4734
   XY=              6.2426   XZ=              3.3057   YZ=              2.5940
 Octapole moment (field-independent basis, Debye-Ang**2):
  XXX=              2.3518  YYY=             -0.9102  ZZZ=              0.1003  XYY=            -11.6883
  XXY=             15.2982  XXZ=              4.5611  XZZ=              3.3456  YZZ=              0.4922
  YYZ=             -1.0720  XYZ=             -7.8148
 Hexadecapole moment (field-independent basis, Debye-Ang**3):
 XXXX=          -3005.5742 YYYY=           -627.6503 ZZZZ=           -248.9860 XXXY=             43.5228
 XXXZ=             26.5810 YYYX=             25.6790 YYYZ=              0.7669 ZZZX=             -2.0358
 ZZZY=              0.4095 XXYY=           -652.1910 XXZZ=           -569.3233 YYZZ=           -151.8069
 XXYZ=              1.4978 YYXZ=              5.0139 ZZXY=             -1.1097
 N-N= 8.975358195652D+02 E-N=-3.236901325980D+03  KE= 6.153376394157D+02
 D1PCM: PCM CHGder 1st derivatives, ID1Alg=3 FixD1E=F DoIter=F DoCFld=F I1PDM=0.
 Calling FoFJK, ICntrl=      2127 FMM=F ISym2X=0 I1Cent= 0 IOpClX= 0 NMat=1 NMatS=1 NMatT=0.
 ***** Axes restored to original set *****
 -------------------------------------------------------------------
 Center     Atomic                   Forces (Hartrees/Bohr)
 Number     Number              X              Y              Z
 -------------------------------------------------------------------
      1        6          -0.002083825    0.006102371    0.001505519
      2        8           0.004467154   -0.007656504    0.008476152
      3        6           0.001811280   -0.002673002    0.002211681
      4        8           0.003582410   -0.007412271   -0.004503523
      5        6          -0.002441659    0.001647523   -0.005064809
      6        6           0.000108664   -0.000513117   -0.002558464
      7        6          -0.001545937   -0.000238081    0.002685961
      8        8          -0.006456484    0.002814042   -0.009625319
      9        6           0.002681850   -0.004838669    0.000392523
     10        6          -0.005135184    0.003050824   -0.003455687
     11        6          -0.001425637    0.002236482    0.005875661
     12        6           0.003935617    0.005852231   -0.003423371
     13        6           0.002136076    0.001065606   -0.001442731
     14        1           0.002473298    0.001483947   -0.005658189
     15        1          -0.001025196   -0.004212728    0.000900157
     16        1           0.002309462    0.000232395   -0.002780946
     17        1          -0.002098390    0.001424768    0.000448684
     18        1           0.004205349    0.000094410    0.007282714
     19        1          -0.001462757   -0.000965940    0.002953453
     20        1           0.001235243    0.002881020   -0.000562453
     21        1           0.001685737    0.002275274    0.001032494
     22        1           0.000385838   -0.000761461   -0.003096711
     23        1          -0.001192232    0.000015358    0.004095044
     24        1          -0.001167259    0.002238963   -0.001590412
     25        1           0.004053849   -0.001391556   -0.000898930
     26        1          -0.000848909    0.001452382    0.006002052
     27        1           0.001989514   -0.001310743   -0.005433659
     28        1          -0.004177201   -0.003414441   -0.001694366
     29        1          -0.003080405    0.001517872    0.006898824
     30        1          -0.001878610   -0.000454390   -0.002092353
     31        1          -0.001041655   -0.000542566    0.003121004
 -------------------------------------------------------------------
 Cartesian Forces:  Max     0.009625319 RMS     0.003443210

 GradGradGradGradGradGradGradGradGradGradGradGradGradGradGradGradGradGrad
 Berny optimization.
 FormGI is forming the generalized inverse of G from B-inverse, IUseBI=4.
 Internal  Forces:  Max     0.018835921 RMS     0.002390111
 Search for a local minimum.
 Step number   1 out of a maximum of  186
 All quantities printed in internal units (Hartrees-Bohrs-Radians)
 Mixed Optimization -- RFO/linear search
 Second derivative matrix not updated -- first step.
 ITU=  0
     Eigenvalues ---    0.00621   0.00629   0.00710   0.00722   0.01418
     Eigenvalues ---    0.01449   0.01711   0.02677   0.02704   0.03079
     Eigenvalues ---    0.03099   0.03837   0.04089   0.04620   0.04747
     Eigenvalues ---    0.04850   0.04890   0.05129   0.05143   0.05201
     Eigenvalues ---    0.05279   0.05655   0.05687   0.06061   0.06168
     Eigenvalues ---    0.06293   0.06590   0.07060   0.07612   0.07856
     Eigenvalues ---    0.07936   0.07964   0.07965   0.08073   0.08225
     Eigenvalues ---    0.08819   0.09200   0.09532   0.10690   0.11567
     Eigenvalues ---    0.11596   0.11690   0.11763   0.12399   0.12536
     Eigenvalues ---    0.14684   0.14912   0.16474   0.16608   0.17886
     Eigenvalues ---    0.19113   0.21404   0.21956   0.25000   0.28234
     Eigenvalues ---    0.28626   0.28739   0.28835   0.28925   0.29105
     Eigenvalues ---    0.30071   0.30287   0.35028   0.35079   0.35093
     Eigenvalues ---    0.35144   0.35200   0.35207   0.35241   0.35288
     Eigenvalues ---    0.35315   0.35362   0.35410   0.35418   0.35450
     Eigenvalues ---    0.35553   0.35826   0.35847   0.36023   0.36074
     Eigenvalues ---    0.40900   0.41424   0.42024   0.42204   0.43570
     Eigenvalues ---    0.458621000.000001000.000001000.000001000.00000
     Eigenvalues --- 1000.000001000.000001000.000001000.000001000.00000
     Eigenvalues --- 1000.000001000.000001000.000001000.000001000.00000
     Eigenvalues --- 1000.000001000.000001000.000001000.000001000.00000
     Eigenvalues --- 1000.000001000.000001000.000001000.000001000.00000
     Eigenvalues --- 1000.000001000.000001000.000001000.000001000.00000
     Eigenvalues --- 1000.000001000.000001000.000001000.000001000.00000
     Eigenvalues --- 1000.000001000.000001000.000001000.000001000.00000
     Eigenvalues --- 1000.000001000.000001000.000001000.000001000.00000
     Eigenvalues --- 1000.000001000.000001000.000001000.000001000.00000
     Eigenvalues --- 1000.000001000.000001000.000001000.000001000.00000
     Eigenvalues --- 1000.000001000.000001000.000001000.000001000.00000
     Eigenvalues --- 1000.000001000.000001000.000001000.000001000.00000
     Eigenvalues --- 1000.000001000.000001000.000001000.000001000.00000
     Eigenvalues --- 1000.000001000.000001000.000001000.000001000.00000
     Eigenvalues --- 1000.000001000.000001000.000001000.000001000.00000
     Eigenvalues --- 1000.000001000.000001000.000001000.000001000.00000
     Eigenvalues --- 1000.000001000.000001000.000001000.000001000.00000
     Eigenvalues --- 1000.000001000.000001000.000001000.000001000.00000
     Eigenvalues --- 1000.000001000.000001000.000001000.000001000.00000
 RFO step:  Lambda=-4.62106460D-03 EMin= 6.21350247D-03
 Linear search not attempted -- first point.
 Iteration  1 RMS(Cart)=  0.09169731 RMS(Int)=  0.00163488
 Iteration  2 RMS(Cart)=  0.00493894 RMS(Int)=  0.00005905
 Iteration  3 RMS(Cart)=  0.00000751 RMS(Int)=  0.00005891
 Iteration  4 RMS(Cart)=  0.00000000 RMS(Int)=  0.00005891
 Iteration  1 RMS(Cart)=  0.00001008 RMS(Int)=  0.00000234
 Iteration  2 RMS(Cart)=  0.00000559 RMS(Int)=  0.00000261
 Iteration  3 RMS(Cart)=  0.00000310 RMS(Int)=  0.00000296
 Iteration  4 RMS(Cart)=  0.00000172 RMS(Int)=  0.00000319
 Iteration  5 RMS(Cart)=  0.00000096 RMS(Int)=  0.00000333
 Variable       Old X    -DE/DX   Delta X   Delta X   Delta X     New X
                                 (Linear)    (Quad)   (Total)
    R1        2.68568   0.00304   0.00000   0.00703   0.00704   2.69272
    R2        2.87184   0.00023   0.00000   0.00105   0.00107   2.87291
    R3        2.05002   0.00625   0.00000   0.01743   0.01743   2.06744
    R4        2.04322   0.00442   0.00000   0.01218   0.01218   2.05540
    R5        2.65138   0.00383   0.00000   0.00804   0.00806   2.65944
    R6        2.89050  -0.00142   0.00000  -0.00467  -0.00468   2.88582
    R7        2.88903  -0.00067   0.00000  -0.00168  -0.00170   2.88732
    R8        2.05352   0.00342   0.00000   0.00960   0.00960   2.06311
    R9        2.05167   0.00257   0.00000   0.00719   0.00719   2.05885
   R10        2.67628   0.00322   0.00000   0.00797   0.00798   2.68426
   R11        2.66985   0.00386   0.00000   0.00865   0.00869   2.67854
   R12        2.87622  -0.00077   0.00000  -0.00284  -0.00285   2.87336
   R13        2.64288   0.00235   0.00000   0.00507   0.00507   2.64794
   R14        2.04046   0.00834   0.00000   0.02287   0.02287   2.06333
   R15        2.05341   0.00337   0.00000   0.00945   0.00945   2.06286
   R16        2.04951   0.00316   0.00000   0.00881   0.00881   2.05831
   R17        2.89203  -0.00079   0.00000  -0.00249  -0.00252   2.88951
   R18        2.87113   0.00049   0.00000   0.00183   0.00182   2.87296
   R19        2.05210   0.00299   0.00000   0.00837   0.00837   2.06046
   R20        2.05442   0.00312   0.00000   0.00877   0.00877   2.06319
   R21        2.68665  -0.00026   0.00000  -0.00060  -0.00060   2.68605
   R22        2.88219  -0.00101   0.00000  -0.00413  -0.00414   2.87805
   R23        2.05629   0.00417   0.00000   0.01175   0.01175   2.06805
   R24        2.05090   0.00292   0.00000   0.00814   0.00814   2.05905
   R25        2.04355   0.00438   0.00000   0.01206   0.01206   2.05561
   R26        2.05547   0.00612   0.00000   0.01722   0.01722   2.07269
   R27        2.89066  -0.00091   0.00000  -0.00325  -0.00325   2.88741
   R28        2.04786   0.00579   0.00000   0.01607   0.01607   2.06394
   R29        2.03965   0.00543   0.00000   0.01485   0.01485   2.05451
   R30        2.05015   0.00734   0.00000   0.02046   0.02046   2.07060
   R31        2.05285   0.00283   0.00000   0.00792   0.00792   2.06077
   R32        2.05524   0.00326   0.00000   0.00917   0.00917   2.06442
    A1        1.94423   0.00223   0.00000   0.00586   0.00584   1.95008
    A2        1.90954   0.00013   0.00000   0.00086   0.00091   1.91045
    A3        1.84211  -0.00132   0.00000  -0.00237  -0.00239   1.83972
    A4        1.93233  -0.00158   0.00000  -0.00695  -0.00700   1.92534
    A5        1.94587  -0.00020   0.00000  -0.00165  -0.00159   1.94428
    A6        1.88676   0.00074   0.00000   0.00455   0.00454   1.89130
    A7        2.02346  -0.00589   0.00000  -0.03687  -0.03674   1.98671
    A8        1.91416   0.00200   0.00000  -0.00092  -0.00092   1.91324
    A9        1.92220  -0.00098   0.00000  -0.00622  -0.00621   1.91598
   A10        1.91596  -0.00060   0.00000   0.00125   0.00124   1.91720
   A11        1.91424  -0.00091   0.00000  -0.00175  -0.00184   1.91240
   A12        1.93016  -0.00025   0.00000   0.00180   0.00186   1.93202
   A13        1.86669   0.00067   0.00000   0.00592   0.00592   1.87262
   A14        1.98422  -0.00440   0.00000  -0.02625  -0.02614   1.95808
   A15        1.93836   0.00365   0.00000   0.01516   0.01500   1.95336
   A16        1.94667  -0.00002   0.00000  -0.00357  -0.00342   1.94324
   A17        1.83600  -0.00262   0.00000  -0.01575  -0.01577   1.82023
   A18        1.89082  -0.00279   0.00000  -0.01208  -0.01200   1.87882
   A19        1.92840   0.00018   0.00000   0.00511   0.00518   1.93357
   A20        1.92377   0.00173   0.00000   0.01174   0.01172   1.93549
   A21        1.95306  -0.00193   0.00000  -0.01599  -0.01609   1.93696
   A22        1.90967   0.00125   0.00000   0.00701   0.00709   1.91675
   A23        1.94721  -0.00020   0.00000  -0.00072  -0.00083   1.94638
   A24        1.87278   0.00012   0.00000   0.00381   0.00379   1.87657
   A25        1.90172   0.00086   0.00000  -0.00011  -0.00009   1.90163
   A26        1.87637  -0.00003   0.00000   0.00710   0.00707   1.88344
   A27        1.92501  -0.00122   0.00000  -0.00612  -0.00618   1.91882
   A28        1.93035  -0.00017   0.00000   0.00027   0.00029   1.93064
   A29        1.91862   0.00074   0.00000   0.00056   0.00056   1.91917
   A30        1.91200   0.00065   0.00000   0.00459   0.00460   1.91660
   A31        1.90214   0.00010   0.00000  -0.00220  -0.00219   1.89994
   A32        1.87487  -0.00006   0.00000   0.00315   0.00314   1.87801
   A33        2.11458  -0.01884   0.00000  -0.07398  -0.07398   2.04060
   A34        1.92471   0.00147   0.00000  -0.00236  -0.00238   1.92233
   A35        1.91486  -0.00065   0.00000   0.00016   0.00013   1.91499
   A36        1.93418   0.00037   0.00000   0.00726   0.00728   1.94146
   A37        1.90523  -0.00078   0.00000  -0.00603  -0.00603   1.89921
   A38        1.90817  -0.00087   0.00000  -0.00248  -0.00247   1.90570
   A39        1.87584   0.00041   0.00000   0.00338   0.00336   1.87920
   A40        1.93157   0.00203   0.00000   0.00962   0.00966   1.94123
   A41        1.85551  -0.00121   0.00000  -0.00400  -0.00400   1.85152
   A42        1.90276   0.00062   0.00000   0.00689   0.00691   1.90967
   A43        1.94681  -0.00025   0.00000  -0.00314  -0.00316   1.94365
   A44        1.93299  -0.00174   0.00000  -0.00995  -0.00998   1.92301
   A45        1.89188   0.00058   0.00000   0.00097   0.00093   1.89282
   A46        1.92666   0.00142   0.00000   0.00542   0.00519   1.93185
   A47        2.01564  -0.00278   0.00000  -0.02253  -0.02251   1.99313
   A48        1.81875   0.00120   0.00000   0.01689   0.01687   1.83562
   A49        1.93778  -0.00065   0.00000  -0.00365  -0.00371   1.93407
   A50        1.89317   0.00119   0.00000   0.00426   0.00420   1.89737
   A51        1.86337  -0.00007   0.00000   0.00237   0.00244   1.86581
   A52        1.90008   0.00171   0.00000   0.01078   0.01084   1.91092
   A53        1.86031  -0.00021   0.00000   0.00987   0.00987   1.87017
   A54        1.90439   0.00154   0.00000   0.01433   0.01442   1.91880
   A55        1.94071  -0.00093   0.00000  -0.00881  -0.00897   1.93174
   A56        1.95463  -0.00237   0.00000  -0.01846  -0.01860   1.93603
   A57        1.90106   0.00042   0.00000  -0.00577  -0.00607   1.89499
   A58        1.92362  -0.00095   0.00000  -0.00423  -0.00443   1.91919
   A59        1.90339   0.00055   0.00000   0.00301   0.00306   1.90645
   A60        1.90524   0.00005   0.00000  -0.00133  -0.00126   1.90398
   A61        1.93905  -0.00053   0.00000  -0.00211  -0.00208   1.93698
   A62        1.91589   0.00091   0.00000   0.00167   0.00175   1.91764
   A63        1.87575   0.00000   0.00000   0.00318   0.00315   1.87891
    D1       -1.00423   0.00056   0.00000  -0.01325  -0.01313  -1.01736
    D2        1.13799   0.00015   0.00000  -0.01752  -0.01744   1.12055
    D3       -3.11882   0.00038   0.00000  -0.01307  -0.01298  -3.13181
    D4        0.95284   0.00135   0.00000   0.01852   0.01858   0.97142
    D5        3.08585   0.00044   0.00000   0.01516   0.01515   3.10100
    D6       -1.15268   0.00078   0.00000   0.01994   0.01996  -1.13271
    D7       -1.17625   0.00074   0.00000   0.01823   0.01829  -1.15796
    D8        0.95676  -0.00016   0.00000   0.01487   0.01487   0.97163
[...]
 00021105,-0.00024275,0.00011736,-0.00072419,-0.00127229,-0.00116660,-0
 .00000272,-0.00000192,-0.00000906,0.00000530,0.00000122,-0.00000066,-0
 .00000358,-0.00000510,-0.00000101,0.00000163,-0.00000055,0.00000202,-0
 .00000479,0.00000101,-0.00000110,-0.00001017,0.00000151,0.00001013,-0.
 00001195,0.00000277,0.00000223,0.,0.00000172,-0.00000110,0.00035404,-0
 .00036112,0.00034285,-0.00033694,-0.00089348,0.00071238,-0.00034792,0.
 00017132,0.00024525,-0.00059898,0.00028378,0.00025592,-0.04486513,0.02
 095519,0.06076202,-0.00001630,-0.00001665,-0.00002629,0.00007024,0.000
 00329,0.00003591,0.00000325,-0.00000402,-0.00000256,-0.00434015,-0.009
 70692,-0.02728294,-0.00004026,0.00002332,-0.00003792,-0.00000062,0.000
 00602,0.00001256,0.00128895,0.00121035,-0.00340362,-0.00000171,0.00021
 113,0.00000539,0.00052234,-0.00041843,-0.00085094,-0.06246736,0.005574
 85,0.04718513,-0.00052993,0.00008766,0.00015248,0.00396131,-0.00104973
 ,-0.00456136,0.00000264,0.00000219,0.00000654,0.00000002,-0.00000076,0
 .00000196,0.00000296,0.00000255,0.00000119,0.00000011,0.00000067,-0.00
 000004,0.00000329,-0.00000027,0.00000142,0.00002708,0.00000466,0.00003
 421,0.00000057,-0.00000079,-0.00000080,0.00000076,-0.00000299,-0.00000
 016,0.00023282,-0.00004171,0.00017252,0.00107111,0.00026139,-0.0004779
 9,0.00014169,0.00014218,0.00000979,0.00004945,-0.00008975,0.00009309,-
 0.00292074,0.00047762,0.02815271,0.06232833,0.00004286,0.00002513,0.00
 003906,-0.00010864,-0.00001145,0.00000651,-0.00000509,0.00000681,0.000
 00812,-0.00759661,-0.00871607,-0.03098647,0.00009538,0.00000329,-0.000
 05327,-0.00000762,-0.00001497,-0.00000638,-0.00525369,0.00042354,0.031
 76553,-0.00010251,0.00030925,-0.00001054,-0.00112737,0.00160354,0.0000
 7358,0.00344741,-0.04907250,-0.00334175,-0.00025933,-0.00040327,0.0003
 0668,0.00399000,-0.00002788,-0.00077226,-0.00000237,-0.00000240,-0.000
 00869,0.00000345,-0.00000011,-0.00000078,-0.00000458,-0.00000473,-0.00
 000218,0.00000262,-0.00000183,0.00000122,-0.00000652,0.00000033,-0.000
 00308,-0.00001185,-0.00001282,-0.00001887,-0.00000902,0.00000170,0.000
 00232,-0.00000093,0.00000222,-0.00000040,-0.00027479,0.00114324,-0.000
 93184,0.00148716,-0.00530222,0.00288443,0.00037199,-0.00014845,-0.0005
 5416,-0.00018768,0.00000022,-0.00040363,0.00241427,0.00058751,-0.01157
 079,0.00337084,0.05945522,0.00006780,0.00003598,0.00005642,-0.00018412
 ,-0.00005209,0.00003378,-0.00000324,0.00000853,0.00001059,-0.00907878,
 -0.01239266,-0.01695167,0.00016455,0.00005367,-0.00025306,-0.00001090,
 -0.00002323,0.00001764,0.00434962,0.00080845,-0.01429737,-0.00053241,0
 .00022197,0.00007508,0.00018984,-0.00103839,0.00055590,0.04344931,-0.0
 0436233,-0.28580335,-0.00002562,-0.00027540,0.00022865,0.00285185,0.00
 030852,0.00092184,-0.00000269,-0.00000196,-0.00001277,0.00000427,0.000
 00249,0.00000025,-0.00000735,-0.00000850,-0.00000154,0.00000410,-0.000
 00234,0.00000485,-0.00001028,0.00000081,-0.00000358,-0.00003088,-0.000
 00615,-0.00000441,-0.00002117,0.00000654,0.00000544,-0.00000186,0.0000
 0280,-0.00000189,0.00011665,0.00046450,0.00024076,-0.00036710,0.002604
 19,0.00002761,-0.00071312,0.00024917,0.00014456,-0.00001033,0.00013987
 ,0.00031781,0.00198904,0.00048754,-0.00396657,-0.04073852,0.01240630,0
 .31795492,0.00040623,0.00012869,0.00047190,-0.00035799,-0.00128687,-0.
 00027635,0.00004164,0.00007432,0.00014578,0.00136419,0.00001475,-0.000
 67456,-0.00126429,0.00665900,-0.00229841,-0.00067567,-0.00069228,0.001
 63178,0.00139858,0.00012701,-0.00041775,-0.02506544,0.00494971,0.03985
 379,0.00271157,-0.00365964,-0.02052868,-0.00028254,-0.00021143,-0.0001
 8562,-0.04727236,0.00171552,0.02419906,0.00106007,-0.00019526,-0.00438
 325,0.00002074,0.00005533,-0.00011346,0.00005306,0.00003633,-0.0001588
 0,-0.00005286,-0.00006172,-0.00005657,0.00001207,-0.00003210,-0.000052
 93,-0.00008836,-0.00000108,-0.00007974,-0.00021714,-0.00006250,0.00050
 762,-0.00061490,0.00028390,0.00002083,0.00005079,-0.00001388,-0.000026
 62,0.00017553,-0.00004764,0.00021142,-0.00031012,-0.00009032,0.0003080
 3,-0.00230778,-0.00318112,-0.00144995,0.00063007,0.00036856,0.00077737
 ,-0.00000979,0.00005780,-0.00004237,-0.00004429,-0.00003223,0.00015604
 ,0.07060189,-0.00005323,0.00003605,0.00015537,0.00004537,0.00063308,-0
 .00000071,-0.00001935,-0.00001437,-0.00002389,-0.00172374,0.00181463,-
 0.00184881,-0.00034757,-0.00219211,0.00122791,0.00018004,0.00017079,-0
 .00044060,0.00105552,0.00057830,0.00018412,0.00879413,0.00111330,-0.01
 088057,0.00028304,-0.00492803,-0.02714283,-0.00013157,-0.00020042,-0.0
 0001368,0.00186241,-0.05374874,-0.02822289,-0.00313844,-0.00046904,0.0
 3341752,-0.00002087,-0.00000385,-0.00002882,0.00010482,0.00001439,-0.0
 0008848,0.00001958,0.00001290,-0.00000951,-0.00000502,0.00000415,0.000
 00875,0.00001914,-0.00000446,0.00001423,0.00004919,-0.00005532,-0.0002
 3336,0.00016636,-0.00006014,-0.00000496,-0.00001092,0.00001494,-0.0000
 0227,0.00002786,-0.00009996,0.00039301,-0.00036934,0.00026809,0.000414
 31,-0.00342451,-0.00289512,-0.00180216,0.00091293,0.00100137,0.0003505
 0,0.00002412,0.00008790,-0.00002752,-0.00008598,-0.00008223,-0.0000292
 7,-0.00589245,0.06225157,-0.00012822,-0.00006819,-0.00005832,0.0002854
 7,0.00037480,0.00000703,0.00004510,-0.00008074,-0.00000569,-0.00061111
 ,-0.00105210,0.00217927,-0.00132273,-0.00159579,0.00281734,0.00008567,
 0.00025174,-0.00026882,0.00026861,0.00014833,0.00006383,0.00689890,-0.
 00058086,-0.00041046,0.00023669,-0.00251537,-0.01201240,-0.00010957,0.
 00006420,0.00009322,0.03195055,-0.02918697,-0.30010708,0.00226259,0.00
 019604,-0.01774877,-0.00000489,0.00001136,0.00001237,0.00020077,0.0000
 4538,-0.00013594,0.00002886,0.00003241,0.00000381,0.00001253,0.0000150
 2,-0.00005421,0.00005474,0.00001222,0.00001344,-0.00027351,0.00003012,
 0.00014646,0.00013493,-0.00005975,-0.00001616,-0.00002134,0.00000376,0
 .00000952,-0.00020623,0.00000167,0.00025245,-0.00059414,0.00022922,0.0
 0010773,-0.00129330,-0.00152487,0.00051392,0.00004692,-0.00013036,0.00
 087608,-0.00003585,0.00003122,-0.00002464,0.00018898,-0.00004100,-0.00
 007696,-0.03768053,0.03268172,0.32298376,-0.00036837,0.00014053,0.0006
 2249,-0.00307592,0.00064303,0.00161289,0.00004669,0.00001041,0.0000021
 0,-0.03265589,-0.02451541,-0.01374028,-0.00012431,0.00043213,0.0003109
 5,-0.00003255,0.00002014,-0.00004546,-0.00058103,-0.00016357,-0.000347
 44,0.00113782,-0.00158948,-0.00011518,-0.00009533,0.00215414,-0.000951
 02,-0.00309919,0.00425244,0.00339315,0.00585546,0.00493541,0.00409408,
 -0.12271898,-0.10611140,-0.05723765,-0.00007963,0.00004159,-0.00016247
 ,0.00005144,0.00007363,-0.00034290,0.00004508,-0.00010766,-0.00000282,
 -0.00000898,0.00000162,-0.00000328,0.00000009,-0.00002962,0.00000325,0
 .00001882,-0.00003167,-0.00004168,0.00001464,-0.00000899,-0.00000147,0
 .00000280,0.00000165,-0.00000598,0.00009932,-0.00025951,0.00009448,0.0
 0005608,-0.00002269,0.00004321,-0.00010608,-0.00012366,-0.00008479,0.0
 0050755,0.00053695,0.00004432,-0.00124191,-0.00121509,-0.00049648,0.00
 013797,0.00001013,-0.00025970,0.00012620,-0.00049134,0.00011215,0.1527
 0449,0.00081005,0.00032165,0.00014918,-0.00093704,0.00116876,0.0006165
 1,0.00000478,-0.00004424,0.00002586,0.00717618,0.01083305,0.00520501,-
 0.00018453,-0.00153795,-0.00003834,0.00009304,0.00015352,-0.00010913,0
 .00073607,0.00019709,-0.00004954,0.00125509,0.00197696,-0.00042311,0.0
 0261054,-0.00382158,0.00423940,0.00257869,0.00041724,0.00002237,-0.017
 68173,-0.02117335,-0.01280043,-0.11439459,-0.20417711,-0.08138704,-0.0
 0006210,-0.00006623,0.00007179,0.00017502,-0.00008057,0.00015044,0.000
 02111,-0.00010933,0.00000501,0.00000318,-0.00000241,-0.00000924,-0.000
 00664,0.00002268,0.00000231,-0.00001299,0.00003150,0.00010294,0.000031
 43,-0.00001301,-0.00000712,-0.00003395,0.00005716,-0.00000676,-0.00017
 623,0.00012334,-0.00008473,-0.00009805,0.00004835,0.00003568,0.0001984
 1,0.00022786,-0.00003072,-0.00127112,-0.00139977,-0.00048564,0.0004179
 6,0.00034913,0.00009976,0.00000516,-0.00006423,0.00000800,-0.00000463,
 0.00149472,0.00008133,0.11899785,0.21454127,0.00043262,0.00016295,0.00
 062258,-0.00090044,0.00058662,-0.00009023,0.00003604,-0.00006520,0.000
 00290,0.00565950,0.00572367,0.00396841,-0.00038353,-0.00100945,-0.0004
 3167,0.00009812,0.00018585,0.00014598,-0.00002861,0.00001752,0.0000113
 4,0.00030737,-0.00136312,0.00006491,-0.00113908,0.00208014,-0.00085140
 ,0.00074287,0.00010229,0.00014104,0.00922386,0.01332023,0.00604005,-0.
 06178250,-0.08185289,-0.09644799,-0.00004102,0.00000948,-0.00010038,-0
 .00001938,0.00000115,-0.00015571,0.00003343,-0.00002916,-0.00003034,-0
 .00000191,0.00000517,-0.00000397,0.00000974,0.00001312,0.00001555,0.00
 016694,0.00008120,0.00020077,0.00000657,0.00000182,-0.00000506,-0.0000
 3486,0.00003253,-0.00000233,-0.00000790,-0.00000344,-0.00002672,0.0000
 3120,-0.00004820,-0.00000879,0.00012497,0.00034538,0.00023238,0.000311
 74,0.00062127,0.00036461,-0.00000521,-0.00002312,0.00037821,0.00020077
 ,0.00024155,0.00049931,0.00043767,-0.00067220,0.00094997,0.06258335,0.
 08449234,0.09541777,-0.00029914,-0.00008993,-0.00026798,-0.00092146,-0
 .00004978,-0.00040221,0.00000710,-0.00004972,-0.00003609,-0.02533771,0
 .00513948,0.03680314,-0.00098052,0.00109281,-0.00055508,0.00001373,-0.
 00003438,0.00014300,-0.00045737,-0.00037974,-0.00046320,0.00036566,-0.
 00108628,0.00103243,-0.00005126,-0.00036024,0.00055782,0.00348795,0.00
 329898,0.00511800,0.00305832,-0.00133903,-0.00773218,-0.04921532,-0.00
 239520,0.02399684,-0.00002075,0.00000225,0.00007389,0.00001093,0.00001
 693,0.00012781,0.00002142,0.00001748,0.00001435,-0.00000038,0.00000152
 ,-0.00000032,0.00001809,0.00000058,0.00001740,-0.00075251,0.00086875,0
 .00014616,-0.00001279,0.00000488,-0.00000460,0.00001434,-0.00002719,0.
 00000318,0.00010471,-0.00027812,-0.00000147,-0.00003301,0.00010377,-0.
 00012821,0.00012010,-0.00001804,0.00030899,-0.00006963,0.00001031,0.00
 002392,0.00013733,0.00008014,-0.00038240,0.00051199,-0.00023757,-0.001
 33337,-0.00004361,0.00215388,-0.00057414,0.00331301,-0.00016794,-0.016
 04173,0.06700562,-0.00012056,-0.00001584,-0.00008294,0.00048677,-0.000
 14687,-0.00037361,-0.00005634,0.00006487,0.00003775,0.00773462,0.00125
 244,-0.01170742,0.00096946,-0.00029432,0.00062804,-0.00007123,-0.00008
 919,-0.00026283,0.00008833,-0.00016632,0.00007518,0.00000893,0.0009823
 0,-0.00168585,0.00037297,0.00226988,0.00047525,-0.00179907,-0.00057215
 ,0.00107209,-0.00421068,0.00130300,0.03111866,-0.00204638,-0.05382649,
 -0.00738030,0.00000533,-0.00002070,0.00003800,0.00000934,-0.00001454,0
 .00006785,-0.00000417,-0.00000928,-0.00001915,0.00000050,-0.00000003,-
 0.00000097,-0.00002095,-0.00000447,-0.00002014,0.00115882,-0.00078059,
 -0.00048578,0.00002775,-0.00001871,0.00000395,0.00000846,0.00000742,-0
 .00000157,-0.00005388,0.00010239,-0.00004177,0.00004375,-0.00000841,-0
 .00012298,-0.00002619,-0.00036047,-0.00058833,0.00022901,0.00012520,-0
 .00042733,0.00006380,-0.00003339,0.00007928,0.00003554,0.00030155,0.00
 038108,0.00102061,-0.00474468,0.00262518,0.00244638,0.00046663,-0.0229
 7833,-0.00628036,0.05422721,-0.00002043,-0.00033035,-0.00054882,0.0009
 6432,-0.00063241,0.00082971,0.00013616,-0.00007455,-0.00007131,0.01168
 489,-0.00349385,-0.00394846,0.00038499,0.00040058,-0.00191632,0.000003
 45,0.00017752,0.00051625,0.00019912,-0.00003941,0.00009745,-0.00114798
 ,0.00092332,0.00111477,-0.00030586,-0.00068390,0.00067613,-0.00179003,
 -0.00034711,0.00173335,0.00159585,-0.00198090,-0.01575276,0.02555207,-
 0.00782982,-0.29731719,0.00009367,0.00000915,0.00018188,0.00000716,-0.
 00000179,0.00011239,0.00002343,0.00003235,0.00003391,0.00000060,-0.000
 00242,0.00002951,0.00004550,0.00000715,0.00005021,0.00079973,-0.000287
 50,0.00089423,-0.00005299,0.00002497,-0.00000414,0.00001914,-0.0000497
 1,-0.00000452,0.00008381,0.00006874,-0.00001569,-0.00014460,-0.0000625
 2,-0.00016825,0.00053284,0.00068023,0.00036612,-0.00017073,0.00007554,
 0.00025168,0.00013263,0.00011875,0.00049945,0.00112858,0.00097100,0.00
 027788,-0.00029661,0.00263076,-0.00010601,0.00093919,0.00013633,-0.010
 89000,-0.04044925,0.00957467,0.32307489,-0.01283143,-0.01100255,-0.022
 00853,-0.00750711,0.00245199,-0.00167489,-0.00363841,-0.00183642,-0.00
 331215,-0.00019068,-0.00000022,0.00002506,0.00119372,0.00225902,-0.000
 17985,0.00106148,-0.00110895,0.00077659,0.00000018,-0.00003077,-0.0000
 1988,-0.00050361,-0.00030938,0.00045886,-0.00004796,0.00002801,0.00001
 100,0.00003673,0.00004764,0.00004584,0.00034552,-0.00003063,-0.0000995
 8,0.00010389,-0.00001778,-0.00006655,-0.13527784,-0.04163565,-0.115280
 92,0.00080934,-0.00061235,0.00076453,0.00084358,0.00032181,0.00003522,
 0.00003715,0.00014582,-0.00001631,0.00033807,-0.00016886,0.00031326,-0
 .00003645,-0.00021834,-0.00001981,-0.00010477,-0.00002108,-0.00028448,
 -0.00000671,0.00005061,-0.00035659,-0.00001885,-0.00000289,-0.00000010
 ,-0.00000498,0.00000321,0.00000472,0.00000931,0.00000862,0.00000481,-0
 .00000349,-0.00000858,0.00000490,-0.00001501,-0.00000338,-0.00000547,0
 .00000374,-0.00000584,-0.00000862,-0.00004870,0.00000332,0.00002759,0.
 00001058,-0.00003271,-0.00002956,0.00002217,-0.00000508,0.00006101,0.1
 4530120,0.00695029,0.00578699,0.01437236,0.00593708,-0.00024584,0.0013
 4245,-0.01962175,-0.00848546,-0.02626547,0.00004022,0.00003599,-0.0000
 2003,0.00053604,-0.00203039,0.00015028,-0.00062475,-0.00688279,0.00196
 508,0.00000085,-0.00000614,-0.00000023,-0.00011545,0.00038337,-0.00012
 116,-0.00000986,0.00001483,0.00000019,-0.00000256,-0.00001566,-0.00000
 716,0.00003980,-0.00002265,0.00003151,-0.00004124,-0.00004460,0.000036
 25,-0.04181632,-0.06781347,-0.05836642,-0.00048927,0.00058825,-0.00034
 137,-0.00108454,0.00012892,0.00002611,0.00019582,0.00151100,0.00042470
 ,0.00079235,0.00132376,-0.00008762,-0.00007120,0.00035134,0.00004106,0
 .00025244,0.00007251,0.00005071,-0.00162505,-0.00045383,-0.00144458,-0
 .00000325,0.00000241,-0.00000053,-0.00000118,0.00000102,0.00000045,0.0
 0000561,0.00000007,-0.00000117,0.00000298,0.00000073,-0.00000063,0.000
 00273,0.00000355,0.00000125,-0.00000094,0.00000095,0.00000115,-0.00002
 459,0.00001103,0.00000622,0.00001032,0.00001894,0.00002241,-0.00000679
 ,-0.00000422,-0.00002261,0.04654562,0.07474325,0.00193810,0.00044045,-
 0.00055062,-0.00051643,-0.00023927,0.00157256,0.00319184,0.00147389,0.
 00258114,-0.00007442,-0.00000149,-0.00000292,0.00056196,0.00039597,-0.
 00020011,0.00016529,0.00031801,0.00113616,-0.00000023,-0.00001296,-0.0
 0000872,-0.00024220,-0.00007812,0.00012018,-0.00001990,0.00001299,0.00
 000828,0.00001315,0.00001873,0.00001816,0.00014874,-0.00000207,-0.0000
 3403,0.00003899,0.00000751,-0.00000139,-0.11768334,-0.05869757,-0.2073
 5544,-0.00042619,0.00036280,0.00032540,-0.00023947,0.00021525,0.000061
 65,0.00000261,-0.00052338,0.00063228,0.00000237,-0.00045680,-0.0000534
 5,-0.00002017,0.00001698,-0.00005835,0.00020271,0.00012949,0.00032855,
 -0.00021156,0.00015011,0.00013410,-0.00000823,-0.00000107,-0.00000020,
 -0.00000128,0.00000114,0.00000192,0.00000386,0.00000334,-0.00000004,-0
 .00000102,-0.00000366,0.00000143,-0.00000641,-0.00000155,-0.00000216,0
 .00000108,-0.00000221,-0.00000350,-0.00002216,0.00000399,0.00001345,0.
 00000568,-0.00002219,-0.00001043,0.00000202,-0.00000069,0.00001494,0.1
 2870750,0.06368048,0.22120908,-0.01699637,-0.00398046,0.02678872,0.002
 85273,-0.00066869,-0.00058064,-0.00313747,-0.00124021,0.00468256,-0.00
 005776,-0.00000285,-0.00002207,-0.00026733,0.00002706,0.00016571,-0.00
 008230,0.00020081,0.00055446,0.00000028,-0.00001065,-0.00000662,-0.000
 02839,-0.00016764,-0.00018594,-0.00001873,0.00000897,0.00000804,0.0000
 1015,0.00001686,0.00001661,0.00017094,0.00001391,-0.00004011,0.0000655
 1,0.00002485,0.00001463,-0.11106759,-0.02619724,0.10580364,-0.00425703
 ,0.00320963,-0.00029466,0.00131214,-0.00028191,-0.00063559,0.00074774,
 -0.00100830,0.00004858,0.00046507,-0.00008441,-0.00041849,-0.00005528,
 -0.00003609,-0.00000093,-0.00021784,-0.00020436,-0.00019379,0.00008332
 ,0.00000846,-0.00015155,-0.00000716,-0.00000092,-0.00000008,-0.0000011
 4,0.00000133,0.00000156,0.00000144,0.00000091,-0.00000101,-0.00000070,
 -0.00000439,0.00000009,-0.00000571,-0.00000145,-0.00000139,0.00000078,
 -0.00000187,-0.00000300,0.00000320,0.00001264,0.00001449,0.00006015,-0
 .00005032,0.00000899,-0.00001701,-0.00001548,-0.00000964,0.01011933,0.
 00422663,-0.01551286,0.12032504,0.01051049,0.00218190,-0.01847142,-0.0
 0178744,0.00038227,0.00082229,-0.01686045,-0.00885157,0.02959563,0.000
 02412,0.00002084,0.00000909,-0.00001509,-0.00053564,-0.00002451,0.0006
 4256,0.00155869,0.00098903,0.00000026,-0.00000153,0.00000005,0.0000197
 2,0.00029025,0.00004376,-0.00000700,0.00000694,-0.00000268,-0.00000152
 ,-0.00000940,-0.00000649,-0.00006445,-0.00001509,-0.00006540,-0.000062
 27,-0.00004094,-0.00000544,-0.02603761,-0.05689311,0.04299782,0.003837
 57,-0.00117815,0.00053352,-0.00086041,0.00075179,-0.00030220,-0.001663
 29,-0.00634690,-0.00016786,0.00066591,0.00146112,-0.00020105,-0.000076
 35,0.00011028,0.00000157,-0.00006685,0.00001685,-0.00075590,0.00043656
 ,0.00006657,-0.00024215,0.00000012,0.00000125,0.00000006,-0.00000057,0
 .00000048,-0.00000038,0.00000128,0.00000067,-0.00000024,0.00000279,0.0
 0000255,0.00000086,0.00000290,0.00000155,0.00000081,-0.00000047,0.0000
 0066,0.00000075,-0.00000178,-0.00000874,-0.00000594,-0.00003825,0.0000
 3990,-0.00000160,0.00000856,0.00000780,0.00000781,0.00518579,0.0010261
 5,-0.00718810,0.02620516,0.06595255,-0.00068848,-0.00063997,-0.0019626
 3,0.00054143,0.00070287,0.00176464,0.00028524,0.00117601,-0.00226210,0
 .00006160,-0.00001646,-0.00000284,-0.00014364,-0.00037114,0.00008606,-
 0.00037299,-0.00033250,0.00080889,0.00000132,0.00001510,0.00000894,0.0
 0033174,0.00010812,-0.00010788,0.00002480,-0.00001563,-0.00000584,-0.0
 0001502,-0.00001221,-0.00001638,-0.00021102,0.00004091,0.00004515,-0.0
 0004292,0.00002438,0.00001618,0.10801932,0.04225650,-0.23585306,-0.000
 14244,-0.00044400,0.00132613,0.00022022,-0.00046423,0.00037579,-0.0003
 4534,0.00046751,0.00135248,-0.00015261,0.00036212,0.00029059,0.0000949
 8,0.00003435,-0.00001935,0.00043264,0.00004692,0.00025188,0.00001467,0
 .00009444,0.00018739,0.00000920,0.00000027,0.00000024,0.00000179,-0.00
 000169,-0.00000188,-0.00000497,-0.00000394,-0.00000068,0.00000039,0.00
 000284,-0.00000251,0.00000484,-0.00000027,0.00000115,-0.00000117,0.000
 00200,0.00000335,0.00002309,-0.00000964,-0.00001817,-0.00002266,0.0000
 0972,-0.00000077,0.00000327,0.00000300,-0.00001131,0.01212239,0.004526
 31,-0.01987792,-0.12004968,-0.04756170,0.25362447\\0.00001507,0.000009
 45,0.00001836,0.00001160,0.00000831,-0.00001343,-0.00000478,0.00000396
 ,-0.00000132,-0.00000138,-0.00000545,0.00000319,-0.00099884,-0.0027875
 6,-0.00129227,-0.00001422,0.00000896,-0.00000483,0.00000129,0.00000072
 ,0.00000660,0.00148826,0.00444341,0.00095910,0.00013638,0.00106410,-0.
 00258119,-0.00000235,0.00000137,0.00000005,-0.00064514,-0.00273512,0.0
 0292234,0.00000763,-0.00000313,-0.00001350,-0.00000471,0.00000295,-0.0
 0000467,-0.00000105,-0.00000158,-0.00000716,-0.00000011,0.00000092,-0.
 00000271,0.00000092,-0.00000137,0.00000363,-0.00000043,-0.00000111,-0.
 00000571,0.00000151,-0.00000450,-0.00000596,-0.00000143,-0.00000081,-0
 .00000670,0.00000437,-0.00000035,0.00000434,0.00000730,-0.00000137,0.0
 0000317,-0.00000177,0.00000159,0.00000511,0.00000004,-0.00000149,-0.00
 000154,0.00000096,0.00000189,0.00000550,-0.00000236,-0.00000013,0.0000
 0292,0.00000292,0.00000286,0.00000205,0.00000313,-0.00000381,0.0000056
 9,0.00000239,-0.00000142,0.00000534,-0.00000670,0.00000382,0.00000204,
 0.00000062,-0.00000655,-0.00000342,0.00000088,0.00000142,-0.00000502\\
 \@


 I DON'T PRETEND TO UNDERSTAND THE UNIVERSE --
 IT'S A GREAT DEAL BIGGER THAN I AM.
       -- ATTR. TO WILLIAM ALLINGHAM (1828-89)
 Job cpu time:       0 days 15 hours 31 minutes 23.9 seconds.
 Elapsed time:       0 days  0 hours 58 minutes 14.5 seconds.
 File lengths (MBytes):  RWF=    688 Int=      0 D2E=      0 Chk=     33 Scr=      1
 Normal termination of Gaussian 16 at Sun Nov  4 22:53:13 2018.
