 Entering Gaussian System, Link 0=g16
 Initial command:
 /apps/gaussian/g16a03/g16/l1.exe "/jobfs/local/2012062.r-man2/Gau-27479.inp" -scrdir="/jobfs/local/2012062.r-man2/"
 Entering Link 1 = /apps/gaussian/g16a03/g16/l1.exe PID=     27480.
  
 Copyright (c) 1988,1990,1992,1993,1995,1998,2003,2009,2016,
            Gaussian, Inc.  All Rights Reserved.
  
 This is part of the Gaussian(R) 16 program.  It is based on
 the Gaussian(R) 09 system (copyright 2009, Gaussian, Inc.),
 the Gaussian(R) 03 system (copyright 2003, Gaussian, Inc.),
 the Gaussian(R) 98 system (copyright 1998, Gaussian, Inc.),
 the Gaussian(R) 94 system (copyright 1995, Gaussian, Inc.),
 the Gaussian 92(TM) system (copyright 1992, Gaussian, Inc.),
 the Gaussian 90(TM) system (copyright 1990, Gaussian, Inc.),
 the Gaussian 88(TM) system (copyright 1988, Gaussian, Inc.),
 the Gaussian 86(TM) system (copyright 1986, Carnegie Mellon
 University), and the Gaussian 82(TM) system (copyright 1983,
 Carnegie Mellon University). Gaussian is a federally registered
 trademark of Gaussian, Inc.
  
 This software contains proprietary and confidential information,
 including trade secrets, belonging to Gaussian, Inc.
  
 This software is provided under written license and may be
 used, copied, transmitted, or stored only in accord with that
 written license.
  
 The following legend is applicable only to US Government
 contracts under FAR:
  
                    RESTRICTED RIGHTS LEGEND
  
 Use, reproduction and disclosure by the US Government is
 subject to restrictions as set forth in subparagraphs (a)
 and (c) of the Commercial Computer Software - Restricted
 Rights clause in FAR 52.227-19.
  
 Gaussian, Inc.
 340 Quinnipiac St., Bldg. 40, Wallingford CT 06492
  
  
 ---------------------------------------------------------------
 Warning -- This program may not be used in any manner that
 competes with the business of Gaussian, Inc. or will provide
 assistance to any competitor of Gaussian, Inc.  The licensee
 of this program is prohibited from giving any competitor of
 Gaussian, Inc. access to this program.  By using this program,
 the user acknowledges that Gaussian, Inc. is engaged in the
 business of creating and licensing software in the field of
 computational chemistry and represents and warrants to the
 licensee that it is not a competitor of Gaussian, Inc. and that
 it will not use this program in any manner prohibited above.
 ---------------------------------------------------------------
  

 Cite this work as:
 Gaussian 16, Revision A.03,
 M. J. Frisch, G. W. Trucks, H. B. Schlegel, G. E. Scuseria, 
 M. A. Robb, J. R. Cheeseman, G. Scalmani, V. Barone, 
 G. A. Petersson, H. Nakatsuji, X. Li, M. Caricato, A. V. Marenich, 
 J. Bloino, B. G. Janesko, R. Gomperts, B. Mennucci, H. P. Hratchian, 
 J. V. Ortiz, A. F. Izmaylov, J. L. Sonnenberg, D. Williams-Young, 
 F. Ding, F. Lipparini, F. Egidi, J. Goings, B. Peng, A. Petrone, 
 T. Henderson, D. Ranasinghe, V. G. Zakrzewski, J. Gao, N. Rega, 
 G. Zheng, W. Liang, M. Hada, M. Ehara, K. Toyota, R. Fukuda, 
 J. Hasegawa, M. Ishida, T. Nakajima, Y. Honda, O. Kitao, H. Nakai, 
 T. Vreven, K. Throssell, J. A. Montgomery, Jr., J. E. Peralta, 
 F. Ogliaro, M. J. Bearpark, J. J. Heyd, E. N. Brothers, K. N. Kudin, 
 V. N. Staroverov, T. A. Keith, R. Kobayashi, J. Normand, 
 K. Raghavachari, A. P. Rendell, J. C. Burant, S. S. Iyengar, 
 J. Tomasi, M. Cossi, J. M. Millam, M. Klene, C. Adamo, R. Cammi, 
 J. W. Ochterski, R. L. Martin, K. Morokuma, O. Farkas, 
 J. B. Foresman, and D. J. Fox, Gaussian, Inc., Wallingford CT, 2016.
 
 ******************************************
 Gaussian 16:  ES64L-G16RevA.03 25-Dec-2016
                 4-Nov-2018 
 ******************************************
 %mem=6000mb
 %nproc=24
 Will use up to   24 processors via shared memory.
 %chk=L_a1-e4_D_PSI.inp_extract_0.chk
 ----------------------------------------------------------------------
 #M062X/6-311++G(2d,2p) opt=ModRedundant freq=noraman SCRF=(Solvent=Wat
 er)
 ----------------------------------------------------------------------
 1/18=120,19=15,26=3,38=1/1,3;
 2/9=110,12=2,17=6,18=5,40=1/2;
 3/5=4,6=6,7=1212,11=2,25=1,30=1,70=2201,71=1,72=1,74=-55/1,2,3;
 4//1;
 5/5=2,38=5,53=1/2;
 6/7=2,8=2,9=2,10=2,28=1/1;
 7//1,2,3,16;
 1/18=20,19=15,26=3/3(2);
 2/9=110/2;
 99//99;
 2/9=110/2;
 3/5=4,6=6,7=1212,11=2,25=1,30=1,70=2205,71=1,72=1,74=-55/1,2,3;
 4/5=5,16=3,69=1/1;
 5/5=2,38=5,53=1/2;
 7//1,2,3,16;
 1/18=20,19=15,26=3/3(-5);
 2/9=110/2;
 6/7=2,8=2,9=2,10=2,19=2,28=1/1;
 99/9=1/99;
 ---------------------------
 L_a1-e4_D_PSI.inp_extract_0
 ---------------------------
 Symbolic Z-matrix:
 Charge =  0 Multiplicity = 1
 C                    -2.44234   1.33146  -0.56992 
 O                    -1.70789   0.33897  -1.2759 
 C                    -3.16885  -0.40579   1.07427 
 O                     3.20831  -0.94671  -0.56182 
 C                    -1.22465  -0.73228  -0.50732 
 C                    -2.34267  -1.40988   0.2691 
 C                     3.10501   1.34632   0.20724 
 O                    -0.24558  -0.29971   0.39393 
 C                     1.65919   1.12723   0.66012 
 C                     3.87252   0.03396   0.2152 
 C                     1.02696   0.00466  -0.14877 
 C                     1.90882  -1.239    -0.09557 
 C                    -3.6308    0.72914   0.1604 
 H                    -1.78336   1.84041   0.12505 
 H                    -2.75763   2.04495  -1.31855 
 H                    -2.57495  -0.00084   1.88933 
 H                    -4.02144  -0.90693   1.5221 
 H                    -0.78718  -1.41213  -1.22411 
 H                    -2.9829   -1.90754  -0.45403 
 H                    -1.91362  -2.17565   0.90619 
 H                     3.60312   2.05762   0.85913 
 H                     3.11994   1.7604   -0.79779 
 H                     1.64076   0.85112   1.7121 
 H                     1.07784   2.03706   0.55018 
 H                     4.85681   0.14941  -0.21748 
 H                     3.98547  -0.33763   1.23117 
 H                     0.91574   0.31898  -1.18034 
 H                     1.51832  -2.02499  -0.72713 
 H                     1.9583   -1.60766   0.92658 
 H                    -4.13001   1.5096    0.72761 
 H                    -4.343     0.34852  -0.56811 
 
 The following ModRedundant input section has been read:
 D       5       8      11       9 F                                           
 

 GradGradGradGradGradGradGradGradGradGradGradGradGradGradGradGradGradGrad
 Berny optimization.
 Initialization pass.
                           ----------------------------
                           !    Initial Parameters    !
                           ! (Angstroms and Degrees)  !
 --------------------------                            --------------------------
 ! Name  Definition              Value          Derivative Info.                !
 --------------------------------------------------------------------------------
 ! R1    R(1,2)                  1.4223         estimate D2E/DX2                !
 ! R2    R(1,13)                 1.5194         estimate D2E/DX2                !
 ! R3    R(1,14)                 1.0846         estimate D2E/DX2                !
 ! R4    R(1,15)                 1.0812         estimate D2E/DX2                !
 ! R5    R(2,5)                  1.4042         estimate D2E/DX2                !
 ! R6    R(3,6)                  1.5294         estimate D2E/DX2                !
 ! R7    R(3,13)                 1.5286         estimate D2E/DX2                !
 ! R8    R(3,16)                 1.0867         estimate D2E/DX2                !
 ! R9    R(3,17)                 1.0856         estimate D2E/DX2                !
 ! R10   R(4,10)                 1.4166         estimate D2E/DX2                !
 ! R11   R(4,12)                 1.4112         estimate D2E/DX2                !
 ! R12   R(5,6)                  1.5205         estimate D2E/DX2                !
 ! R13   R(5,8)                  1.3993         estimate D2E/DX2                !
 ! R14   R(5,18)                 1.0804         estimate D2E/DX2                !
 ! R15   R(6,19)                 1.0865         estimate D2E/DX2                !
 ! R16   R(6,20)                 1.0846         estimate D2E/DX2                !
 ! R17   R(7,9)                  1.5309         estimate D2E/DX2                !
 ! R18   R(7,10)                 1.5203         estimate D2E/DX2                !
 ! R19   R(7,21)                 1.0858         estimate D2E/DX2                !
 ! R20   R(7,22)                 1.0871         estimate D2E/DX2                !
 ! R21   R(8,11)                 1.4165         estimate D2E/DX2                !
 ! R22   R(9,11)                 1.5212         estimate D2E/DX2                !
 ! R23   R(9,23)                 1.0878         estimate D2E/DX2                !
 ! R24   R(9,24)                 1.0853         estimate D2E/DX2                !
 ! R25   R(10,25)                1.0814         estimate D2E/DX2                !
 ! R26   R(10,26)                1.0877         estimate D2E/DX2                !
 ! R27   R(11,12)                1.5255         estimate D2E/DX2                !
 ! R28   R(11,27)                1.0841         estimate D2E/DX2                !
 ! R29   R(12,28)                1.0813         estimate D2E/DX2                !
 ! R30   R(12,29)                1.0877         estimate D2E/DX2                !
 ! R31   R(13,30)                1.0863         estimate D2E/DX2                !
 ! R32   R(13,31)                1.0876         estimate D2E/DX2                !
 ! A1    A(2,1,13)             111.4614         estimate D2E/DX2                !
 ! A2    A(2,1,14)             109.3763         estimate D2E/DX2                !
 ! A3    A(2,1,15)             105.5093         estimate D2E/DX2                !
 ! A4    A(13,1,14)            110.6885         estimate D2E/DX2                !
 ! A5    A(13,1,15)            111.4893         estimate D2E/DX2                !
 ! A6    A(14,1,15)            108.1319         estimate D2E/DX2                !
 ! A7    A(1,2,5)              116.0002         estimate D2E/DX2                !
 ! A8    A(6,3,13)             109.63           estimate D2E/DX2                !
 ! A9    A(6,3,16)             110.1373         estimate D2E/DX2                !
 ! A10   A(6,3,17)             109.7758         estimate D2E/DX2                !
 ! A11   A(13,3,16)            109.6867         estimate D2E/DX2                !
 ! A12   A(13,3,17)            110.6105         estimate D2E/DX2                !
 ! A13   A(16,3,17)            106.9668         estimate D2E/DX2                !
 ! A14   A(10,4,12)            113.1988         estimate D2E/DX2                !
 ! A15   A(2,5,6)              111.4954         estimate D2E/DX2                !
 ! A16   A(2,5,8)              110.9463         estimate D2E/DX2                !
 ! A17   A(2,5,18)             104.8478         estimate D2E/DX2                !
 ! A18   A(6,5,8)              108.8666         estimate D2E/DX2                !
 ! A19   A(6,5,18)             110.8588         estimate D2E/DX2                !
 ! A20   A(8,5,18)             109.7859         estimate D2E/DX2                !
 ! A21   A(3,6,5)              111.9288         estimate D2E/DX2                !
 ! A22   A(3,6,19)             109.4382         estimate D2E/DX2                !
 ! A23   A(3,6,20)             111.5908         estimate D2E/DX2                !
 ! A24   A(5,6,19)             107.3105         estimate D2E/DX2                !
 ! A25   A(5,6,20)             108.8876         estimate D2E/DX2                !
 ! A26   A(19,6,20)            107.497          estimate D2E/DX2                !
 ! A27   A(9,7,10)             110.5914         estimate D2E/DX2                !
 ! A28   A(9,7,21)             110.4506         estimate D2E/DX2                !
 ! A29   A(9,7,22)             109.9368         estimate D2E/DX2                !
 ! A30   A(10,7,21)            109.3139         estimate D2E/DX2                !
 ! A31   A(10,7,22)            109.0694         estimate D2E/DX2                !
 ! A32   A(21,7,22)            107.4104         estimate D2E/DX2                !
 ! A33   A(5,8,11)             116.6314         estimate D2E/DX2                !
 ! A34   A(7,9,11)             109.9266         estimate D2E/DX2                !
 ! A35   A(7,9,23)             109.7812         estimate D2E/DX2                !
 ! A36   A(7,9,24)             110.853          estimate D2E/DX2                !
 ! A37   A(11,9,23)            108.6559         estimate D2E/DX2                !
 ! A38   A(11,9,24)            110.0071         estimate D2E/DX2                !
 ! A39   A(23,9,24)            107.5594         estimate D2E/DX2                !
 ! A40   A(4,10,7)             110.978          estimate D2E/DX2                !
 ! A41   A(4,10,25)            106.3332         estimate D2E/DX2                !
 ! A42   A(4,10,26)            108.9386         estimate D2E/DX2                !
 ! A43   A(7,10,25)            111.423          estimate D2E/DX2                !
 ! A44   A(7,10,26)            110.6232         estimate D2E/DX2                !
 ! A45   A(25,10,26)           108.4023         estimate D2E/DX2                !
 ! A46   A(8,11,9)             109.1595         estimate D2E/DX2                !
 ! A47   A(8,11,12)            109.3163         estimate D2E/DX2                !
 ! A48   A(8,11,27)            109.5532         estimate D2E/DX2                !
 ! A49   A(9,11,12)            110.0475         estimate D2E/DX2                !
 ! A50   A(9,11,27)            109.5511         estimate D2E/DX2                !
 ! A51   A(12,11,27)           109.1996         estimate D2E/DX2                !
 ! A52   A(4,12,11)            110.6057         estimate D2E/DX2                !
 ! A53   A(4,12,28)            106.866          estimate D2E/DX2                !
 ! A54   A(4,12,29)            109.8026         estimate D2E/DX2                !
 ! A55   A(11,12,28)           111.3136         estimate D2E/DX2                !
 ! A56   A(11,12,29)           109.5956         estimate D2E/DX2                !
 ! A57   A(28,12,29)           108.5988         estimate D2E/DX2                !
 ! A58   A(1,13,3)             110.2006         estimate D2E/DX2                !
 ! A59   A(1,13,30)            109.0031         estimate D2E/DX2                !
 ! A60   A(1,13,31)            109.2074         estimate D2E/DX2                !
 ! A61   A(3,13,30)            111.1082         estimate D2E/DX2                !
 ! A62   A(3,13,31)            109.7871         estimate D2E/DX2                !
 ! A63   A(30,13,31)           107.4735         estimate D2E/DX2                !
 ! D1    D(13,1,2,5)           -56.9066         estimate D2E/DX2                !
 ! D2    D(14,1,2,5)            65.8221         estimate D2E/DX2                !
 ! D3    D(15,1,2,5)          -178.0772         estimate D2E/DX2                !
 ! D4    D(2,1,13,3)            54.7781         estimate D2E/DX2                !
 ! D5    D(2,1,13,30)          176.957          estimate D2E/DX2                !
 ! D6    D(2,1,13,31)          -65.8964         estimate D2E/DX2                !
 ! D7    D(14,1,13,3)          -67.1951         estimate D2E/DX2                !
 ! D8    D(14,1,13,30)          54.9838         estimate D2E/DX2                !
 ! D9    D(14,1,13,31)         172.1304         estimate D2E/DX2                !
 ! D10   D(15,1,13,3)          172.3948         estimate D2E/DX2                !
 ! D11   D(15,1,13,30)         -65.4262         estimate D2E/DX2                !
 ! D12   D(15,1,13,31)          51.7204         estimate D2E/DX2                !
 ! D13   D(1,2,5,6)             54.7365         estimate D2E/DX2                !
 ! D14   D(1,2,5,8)            -66.789          estimate D2E/DX2                !
 ! D15   D(1,2,5,18)           174.7566         estimate D2E/DX2                !
 ! D16   D(13,3,6,5)            51.8767         estimate D2E/DX2                !
 ! D17   D(13,3,6,19)          -66.9537         estimate D2E/DX2                !
 ! D18   D(13,3,6,20)          174.1943         estimate D2E/DX2                !
 ! D19   D(16,3,6,5)           -68.903          estimate D2E/DX2                !
 ! D20   D(16,3,6,19)          172.2665         estimate D2E/DX2                !
 ! D21   D(16,3,6,20)           53.4146         estimate D2E/DX2                !
 ! D22   D(17,3,6,5)           173.5718         estimate D2E/DX2                !
 ! D23   D(17,3,6,19)           54.7413         estimate D2E/DX2                !
 ! D24   D(17,3,6,20)          -64.1107         estimate D2E/DX2                !
 ! D25   D(6,3,13,1)           -53.0521         estimate D2E/DX2                !
 ! D26   D(6,3,13,30)         -173.9795         estimate D2E/DX2                !
 ! D27   D(6,3,13,31)           67.2739         estimate D2E/DX2                !
 ! D28   D(16,3,13,1)           68.0002         estimate D2E/DX2                !
 ! D29   D(16,3,13,30)         -52.9272         estimate D2E/DX2                !
 ! D30   D(16,3,13,31)        -171.6738         estimate D2E/DX2                !
 ! D31   D(17,3,13,1)         -174.2451         estimate D2E/DX2                !
 ! D32   D(17,3,13,30)          64.8275         estimate D2E/DX2                !
 ! D33   D(17,3,13,31)         -53.9191         estimate D2E/DX2                !
 ! D34   D(12,4,10,7)          -60.2877         estimate D2E/DX2                !
 ! D35   D(12,4,10,25)         178.3806         estimate D2E/DX2                !
 ! D36   D(12,4,10,26)          61.7432         estimate D2E/DX2                !
 ! D37   D(10,4,12,11)          61.3243         estimate D2E/DX2                !
 ! D38   D(10,4,12,28)        -177.3596         estimate D2E/DX2                !
 ! D39   D(10,4,12,29)         -59.7537         estimate D2E/DX2                !
 ! D40   D(2,5,6,3)            -51.6588         estimate D2E/DX2                !
 ! D41   D(2,5,6,19)            68.4231         estimate D2E/DX2                !
 ! D42   D(2,5,6,20)          -175.5065         estimate D2E/DX2                !
 ! D43   D(8,5,6,3)             71.0661         estimate D2E/DX2                !
 ! D44   D(8,5,6,19)          -168.8519         estimate D2E/DX2                !
 ! D45   D(8,5,6,20)           -52.7816         estimate D2E/DX2                !
 ! D46   D(18,5,6,3)          -168.0683         estimate D2E/DX2                !
 ! D47   D(18,5,6,19)          -47.9864         estimate D2E/DX2                !
 ! D48   D(18,5,6,20)           68.084          estimate D2E/DX2                !
 ! D49   D(2,5,8,11)           -74.3853         estimate D2E/DX2                !
 ! D50   D(6,5,8,11)           162.5601         estimate D2E/DX2                !
 ! D51   D(18,5,8,11)           41.0382         estimate D2E/DX2                !
 ! D52   D(10,7,9,11)          -51.7982         estimate D2E/DX2                !
 ! D53   D(10,7,9,23)           67.6722         estimate D2E/DX2                !
 ! D54   D(10,7,9,24)         -173.6367         estimate D2E/DX2                !
 ! D55   D(21,7,9,11)         -172.9417         estimate D2E/DX2                !
 ! D56   D(21,7,9,23)          -53.4713         estimate D2E/DX2                !
 ! D57   D(21,7,9,24)           65.2198         estimate D2E/DX2                !
 ! D58   D(22,7,9,11)           68.7017         estimate D2E/DX2                !
 ! D59   D(22,7,9,23)         -171.8279         estimate D2E/DX2                !
 ! D60   D(22,7,9,24)          -53.1369         estimate D2E/DX2                !
 ! D61   D(9,7,10,4)            54.6623         estimate D2E/DX2                !
 ! D62   D(9,7,10,25)          172.9551         estimate D2E/DX2                !
 ! D63   D(9,7,10,26)          -66.3814         estimate D2E/DX2                !
 ! D64   D(21,7,10,4)          176.4771         estimate D2E/DX2                !
 ! D65   D(21,7,10,25)         -65.23           estimate D2E/DX2                !
 ! D66   D(21,7,10,26)          55.4335         estimate D2E/DX2                !
 ! D67   D(22,7,10,4)          -66.3538         estimate D2E/DX2                !
 ! D68   D(22,7,10,25)          51.939          estimate D2E/DX2                !
 ! D69   D(22,7,10,26)         172.6025         estimate D2E/DX2                !
 ! D70   D(5,8,11,9)           147.7699         Frozen                          !
 ! D71   D(5,8,11,12)          -91.8103         estimate D2E/DX2                !
 ! D72   D(5,8,11,27)           27.8128         estimate D2E/DX2                !
 ! D73   D(7,9,11,8)           172.6198         estimate D2E/DX2                !
 ! D74   D(7,9,11,12)           52.6495         estimate D2E/DX2                !
 ! D75   D(7,9,11,27)          -67.4218         estimate D2E/DX2                !
 ! D76   D(23,9,11,8)           52.4648         estimate D2E/DX2                !
 ! D77   D(23,9,11,12)         -67.5055         estimate D2E/DX2                !
 ! D78   D(23,9,11,27)         172.4232         estimate D2E/DX2                !
 ! D79   D(24,9,11,8)          -65.0392         estimate D2E/DX2                !
 ! D80   D(24,9,11,12)         174.9905         estimate D2E/DX2                !
 ! D81   D(24,9,11,27)          54.9192         estimate D2E/DX2                !
 ! D82   D(8,11,12,4)         -176.7513         estimate D2E/DX2                !
 ! D83   D(8,11,12,28)          64.6015         estimate D2E/DX2                !
 ! D84   D(8,11,12,29)         -55.5506         estimate D2E/DX2                !
 ! D85   D(9,11,12,4)          -56.8761         estimate D2E/DX2                !
 ! D86   D(9,11,12,28)        -175.5233         estimate D2E/DX2                !
 ! D87   D(9,11,12,29)          64.3246         estimate D2E/DX2                !
 ! D88   D(27,11,12,4)          63.4078         estimate D2E/DX2                !
 ! D89   D(27,11,12,28)        -55.2394         estimate D2E/DX2                !
 ! D90   D(27,11,12,29)       -175.3915         estimate D2E/DX2                !
 --------------------------------------------------------------------------------
 Trust Radius=3.00D-01 FncErr=1.00D-07 GrdErr=1.00D-06 EigMax=2.50D+02 EigMin=1.00D-04
 Number of steps in this run=    186 maximum allowed number of steps=    186.
 GradGradGradGradGradGradGradGradGradGradGradGradGradGradGradGradGradGrad

                          Input orientation:                          
 ---------------------------------------------------------------------
 Center     Atomic      Atomic             Coordinates (Angstroms)
 Number     Number       Type             X           Y           Z
 ---------------------------------------------------------------------
      1          6           0       -2.442342    1.331463   -0.569921
      2          8           0       -1.707887    0.338969   -1.275904
      3          6           0       -3.168852   -0.405788    1.074274
      4          8           0        3.208310   -0.946711   -0.561823
      5          6           0       -1.224654   -0.732275   -0.507321
      6          6           0       -2.342673   -1.409881    0.269095
      7          6           0        3.105015    1.346315    0.207243
      8          8           0       -0.245580   -0.299710    0.393926
      9          6           0        1.659192    1.127233    0.660124
     10          6           0        3.872515    0.033955    0.215202
     11          6           0        1.026962    0.004659   -0.148772
     12          6           0        1.908817   -1.239000   -0.095568
     13          6           0       -3.630804    0.729140    0.160396
     14          1           0       -1.783363    1.840408    0.125045
     15          1           0       -2.757632    2.044954   -1.318553
     16          1           0       -2.574953   -0.000837    1.889327
     17          1           0       -4.021436   -0.906931    1.522098
     18          1           0       -0.787182   -1.412127   -1.224108
     19          1           0       -2.982901   -1.907537   -0.454028
     20          1           0       -1.913624   -2.175646    0.906186
     21          1           0        3.603124    2.057615    0.859128
     22          1           0        3.119940    1.760401   -0.797788
     23          1           0        1.640764    0.851120    1.712102
     24          1           0        1.077842    2.037056    0.550179
     25          1           0        4.856809    0.149405   -0.217480
     26          1           0        3.985474   -0.337631    1.231167
     27          1           0        0.915736    0.318980   -1.180340
     28          1           0        1.518321   -2.024991   -0.727131
     29          1           0        1.958303   -1.607660    0.926582
     30          1           0       -4.130007    1.509596    0.727611
     31          1           0       -4.343004    0.348521   -0.568105
 ---------------------------------------------------------------------
                    Distance matrix (angstroms):
                    1          2          3          4          5
     1  C    0.000000
     2  O    1.422280   0.000000
     3  C    2.499847   2.865732   0.000000
     4  O    6.092619   5.131460   6.605877   0.000000
     5  C    2.397018   1.404207   2.527438   4.438482   0.000000
     6  C    2.868597   2.418357   1.529408   5.631906   1.520506
     7  C    5.601551   5.136000   6.571378   2.420764   4.855633
     8  O    2.900946   2.309672   3.003272   3.641624   1.399266
     9  C    4.286876   3.963179   5.082488   2.862545   3.624537
    10  C    6.494410   5.784230   7.107195   1.416560   5.204832
    11  C    3.738161   2.976842   4.389666   2.415366   2.396123
    12  C    5.075911   4.118705   5.276883   1.411208   3.200774
    13  C    1.519407   2.431625   1.528605   7.078387   2.893292
    14  H    1.084553   2.054915   2.804641   5.758178   2.707534
    15  H    1.081169   2.003539   3.449762   6.716782   3.274312
    16  H    2.800091   3.299388   1.086744   6.352082   2.846442
    17  H    3.446809   3.838436   1.085629   7.524197   3.459918
    18  H    3.270291   1.979070   3.459426   4.076664   1.080446
    19  H    3.285842   2.710707   2.150706   6.266251   2.115541
    20  H    3.841647   3.335736   2.176292   5.468047   2.134479
    21  H    6.254369   5.976533   7.209320   3.346783   5.740915
    22  H    5.583448   5.055391   6.909840   2.718813   5.017300
    23  H    4.702139   4.517072   5.011891   3.295471   3.955199
    24  H    3.760875   3.738765   4.927126   3.831228   3.753530
    25  H    7.402640   6.652175   8.147889   2.009376   6.151874
    26  H    6.880887   6.257600   7.156371   2.046894   5.506679
    27  H    3.560115   2.625439   4.721486   2.690805   2.477773
    28  H    5.193972   4.037063   5.276028   2.011486   3.040287
    29  H    5.499422   4.699070   5.268209   2.052978   3.599110
    30  H    2.136243   3.354267   2.170873   7.845188   3.871966
    31  H    2.139788   2.728537   2.155232   7.661593   3.300897
                    6          7          8          9         10
     6  C    0.000000
     7  C    6.105550   0.000000
     8  O    2.376102   3.737745   0.000000
     9  C    4.754448   1.530850   2.394824   0.000000
    10  C    6.380919   1.520332   4.135454   2.508388   0.000000
    11  C    3.678312   2.499018   1.416519   1.521249   2.868886
    12  C    4.270521   2.864688   2.400687   2.496486   2.360742
    13  C    2.499301   6.764197   3.545816   5.328439   7.535654
    14  H    3.301205   4.913972   2.648996   3.556137   5.938043
    15  H    3.824749   6.098096   3.839328   4.926024   7.096152
    16  H    2.159748   6.075052   2.784157   4.550985   6.661362
    17  H    2.154349   7.588957   3.987302   6.095109   8.056532
    18  H    2.156203   4.980659   2.036870   3.997928   5.086801
    19  H    1.086490   6.934519   3.285888   5.656871   7.156395
    20  H    1.084603   6.170856   2.562014   4.871814   6.232110
    21  H    6.908268   1.085824   4.537171   2.164275   2.140657
    22  H    6.405394   1.087096   4.122010   2.158748   2.138489
    23  H    4.802308   2.157278   2.572993   1.087766   2.808769
    24  H    4.864186   2.168907   2.690044   1.085280   3.454681
    25  H    7.382457   2.163739   5.158478   3.457035   1.081377
    26  H    6.490050   2.158542   4.313262   2.807758   1.087668
    27  H    3.963212   2.788144   2.051766   2.143200   3.281969
    28  H    4.034613   3.841400   2.710113   3.446859   3.266417
    29  H    4.355433   3.249364   2.617548   2.764074   2.620147
    30  H    3.453715   7.255549   4.298105   5.802205   8.153554
    31  H    2.791810   7.554452   4.258473   6.175864   8.258770
                   11         12         13         14         15
    11  C    0.000000
    12  C    1.525512   0.000000
    13  C    4.723901   5.884428   0.000000
    14  H    3.367919   4.812860   2.156201   0.000000
    15  H    4.455821   5.835734   2.163582   1.753572   0.000000
    16  H    4.138559   5.057376   2.153344   2.670110   3.809085
    17  H    5.395287   6.155893   2.164152   3.809016   4.287205
    18  H    2.540620   2.927795   3.819432   3.659450   3.980327
    19  H    4.452940   4.950186   2.783767   3.977601   4.052201
    20  H    3.809687   4.061019   3.455820   4.093390   4.845129
    21  H    3.444866   3.827505   7.388016   5.440616   6.723219
    22  H    2.807919   3.310036   6.895952   4.990030   5.907455
    23  H    2.134503   2.776351   5.496553   3.901549   5.473207
    24  H    2.149828   3.440938   4.902440   2.899294   4.266507
    25  H    3.833197   3.260857   8.515777   6.860663   7.923710
    26  H    3.282406   2.623966   7.764808   6.264730   7.592579
    27  H    1.084113   2.142485   4.757818   3.362129   4.061000
    28  H    2.166890   1.081268   5.906474   5.154477   5.932791
    29  H    2.150199   1.087727   6.106209   5.150893   6.373560
    30  H    5.443088   6.685791   1.086300   2.445253   2.521271
    31  H    5.397279   6.467517   1.087572   3.042687   2.440177
                   16         17         18         19         20
    16  H    0.000000
    17  H    1.745903   0.000000
    18  H    3.857634   4.272853   0.000000
    19  H    3.048481   2.446394   2.378999   0.000000
    20  H    2.476634   2.536111   2.527842   1.750833   0.000000
    21  H    6.592964   8.207434   5.971078   7.798880   6.953936
    22  H    6.538681   7.968424   5.050969   7.128577   6.613075
    23  H    4.304592   5.931893   4.431539   5.803498   4.737561
    24  H    4.391951   5.967774   4.303867   5.749598   5.179041
    25  H    7.726079   9.108524   5.941912   8.108515   7.246189
    26  H    6.601955   8.032394   5.473679   7.339124   6.187347
    27  H    4.659404   5.760356   2.428699   4.547997   4.310688
    28  H    5.262884   6.082598   2.436787   4.511029   3.803770
    29  H    4.905015   6.050036   3.493049   5.139213   3.913418
    30  H    2.459509   2.546095   4.849758   3.793273   4.304097
    31  H    3.047462   2.459373   4.021703   2.636796   3.800900
                   21         22         23         24         25
    21  H    0.000000
    22  H    1.751335   0.000000
    23  H    2.456431   3.051934   0.000000
    24  H    2.544194   2.462462   1.753109   0.000000
    25  H    2.524297   2.439012   3.815578   4.293381   0.000000
    26  H    2.453937   3.044264   2.672469   3.815391   1.759263
    27  H    3.795304   2.661307   3.029036   2.443923   4.060531
    28  H    4.850803   4.110884   3.773177   4.280861   4.016621
    29  H    4.017988   3.958117   2.600668   3.768401   3.577358
    30  H    7.753640   7.412926   5.891062   5.237498   9.138172
    31  H    8.252209   7.598795   6.423195   5.786820   9.208645
                   26         27         28         29         30
    26  H    0.000000
    27  H    3.958509   0.000000
    28  H    3.573368   2.462257   0.000000
    29  H    2.411466   3.039409   1.761396   0.000000
    30  H    8.338276   5.524253   6.820058   6.842835   0.000000
    31  H    8.548200   5.294341   6.325660   6.765146   1.752810
                   31
    31  H    0.000000
 Stoichiometry    C10H18O3
 Framework group  C1[X(C10H18O3)]
 Deg. of freedom    87
 Full point group                 C1      NOp   1
 Largest Abelian subgroup         C1      NOp   1
 Largest concise Abelian subgroup C1      NOp   1
                         Standard orientation:                         
 ---------------------------------------------------------------------
 Center     Atomic      Atomic             Coordinates (Angstroms)
 Number     Number       Type             X           Y           Z
 ---------------------------------------------------------------------
      1          6           0       -2.442342    1.331463   -0.569921
      2          8           0       -1.707887    0.338969   -1.275904
      3          6           0       -3.168852   -0.405788    1.074274
      4          8           0        3.208310   -0.946711   -0.561823
      5          6           0       -1.224654   -0.732275   -0.507321
      6          6           0       -2.342673   -1.409881    0.269095
      7          6           0        3.105015    1.346315    0.207243
      8          8           0       -0.245580   -0.299710    0.393926
      9          6           0        1.659192    1.127233    0.660124
     10          6           0        3.872515    0.033955    0.215202
     11          6           0        1.026962    0.004659   -0.148772
     12          6           0        1.908817   -1.239000   -0.095568
     13          6           0       -3.630804    0.729140    0.160396
     14          1           0       -1.783363    1.840408    0.125045
     15          1           0       -2.757632    2.044954   -1.318553
     16          1           0       -2.574953   -0.000837    1.889327
     17          1           0       -4.021436   -0.906931    1.522098
     18          1           0       -0.787182   -1.412127   -1.224108
     19          1           0       -2.982901   -1.907537   -0.454028
     20          1           0       -1.913624   -2.175646    0.906186
     21          1           0        3.603124    2.057615    0.859128
     22          1           0        3.119940    1.760401   -0.797788
     23          1           0        1.640764    0.851120    1.712102
     24          1           0        1.077842    2.037056    0.550179
     25          1           0        4.856809    0.149405   -0.217480
     26          1           0        3.985474   -0.337631    1.231167
     27          1           0        0.915736    0.318980   -1.180340
     28          1           0        1.518321   -2.024991   -0.727131
     29          1           0        1.958303   -1.607660    0.926582
     30          1           0       -4.130007    1.509596    0.727611
     31          1           0       -4.343004    0.348521   -0.568105
 ---------------------------------------------------------------------
 Rotational constants (GHZ):           1.9758906           0.3977167           0.3710917
 Standard basis: 6-311++G(2d,2p) (5D, 7F)
 There are   557 symmetry adapted cartesian basis functions of A   symmetry.
 There are   531 symmetry adapted basis functions of A   symmetry.
   531 basis functions,   762 primitive gaussians,   557 cartesian basis functions
    51 alpha electrons       51 beta electrons
       nuclear repulsion energy       890.1685670903 Hartrees.
 NAtoms=   31 NActive=   31 NUniq=   31 SFac= 1.00D+00 NAtFMM=   60 NAOKFM=F Big=F
 Integral buffers will be    131072 words long.
 Raffenetti 2 integral format.
 Two-electron integral symmetry is turned on.
 ------------------------------------------------------------------------------
 Polarizable Continuum Model (PCM)
 =================================
 Model                : PCM.
 Atomic radii         : UFF (Universal Force Field).
 Polarization charges : Total charges.
 Charge compensation  : None.
 Solution method      : On-the-fly selection.
 Cavity type          : Scaled VdW (van der Waals Surface) (Alpha=1.100).
 Cavity algorithm     : GePol (No added spheres)
                        Default sphere list used, NSphG=   31.
                        Lebedev-Laikov grids with approx.  5.0 points / Ang**2.
                        Smoothing algorithm: York/Karplus (Gamma=1.0000).
                        Polarization charges: spherical gaussians, with
                                              point-specific exponents (IZeta= 3).
                        Self-potential: point-specific (ISelfS= 7).
                        Self-field    : sphere-specific E.n sum rule (ISelfD= 2).
 1st derivatives      : Analytical E(r).r(x)/FMM algorithm (CHGder, D1EAlg=3).
                        Cavity 1st derivative terms included.
 Solvent              : Water, Eps=  78.355300 Eps(inf)=   1.777849
 ------------------------------------------------------------------------------
 One-electron integrals computed using PRISM.
 NBasis=   531 RedAO= T EigKep=  5.26D-06  NBF=   531
 NBsUse=   531 1.00D-06 EigRej= -1.00D+00 NBFU=   531
 ExpMin= 3.60D-02 ExpMax= 8.59D+03 ExpMxC= 1.30D+03 IAcc=3 IRadAn=         5 AccDes= 0.00D+00
 Harris functional with IExCor= 1009 and IRadAn=       5 diagonalized for initial guess.
 HarFok:  IExCor= 1009 AccDes= 0.00D+00 IRadAn=         5 IDoV= 1 UseB2=F ITyADJ=14
 ICtDFT=  3500011 ScaDFX=  1.000000  1.000000  1.000000  1.000000
 FoFCou: FMM=F IPFlag=           0 FMFlag=      100000 FMFlg1=           0
         NFxFlg=           0 DoJE=T BraDBF=F KetDBF=T FulRan=T
         wScrn=  0.000000 ICntrl=       500 IOpCl=  0 I1Cent=   200000004 NGrid=           0
         NMat0=    1 NMatS0=      1 NMatT0=    0 NMatD0=    1 NMtDS0=    0 NMtDT0=    0
 Petite list used in FoFCou.
 Requested convergence on RMS density matrix=1.00D-08 within 128 cycles.
 Requested convergence on MAX density matrix=1.00D-06.
 Requested convergence on             energy=1.00D-06.
 No special actions if energy rises.
 Inv3:  Mode=1 IEnd=    12979200.
 Iteration    1 A*A^-1 deviation from unit magnitude is 6.99D-15 for   2077.
 Iteration    1 A*A^-1 deviation from orthogonality  is 4.11D-15 for   2077    895.
 Iteration    1 A^-1*A deviation from unit magnitude is 6.99D-15 for   2077.
 Iteration    1 A^-1*A deviation from orthogonality  is 2.89D-15 for   2078    941.
 Error on total polarization charges =  0.01490
 SCF Done:  E(RM062X) =  -617.502814229     A.U. after   12 cycles
            NFock= 12  Conv=0.47D-08     -V/T= 2.0035

 **********************************************************************

            Population analysis using the SCF density.

 **********************************************************************

 Orbital symmetries:
       Occupied  (A) (A) (A) (A) (A) (A) (A) (A) (A) (A) (A) (A)
                 (A) (A) (A) (A) (A) (A) (A) (A) (A) (A) (A) (A)
                 (A) (A) (A) (A) (A) (A) (A) (A) (A) (A) (A) (A)
                 (A) (A) (A) (A) (A) (A) (A) (A) (A) (A) (A) (A)
                 (A) (A) (A)
       Virtual   (A) (A) (A) (A) (A) (A) (A) (A) (A) (A) (A) (A)
                 (A) (A) (A) (A) (A) (A) (A) (A) (A) (A) (A) (A)
                 (A) (A) (A) (A) (A) (A) (A) (A) (A) (A) (A) (A)
                 (A) (A) (A) (A) (A) (A) (A) (A) (A) (A) (A) (A)
                 (A) (A) (A) (A) (A) (A) (A) (A) (A) (A) (A) (A)
                 (A) (A) (A) (A) (A) (A) (A) (A) (A) (A) (A) (A)
                 (A) (A) (A) (A) (A) (A) (A) (A) (A) (A) (A) (A)
                 (A) (A) (A) (A) (A) (A) (A) (A) (A) (A) (A) (A)
                 (A) (A) (A) (A) (A) (A) (A) (A) (A) (A) (A) (A)
                 (A) (A) (A) (A) (A) (A) (A) (A) (A) (A) (A) (A)
                 (A) (A) (A) (A) (A) (A) (A) (A) (A) (A) (A) (A)
                 (A) (A) (A) (A) (A) (A) (A) (A) (A) (A) (A) (A)
                 (A) (A) (A) (A) (A) (A) (A) (A) (A) (A) (A) (A)
                 (A) (A) (A) (A) (A) (A) (A) (A) (A) (A) (A) (A)
                 (A) (A) (A) (A) (A) (A) (A) (A) (A) (A) (A) (A)
                 (A) (A) (A) (A) (A) (A) (A) (A) (A) (A) (A) (A)
                 (A) (A) (A) (A) (A) (A) (A) (A) (A) (A) (A) (A)
                 (A) (A) (A) (A) (A) (A) (A) (A) (A) (A) (A) (A)
                 (A) (A) (A) (A) (A) (A) (A) (A) (A) (A) (A) (A)
                 (A) (A) (A) (A) (A) (A) (A) (A) (A) (A) (A) (A)
                 (A) (A) (A) (A) (A) (A) (A) (A) (A) (A) (A) (A)
                 (A) (A) (A) (A) (A) (A) (A) (A) (A) (A) (A) (A)
                 (A) (A) (A) (A) (A) (A) (A) (A) (A) (A) (A) (A)
                 (A) (A) (A) (A) (A) (A) (A) (A) (A) (A) (A) (A)
                 (A) (A) (A) (A) (A) (A) (A) (A) (A) (A) (A) (A)
                 (A) (A) (A) (A) (A) (A) (A) (A) (A) (A) (A) (A)
                 (A) (A) (A) (A) (A) (A) (A) (A) (A) (A) (A) (A)
                 (A) (A) (A) (A) (A) (A) (A) (A) (A) (A) (A) (A)
                 (A) (A) (A) (A) (A) (A) (A) (A) (A) (A) (A) (A)
                 (A) (A) (A) (A) (A) (A) (A) (A) (A) (A) (A) (A)
                 (A) (A) (A) (A) (A) (A) (A) (A) (A) (A) (A) (A)
                 (A) (A) (A) (A) (A) (A) (A) (A) (A) (A) (A) (A)
                 (A) (A) (A) (A) (A) (A) (A) (A) (A) (A) (A) (A)
                 (A) (A) (A) (A) (A) (A) (A) (A) (A) (A) (A) (A)
                 (A) (A) (A) (A) (A) (A) (A) (A) (A) (A) (A) (A)
                 (A) (A) (A) (A) (A) (A) (A) (A) (A) (A) (A) (A)
                 (A) (A) (A) (A) (A) (A) (A) (A) (A) (A) (A) (A)
                 (A) (A) (A) (A) (A) (A) (A) (A) (A) (A) (A) (A)
                 (A) (A) (A) (A) (A) (A) (A) (A) (A) (A) (A) (A)
                 (A) (A) (A) (A) (A) (A) (A) (A) (A) (A) (A) (A)
 The electronic state is 1-A.
 Alpha  occ. eigenvalues --  -19.63144 -19.62937 -19.62735 -10.63458 -10.58621
 Alpha  occ. eigenvalues --  -10.57876 -10.57831 -10.57602 -10.53194 -10.53150
 Alpha  occ. eigenvalues --  -10.53008 -10.52966 -10.52755  -1.20305  -1.16772
 Alpha  occ. eigenvalues --   -1.13633  -0.91058  -0.89791  -0.87411  -0.84750
 Alpha  occ. eigenvalues --   -0.74884  -0.74151  -0.73324  -0.71111  -0.65853
 Alpha  occ. eigenvalues --   -0.64222  -0.60100  -0.58643  -0.57710  -0.56415
 Alpha  occ. eigenvalues --   -0.54201  -0.53351  -0.52141  -0.51509  -0.49841
 Alpha  occ. eigenvalues --   -0.48016  -0.47099  -0.46082  -0.45452  -0.45263
 Alpha  occ. eigenvalues --   -0.44221  -0.42591  -0.40743  -0.40375  -0.39214
 Alpha  occ. eigenvalues --   -0.38559  -0.38176  -0.36022  -0.35598  -0.33386
 Alpha  occ. eigenvalues --   -0.31738
 Alpha virt. eigenvalues --   -0.00065   0.00754   0.00914   0.01018   0.02147
 Alpha virt. eigenvalues --    0.02467   0.02615   0.03394   0.03642   0.04339
 Alpha virt. eigenvalues --    0.04601   0.04733   0.05401   0.06015   0.06901
 Alpha virt. eigenvalues --    0.07492   0.07675   0.07933   0.08540   0.09374
 Alpha virt. eigenvalues --    0.10198   0.10812   0.11044   0.11555   0.11745
 Alpha virt. eigenvalues --    0.12179   0.12514   0.12763   0.13036   0.13477
 Alpha virt. eigenvalues --    0.13704   0.14121   0.14395   0.14593   0.15016
 Alpha virt. eigenvalues --    0.15064   0.15287   0.15494   0.15828   0.16252
 Alpha virt. eigenvalues --    0.16502   0.16751   0.16785   0.17647   0.17888
 Alpha virt. eigenvalues --    0.18041   0.18408   0.18746   0.19101   0.19543
 Alpha virt. eigenvalues --    0.20056   0.20116   0.20967   0.21487   0.21692
 Alpha virt. eigenvalues --    0.21848   0.22553   0.23040   0.23320   0.23921
 Alpha virt. eigenvalues --    0.24639   0.24770   0.26110   0.26318   0.26613
 Alpha virt. eigenvalues --    0.27567   0.28146   0.28496   0.28851   0.29360
 Alpha virt. eigenvalues --    0.29556   0.30182   0.30719   0.31118   0.31474
 Alpha virt. eigenvalues --    0.32074   0.32656   0.32971   0.34051   0.34549
 Alpha virt. eigenvalues --    0.34938   0.35017   0.35788   0.35873   0.36529
 Alpha virt. eigenvalues --    0.36790   0.37198   0.37572   0.37667   0.37905
 Alpha virt. eigenvalues --    0.38380   0.39103   0.39498   0.39679   0.40275
 Alpha virt. eigenvalues --    0.41847   0.42144   0.43198   0.43843   0.44232
 Alpha virt. eigenvalues --    0.45861   0.47387   0.48530   0.50519   0.50801
 Alpha virt. eigenvalues --    0.52205   0.52372   0.52868   0.54088   0.54284
 Alpha virt. eigenvalues --    0.55974   0.57205   0.57494   0.58200   0.59487
 Alpha virt. eigenvalues --    0.59819   0.60455   0.60882   0.61168   0.61931
 Alpha virt. eigenvalues --    0.62114   0.63136   0.63856   0.64086   0.64328
 Alpha virt. eigenvalues --    0.64793   0.65355   0.65655   0.66230   0.66538
 Alpha virt. eigenvalues --    0.67098   0.67564   0.69026   0.69521   0.70032
 Alpha virt. eigenvalues --    0.70780   0.71185   0.71508   0.72497   0.73329
 Alpha virt. eigenvalues --    0.73683   0.74015   0.74441   0.74939   0.75545
 Alpha virt. eigenvalues --    0.76005   0.76815   0.77397   0.78111   0.78453
 Alpha virt. eigenvalues --    0.81598   0.82723   0.83941   0.84829   0.85154
 Alpha virt. eigenvalues --    0.86000   0.87266   0.87910   0.88354   0.88644
 Alpha virt. eigenvalues --    0.90517   0.91421   0.92748   0.93796   0.95453
 Alpha virt. eigenvalues --    0.95980   0.97391   0.99755   1.01016   1.01351
 Alpha virt. eigenvalues --    1.03264   1.03901   1.04833   1.05458   1.06631
 Alpha virt. eigenvalues --    1.07830   1.08583   1.09297   1.10504   1.12359
 Alpha virt. eigenvalues --    1.13001   1.13566   1.14812   1.15922   1.16472
 Alpha virt. eigenvalues --    1.17211   1.17725   1.18311   1.19567   1.20044
 Alpha virt. eigenvalues --    1.20796   1.22026   1.23045   1.23776   1.24407
 Alpha virt. eigenvalues --    1.25155   1.25856   1.26226   1.27404   1.27765
 Alpha virt. eigenvalues --    1.28062   1.28949   1.29149   1.30130   1.30619
 Alpha virt. eigenvalues --    1.31558   1.32246   1.32934   1.33731   1.34454
 Alpha virt. eigenvalues --    1.35134   1.35457   1.36110   1.36298   1.37289
 Alpha virt. eigenvalues --    1.37862   1.38692   1.39563   1.40392   1.41211
 Alpha virt. eigenvalues --    1.41795   1.41922   1.43161   1.44124   1.44636
 Alpha virt. eigenvalues --    1.45950   1.46168   1.46753   1.47961   1.48119
 Alpha virt. eigenvalues --    1.48400   1.49329   1.50006   1.50806   1.52343
 Alpha virt. eigenvalues --    1.52976   1.53638   1.54106   1.55212   1.55495
 Alpha virt. eigenvalues --    1.56083   1.57311   1.57592   1.58027   1.58799
 Alpha virt. eigenvalues --    1.59638   1.60319   1.60682   1.61257   1.62448
 Alpha virt. eigenvalues --    1.63361   1.63467   1.64429   1.64971   1.66561
 Alpha virt. eigenvalues --    1.67605   1.68443   1.69735   1.71375   1.72438
 Alpha virt. eigenvalues --    1.73831   1.74351   1.75823   1.76628   1.77037
 Alpha virt. eigenvalues --    1.78491   1.78711   1.80715   1.81191   1.84470
 Alpha virt. eigenvalues --    1.85515   1.90402   1.92783   1.95363   1.98017
 Alpha virt. eigenvalues --    2.00635   2.06984   2.11362   2.16604   2.19729
 Alpha virt. eigenvalues --    2.24429   2.26047   2.30705   2.33892   2.37759
 Alpha virt. eigenvalues --    2.42328   2.42429   2.45596   2.47250   2.52694
 Alpha virt. eigenvalues --    2.59136   2.75492   2.76690   2.79911   2.80651
 Alpha virt. eigenvalues --    2.82910   2.89476   2.91810   2.92974   2.93542
 Alpha virt. eigenvalues --    2.95648   2.97009   3.01455   3.01857   3.03399
 Alpha virt. eigenvalues --    3.05756   3.07455   3.07964   3.09065   3.10206
 Alpha virt. eigenvalues --    3.13062   3.15024   3.16890   3.19942   3.22270
 Alpha virt. eigenvalues --    3.26226   3.29942   3.30947   3.33095   3.34514
 Alpha virt. eigenvalues --    3.35666   3.36271   3.37446   3.40207   3.41480
 Alpha virt. eigenvalues --    3.43125   3.43592   3.45132   3.45294   3.46692
 Alpha virt. eigenvalues --    3.47438   3.48957   3.49803   3.50552   3.52579
 Alpha virt. eigenvalues --    3.53292   3.53329   3.54476   3.55091   3.56129
 Alpha virt. eigenvalues --    3.57066   3.57496   3.58958   3.59029   3.59445
 Alpha virt. eigenvalues --    3.60016   3.61286   3.62513   3.64160   3.65329
 Alpha virt. eigenvalues --    3.65792   3.66459   3.67377   3.68731   3.69709
 Alpha virt. eigenvalues --    3.69831   3.70386   3.71671   3.72421   3.73357
 Alpha virt. eigenvalues --    3.74127   3.74669   3.76430   3.77020   3.77709
 Alpha virt. eigenvalues --    3.77827   3.79205   3.79430   3.81372   3.83909
 Alpha virt. eigenvalues --    3.86755   3.87459   3.89499   3.90935   3.92241
 Alpha virt. eigenvalues --    3.92926   3.93454   3.94351   3.96692   3.97779
 Alpha virt. eigenvalues --    3.99478   4.01145   4.01899   4.02955   4.03451
 Alpha virt. eigenvalues --    4.05105   4.05251   4.06542   4.07184   4.07652
 Alpha virt. eigenvalues --    4.07711   4.08759   4.09774   4.10775   4.11697
 Alpha virt. eigenvalues --    4.12078   4.13312   4.13790   4.14846   4.16097
 Alpha virt. eigenvalues --    4.16600   4.16860   4.18428   4.19837   4.20253
 Alpha virt. eigenvalues --    4.21315   4.23326   4.24678   4.25530   4.27630
 Alpha virt. eigenvalues --    4.28198   4.29769   4.29962   4.30562   4.32402
 Alpha virt. eigenvalues --    4.33260   4.33816   4.34442   4.35279   4.39417
 Alpha virt. eigenvalues --    4.40811   4.42392   4.44847   4.46712   4.50898
 Alpha virt. eigenvalues --    4.58301   4.61391   4.74921   4.76693   4.83001
 Alpha virt. eigenvalues --    4.85159   4.92710   4.95292   4.99511   5.00778
 Alpha virt. eigenvalues --    5.06456   5.06941   5.07929   5.08808   5.11986
 Alpha virt. eigenvalues --    5.12193   5.13756   5.15131   5.30487   5.37211
 Alpha virt. eigenvalues --    5.40544   5.57523   5.58714   5.64106   5.85606
 Alpha virt. eigenvalues --    5.88043   6.05608   7.04144   7.04695   7.05801
 Alpha virt. eigenvalues --    7.07219   7.10577   7.12740   7.13974   7.19796
 Alpha virt. eigenvalues --    7.27053   7.35676   7.38244   7.45418   7.52845
 Alpha virt. eigenvalues --    7.55751   7.65900  23.95937  23.96833  24.06500
 Alpha virt. eigenvalues --   24.07436  24.11329  24.12772  24.13825  24.15612
 Alpha virt. eigenvalues --   24.16109  24.20352  50.16951  50.17629  50.25986
          Condensed to atoms (all electrons):
               1          2          3          4          5          6
     1  C    5.480062   0.118085   0.005988   0.000542  -0.490808   0.166404
     2  O    0.118085   8.184251  -0.002787   0.000342   0.341360  -0.068250
     3  C    0.005988  -0.002787   5.636636   0.000141  -0.092447  -0.039799
     4  O    0.000542   0.000342   0.000141   8.316826   0.002239  -0.000453
     5  C   -0.490808   0.341360  -0.092447   0.002239   7.137917  -0.954338
     6  C    0.166404  -0.068250  -0.039799  -0.000453  -0.954338   6.733958
     7  C   -0.006320   0.000168  -0.001317  -0.037621  -0.025287   0.004622
     8  O   -0.000582  -0.043552  -0.029376   0.004016   0.338310  -0.077505
     9  C    0.036139  -0.070092   0.004045  -0.024680   0.199438  -0.222135
    10  C    0.001835   0.001939  -0.003084   0.107311  -0.043861   0.004876
    11  C    0.105627   0.037526  -0.009142   0.037720  -0.993930   0.117812
    12  C   -0.028724   0.013274   0.013153   0.153641   0.186125   0.068219
    13  C   -0.058029  -0.067371   0.003798   0.000126   0.217074  -0.132075
    14  H    0.485411  -0.036223   0.000664  -0.000406   0.000081   0.023800
    15  H    0.438264  -0.074046   0.008787   0.000023  -0.016815   0.002706
    16  H    0.004356   0.002199   0.521276   0.000004  -0.010495  -0.053138
    17  H    0.009068  -0.004792   0.422751  -0.000005   0.023471  -0.055768
    18  H   -0.022302  -0.070718  -0.011508   0.002325   0.481497  -0.107334
    19  H    0.016560  -0.006633  -0.007340  -0.000079  -0.153868   0.542826
    20  H    0.007270   0.008287  -0.043604   0.000409  -0.021688   0.423824
    21  H    0.000822  -0.000133  -0.000153   0.007030  -0.002595  -0.001478
    22  H   -0.000283  -0.000226   0.001035  -0.001315   0.005709   0.001660
    23  H    0.004249   0.000251   0.000590   0.000459  -0.001123   0.003022
    24  H   -0.006731   0.000148   0.000933  -0.001556   0.015632   0.001857
    25  H    0.000065   0.000139  -0.000195  -0.072003  -0.003535   0.000161
    26  H   -0.000208  -0.000108   0.000419  -0.043905   0.003819   0.000735
    27  H    0.013425  -0.000119  -0.005991  -0.014158  -0.051699  -0.008921
    28  H    0.002798   0.000777   0.003472  -0.076843   0.022565  -0.008662
    29  H   -0.001934  -0.000306   0.001653  -0.037169  -0.004691   0.005755
    30  H   -0.038021   0.010458  -0.040411   0.000012   0.005840  -0.006709
    31  H   -0.085490  -0.002460  -0.021770  -0.000009   0.001975  -0.007698
               7          8          9         10         11         12
     1  C   -0.006320  -0.000582   0.036139   0.001835   0.105627  -0.028724
     2  O    0.000168  -0.043552  -0.070092   0.001939   0.037526   0.013274
     3  C   -0.001317  -0.029376   0.004045  -0.003084  -0.009142   0.013153
     4  O   -0.037621   0.004016  -0.024680   0.107311   0.037720   0.153641
     5  C   -0.025287   0.338310   0.199438  -0.043861  -0.993930   0.186125
     6  C    0.004622  -0.077505  -0.222135   0.004876   0.117812   0.068219
     7  C    5.623564   0.006451  -0.058344   0.056651  -0.128245   0.173786
     8  O    0.006451   8.270018  -0.145965   0.015439   0.121473  -0.173917
     9  C   -0.058344  -0.145965   7.496853  -0.177046  -1.791253   0.085393
    10  C    0.056651   0.015439  -0.177046   5.428869   0.294076  -0.276955
    11  C   -0.128245   0.121473  -1.791253   0.294076   8.830993  -0.817093
    12  C    0.173786  -0.173917   0.085393  -0.276955  -0.817093   6.217063
    13  C    0.005403  -0.006833  -0.064190   0.002086   0.080066  -0.003158
    14  H   -0.005201   0.009542   0.003009  -0.000603  -0.036141   0.009573
    15  H   -0.000632   0.000686   0.000105   0.000193   0.013081  -0.001956
    16  H    0.000062  -0.005471   0.004379  -0.000665  -0.013354   0.003357
    17  H   -0.000125   0.000240  -0.002066   0.000124   0.004388  -0.001043
    18  H   -0.009375  -0.022542   0.016339   0.001762   0.069923  -0.040075
    19  H    0.000306   0.009250  -0.007949   0.000402   0.011656   0.000625
    20  H   -0.001242  -0.001681   0.012745  -0.001499  -0.017610   0.006084
    21  H    0.429233  -0.002156  -0.015702  -0.035668  -0.014533  -0.003799
    22  H    0.490064   0.000142  -0.004105  -0.086787  -0.043545   0.011564
    23  H   -0.084403  -0.007132   0.503733  -0.010376   0.000161  -0.043693
    24  H    0.028981   0.007571   0.382647  -0.012097  -0.047222   0.025675
    25  H   -0.044785   0.000999   0.003188   0.436137   0.006734   0.010133
    26  H   -0.038876  -0.000004  -0.025756   0.457242   0.039474  -0.034979
    27  H   -0.019773  -0.026078   0.053852   0.012126   0.468004  -0.102079
    28  H    0.017612  -0.004004   0.041163   0.001997  -0.118818   0.463085
    29  H   -0.002532   0.013974  -0.030381   0.008057   0.003594   0.374058
    30  H   -0.000086   0.000762   0.003249   0.000080   0.001266  -0.001442
    31  H    0.000173  -0.000694  -0.001797  -0.000141  -0.006290   0.001939
              13         14         15         16         17         18
     1  C   -0.058029   0.485411   0.438264   0.004356   0.009068  -0.022302
     2  O   -0.067371  -0.036223  -0.074046   0.002199  -0.004792  -0.070718
     3  C    0.003798   0.000664   0.008787   0.521276   0.422751  -0.011508
     4  O    0.000126  -0.000406   0.000023   0.000004  -0.000005   0.002325
     5  C    0.217074   0.000081  -0.016815  -0.010495   0.023471   0.481497
     6  C   -0.132075   0.023800   0.002706  -0.053138  -0.055768  -0.107334
     7  C    0.005403  -0.005201  -0.000632   0.000062  -0.000125  -0.009375
     8  O   -0.006833   0.009542   0.000686  -0.005471   0.000240  -0.022542
     9  C   -0.064190   0.003009   0.000105   0.004379  -0.002066   0.016339
    10  C    0.002086  -0.000603   0.000193  -0.000665   0.000124   0.001762
    11  C    0.080066  -0.036141   0.013081  -0.013354   0.004388   0.069923
    12  C   -0.003158   0.009573  -0.001956   0.003357  -0.001043  -0.040075
    13  C    5.653401  -0.084521  -0.023012  -0.070864  -0.019783   0.019433
    14  H   -0.084521   0.519488  -0.018860  -0.001939  -0.002187  -0.001521
    15  H   -0.023012  -0.018860   0.482328  -0.002288   0.001874   0.000898
    16  H   -0.070864  -0.001939  -0.002288   0.456539  -0.006263  -0.002619
    17  H   -0.019783  -0.002187   0.001874  -0.006263   0.465486   0.002694
    18  H    0.019433  -0.001521   0.000898  -0.002619   0.002694   0.463360
    19  H   -0.020123  -0.000654   0.000055   0.001255  -0.002549  -0.014693
    20  H   -0.006197   0.000295   0.001217  -0.001645  -0.009132  -0.007484
    21  H   -0.000382  -0.000151  -0.000021   0.000033  -0.000018  -0.000024
    22  H   -0.000538   0.000351   0.000004   0.000011   0.000024   0.000052
    23  H   -0.002852   0.000614   0.000074  -0.000411  -0.000039  -0.000314
    24  H    0.002689  -0.002461   0.000765   0.000776   0.000135   0.000435
    25  H    0.000141  -0.000202   0.000011  -0.000006   0.000001  -0.000043
    26  H   -0.000049   0.000076  -0.000013   0.000005   0.000023   0.000368
    27  H   -0.002038  -0.000925   0.000161  -0.000277  -0.000231  -0.005121
    28  H   -0.002539  -0.000328   0.000009   0.000144  -0.000215  -0.012376
    29  H    0.002597  -0.000738   0.000007  -0.000218   0.000387   0.002894
    30  H    0.437191  -0.000199  -0.008564  -0.003801  -0.006909   0.001788
    31  H    0.491152   0.003344  -0.007108   0.001531  -0.002880  -0.000178
              19         20         21         22         23         24
     1  C    0.016560   0.007270   0.000822  -0.000283   0.004249  -0.006731
     2  O   -0.006633   0.008287  -0.000133  -0.000226   0.000251   0.000148
     3  C   -0.007340  -0.043604  -0.000153   0.001035   0.000590   0.000933
     4  O   -0.000079   0.000409   0.007030  -0.001315   0.000459  -0.001556
     5  C   -0.153868  -0.021688  -0.002595   0.005709  -0.001123   0.015632
     6  C    0.542826   0.423824  -0.001478   0.001660   0.003022   0.001857
     7  C    0.000306  -0.001242   0.429233   0.490064  -0.084403   0.028981
     8  O    0.009250  -0.001681  -0.002156   0.000142  -0.007132   0.007571
     9  C   -0.007949   0.012745  -0.015702  -0.004105   0.503733   0.382647
    10  C    0.000402  -0.001499  -0.035668  -0.086787  -0.010376  -0.012097
    11  C    0.011656  -0.017610  -0.014533  -0.043545   0.000161  -0.047222
    12  C    0.000625   0.006084  -0.003799   0.011564  -0.043693   0.025675
    13  C   -0.020123  -0.006197  -0.000382  -0.000538  -0.002852   0.002689
    14  H   -0.000654   0.000295  -0.000151   0.000351   0.000614  -0.002461
    15  H    0.000055   0.001217  -0.000021   0.000004   0.000074   0.000765
    16  H    0.001255  -0.001645   0.000033   0.000011  -0.000411   0.000776
    17  H   -0.002549  -0.009132  -0.000018   0.000024  -0.000039   0.000135
    18  H   -0.014693  -0.007484  -0.000024   0.000052  -0.000314   0.000435
    19  H    0.448217  -0.003198  -0.000021  -0.000085  -0.000028  -0.000114
    20  H   -0.003198   0.477417   0.000005   0.000142   0.000746  -0.000119
    21  H   -0.000021   0.000005   0.487388  -0.007735  -0.003698  -0.015061
    22  H   -0.000085   0.000142  -0.007735   0.474162   0.002778  -0.000414
    23  H   -0.000028   0.000746  -0.003698   0.002778   0.457969  -0.018553
    24  H   -0.000114  -0.000119  -0.015061  -0.000414  -0.018553   0.502994
    25  H    0.000030  -0.000081  -0.008018  -0.005017  -0.001270   0.000903
    26  H   -0.000037  -0.000003   0.001920   0.003231  -0.005448   0.001275
    27  H    0.000488   0.000488   0.001000  -0.006951   0.006074  -0.009875
    28  H    0.000508   0.000660   0.002691  -0.002023  -0.001767  -0.000437
    29  H    0.000034  -0.003477  -0.002452   0.001649  -0.005845  -0.000170
    30  H   -0.002395   0.001138   0.000009   0.000001  -0.000078   0.000062
    31  H   -0.002217  -0.001367  -0.000007   0.000003   0.000026   0.000384
              25         26         27         28         29         30
     1  C    0.000065  -0.000208   0.013425   0.002798  -0.001934  -0.038021
     2  O    0.000139  -0.000108  -0.000119   0.000777  -0.000306   0.010458
     3  C   -0.000195   0.000419  -0.005991   0.003472   0.001653  -0.040411
     4  O   -0.072003  -0.043905  -0.014158  -0.076843  -0.037169   0.000012
     5  C   -0.003535   0.003819  -0.051699   0.022565  -0.004691   0.005840
     6  C    0.000161   0.000735  -0.008921  -0.008662   0.005755  -0.006709
     7  C   -0.044785  -0.038876  -0.019773   0.017612  -0.002532  -0.000086
     8  O    0.000999  -0.000004  -0.026078  -0.004004   0.013974   0.000762
     9  C    0.003188  -0.025756   0.053852   0.041163  -0.030381   0.003249
    10  C    0.436137   0.457242   0.012126   0.001997   0.008057   0.000080
    11  C    0.006734   0.039474   0.468004  -0.118818   0.003594   0.001266
    12  C    0.010133  -0.034979  -0.102079   0.463085   0.374058  -0.001442
    13  C    0.000141  -0.000049  -0.002038  -0.002539   0.002597   0.437191
    14  H   -0.000202   0.000076  -0.000925  -0.000328  -0.000738  -0.000199
    15  H    0.000011  -0.000013   0.000161   0.000009   0.000007  -0.008564
    16  H   -0.000006   0.000005  -0.000277   0.000144  -0.000218  -0.003801
    17  H    0.000001   0.000023  -0.000231  -0.000215   0.000387  -0.006909
    18  H   -0.000043   0.000368  -0.005121  -0.012376   0.002894   0.001788
    19  H    0.000030  -0.000037   0.000488   0.000508   0.000034  -0.002395
    20  H   -0.000081  -0.000003   0.000488   0.000660  -0.003477   0.001138
    21  H   -0.008018   0.001920   0.001000   0.002691  -0.002452   0.000009
    22  H   -0.005017   0.003231  -0.006951  -0.002023   0.001649   0.000001
    23  H   -0.001270  -0.005448   0.006074  -0.001767  -0.005845  -0.000078
    24  H    0.000903   0.001275  -0.009875  -0.000437  -0.000170   0.000062
    25  H    0.473943  -0.006833   0.000022   0.002576  -0.001879   0.000001
    26  H   -0.006833   0.499470  -0.002230  -0.005096   0.010442   0.000006
    27  H    0.000022  -0.002230   0.422241   0.000387  -0.004866  -0.000084
    28  H    0.002576  -0.005096   0.000387   0.502548  -0.021768   0.000050
    29  H   -0.001879   0.010442  -0.004866  -0.021768   0.491580   0.000065
    30  H    0.000001   0.000006  -0.000084   0.000050   0.000065   0.489038
    31  H   -0.000001  -0.000003  -0.000049  -0.000138  -0.000073  -0.012156
              31
     1  C   -0.085490
     2  O   -0.002460
     3  C   -0.021770
     4  O   -0.000009
     5  C    0.001975
     6  C   -0.007698
     7  C    0.000173
     8  O   -0.000694
     9  C   -0.001797
    10  C   -0.000141
    11  C   -0.006290
    12  C    0.001939
    13  C    0.491152
    14  H    0.003344
    15  H   -0.007108
    16  H    0.001531
    17  H   -0.002880
    18  H   -0.000178
    19  H   -0.002217
    20  H   -0.001367
    21  H   -0.000007
    22  H    0.000003
    23  H    0.000026
    24  H    0.000384
    25  H   -0.000001
    26  H   -0.000003
    27  H   -0.000049
    28  H   -0.000138
    29  H   -0.000073
    30  H   -0.012156
    31  H    0.484803
 Mulliken charges:
               1
     1  C   -0.157538
     2  O   -0.271388
     3  C   -0.316418
     4  O   -0.322964
     5  C   -0.115869
     6  C   -0.357970
     7  C   -0.372912
     8  O   -0.251381
     9  C   -0.204817
    10  C   -0.182417
    11  C   -0.206401
    12  C   -0.287834
    13  C   -0.350602
    14  H    0.137014
    15  H    0.202067
    16  H    0.177526
    17  H    0.183342
    18  H    0.264458
    19  H    0.189774
    20  H    0.179298
    21  H    0.183674
    22  H    0.166443
    23  H    0.206283
    24  H    0.140947
    25  H    0.208685
    26  H    0.145044
    27  H    0.283198
    28  H    0.191973
    29  H    0.201752
    30  H    0.169839
    31  H    0.167197
 Sum of Mulliken charges =  -0.00000
 Mulliken charges with hydrogens summed into heavy atoms:
               1
     1  C    0.181543
     2  O   -0.271388
     3  C    0.044450
     4  O   -0.322964
     5  C    0.148590
     6  C    0.011101
     7  C   -0.022795
     8  O   -0.251381
     9  C    0.142413
    10  C    0.171312
    11  C    0.076797
    12  C    0.105890
    13  C   -0.013566
 Electronic spatial extent (au):  <R**2>=           3137.0000
 Charge=             -0.0000 electrons
 Dipole moment (field-independent basis, Debye):
    X=             -0.9205    Y=              0.9964    Z=              1.8087  Tot=              2.2608
 Quadrupole moment (field-independent basis, Debye-Ang):
   XX=            -75.0642   YY=            -76.6082   ZZ=            -84.1988
   XY=              5.2246   XZ=              2.7791   YZ=              0.0782
 Traceless Quadrupole moment (field-independent basis, Debye-Ang):
   XX=              3.5596   YY=              2.0155   ZZ=             -5.5751
   XY=              5.2246   XZ=              2.7791   YZ=              0.0782
 Octapole moment (field-independent basis, Debye-Ang**2):
  XXX=            -10.6773  YYY=             -0.4963  ZZZ=              2.1320  XYY=             -8.8591
  XXY=             23.8109  XXZ=             20.2511  XZZ=              4.4782  YZZ=             -0.9554
  YYZ=             -2.5960  XYZ=             -3.8973
 Hexadecapole moment (field-independent basis, Debye-Ang**3):
 XXXX=          -3161.7003 YYYY=           -581.8203 ZZZZ=           -330.2990 XXXY=             64.6243
 XXXZ=             46.9251 YYYX=             -9.4258 YYYZ=             -0.2077 ZZZX=              0.0686
 ZZZY=             -0.0591 XXYY=           -644.1817 XXZZ=           -612.9186 YYZZ=           -145.1221
 XXYZ=            -18.4131 YYXZ=             11.0913 ZZXY=              0.1592
 N-N= 8.901685670903D+02 E-N=-3.222147009029D+03  KE= 6.153495387046D+02
 D1PCM: PCM CHGder 1st derivatives, ID1Alg=3 FixD1E=F DoIter=F DoCFld=F I1PDM=0.
 Calling FoFJK, ICntrl=      2127 FMM=F ISym2X=0 I1Cent= 0 IOpClX= 0 NMat=1 NMatS=1 NMatT=0.
 ***** Axes restored to original set *****
 -------------------------------------------------------------------
 Center     Atomic                   Forces (Hartrees/Bohr)
 Number     Number              X              Y              Z
 -------------------------------------------------------------------
      1        6          -0.001818385   -0.005866016    0.002850131
      2        8           0.001618581   -0.000054256   -0.010986842
      3        6           0.001201954    0.000558168   -0.003679204
      4        8           0.003663040   -0.004157315   -0.007702566
      5        6          -0.004246682    0.004964025    0.004494056
      6        6           0.000730944    0.002074446    0.001555533
      7        6          -0.000831075   -0.001747163    0.002105019
      8        8          -0.001970713    0.000400450    0.012141401
      9        6           0.002443069   -0.001965721   -0.003773829
     10        6          -0.006454659    0.002044093   -0.001242928
     11        6          -0.000263907   -0.001348284    0.003687220
     12        6           0.002809021    0.007060531   -0.000555703
     13        6           0.002404221   -0.000018739    0.001389047
     14        1           0.003563827    0.002219784    0.004942330
     15        1          -0.001389966    0.002826028   -0.003132327
     16        1           0.002748929    0.001409706    0.001855966
     17        1          -0.002051495   -0.001239826    0.000951113
     18        1           0.002674271   -0.004718564   -0.006028910
     19        1          -0.002039902   -0.001026317   -0.002552131
     20        1           0.001466469   -0.001995807    0.002038789
     21        1           0.001087653    0.002228669    0.001716362
     22        1          -0.000070547    0.000592305   -0.003166076
     23        1          -0.000317654   -0.001955920    0.003378249
     24        1          -0.002260530    0.002290924   -0.000460070
     25        1           0.003890841    0.000523700   -0.001860863
     26        1           0.000194712   -0.001038222    0.006111706
     27        1           0.000092778    0.002258198   -0.006515644
     28        1          -0.002368508   -0.003592641   -0.002991765
     29        1          -0.001377879   -0.001033252    0.006304465
     30        1          -0.001510697    0.001777069    0.001654121
     31        1          -0.001617711   -0.001470051   -0.002526651
 -------------------------------------------------------------------
 Cartesian Forces:  Max     0.012141401 RMS     0.003385577

 GradGradGradGradGradGradGradGradGradGradGradGradGradGradGradGradGradGrad
 Berny optimization.
 FormGI is forming the generalized inverse of G from B-inverse, IUseBI=4.
 Internal  Forces:  Max     0.010879253 RMS     0.002009834
 Search for a local minimum.
 Step number   1 out of a maximum of  186
 All quantities printed in internal units (Hartrees-Bohrs-Radians)
 Mixed Optimization -- RFO/linear search
 Second derivative matrix not updated -- first step.
 ITU=  0
     Eigenvalues ---    0.00627   0.00650   0.00729   0.00739   0.01409
     Eigenvalues ---    0.01443   0.01701   0.02701   0.02776   0.03075
     Eigenvalues ---    0.03163   0.04097   0.04251   0.04649   0.04749
     Eigenvalues ---    0.04862   0.04888   0.05123   0.05139   0.05167
     Eigenvalues ---    0.05245   0.05687   0.05739   0.06152   0.06169
     Eigenvalues ---    0.06334   0.06497   0.06979   0.07595   0.07850
     Eigenvalues ---    0.07886   0.07964   0.08009   0.08092   0.08236
     Eigenvalues ---    0.08834   0.09287   0.09300   0.10866   0.11609
     Eigenvalues ---    0.11609   0.11710   0.11765   0.12405   0.12499
     Eigenvalues ---    0.14579   0.14763   0.16277   0.16490   0.17442
     Eigenvalues ---    0.19191   0.21167   0.21948   0.25000   0.28396
     Eigenvalues ---    0.28669   0.28697   0.28877   0.28957   0.29428
     Eigenvalues ---    0.30125   0.30370   0.35072   0.35077   0.35084
     Eigenvalues ---    0.35095   0.35150   0.35192   0.35221   0.35244
     Eigenvalues ---    0.35300   0.35323   0.35364   0.35444   0.35450
     Eigenvalues ---    0.35502   0.35828   0.35842   0.35853   0.35940
     Eigenvalues ---    0.40759   0.41409   0.42276   0.42989   0.43409
     Eigenvalues ---    0.457421000.000001000.000001000.000001000.00000
     Eigenvalues --- 1000.000001000.000001000.000001000.000001000.00000
     Eigenvalues --- 1000.000001000.000001000.000001000.000001000.00000
     Eigenvalues --- 1000.000001000.000001000.000001000.000001000.00000
     Eigenvalues --- 1000.000001000.000001000.000001000.000001000.00000
     Eigenvalues --- 1000.000001000.000001000.000001000.000001000.00000
     Eigenvalues --- 1000.000001000.000001000.000001000.000001000.00000
     Eigenvalues --- 1000.000001000.000001000.000001000.000001000.00000
     Eigenvalues --- 1000.000001000.000001000.000001000.000001000.00000
     Eigenvalues --- 1000.000001000.000001000.000001000.000001000.00000
     Eigenvalues --- 1000.000001000.000001000.000001000.000001000.00000
     Eigenvalues --- 1000.000001000.000001000.000001000.000001000.00000
     Eigenvalues --- 1000.000001000.000001000.000001000.000001000.00000
     Eigenvalues --- 1000.000001000.000001000.000001000.000001000.00000
     Eigenvalues --- 1000.000001000.000001000.000001000.000001000.00000
     Eigenvalues --- 1000.000001000.000001000.000001000.000001000.00000
     Eigenvalues --- 1000.000001000.000001000.000001000.000001000.00000
     Eigenvalues --- 1000.000001000.000001000.000001000.000001000.00000
     Eigenvalues --- 1000.000001000.000001000.000001000.000001000.00000
     Eigenvalues --- 1000.000001000.000001000.000001000.000001000.00000
 RFO step:  Lambda=-3.12891416D-03 EMin= 6.26946182D-03
 Linear search not attempted -- first point.
 Iteration  1 RMS(Cart)=  0.04749133 RMS(Int)=  0.00050939
 Iteration  2 RMS(Cart)=  0.00160278 RMS(Int)=  0.00004761
 Iteration  3 RMS(Cart)=  0.00000079 RMS(Int)=  0.00004761
 Iteration  1 RMS(Cart)=  0.00000431 RMS(Int)=  0.00000101
 Iteration  2 RMS(Cart)=  0.00000238 RMS(Int)=  0.00000113
 Iteration  3 RMS(Cart)=  0.00000132 RMS(Int)=  0.00000128
 Iteration  4 RMS(Cart)=  0.00000073 RMS(Int)=  0.00000138
 Variable       Old X    -DE/DX   Delta X   Delta X   Delta X     New X
                                 (Linear)    (Quad)   (Total)
    R1        2.68772   0.00287   0.00000   0.00654   0.00654   2.69426
    R2        2.87126   0.00013   0.00000   0.00067   0.00069   2.87196
    R3        2.04951   0.00637   0.00000   0.01782   0.01782   2.06733
    R4        2.04311   0.00444   0.00000   0.01228   0.01228   2.05539
    R5        2.65357   0.00315   0.00000   0.00655   0.00655   2.66012
    R6        2.89016  -0.00144   0.00000  -0.00453  -0.00453   2.88563
    R7        2.88865  -0.00084   0.00000  -0.00219  -0.00219   2.88645
    R8        2.05365   0.00342   0.00000   0.00963   0.00963   2.06328
    R9        2.05154   0.00258   0.00000   0.00723   0.00723   2.05877
   R10        2.67691   0.00338   0.00000   0.00789   0.00791   2.68482
   R11        2.66680   0.00305   0.00000   0.00695   0.00698   2.67377
   R12        2.87334  -0.00071   0.00000  -0.00260  -0.00262   2.87072
   R13        2.64423   0.00358   0.00000   0.00777   0.00777   2.65199
   R14        2.04175   0.00805   0.00000   0.02221   0.02221   2.06396
   R15        2.05317   0.00337   0.00000   0.00948   0.00948   2.06265
   R16        2.04960   0.00319   0.00000   0.00891   0.00891   2.05852
   R17        2.89289  -0.00070   0.00000  -0.00243  -0.00245   2.89043
   R18        2.87301   0.00044   0.00000   0.00141   0.00141   2.87442
   R19        2.05191   0.00299   0.00000   0.00839   0.00839   2.06030
   R20        2.05431   0.00315   0.00000   0.00889   0.00889   2.06320
   R21        2.67683   0.00215   0.00000   0.00497   0.00497   2.68180
   R22        2.87474  -0.00227   0.00000  -0.00752  -0.00754   2.86720
   R23        2.05558   0.00377   0.00000   0.01065   0.01065   2.06623
   R24        2.05088   0.00318   0.00000   0.00891   0.00891   2.05979
   R25        2.04351   0.00434   0.00000   0.01201   0.01201   2.05552
   R26        2.05539   0.00608   0.00000   0.01719   0.01719   2.07258
   R27        2.88280   0.00002   0.00000   0.00009   0.00009   2.88289
   R28        2.04868   0.00684   0.00000   0.01911   0.01911   2.06779
   R29        2.04330   0.00521   0.00000   0.01442   0.01442   2.05772
   R30        2.05551   0.00621   0.00000   0.01756   0.01756   2.07306
   R31        2.05281   0.00283   0.00000   0.00797   0.00797   2.06078
   R32        2.05521   0.00327   0.00000   0.00922   0.00922   2.06444
    A1        1.94537   0.00232   0.00000   0.00549   0.00542   1.95079
    A2        1.90898   0.00014   0.00000   0.00126   0.00133   1.91031
    A3        1.84149  -0.00134   0.00000  -0.00218  -0.00218   1.83930
    A4        1.93188  -0.00161   0.00000  -0.00747  -0.00751   1.92437
    A5        1.94586  -0.00026   0.00000  -0.00149  -0.00141   1.94444
    A6        1.88726   0.00077   0.00000   0.00475   0.00473   1.89199
    A7        2.02458  -0.00564   0.00000  -0.03688  -0.03680   1.98779
    A8        1.91340   0.00183   0.00000  -0.00170  -0.00169   1.91172
    A9        1.92226  -0.00092   0.00000  -0.00593  -0.00594   1.91632
   A10        1.91595  -0.00053   0.00000   0.00158   0.00157   1.91752
   A11        1.91439  -0.00084   0.00000  -0.00193  -0.00203   1.91237
   A12        1.93052  -0.00023   0.00000   0.00215   0.00221   1.93272
   A13        1.86692   0.00062   0.00000   0.00593   0.00594   1.87286
   A14        1.97569  -0.00462   0.00000  -0.02755  -0.02746   1.94823
   A15        1.94596   0.00339   0.00000   0.01241   0.01221   1.95817
   A16        1.93638   0.00037   0.00000  -0.00156  -0.00140   1.93498
   A17        1.82994  -0.00230   0.00000  -0.01113  -0.01113   1.81881
   A18        1.90008  -0.00326   0.00000  -0.01555  -0.01546   1.88462
   A19        1.93485   0.00007   0.00000   0.00357   0.00365   1.93850
   A20        1.91613   0.00188   0.00000   0.01305   0.01304   1.92916
   A21        1.95353  -0.00167   0.00000  -0.01492  -0.01506   1.93846
   A22        1.91006   0.00116   0.00000   0.00690   0.00699   1.91705
   A23        1.94763  -0.00027   0.00000  -0.00136  -0.00145   1.94618
   A24        1.87292   0.00011   0.00000   0.00380   0.00380   1.87672
   A25        1.90045   0.00076   0.00000  -0.00030  -0.00027   1.90018
   A26        1.87618  -0.00000   0.00000   0.00694   0.00691   1.88308
   A27        1.93018  -0.00080   0.00000  -0.00591  -0.00596   1.92422
   A28        1.92773  -0.00044   0.00000  -0.00038  -0.00037   1.92736
   A29        1.91876   0.00076   0.00000   0.00106   0.00107   1.91983
   A30        1.90789   0.00075   0.00000   0.00513   0.00515   1.91304
   A31        1.90362  -0.00025   0.00000  -0.00266  -0.00266   1.90096
   A32        1.87467  -0.00000   0.00000   0.00302   0.00301   1.87768
   A33        2.03560  -0.01088   0.00000  -0.04298  -0.04298   1.99262
   A34        1.91858   0.00122   0.00000  -0.00279  -0.00283   1.91575
   A35        1.91604  -0.00013   0.00000   0.00347   0.00345   1.91949
   A36        1.93475   0.00015   0.00000   0.00610   0.00611   1.94086
   A37        1.89640  -0.00107   0.00000  -0.00745  -0.00745   1.88895
   A38        1.91999  -0.00061   0.00000  -0.00341  -0.00338   1.91660
   A39        1.87727   0.00039   0.00000   0.00397   0.00392   1.88119
   A40        1.93693   0.00191   0.00000   0.00884   0.00884   1.94577
   A41        1.85586  -0.00124   0.00000  -0.00408  -0.00408   1.85179
   A42        1.90134   0.00070   0.00000   0.00692   0.00695   1.90829
   A43        1.94470  -0.00032   0.00000  -0.00308  -0.00309   1.94161
   A44        1.93074  -0.00161   0.00000  -0.00966  -0.00968   1.92106
   A45        1.89198   0.00059   0.00000   0.00143   0.00140   1.89338
   A46        1.90519  -0.00089   0.00000  -0.00284  -0.00283   1.90236
   A47        1.90793   0.00067   0.00000   0.00394   0.00395   1.91188
   A48        1.91206   0.00024   0.00000   0.00500   0.00498   1.91705
   A49        1.92069  -0.00010   0.00000  -0.00283  -0.00287   1.91782
   A50        1.91203   0.00033   0.00000  -0.00250  -0.00249   1.90954
   A51        1.90589  -0.00025   0.00000  -0.00071  -0.00072   1.90518
   A52        1.93043   0.00185   0.00000   0.00888   0.00890   1.93934
   A53        1.86516  -0.00088   0.00000   0.00071   0.00072   1.86588
   A54        1.91642   0.00133   0.00000   0.01211   0.01216   1.92858
   A55        1.94279  -0.00052   0.00000  -0.00552  -0.00557   1.93722
   A56        1.91280  -0.00243   0.00000  -0.01632  -0.01639   1.89642
   A57        1.89541   0.00073   0.00000   0.00082   0.00070   1.89610
   A58        1.92336  -0.00107   0.00000  -0.00582  -0.00603   1.91733
   A59        1.90246   0.00064   0.00000   0.00392   0.00398   1.90644
   A60        1.90603   0.00006   0.00000  -0.00136  -0.00130   1.90472
   A61        1.93920  -0.00050   0.00000  -0.00169  -0.00166   1.93754
   A62        1.91615   0.00093   0.00000   0.00167   0.00175   1.91790
   A63        1.87577  -0.00002   0.00000   0.00353   0.00350   1.87926
    D1       -0.99321   0.00039   0.00000  -0.01833  -0.01820  -1.01140
    D2        1.14881  -0.00000   0.00000  -0.02324  -0.02315   1.12566
    D3       -3.10803   0.00025   0.00000  -0.01825  -0.01815  -3.12619
    D4        0.95606   0.00134   0.00000   0.02092   0.02099   0.97705
    D5        3.08848   0.00045   0.00000   0.01766   0.01766   3.10614
    D6       -1.15011   0.00083   0.00000   0.02336   0.02339  -1.12672
    D7       -1.17278   0.00069   0.00000   0.02075   0.02082  -1.15196
    D8        0.95965  -0.00020   0.00000   0.01749   0.01749   0.97714
    D9        3.00424   0.00018   0.00000   0.02318   0.02322   3.02746
   D10        3.00886   0.00099   0.00000   0.02080   0.02085   3.02970
[...]
 379278,0.00000162,-0.00058876,-0.00017956,-0.00133356,-0.00195842,-0.0
 0216601,0.00000221,0.00000134,0.00000481,-0.00000434,0.00000300,0.0000
 0404,-0.00000032,0.00000173,0.00000061,-0.00000012,-0.00000051,-0.0000
 0072,-0.00000203,0.00000133,0.00000063,0.00001941,0.00000418,0.0000147
 4,-0.00000117,-0.00000078,-0.00000026,0.00000037,-0.00000039,-0.000000
 26,0.00010448,-0.00009047,0.00004479,-0.00028524,-0.00061408,0.0006151
 4,-0.00042471,-0.00008771,0.00028334,0.00039811,0.00012013,0.00020268,
 -0.10814346,-0.01482654,0.10518995,-0.00000145,-0.00000095,-0.00000261
 ,0.00000844,0.00000124,0.00000172,0.00000038,0.00000056,-0.00000039,-0
 .00544662,-0.00268443,-0.01989764,0.00000775,0.00000099,0.00002452,-0.
 00000253,-0.00000280,-0.00000288,-0.00183419,0.00917419,-0.01609530,-0
 .00016312,0.00006189,0.00011608,0.00101289,-0.00033463,-0.00125893,-0.
 05781403,0.01095292,-0.01949914,-0.00034809,-0.00007890,0.00017892,0.0
 0203919,0.00176514,-0.00391336,0.00000095,0.00000013,0.00000110,-0.000
 00029,0.00000183,0.00000056,0.00000098,-0.00000033,0.00000039,-0.00000
 127,-0.00000032,0.00000029,-0.00000063,-0.00000025,-0.00000072,0.00000
 519,-0.00000274,-0.00000369,-0.00000077,-0.00000071,0.00000087,-0.0000
 0013,-0.00000043,-0.00000067,0.00055789,-0.00030533,0.00031972,-0.0010
 5289,0.00295760,-0.00006175,-0.00013904,0.00004472,0.00036782,0.000190
 47,-0.00010074,0.00026417,0.00523447,-0.01083476,0.02550124,0.05734159
 ,-0.00000263,-0.00000082,-0.00000013,0.00000169,0.00000363,-0.00000386
 ,0.00000036,-0.00000012,0.00000146,-0.01114101,0.00306057,-0.03095866,
 0.00003003,0.00002851,0.00000653,0.00000501,0.00000345,0.00000722,0.00
 354120,-0.01248304,0.02745399,-0.00010247,0.00023475,0.00014089,-0.001
 33509,0.00099982,0.00030536,0.01087978,-0.08910967,0.09418032,-0.00021
 142,-0.00049178,0.00016034,0.00310404,0.00211054,-0.00332257,0.,-0.000
 00022,-0.00000001,-0.00000336,-0.00000007,0.00000126,0.00000050,0.0000
 0036,-0.00000042,-0.00000069,-0.00000076,-0.00000081,-0.00000060,0.000
 00027,-0.00000064,0.00000943,0.00000153,0.00000215,0.00000274,0.000000
 41,-0.00000141,-0.00000016,0.00000016,-0.00000014,-0.00061697,0.000824
 78,-0.00032126,0.00401909,-0.00423524,-0.00057840,0.00047133,0.0003420
 7,-0.00055984,-0.00019321,0.00002607,-0.00039220,0.00101807,-0.0010054
 8,0.00384452,-0.01032913,0.09987504,0.00003964,-0.00003574,-0.00002186
 ,-0.00011586,0.00007298,-0.00006146,-0.00000262,-0.00001348,-0.0000002
 7,-0.01219895,-0.00753760,-0.02748335,0.00024965,0.00005011,0.00027022
 ,-0.00002076,0.00000581,-0.00003564,0.00151823,0.00067186,0.00150917,-
 0.00069505,0.00002897,-0.00000731,-0.00013829,-0.00054397,0.00054232,-
 0.02286720,0.09155646,-0.25072382,0.00020984,-0.00050637,0.00008204,0.
 00357776,0.00154778,0.00051020,0.00000230,0.00000314,0.00000466,0.0000
 0448,-0.00000563,0.00000149,-0.00000809,0.00000615,-0.00000351,0.00000
 118,-0.00000088,-0.00000589,-0.00000959,0.00000269,0.00000444,0.000013
 55,-0.00000554,-0.00001517,-0.00002166,-0.00000709,0.00000570,0.000001
 33,0.00000061,0.00000159,-0.00040365,0.00081091,0.00022756,0.00056497,
 -0.00040352,0.00118094,-0.00055210,-0.00002746,-0.00002987,-0.00010616
 ,0.00003233,0.00015277,-0.00071945,0.00605090,-0.01055834,0.03301841,-
 0.09109636,0.28333780,-0.00014185,0.00050532,0.00017030,-0.00096786,0.
 00047840,-0.00069677,0.00006241,-0.00002929,0.00004137,0.00189240,-0.0
 0076371,0.00048656,0.00222063,-0.00098357,0.00398865,0.00006822,0.0000
 0917,-0.00026535,0.00065516,0.00047074,-0.00056279,-0.00947884,-0.0155
 3317,0.03600811,-0.00135349,0.00428615,-0.01179992,-0.00014200,-0.0000
 7956,-0.00009419,-0.05739107,0.01574938,-0.04735186,-0.00284446,0.0074
 2641,-0.01848007,0.00000620,-0.00014017,0.00000801,0.00000570,-0.00004
 137,-0.00001370,0.00000739,-0.00002762,-0.00002902,0.00002233,-0.00005
 847,-0.00010450,-0.00004778,0.00000683,-0.00003951,-0.00015185,-0.0001
 4296,-0.00039090,-0.00015618,0.00002424,-0.00003046,0.00006746,0.00013
 161,-0.00008943,0.00009318,-0.00004100,0.00009861,-0.00020567,-0.00027
 653,0.00013994,-0.00056440,-0.00205658,-0.00128887,0.00051639,-0.00016
 726,0.00073987,-0.00003567,0.00001939,-0.00000380,0.00007640,-0.000036
 19,0.00009018,0.06907902,0.00003697,0.00019198,0.00010227,0.00052399,0
 .00041189,-0.00068890,0.00006036,0.00003012,-0.00001635,-0.00109093,0.
 00200225,-0.00154387,0.00033747,0.00063036,0.00303191,0.00006248,-0.00
 028161,-0.00016290,0.00108283,0.00087708,0.00002404,-0.00658856,-0.004
 08232,0.00914830,-0.00462721,0.00761584,-0.02521231,-0.00012712,-0.000
 32848,-0.00024080,0.01485274,-0.07819273,0.07535871,0.00647530,-0.0110
 8165,0.02740597,0.00001903,-0.00005983,-0.00006117,-0.00005317,-0.0000
 7971,-0.00007232,-0.00000416,-0.00002521,-0.00000113,0.00001191,-0.000
 01964,-0.00003090,-0.00000165,-0.00001938,-0.00002193,-0.00014141,-0.0
 0039603,-0.00014650,-0.00006472,0.00001028,-0.00000416,-0.00004039,0.0
 0003532,-0.00003792,0.00024757,-0.00011500,0.00019063,-0.00010783,-0.0
 0016648,0.00042214,-0.00257654,-0.00306742,-0.00324283,0.00062549,0.00
 112580,0.00065703,-0.00000639,0.00009983,0.00001216,-0.00008994,-0.000
 13085,0.00007661,-0.01113078,0.08750999,0.00025598,-0.00037353,-0.0001
 4296,-0.00205665,-0.00139256,0.00151673,-0.00009794,0.00002276,-0.0000
 1427,-0.00130507,-0.00055437,0.00067766,-0.00345408,-0.00047501,-0.002
 83474,0.00009292,0.00018193,0.00013490,0.00039632,0.00046936,0.0002868
 6,0.00951902,0.00808704,-0.01349238,-0.00420289,0.00451831,-0.01793331
 ,-0.00008431,-0.00002150,0.00003378,-0.03810388,0.07727188,-0.27024613
 ,0.00060149,-0.00045989,0.00156335,-0.00006672,0.00005670,0.00004895,0
 .00016512,0.00000519,-0.00005576,0.00000726,0.00000551,-0.00001497,0.0
 0000005,0.00001948,0.00005928,0.00003239,0.,0.00001677,0.00015288,0.00
 022837,0.00057380,0.00013930,0.00003550,-0.00001753,0.00002494,-0.0000
 6448,0.00006779,0.00002377,-0.00021943,0.00035287,-0.00052854,-0.00011
 864,0.00044373,-0.00123672,-0.00237789,-0.00089816,0.00049755,0.000143
 99,0.00078792,-0.00001542,0.00004337,0.00000819,0.00008729,0.00001145,
 -0.00011186,0.03861559,-0.08490503,0.29771183,-0.00005500,0.00007308,0
 .00006960,0.00007532,-0.00011952,0.00002975,0.00006111,0.00007199,-0.0
 0001339,-0.02317207,-0.02955371,-0.01978169,-0.00063091,0.00059735,-0.
 00004749,0.00000961,-0.00026424,-0.00008890,-0.00073259,-0.00040755,-0
 .00029960,0.00210598,-0.00188900,-0.00082988,-0.00318611,0.00349493,-0
 .00026560,-0.00380137,0.00073780,0.00503549,0.00933994,0.01459726,0.01
 303869,-0.07710779,-0.05961134,-0.05135316,-0.00001032,-0.00000653,-0.
 00002386,0.00001564,-0.00000610,-0.00001007,0.00001079,-0.00001655,0.0
 0000221,-0.00000054,-0.00000212,0.00000245,0.00002622,-0.00002313,-0.0
 0002094,-0.00123192,0.00030488,-0.00039932,0.00000149,0.00001061,0.000
 00498,0.00000530,0.00000041,0.00000626,0.00024561,-0.00021205,-0.00004
 563,0.00010590,-0.00001235,-0.00000514,-0.00007509,-0.00011867,-0.0000
 6772,0.00057681,0.00120584,0.00068925,-0.00087613,-0.00150379,-0.00079
 917,0.00008638,0.00017589,-0.00011285,0.00077007,-0.00095157,-0.000352
 08,0.09730643,-0.00000904,-0.00003616,-0.00010732,-0.00005349,0.000284
 77,0.00015495,-0.00006596,-0.00008141,0.00003453,-0.00855407,-0.006023
 88,-0.00311718,0.00016991,-0.00061804,-0.00078928,0.00006029,0.0002624
 7,0.00018565,0.00026999,0.00034864,-0.00016799,0.00028680,0.00181718,0
 .00092552,0.00437959,-0.00277753,0.00136863,0.00016239,0.00158806,0.00
 228107,-0.01052070,-0.01973200,-0.01732167,-0.06531275,-0.18784362,-0.
 11460969,0.00001424,0.00000913,0.00001984,-0.00002514,0.00002600,0.000
 01874,-0.00001148,0.00002825,0.00001484,0.00000046,0.00000552,0.000008
 16,-0.00002202,0.00002696,0.00001955,0.00043653,0.00029022,0.00046243,
 0.00003239,0.00000769,-0.00001821,0.00000624,-0.00002169,0.00001040,-0
 .00008011,-0.00005099,-0.00001813,-0.00006387,-0.00001250,0.00008239,0
 .00000851,0.00011685,-0.00013123,-0.00064653,-0.00120271,-0.00096028,-
 0.00019120,-0.00019543,-0.00033186,-0.00004976,-0.00003055,-0.00032745
 ,-0.00047110,0.00114357,0.00036568,0.07564264,0.20322523,-0.00001845,0
 .00002287,-0.00004009,0.00000231,0.00018638,0.00012742,-0.00000868,-0.
 00001405,0.00001092,0.00783896,0.01226755,0.01016941,-0.00005711,-0.00
 051656,-0.00054687,0.00004112,0.00002193,0.00004979,0.00026889,0.00027
 132,0.00000335,0.00059415,0.00000085,-0.00004105,0.00035457,-0.0004121
 5,0.00082337,0.00183924,0.00080006,-0.00041541,-0.00034925,0.00249587,
 0.00099465,-0.06036854,-0.11991754,-0.15356373,0.00000429,0.00000299,0
 .00000223,-0.00000852,0.00000777,0.00000563,-0.00000382,0.00001205,0.0
 0001003,-0.00000082,0.00000596,0.00000673,-0.00000053,0.00000520,0.000
 00510,-0.00041580,0.00025709,0.00026002,0.00001011,0.00001127,-0.00000
 585,0.,0.00000163,-0.00000126,-0.00011913,0.00003564,-0.00002068,-0.00
 000670,-0.00002526,-0.00000173,0.00009905,0.00029495,0.00041142,-0.000
 22791,-0.00024806,0.00016794,0.00029529,0.00016483,0.00046037,0.000230
 96,0.00006357,0.00047875,0.00062579,-0.00022906,0.00055209,0.05897915,
 0.12538045,0.15595094,0.00009280,-0.00014632,-0.00008182,-0.00047298,-
 0.00001095,0.00010688,-0.00001974,-0.00002670,-0.00000284,-0.01198205,
 -0.01839865,0.03668936,0.00011701,-0.00004477,-0.00024842,-0.00002836,
 0.00006689,-0.00001192,-0.00038002,-0.00021831,-0.00046872,0.00197356,
 -0.00056257,-0.00019961,0.00042704,-0.00131452,-0.00026766,0.00325485,
 0.00231721,0.00519619,-0.00279324,0.00874268,-0.01977999,-0.05236413,0
 .01057864,-0.03511669,-0.00000893,0.00002928,0.00001714,0.00003252,-0.
 00000041,0.00000390,-0.00001525,0.00001743,-0.00000050,0.00000363,0.00
 000360,-0.00000053,-0.00001299,0.00000697,0.00001255,0.00007668,0.0000
 8055,0.00007248,-0.00001569,-0.00000548,0.00000294,0.00000367,-0.00001
 215,0.00000972,0.00022185,-0.00017113,-0.00012529,-0.00012707,0.000080
 71,-0.00003942,0.00025389,0.00002935,0.00053923,-0.00008230,-0.0001950
 7,0.00021806,0.00001427,0.00024316,-0.00020886,0.00024134,0.00071359,-
 0.00131085,-0.00210695,0.00326469,0.00090007,0.00012694,0.00461260,-0.
 00959776,0.06358685,-0.00009333,0.00012082,0.00002320,0.00023743,0.000
 20150,-0.00013715,-0.00000190,-0.00000466,0.00001379,-0.00711639,-0.00
 196194,0.00849276,-0.00015187,-0.00024202,-0.00009119,0.00002613,0.000
 04408,0.00005015,-0.00010006,-0.00027620,-0.00022438,-0.00150402,0.001
 38006,-0.00131356,-0.00017877,0.00144711,0.00140425,0.00078757,0.00039
 241,0.00262031,0.00603223,-0.01211274,0.02774826,0.01126372,-0.0824005
 7,0.07494925,0.00000662,-0.00001667,-0.00001078,-0.00003660,0.00000425
 ,0.00000365,0.00000610,-0.00000179,0.00000794,-0.00000448,0.00000231,0
 .00000159,0.00000318,0.00000249,-0.00000120,-0.00002738,0.00005287,0.0
 0006392,0.00001556,0.00000341,-0.00000475,0.00000462,-0.00000304,0.000
 00129,-0.00001783,-0.00005031,-0.00004542,0.00003605,0.00011503,-0.000
 06960,-0.00001018,-0.00030226,-0.00073437,0.00003302,0.00036824,-0.000
 37672,-0.00000661,0.00006117,-0.00024336,-0.00014522,-0.00002348,-0.00
 040690,0.00281991,-0.00364058,-0.00048479,-0.00220840,0.00944287,-0.02
 094817,-0.00967742,0.08739612,0.00003901,-0.00005069,-0.00002834,-0.00
 002721,0.00013414,0.00001717,-0.00002291,-0.00004159,0.00000984,0.0130
 2608,0.00820073,-0.01380374,0.00022674,-0.00012524,0.00010010,-0.00002
 777,0.00008596,-0.00000710,0.00032204,0.00004946,0.00010306,-0.0014034
 2,-0.00070920,0.00115198,0.00021871,-0.00051695,0.00082575,-0.00181689
 ,-0.00253997,0.00119434,0.00049688,-0.00008966,-0.00262552,-0.03265019
 ,0.07747860,-0.26138802,0.00000786,0.00000748,0.00000938,-0.00000489,-
 0.00000085,0.00000509,-0.00001188,0.00001245,-0.00000248,0.00000160,0.
 00000083,-0.00000666,-0.00001824,0.00001049,0.00001099,0.00007915,0.00
 008469,0.00005288,-0.00002148,-0.00001225,0.00000574,-0.00001707,-0.00
 000219,0.00000517,-0.00001167,0.00014759,0.00002243,-0.00013950,-0.000
 02016,-0.00018355,0.00038354,0.00036232,0.00033861,-0.00009013,0.00002
 313,0.00016485,0.00023594,-0.00003411,0.00046581,0.00062335,0.00105808
 ,0.00074715,0.00027877,0.00019566,0.00087980,-0.00334548,0.00657059,-0
 .01585245,0.02368106,-0.09028044,0.28778749,-0.00872228,0.02227546,0.0
 1128816,-0.00631575,-0.00014245,0.00424341,-0.00417427,0.00556034,0.00
 317800,-0.00008557,0.00000426,0.00000321,0.00115805,-0.00158909,0.0011
 5560,0.00076460,0.00066032,-0.00161525,0.00000594,-0.00001547,-0.00002
 856,-0.00055784,-0.00002054,-0.00034062,-0.00003637,0.00002834,0.00002
 629,0.00001950,0.00001092,0.00002638,0.00024116,0.00007270,-0.00007390
 ,0.00004003,-0.00004190,-0.00000861,-0.09579850,0.08179061,0.05628341,
 0.00066870,-0.00000004,-0.00105458,0.00080888,-0.00030429,0.00001631,0
 .00008772,-0.00017728,0.00028299,0.00030834,-0.00023366,-0.00030143,-0
 .00002064,0.00016238,-0.00012063,-0.00005972,0.00026339,0.00025013,0.0
 0004863,0.00028371,0.00034838,-0.00001671,-0.00000584,0.00000110,-0.00
 000105,0.00000139,0.00000327,-0.00000506,-0.00000502,-0.00001318,0.000
 00456,-0.00000263,0.00000240,-0.00000742,-0.00000101,-0.00000081,0.000
 00035,-0.00000016,-0.00000546,0.00003455,0.00001616,-0.00001962,0.0000
 0963,-0.00000770,-0.00000148,-0.00001497,0.00000784,-0.00000880,0.1015
 3956,-0.00378252,0.00902999,0.00531970,-0.00319529,0.00136621,0.002195
 15,0.00979194,-0.01766753,-0.01321714,0.00004710,-0.00000327,-0.000001
 51,-0.00082888,-0.00080784,0.00087122,0.00104445,-0.00268430,0.0050136
 0,-0.00000053,0.00001041,0.00001902,0.00025700,0.00016467,-0.00019656,
 0.00003572,0.00000014,-0.00003191,-0.00000858,-0.00000474,-0.00001287,
 -0.00013229,-0.00002637,0.00008736,-0.00001698,0.00002956,-0.00000774,
 0.08344925,-0.19819706,-0.10281930,0.00052600,0.00043135,-0.00050334,0
 .00089490,0.00017404,-0.00028073,-0.00005754,0.00112961,0.00004109,-0.
 00069248,0.00058648,-0.00041315,0.00007261,0.00019490,-0.00019377,-0.0
 0027309,0.00028370,0.00014119,0.00115881,-0.00100419,-0.00091975,0.000
 00986,0.00000333,-0.00000103,0.00000059,0.,-0.00000187,0.00000019,-0.0
 0000318,0.00000170,-0.00000472,-0.00000241,-0.00000044,0.00000388,0.00
 000001,0.00000050,-0.00000009,-0.00000010,0.00000278,0.00002186,0.0000
 0747,-0.00001912,-0.00000695,0.00000264,0.00000070,0.00000098,0.000000
 20,0.00000314,-0.09233533,0.21489131,0.00271072,-0.01302869,-0.0077796
 8,0.00537737,-0.00012954,-0.00128326,-0.01054537,0.01718247,0.01225723
 ,0.00003678,-0.00000232,-0.00000282,-0.00044742,0.00140659,-0.00141010
 ,-0.00098229,0.00333130,-0.00282679,-0.00000468,0.00000012,0.00001178,
 0.00030898,-0.00012990,0.00034789,0.00000527,-0.00001215,-0.00000118,-
 0.00000840,-0.00000253,-0.00001261,-0.00011121,-0.00002743,-0.00000723
 ,-0.00002306,0.00001408,0.00001677,0.05798504,-0.10298779,-0.11664376,
 0.00000438,0.00022534,0.00059680,-0.00063741,0.00018085,0.00005306,0.0
 0021789,-0.00090325,0.00094804,0.00050617,-0.00093953,0.00075911,-0.00
 004235,-0.00023585,0.00011349,0.00006332,0.00013397,0.00007691,-0.0006
 7169,0.00099330,0.00062356,0.00000717,0.00000292,0.00000008,0.00000030
 ,-0.00000063,-0.00000183,0.00000518,0.00000528,0.00000873,-0.00000595,
 -0.00000497,-0.00000192,0.00000404,-0.00000051,0.00000009,-0.00000035,
 -0.00000014,0.00000274,-0.00003600,-0.00001350,0.00003257,-0.00000049,
 0.00000204,-0.00000018,0.00001174,-0.00000732,0.00000395,-0.06316394,0
 .10980438,0.12498068,-0.02092992,-0.01181047,-0.01886096,0.00280673,0.
 00086692,-0.00032057,-0.00521133,-0.00221948,-0.00535074,-0.00003918,0
 .00000807,0.00000444,-0.00025488,-0.00010670,-0.00004343,-0.00004931,-
 0.00050263,-0.00013391,-0.00000012,0.00002284,-0.00002088,-0.00006666,
 0.00022674,0.00003557,0.00000461,-0.00005895,0.00001559,-0.00000118,-0
 .00001001,0.00001398,0.00021237,-0.00000774,-0.00006037,0.00002013,-0.
 00002153,0.00000956,-0.16036889,-0.05518263,-0.11388875,-0.00364330,-0
 .00179180,0.00312155,0.00131772,0.00044708,0.00023657,0.00067477,0.001
 14232,-0.00084035,0.00058224,0.00032454,0.00020525,-0.00008098,0.00003
 821,-0.00000347,-0.00022695,0.00036220,0.00011056,0.00013158,0.0001137
 3,0.00012079,-0.00000854,-0.00000401,-0.00000022,-0.00000154,-0.000000
 92,0.00000368,-0.00001025,0.00001352,-0.00000585,0.00002391,0.00005491
 ,0.00001257,-0.00000670,0.00000478,0.00000110,0.00000040,0.00000033,-0
 .00000294,0.00001057,-0.00001465,0.00001198,0.00000068,0.00000236,0.00
 000060,-0.00000224,0.00000052,-0.00000320,0.01007595,0.00402014,0.0094
 3627,0.17504030,-0.00868358,-0.00697017,-0.00947950,0.00108785,0.00158
 912,0.00077935,0.01752776,0.00772520,0.01805114,-0.00002313,0.00000131
 ,0.00000229,0.00016087,-0.00045731,0.00038662,-0.00002850,0.00161968,0
 .00042521,0.00000076,0.00000866,-0.00001388,-0.00023627,0.00017610,-0.
 00014590,-0.00000231,-0.00003286,0.00001332,0.00000053,-0.00000477,0.0
 0000961,0.00014323,-0.00003271,-0.00010873,0.00001718,-0.00000661,-0.0
 0000248,-0.05662367,-0.07777769,-0.05971401,-0.00217726,0.00028242,0.0
 0194411,0.00039122,0.00012915,-0.00027782,0.00177526,-0.00331138,0.003
 23974,-0.00052424,0.00106278,-0.00076924,-0.00000743,0.00007422,-0.000
 07104,-0.00028072,-0.00024182,-0.00031506,-0.00036854,0.00007588,-0.00
 005838,-0.00000644,-0.00000309,0.00000019,-0.00000127,-0.00000050,0.00
 000231,-0.00000909,0.00000956,-0.00000359,0.00001800,0.00003010,0.0000
 0962,-0.00000425,0.00000254,0.00000080,0.00000023,0.00000019,-0.000002
 12,0.00002992,-0.00000485,-0.00000026,0.00000089,0.00000045,-0.0000000
 8,-0.00000392,0.00000132,-0.00000207,-0.01625540,-0.00790504,-0.014856
 61,0.06408232,0.08396012,0.01307561,0.00648748,0.01118316,-0.00190606,
 0.00076921,0.00090331,-0.01423274,-0.00645069,-0.01675761,-0.00003148,
 0.00000212,0.00000096,0.00015793,0.00009824,0.00002525,0.00075394,-0.0
 0096031,0.00069461,0.00000242,-0.00002035,-0.00000316,-0.00024425,-0.0
 0015730,0.00002242,-0.00001187,0.00003477,0.00000687,0.00001082,0.0000
 0982,0.00000546,0.00006405,0.00009367,-0.00001180,0.00000334,-0.000019
 51,0.00000679,-0.11560881,-0.06056539,-0.16574755,0.00333157,0.0008622
 4,-0.00077429,-0.00083240,-0.00036800,0.00097729,-0.00087817,0.0039899
 9,-0.00159439,0.00052041,-0.00037894,0.00052826,-0.00010865,-0.0000409
 3,0.00004178,-0.00018171,0.00041668,0.00054013,0.00029986,0.00015993,0
 .00013241,-0.00000364,-0.00000102,0.00000079,-0.00000041,0.00000050,0.
 00000031,0.00000435,-0.00000666,0.00000163,-0.00001662,-0.00002834,-0.
 00001023,-0.00000046,-0.00000283,-0.00000072,0.00000002,-0.00000029,-0
 .00000120,-0.00001462,0.00000615,0.00001323,0.00000461,-0.00000516,-0.
 00000087,-0.00000043,-0.00000024,-0.00000371,-0.01035219,-0.00488129,-
 0.01086212,0.12619558,0.06095643,0.18068299\\0.00000375,0.00003402,-0.
 00000257,-0.00001567,0.00002858,-0.00000418,-0.00001328,-0.00000043,0.
 00001744,-0.00001902,-0.00000345,0.00000882,0.00000321,0.00001455,0.00
 002271,0.00000774,0.00000787,-0.00000175,-0.00000117,0.00000311,0.0000
 0552,0.00001134,-0.00013621,-0.00003670,-0.00006314,0.00009478,-0.0000
 5853,0.00003872,0.00001214,0.00000933,0.00008266,-0.00005215,0.0000570
 1,-0.00001806,-0.00002295,-0.00000481,-0.00000163,0.00001036,0.0000069
 1,-0.00000677,-0.00001007,-0.00000917,0.00000088,0.00000469,0.00001117
 ,-0.00000312,-0.00000250,-0.00000588,0.00000980,0.00000044,-0.00000080
 ,-0.00000866,0.00002347,0.00001117,-0.00000399,0.00000468,-0.00000038,
 -0.00001075,0.00000526,-0.00000785,0.00000345,-0.00000061,-0.00000953,
 0.00000146,-0.00000342,0.00000227,0.00000156,0.00000348,-0.00000988,0.
 00000551,-0.00000697,0.00000439,-0.00000543,-0.00000098,0.00000427,-0.
 00000387,-0.00000192,-0.00002006,0.00000057,-0.00000588,0.00002167,-0.
 00000250,0.00000156,0.00000513,0.00000183,0.00000219,-0.00001942,-0.00
 000238,-0.00000510,-0.00000157,0.00000696,0.00000146,0.00000527\\\@


 The most important thing in communication is to hear what isn't being said.
 -- Peter F. Drucker
 Job cpu time:       0 days 13 hours 49 minutes 11.0 seconds.
 Elapsed time:       0 days  0 hours 51 minutes 51.0 seconds.
 File lengths (MBytes):  RWF=    690 Int=      0 D2E=      0 Chk=     33 Scr=      1
 Normal termination of Gaussian 16 at Sun Nov  4 22:46:58 2018.
