 Entering Gaussian System, Link 0=g16
 Initial command:
 /sw/Projects/G16/g16/l1.exe "/nvme/pbs/tmpdir/pbs.74203[7].flm1/Gau-25871.inp" -scrdir="/nvme/pbs/tmpdir/pbs.74203[7].flm1/"
 Entering Link 1 = /sw/Projects/G16/g16/l1.exe PID=     25872.
  
 Copyright (c) 1988-2017, Gaussian, Inc.  All Rights Reserved.
  
 This is part of the Gaussian(R) 16 program.  It is based on
 the Gaussian(R) 09 system (copyright 2009, Gaussian, Inc.),
 the Gaussian(R) 03 system (copyright 2003, Gaussian, Inc.),
 the Gaussian(R) 98 system (copyright 1998, Gaussian, Inc.),
 the Gaussian(R) 94 system (copyright 1995, Gaussian, Inc.),
 the Gaussian 92(TM) system (copyright 1992, Gaussian, Inc.),
 the Gaussian 90(TM) system (copyright 1990, Gaussian, Inc.),
 the Gaussian 88(TM) system (copyright 1988, Gaussian, Inc.),
 the Gaussian 86(TM) system (copyright 1986, Carnegie Mellon
 University), and the Gaussian 82(TM) system (copyright 1983,
 Carnegie Mellon University). Gaussian is a federally registered
 trademark of Gaussian, Inc.
  
 This software contains proprietary and confidential information,
 including trade secrets, belonging to Gaussian, Inc.
  
 This software is provided under written license and may be
 used, copied, transmitted, or stored only in accord with that
 written license.
  
 The following legend is applicable only to US Government
 contracts under FAR:
  
                    RESTRICTED RIGHTS LEGEND
  
 Use, reproduction and disclosure by the US Government is
 subject to restrictions as set forth in subparagraphs (a)
 and (c) of the Commercial Computer Software - Restricted
 Rights clause in FAR 52.227-19.
  
 Gaussian, Inc.
 340 Quinnipiac St., Bldg. 40, Wallingford CT 06492
  
  
 ---------------------------------------------------------------
 Warning -- This program may not be used in any manner that
 competes with the business of Gaussian, Inc. or will provide
 assistance to any competitor of Gaussian, Inc.  The licensee
 of this program is prohibited from giving any competitor of
 Gaussian, Inc. access to this program.  By using this program,
 the user acknowledges that Gaussian, Inc. is engaged in the
 business of creating and licensing software in the field of
 computational chemistry and represents and warrants to the
 licensee that it is not a competitor of Gaussian, Inc. and that
 it will not use this program in any manner prohibited above.
 ---------------------------------------------------------------
  

 Cite this work as:
 Gaussian 16, Revision B.01,
 M. J. Frisch, G. W. Trucks, H. B. Schlegel, G. E. Scuseria, 
 M. A. Robb, J. R. Cheeseman, G. Scalmani, V. Barone, 
 G. A. Petersson, H. Nakatsuji, X. Li, M. Caricato, A. V. Marenich, 
 J. Bloino, B. G. Janesko, R. Gomperts, B. Mennucci, H. P. Hratchian, 
 J. V. Ortiz, A. F. Izmaylov, J. L. Sonnenberg, D. Williams-Young, 
 F. Ding, F. Lipparini, F. Egidi, J. Goings, B. Peng, A. Petrone, 
 T. Henderson, D. Ranasinghe, V. G. Zakrzewski, J. Gao, N. Rega, 
 G. Zheng, W. Liang, M. Hada, M. Ehara, K. Toyota, R. Fukuda, 
 J. Hasegawa, M. Ishida, T. Nakajima, Y. Honda, O. Kitao, H. Nakai, 
 T. Vreven, K. Throssell, J. A. Montgomery, Jr., J. E. Peralta, 
 F. Ogliaro, M. J. Bearpark, J. J. Heyd, E. N. Brothers, K. N. Kudin, 
 V. N. Staroverov, T. A. Keith, R. Kobayashi, J. Normand, 
 K. Raghavachari, A. P. Rendell, J. C. Burant, S. S. Iyengar, 
 J. Tomasi, M. Cossi, J. M. Millam, M. Klene, C. Adamo, R. Cammi, 
 J. W. Ochterski, R. L. Martin, K. Morokuma, O. Farkas, 
 J. B. Foresman, and D. J. Fox, Gaussian, Inc., Wallingford CT, 2016.
 
 ******************************************
 Gaussian 16:  ES64L-G16RevB.01 20-Dec-2017
                 8-Mar-2019 
 ******************************************
 %mem=20gb
 %nproc=12
 Will use up to   12 processors via shared memory.
 %chk=4c1_a1_a4_4c1_PSI.inp_extract_7.chk
 ----------------------------------------------------------------------
 #M062X/6-311++G(2d,2p) opt=ModRedundant freq=noraman SCRF=(SMD,solvent
 =water)
 ----------------------------------------------------------------------
 1/18=120,19=15,26=3,38=1/1,3;
 2/9=110,12=2,17=6,18=5,40=1/2;
 3/5=4,6=6,7=1212,11=2,25=1,30=1,70=32201,71=1,72=1,74=-55/1,2,3;
 4//1;
 5/5=2,38=5,53=1/2;
 6/7=2,8=2,9=2,10=2,28=1/1;
 7//1,2,3,16;
 1/18=20,19=15,26=3/3(2);
 2/9=110/2;
 99//99;
 2/9=110/2;
 3/5=4,6=6,7=1212,11=2,25=1,30=1,70=32205,71=1,72=1,74=-55/1,2,3;
 4/5=5,16=3,69=1/1;
 5/5=2,38=5,53=1/2;
 7//1,2,3,16;
 1/18=20,19=15,26=3/3(-5);
 2/9=110/2;
 6/7=2,8=2,9=2,10=2,19=2,28=1/1;
 99/9=1/99;
 -------------------------------
 4c1_a1_a4_4c1_PSI.inp_extract_7
 -------------------------------
 Symbolic Z-matrix:
 Charge =  0 Multiplicity = 1
 C                    -1.77152  -0.36579  -1.2961 
 C                     1.09097  -0.70744  -0.74966 
 C                    -1.23233  -1.25428  -0.17684 
 C                     2.94662   1.13316   0.50121 
 C                    -2.82415   1.15348   0.17906 
 O                    -1.93895   0.98     -0.91063 
 C                     2.96539  -0.339     0.91162 
 C                     1.56388   1.5176    0.00224 
 C                     2.44039  -1.19702  -0.23998 
 C                    -2.31808   0.40919   1.40228 
 O                     1.13196   0.6619   -1.04745 
 O                     0.11779  -1.00545   0.20839 
 C                    -2.09965  -1.06573   1.06627 
 H                    -2.73279  -0.77869  -1.59429 
 H                    -1.13181  -0.36263  -2.16468 
 H                     0.84919  -1.19492  -1.68277 
 H                    -1.29158  -2.2809   -0.52458 
 H                     3.674     1.30434  -0.28905 
 H                     3.21354   1.77602   1.3353 
 H                    -2.88437   2.21862   0.35664 
 H                    -3.81229   0.79716  -0.10527 
 H                     2.34914  -0.48047   1.79566 
 H                     3.97185  -0.65061   1.17385 
 H                     1.55654   2.51456  -0.41624 
 H                     0.84415   1.48663   0.81228 
 H                     3.13796  -1.14766  -1.0719 
 H                     2.34928  -2.23893   0.04744 
 H                    -3.04114   0.50425   2.20732 
 H                    -1.39314   0.86403   1.74244 
 H                    -1.65273  -1.59302   1.90298 
 H                    -3.06137  -1.53441   0.87181 
 
 The following ModRedundant input section has been read:
 D      13       3      12       2 F                                           
 

 GradGradGradGradGradGradGradGradGradGradGradGradGradGradGradGradGradGrad
 Berny optimization.
 Initialization pass.
                           ----------------------------
                           !    Initial Parameters    !
                           ! (Angstroms and Degrees)  !
 --------------------------                            --------------------------
 ! Name  Definition              Value          Derivative Info.                !
 --------------------------------------------------------------------------------
 ! R1    R(1,3)                  1.5274         estimate D2E/DX2                !
 ! R2    R(1,6)                  1.4099         estimate D2E/DX2                !
 ! R3    R(1,14)                 1.0879         estimate D2E/DX2                !
 ! R4    R(1,15)                 1.0787         estimate D2E/DX2                !
 ! R5    R(2,9)                  1.5233         estimate D2E/DX2                !
 ! R6    R(2,11)                 1.4019         estimate D2E/DX2                !
 ! R7    R(2,12)                 1.3978         estimate D2E/DX2                !
 ! R8    R(2,16)                 1.0802         estimate D2E/DX2                !
 ! R9    R(3,12)                 1.4259         estimate D2E/DX2                !
 ! R10   R(3,13)                 1.5275         estimate D2E/DX2                !
 ! R11   R(3,17)                 1.0855         estimate D2E/DX2                !
 ! R12   R(4,7)                  1.5284         estimate D2E/DX2                !
 ! R13   R(4,8)                  1.5195         estimate D2E/DX2                !
 ! R14   R(4,18)                 1.0876         estimate D2E/DX2                !
 ! R15   R(4,19)                 1.0864         estimate D2E/DX2                !
 ! R16   R(5,6)                  1.4146         estimate D2E/DX2                !
 ! R17   R(5,10)                 1.5187         estimate D2E/DX2                !
 ! R18   R(5,20)                 1.0815         estimate D2E/DX2                !
 ! R19   R(5,21)                 1.0882         estimate D2E/DX2                !
 ! R20   R(7,9)                  1.5291         estimate D2E/DX2                !
 ! R21   R(7,22)                 1.0869         estimate D2E/DX2                !
 ! R22   R(7,23)                 1.0857         estimate D2E/DX2                !
 ! R23   R(8,11)                 1.4215         estimate D2E/DX2                !
 ! R24   R(8,24)                 1.0813         estimate D2E/DX2                !
 ! R25   R(8,25)                 1.084          estimate D2E/DX2                !
 ! R26   R(9,26)                 1.0868         estimate D2E/DX2                !
 ! R27   R(9,27)                 1.0847         estimate D2E/DX2                !
 ! R28   R(10,13)                1.5284         estimate D2E/DX2                !
 ! R29   R(10,28)                1.0862         estimate D2E/DX2                !
 ! R30   R(10,29)                1.0854         estimate D2E/DX2                !
 ! R31   R(13,30)                1.0853         estimate D2E/DX2                !
 ! R32   R(13,31)                1.0874         estimate D2E/DX2                !
 ! A1    A(3,1,6)              113.3808         estimate D2E/DX2                !
 ! A2    A(3,1,14)             106.9786         estimate D2E/DX2                !
 ! A3    A(3,1,15)             112.4828         estimate D2E/DX2                !
 ! A4    A(6,1,14)             109.4084         estimate D2E/DX2                !
 ! A5    A(6,1,15)             106.7242         estimate D2E/DX2                !
 ! A6    A(14,1,15)            107.7226         estimate D2E/DX2                !
 ! A7    A(9,2,11)             111.0446         estimate D2E/DX2                !
 ! A8    A(9,2,12)             108.5972         estimate D2E/DX2                !
 ! A9    A(9,2,16)             110.0151         estimate D2E/DX2                !
 ! A10   A(11,2,12)            111.9751         estimate D2E/DX2                !
 ! A11   A(11,2,16)            105.2987         estimate D2E/DX2                !
 ! A12   A(12,2,16)            109.8789         estimate D2E/DX2                !
 ! A13   A(1,3,12)             115.5138         estimate D2E/DX2                !
 ! A14   A(1,3,13)             108.9131         estimate D2E/DX2                !
 ! A15   A(1,3,17)             107.2255         estimate D2E/DX2                !
 ! A16   A(12,3,13)            107.231          estimate D2E/DX2                !
 ! A17   A(12,3,17)            107.6535         estimate D2E/DX2                !
 ! A18   A(13,3,17)            110.2704         estimate D2E/DX2                !
 ! A19   A(7,4,8)              110.0634         estimate D2E/DX2                !
 ! A20   A(7,4,18)             109.7851         estimate D2E/DX2                !
 ! A21   A(7,4,19)             111.1483         estimate D2E/DX2                !
 ! A22   A(8,4,18)             109.2798         estimate D2E/DX2                !
 ! A23   A(8,4,19)             109.0261         estimate D2E/DX2                !
 ! A24   A(18,4,19)            107.4823         estimate D2E/DX2                !
 ! A25   A(6,5,10)             110.5997         estimate D2E/DX2                !
 ! A26   A(6,5,20)             106.3854         estimate D2E/DX2                !
 ! A27   A(6,5,21)             109.0734         estimate D2E/DX2                !
 ! A28   A(10,5,20)            111.653          estimate D2E/DX2                !
 ! A29   A(10,5,21)            110.6443         estimate D2E/DX2                !
 ! A30   A(20,5,21)            108.3492         estimate D2E/DX2                !
 ! A31   A(1,6,5)              113.7018         estimate D2E/DX2                !
 ! A32   A(4,7,9)              109.5136         estimate D2E/DX2                !
 ! A33   A(4,7,22)             109.6829         estimate D2E/DX2                !
 ! A34   A(4,7,23)             110.6512         estimate D2E/DX2                !
 ! A35   A(9,7,22)             110.1738         estimate D2E/DX2                !
 ! A36   A(9,7,23)             109.824          estimate D2E/DX2                !
 ! A37   A(22,7,23)            106.9657         estimate D2E/DX2                !
 ! A38   A(4,8,11)             111.5125         estimate D2E/DX2                !
 ! A39   A(4,8,24)             111.5039         estimate D2E/DX2                !
 ! A40   A(4,8,25)             110.584          estimate D2E/DX2                !
 ! A41   A(11,8,24)            105.4966         estimate D2E/DX2                !
 ! A42   A(11,8,25)            109.4423         estimate D2E/DX2                !
 ! A43   A(24,8,25)            108.1222         estimate D2E/DX2                !
 ! A44   A(2,9,7)              112.0744         estimate D2E/DX2                !
 ! A45   A(2,9,26)             107.3308         estimate D2E/DX2                !
 ! A46   A(2,9,27)             108.8438         estimate D2E/DX2                !
 ! A47   A(7,9,26)             109.3081         estimate D2E/DX2                !
 ! A48   A(7,9,27)             111.61           estimate D2E/DX2                !
 ! A49   A(26,9,27)            107.48           estimate D2E/DX2                !
 ! A50   A(5,10,13)            110.0901         estimate D2E/DX2                !
 ! A51   A(5,10,28)            109.4046         estimate D2E/DX2                !
 ! A52   A(5,10,29)            109.3303         estimate D2E/DX2                !
 ! A53   A(13,10,28)           110.0303         estimate D2E/DX2                !
 ! A54   A(13,10,29)           110.5791         estimate D2E/DX2                !
 ! A55   A(28,10,29)           107.3555         estimate D2E/DX2                !
 ! A56   A(2,11,8)             116.1037         estimate D2E/DX2                !
 ! A57   A(2,12,3)             120.7484         estimate D2E/DX2                !
 ! A58   A(3,13,10)            112.2836         estimate D2E/DX2                !
 ! A59   A(3,13,30)            109.49           estimate D2E/DX2                !
 ! A60   A(3,13,31)            107.6648         estimate D2E/DX2                !
 ! A61   A(10,13,30)           110.9905         estimate D2E/DX2                !
 ! A62   A(10,13,31)           109.1993         estimate D2E/DX2                !
 ! A63   A(30,13,31)           107.0181         estimate D2E/DX2                !
 ! D1    D(6,1,3,12)           -68.8476         estimate D2E/DX2                !
 ! D2    D(6,1,3,13)            51.8492         estimate D2E/DX2                !
 ! D3    D(6,1,3,17)           171.1668         estimate D2E/DX2                !
 ! D4    D(14,1,3,12)          170.4534         estimate D2E/DX2                !
 ! D5    D(14,1,3,13)          -68.8498         estimate D2E/DX2                !
 ! D6    D(14,1,3,17)           50.4679         estimate D2E/DX2                !
 ! D7    D(15,1,3,12)           52.3657         estimate D2E/DX2                !
 ! D8    D(15,1,3,13)          173.0625         estimate D2E/DX2                !
 ! D9    D(15,1,3,17)          -67.6199         estimate D2E/DX2                !
 ! D10   D(3,1,6,5)            -59.0872         estimate D2E/DX2                !
 ! D11   D(14,1,6,5)            60.2288         estimate D2E/DX2                !
 ! D12   D(15,1,6,5)           176.5158         estimate D2E/DX2                !
 ! D13   D(11,2,9,7)            51.9479         estimate D2E/DX2                !
 ! D14   D(11,2,9,26)          -68.0733         estimate D2E/DX2                !
 ! D15   D(11,2,9,27)          175.8881         estimate D2E/DX2                !
 ! D16   D(12,2,9,7)           -71.5907         estimate D2E/DX2                !
 ! D17   D(12,2,9,26)          168.3881         estimate D2E/DX2                !
 ! D18   D(12,2,9,27)           52.3495         estimate D2E/DX2                !
 ! D19   D(16,2,9,7)           168.1179         estimate D2E/DX2                !
 ! D20   D(16,2,9,26)           48.0967         estimate D2E/DX2                !
 ! D21   D(16,2,9,27)          -67.9419         estimate D2E/DX2                !
 ! D22   D(9,2,11,8)           -54.995          estimate D2E/DX2                !
 ! D23   D(12,2,11,8)           66.588          estimate D2E/DX2                !
 ! D24   D(16,2,11,8)         -174.0369         estimate D2E/DX2                !
 ! D25   D(9,2,12,3)          -150.6591         estimate D2E/DX2                !
 ! D26   D(11,2,12,3)           86.3614         estimate D2E/DX2                !
 ! D27   D(16,2,12,3)          -30.2832         estimate D2E/DX2                !
 ! D28   D(1,3,12,2)           -39.2373         estimate D2E/DX2                !
 ! D29   D(13,3,12,2)         -160.8422         Frozen                          !
 ! D30   D(17,3,12,2)           80.5142         estimate D2E/DX2                !
 ! D31   D(1,3,13,10)          -49.0585         estimate D2E/DX2                !
 ! D32   D(1,3,13,30)         -172.8168         estimate D2E/DX2                !
 ! D33   D(1,3,13,31)           71.1726         estimate D2E/DX2                !
 ! D34   D(12,3,13,10)          76.6014         estimate D2E/DX2                !
 ! D35   D(12,3,13,30)         -47.1569         estimate D2E/DX2                !
 ! D36   D(12,3,13,31)        -163.1676         estimate D2E/DX2                !
 ! D37   D(17,3,13,10)        -166.4613         estimate D2E/DX2                !
 ! D38   D(17,3,13,30)          69.7804         estimate D2E/DX2                !
 ! D39   D(17,3,13,31)         -46.2302         estimate D2E/DX2                !
 ! D40   D(8,4,7,9)             53.0341         estimate D2E/DX2                !
 ! D41   D(8,4,7,22)           -67.9874         estimate D2E/DX2                !
 ! D42   D(8,4,7,23)           174.2371         estimate D2E/DX2                !
 ! D43   D(18,4,7,9)           -67.2937         estimate D2E/DX2                !
 ! D44   D(18,4,7,22)          171.6848         estimate D2E/DX2                !
 ! D45   D(18,4,7,23)           53.9093         estimate D2E/DX2                !
 ! D46   D(19,4,7,9)           173.9251         estimate D2E/DX2                !
 ! D47   D(19,4,7,22)           52.9035         estimate D2E/DX2                !
 ! D48   D(19,4,7,23)          -64.872          estimate D2E/DX2                !
 ! D49   D(7,4,8,11)           -54.8108         estimate D2E/DX2                !
 ! D50   D(7,4,8,24)          -172.4543         estimate D2E/DX2                !
 ! D51   D(7,4,8,25)            67.209          estimate D2E/DX2                !
 ! D52   D(18,4,8,11)           65.8215         estimate D2E/DX2                !
 ! D53   D(18,4,8,24)          -51.822          estimate D2E/DX2                !
 ! D54   D(18,4,8,25)         -172.1587         estimate D2E/DX2                !
 ! D55   D(19,4,8,11)         -176.9671         estimate D2E/DX2                !
 ! D56   D(19,4,8,24)           65.3894         estimate D2E/DX2                !
 ! D57   D(19,4,8,25)          -54.9473         estimate D2E/DX2                !
 ! D58   D(10,5,6,1)            59.9957         estimate D2E/DX2                !
 ! D59   D(20,5,6,1)          -178.5782         estimate D2E/DX2                !
 ! D60   D(21,5,6,1)           -61.9076         estimate D2E/DX2                !
 ! D61   D(6,5,10,13)          -55.4963         estimate D2E/DX2                !
 ! D62   D(6,5,10,28)         -176.5277         estimate D2E/DX2                !
 ! D63   D(6,5,10,29)           66.1675         estimate D2E/DX2                !
 ! D64   D(20,5,10,13)        -173.7559         estimate D2E/DX2                !
 ! D65   D(20,5,10,28)          65.2127         estimate D2E/DX2                !
 ! D66   D(20,5,10,29)         -52.0921         estimate D2E/DX2                !
 ! D67   D(21,5,10,13)          65.4789         estimate D2E/DX2                !
 ! D68   D(21,5,10,28)         -55.5525         estimate D2E/DX2                !
 ! D69   D(21,5,10,29)        -172.8573         estimate D2E/DX2                !
 ! D70   D(4,7,9,2)            -52.1608         estimate D2E/DX2                !
 ! D71   D(4,7,9,26)            66.7005         estimate D2E/DX2                !
 ! D72   D(4,7,9,27)          -174.5408         estimate D2E/DX2                !
 ! D73   D(22,7,9,2)            68.5631         estimate D2E/DX2                !
 ! D74   D(22,7,9,26)         -172.5757         estimate D2E/DX2                !
 ! D75   D(22,7,9,27)          -53.817          estimate D2E/DX2                !
 ! D76   D(23,7,9,2)          -173.8623         estimate D2E/DX2                !
 ! D77   D(23,7,9,26)          -55.0011         estimate D2E/DX2                !
 ! D78   D(23,7,9,27)           63.7576         estimate D2E/DX2                !
 ! D79   D(4,8,11,2)            57.2766         estimate D2E/DX2                !
 ! D80   D(24,8,11,2)          178.4857         estimate D2E/DX2                !
 ! D81   D(25,8,11,2)          -65.3998         estimate D2E/DX2                !
 ! D82   D(5,10,13,3)           51.9129         estimate D2E/DX2                !
 ! D83   D(5,10,13,30)         174.8301         estimate D2E/DX2                !
 ! D84   D(5,10,13,31)         -67.4246         estimate D2E/DX2                !
 ! D85   D(28,10,13,3)         172.5688         estimate D2E/DX2                !
 ! D86   D(28,10,13,30)        -64.514          estimate D2E/DX2                !
 ! D87   D(28,10,13,31)         53.2313         estimate D2E/DX2                !
 ! D88   D(29,10,13,3)         -69.0049         estimate D2E/DX2                !
 ! D89   D(29,10,13,30)         53.9123         estimate D2E/DX2                !
 ! D90   D(29,10,13,31)        171.6576         estimate D2E/DX2                !
 --------------------------------------------------------------------------------
 Trust Radius=3.00D-01 FncErr=1.00D-07 GrdErr=1.00D-06 EigMax=2.50D+02 EigMin=1.00D-04
 Number of steps in this run=    186 maximum allowed number of steps=    186.
 GradGradGradGradGradGradGradGradGradGradGradGradGradGradGradGradGradGrad

                          Input orientation:                          
 ---------------------------------------------------------------------
 Center     Atomic      Atomic             Coordinates (Angstroms)
 Number     Number       Type             X           Y           Z
 ---------------------------------------------------------------------
      1          6           0       -1.771515   -0.365793   -1.296098
      2          6           0        1.090967   -0.707435   -0.749657
      3          6           0       -1.232334   -1.254277   -0.176844
      4          6           0        2.946620    1.133160    0.501210
      5          6           0       -2.824145    1.153475    0.179064
      6          8           0       -1.938949    0.979999   -0.910633
      7          6           0        2.965394   -0.339001    0.911624
      8          6           0        1.563882    1.517602    0.002238
      9          6           0        2.440386   -1.197016   -0.239984
     10          6           0       -2.318081    0.409186    1.402280
     11          8           0        1.131957    0.661904   -1.047454
     12          8           0        0.117790   -1.005455    0.208392
     13          6           0       -2.099647   -1.065727    1.066272
     14          1           0       -2.732786   -0.778690   -1.594291
     15          1           0       -1.131813   -0.362630   -2.164681
     16          1           0        0.849192   -1.194919   -1.682766
     17          1           0       -1.291584   -2.280899   -0.524575
     18          1           0        3.674001    1.304340   -0.289054
     19          1           0        3.213541    1.776019    1.335301
     20          1           0       -2.884371    2.218621    0.356636
     21          1           0       -3.812291    0.797155   -0.105274
     22          1           0        2.349140   -0.480470    1.795656
     23          1           0        3.971853   -0.650609    1.173846
     24          1           0        1.556540    2.514563   -0.416239
     25          1           0        0.844152    1.486626    0.812277
     26          1           0        3.137957   -1.147663   -1.071895
     27          1           0        2.349284   -2.238926    0.047437
     28          1           0       -3.041135    0.504251    2.207321
     29          1           0       -1.393141    0.864029    1.742437
     30          1           0       -1.652728   -1.593016    1.902984
     31          1           0       -3.061371   -1.534412    0.871808
 ---------------------------------------------------------------------
                    Distance matrix (angstroms):
                    1          2          3          4          5
     1  C    0.000000
     2  C    2.934130   0.000000
     3  C    1.527367   2.454563   0.000000
     4  C    5.266685   2.897569   4.860377   0.000000
     5  C    2.364806   4.433239   2.908230   5.779785   0.000000
     6  O    1.409884   3.471849   2.455553   5.087784   1.414604
     7  C    5.226190   2.531615   4.432089   1.528414   6.023528
     8  C    4.044469   2.395785   3.941346   1.519452   4.406658
     9  C    4.421133   1.523282   3.673709   2.497071   5.780631
    10  C    2.860170   4.183215   2.537634   5.390097   1.518659
    11  O    3.090006   1.401946   3.165373   2.431757   4.170939
    12  O    2.498426   1.397765   1.425887   3.558328   3.649222
    13  C    2.485633   3.688630   1.527456   5.533463   2.497377
    14  H    1.087863   3.916576   2.118182   6.348381   2.624194
    15  H    1.078733   2.657430   2.180971   5.096860   3.264307
    16  H    2.775800   1.080180   2.569839   3.819543   4.740756
    17  H    2.119720   2.864088   1.085532   5.538087   3.826065
    18  H    5.784214   3.306276   5.534549   1.087613   6.516732
    19  H    6.030125   3.875553   5.588835   1.086380   6.178843
    20  H    3.263307   5.058557   3.882634   5.932924   1.081524
    21  H    2.633491   5.169232   3.296919   6.794380   1.088230
    22  H    5.152853   2.848356   4.161309   2.153224   5.660921
    23  H    6.258436   3.464476   5.410392   2.164572   7.101401
    24  H    4.488491   3.272491   4.694601   2.163864   4.625727
    25  H    3.836459   2.704526   3.578087   2.154547   3.737426
    26  H    4.976395   2.118444   4.462278   2.777305   6.512050
    27  H    4.721726   2.136395   3.721266   3.454516   6.187898
    28  H    3.826599   5.223616   3.471084   6.257759   2.140655
    29  H    3.299746   3.853677   2.862991   4.521792   2.139085
    30  H    3.428456   3.917732   2.148758   5.527297   3.447801
    31  H    2.780147   4.533757   2.126858   6.584014   2.785840
                    6          7          8          9         10
     6  O    0.000000
     7  C    5.395643   0.000000
     8  C    3.659532   2.497638   0.000000
     9  C    4.936369   1.529060   2.862880   0.000000
    10  C    2.412288   5.358697   4.272978   5.283931   0.000000
    11  O    3.090367   2.863789   1.421489   2.412380   4.238847
    12  O    3.069922   3.007914   2.915390   2.373223   3.059419
    13  C    2.849381   5.119247   4.607299   4.726039   1.528392
    14  H    2.047084   6.240368   5.126716   5.363847   3.249995
    15  H    2.006678   5.123604   3.936697   4.142616   3.837466
    16  H    3.619418   3.455686   3.272276   2.147911   4.703433
    17  H    3.346876   4.894435   4.781195   3.896588   3.464538
    18  H    5.656568   2.155069   2.140779   2.789444   6.290227
    19  H    5.676797   2.171264   2.136635   3.452279   5.698382
    20  H    2.008477   6.408525   4.517077   6.354177   2.165205
    21  H    2.047302   6.947082   5.425296   6.564361   2.157754
    22  H    5.276806   1.086874   2.797368   2.159999   4.767513
    23  H    6.476227   1.085735   3.445596   2.154731   6.382681
    24  H    3.849384   3.448321   1.081253   3.819433   4.769938
    25  H    3.312211   2.800438   1.084036   3.295019   3.392447
    26  H    5.507080   2.148967   3.276448   1.086792   6.189804
    27  H    5.446863   2.176264   3.838021   1.084660   5.534654
    28  H    3.341076   6.202281   5.205329   6.239446   1.086248
    29  H    2.711113   4.597212   3.492769   4.782659   1.085405
    30  H    3.823450   4.886962   4.861621   4.637101   2.168458
    31  H    3.280120   6.144305   5.609270   5.623099   2.147430
                   11         12         13         14         15
    11  O    0.000000
    12  O    2.320726   0.000000
    13  C    4.230344   2.378364   0.000000
    14  H    4.160599   3.380366   2.749882   0.000000
    15  H    2.724430   2.757935   3.445302   1.749733   0.000000
    16  H    1.982768   2.036498   4.033553   3.607165   2.202119
    17  H    3.847992   2.037237   2.158797   2.340510   2.528879
    18  H    2.729447   4.269572   6.386637   6.862185   5.421496
    19  H    3.354365   4.311635   6.031406   7.104073   5.975433
    20  H    4.530533   4.407903   3.450553   3.579521   4.011403
    21  H    5.035036   4.335127   2.788548   2.421939   3.573684
    22  H    3.296942   2.788178   4.546013   6.116097   5.274011
    23  H    3.836909   3.988962   6.086625   7.254734   6.105416
    24  H    2.002760   3.853660   5.327665   5.534586   4.308426
    25  H    2.054653   2.665098   3.904481   4.870083   4.023241
    26  H    2.701697   3.283408   5.657824   5.905477   4.476762
    27  H    3.330989   2.554784   4.712474   5.536695   4.531224
    28  H    5.294630   4.031592   2.157133   4.024086   4.848855
    29  H    3.768351   2.851522   2.163402   3.953091   4.103481
    30  H    4.641575   2.520239   1.085291   3.749745   4.281483
    31  H    5.107971   3.290438   1.087380   2.600140   3.783719
                   16         17         18         19         20
    16  H    0.000000
    17  H    2.665273   0.000000
    18  H    4.020979   6.129147   0.000000
    19  H    4.850294   6.341441   1.753007   0.000000
    20  H    5.454439   4.853780   6.653200   6.191786   0.000000
    21  H    5.309074   4.000524   7.505703   7.238491   1.759250
    22  H    3.854828   4.677594   3.047428   2.459849   6.061807
    23  H    4.267027   5.765956   2.459800   2.547475   7.477173
    24  H    3.983050   5.578531   2.442224   2.521704   4.517367
    25  H    3.662779   4.532415   3.042072   2.443626   3.826919
    26  H    2.369355   4.604847   2.629164   3.787905   7.045637
    27  H    2.516710   3.685767   3.797741   4.304105   6.881604
    28  H    5.758003   4.275657   7.208681   6.441955   2.527583
    29  H    4.582504   3.878173   5.476930   4.713704   2.445226
    30  H    4.390409   2.548853   6.447770   5.945859   4.293799
    31  H    4.683333   2.374716   7.400767   7.109733   3.792359
                   21         22         23         24         25
    21  H    0.000000
    22  H    6.573362   0.000000
    23  H    8.020291   1.746079   0.000000
    24  H    5.645400   3.806694   4.287239   0.000000
    25  H    4.795804   2.664862   3.805393   1.753112   0.000000
    26  H    7.281663   3.047987   2.446589   4.042606   3.968769
    27  H    6.870671   2.479604   2.534616   4.841394   4.090249
    28  H    2.455315   5.494926   7.182184   5.662423   4.243426
    29  H    3.044798   3.976830   5.603622   4.010581   2.501660
    30  H    3.796015   4.155024   5.749407   5.705296   4.111964
    31  H    2.637191   5.589089   7.094968   6.275218   4.937947
                   26         27         28         29         30
    26  H    0.000000
    27  H    1.750932   0.000000
    28  H    7.187716   6.422362   0.000000
    29  H    5.700721   5.148505   1.749698   0.000000
    30  H    5.656758   4.458291   2.533540   2.475930   0.000000
    31  H    6.508396   5.518253   2.437243   3.048525   1.746721
                   31
    31  H    0.000000
 Stoichiometry    C10H18O3
 Framework group  C1[X(C10H18O3)]
 Deg. of freedom    87
 Full point group                 C1      NOp   1
 Largest Abelian subgroup         C1      NOp   1
 Largest concise Abelian subgroup C1      NOp   1
                         Standard orientation:                         
 ---------------------------------------------------------------------
 Center     Atomic      Atomic             Coordinates (Angstroms)
 Number     Number       Type             X           Y           Z
 ---------------------------------------------------------------------
      1          6           0       -1.771515   -0.365793   -1.296098
      2          6           0        1.090967   -0.707435   -0.749657
      3          6           0       -1.232334   -1.254277   -0.176844
      4          6           0        2.946620    1.133160    0.501210
      5          6           0       -2.824145    1.153475    0.179064
      6          8           0       -1.938949    0.979999   -0.910633
      7          6           0        2.965394   -0.339001    0.911624
      8          6           0        1.563882    1.517602    0.002238
      9          6           0        2.440386   -1.197016   -0.239984
     10          6           0       -2.318081    0.409186    1.402280
     11          8           0        1.131957    0.661904   -1.047454
     12          8           0        0.117790   -1.005455    0.208392
     13          6           0       -2.099647   -1.065727    1.066272
     14          1           0       -2.732786   -0.778690   -1.594291
     15          1           0       -1.131813   -0.362630   -2.164681
     16          1           0        0.849192   -1.194919   -1.682766
     17          1           0       -1.291584   -2.280899   -0.524575
     18          1           0        3.674001    1.304340   -0.289054
     19          1           0        3.213541    1.776019    1.335301
     20          1           0       -2.884371    2.218621    0.356636
     21          1           0       -3.812291    0.797155   -0.105274
     22          1           0        2.349140   -0.480470    1.795656
     23          1           0        3.971853   -0.650609    1.173846
     24          1           0        1.556540    2.514563   -0.416239
     25          1           0        0.844152    1.486626    0.812277
     26          1           0        3.137957   -1.147663   -1.071895
     27          1           0        2.349284   -2.238926    0.047437
     28          1           0       -3.041135    0.504251    2.207321
     29          1           0       -1.393141    0.864029    1.742437
     30          1           0       -1.652728   -1.593016    1.902984
     31          1           0       -3.061371   -1.534412    0.871808
 ---------------------------------------------------------------------
 Rotational constants (GHZ):           1.4899984           0.5391532           0.5080123
 Standard basis: 6-311++G(2d,2p) (5D, 7F)
 There are   557 symmetry adapted cartesian basis functions of A   symmetry.
 There are   531 symmetry adapted basis functions of A   symmetry.
   531 basis functions,   762 primitive gaussians,   557 cartesian basis functions
    51 alpha electrons       51 beta electrons
       nuclear repulsion energy       922.5736196397 Hartrees.
 NAtoms=   31 NActive=   31 NUniq=   31 SFac= 1.00D+00 NAtFMM=   60 NAOKFM=F Big=F
 Integral buffers will be    131072 words long.
 Raffenetti 2 integral format.
 Two-electron integral symmetry is turned on.
 ------------------------------------------------------------------------------
 Polarizable Continuum Model (PCM)
 =================================
 Model                : PCM.
 Atomic radii         : SMD-Coulomb.
 Polarization charges : Total charges.
 Charge compensation  : None.
 Solution method      : On-the-fly selection.
 Cavity type          : VdW (van der Waals Surface) (Alpha=1.000).
 Cavity algorithm     : GePol (No added spheres)
                        Default sphere list used, NSphG=   31.
                        Lebedev-Laikov grids with approx.  5.0 points / Ang**2.
                        Smoothing algorithm: York/Karplus (Gamma=1.0000).
                        Polarization charges: spherical gaussians, with
                                              point-specific exponents (IZeta= 3).
                        Self-potential: point-specific (ISelfS= 7).
                        Self-field    : sphere-specific E.n sum rule (ISelfD= 2).
 1st derivatives      : Analytical E(r).r(x)/FMM algorithm (CHGder, D1EAlg=3).
                        Cavity 1st derivative terms included.
 Solvent              : Water, Eps=  78.355300 Eps(inf)=   1.777849
 ------------------------------------------------------------------------------
 ------------------------------------------------------------------------------
 Atomic radii for non-electrostatic terms: SMD-CDS.
 ------------------------------------------------------------------------------
 Nuclear repulsion after PCM non-electrostatic terms =      922.5799027138 Hartrees.
 One-electron integrals computed using PRISM.
 NBasis=   531 RedAO= T EigKep=  4.12D-06  NBF=   531
 NBsUse=   531 1.00D-06 EigRej= -1.00D+00 NBFU=   531
 ExpMin= 3.60D-02 ExpMax= 8.59D+03 ExpMxC= 1.30D+03 IAcc=3 IRadAn=         5 AccDes= 0.00D+00
 Harris functional with IExCor= 1009 and IRadAn=       5 diagonalized for initial guess.
 HarFok:  IExCor= 1009 AccDes= 0.00D+00 IRadAn=         5 IDoV= 1 UseB2=F ITyADJ=14
 ICtDFT=  3500011 ScaDFX=  1.000000  1.000000  1.000000  1.000000
 FoFCou: FMM=F IPFlag=           0 FMFlag=      100000 FMFlg1=           0
         NFxFlg=           0 DoJE=T BraDBF=F KetDBF=T FulRan=T
         wScrn=  0.000000 ICntrl=       500 IOpCl=  0 I1Cent=   200000004 NGrid=           0
         NMat0=    1 NMatS0=      1 NMatT0=    0 NMatD0=    1 NMtDS0=    0 NMtDT0=    0
 Petite list used in FoFCou.
 Requested convergence on RMS density matrix=1.00D-08 within 128 cycles.
 Requested convergence on MAX density matrix=1.00D-06.
 Requested convergence on             energy=1.00D-06.
 No special actions if energy rises.
 Inv3:  Mode=1 IEnd=    12168588.
 Iteration    1 A*A^-1 deviation from unit magnitude is 7.22D-15 for    234.
 Iteration    1 A*A^-1 deviation from orthogonality  is 2.91D-15 for   1431    220.
 Iteration    1 A^-1*A deviation from unit magnitude is 7.33D-15 for    388.
 Iteration    1 A^-1*A deviation from orthogonality  is 1.01D-14 for   1317   1282.
 Error on total polarization charges =  0.05944
 SCF Done:  E(RM062X) =  -617.504021606     A.U. after   13 cycles
            NFock= 13  Conv=0.20D-08     -V/T= 2.0035
 SMD-CDS (non-electrostatic) energy       (kcal/mol) =       3.94
 (included in total energy above)

 **********************************************************************

            Population analysis using the SCF Density.

 **********************************************************************

 Orbital symmetries:
       Occupied  (A) (A) (A) (A) (A) (A) (A) (A) (A) (A) (A) (A)
                 (A) (A) (A) (A) (A) (A) (A) (A) (A) (A) (A) (A)
                 (A) (A) (A) (A) (A) (A) (A) (A) (A) (A) (A) (A)
                 (A) (A) (A) (A) (A) (A) (A) (A) (A) (A) (A) (A)
                 (A) (A) (A)
       Virtual   (A) (A) (A) (A) (A) (A) (A) (A) (A) (A) (A) (A)
                 (A) (A) (A) (A) (A) (A) (A) (A) (A) (A) (A) (A)
                 (A) (A) (A) (A) (A) (A) (A) (A) (A) (A) (A) (A)
                 (A) (A) (A) (A) (A) (A) (A) (A) (A) (A) (A) (A)
                 (A) (A) (A) (A) (A) (A) (A) (A) (A) (A) (A) (A)
                 (A) (A) (A) (A) (A) (A) (A) (A) (A) (A) (A) (A)
                 (A) (A) (A) (A) (A) (A) (A) (A) (A) (A) (A) (A)
                 (A) (A) (A) (A) (A) (A) (A) (A) (A) (A) (A) (A)
                 (A) (A) (A) (A) (A) (A) (A) (A) (A) (A) (A) (A)
                 (A) (A) (A) (A) (A) (A) (A) (A) (A) (A) (A) (A)
                 (A) (A) (A) (A) (A) (A) (A) (A) (A) (A) (A) (A)
                 (A) (A) (A) (A) (A) (A) (A) (A) (A) (A) (A) (A)
                 (A) (A) (A) (A) (A) (A) (A) (A) (A) (A) (A) (A)
                 (A) (A) (A) (A) (A) (A) (A) (A) (A) (A) (A) (A)
                 (A) (A) (A) (A) (A) (A) (A) (A) (A) (A) (A) (A)
                 (A) (A) (A) (A) (A) (A) (A) (A) (A) (A) (A) (A)
                 (A) (A) (A) (A) (A) (A) (A) (A) (A) (A) (A) (A)
                 (A) (A) (A) (A) (A) (A) (A) (A) (A) (A) (A) (A)
                 (A) (A) (A) (A) (A) (A) (A) (A) (A) (A) (A) (A)
                 (A) (A) (A) (A) (A) (A) (A) (A) (A) (A) (A) (A)
                 (A) (A) (A) (A) (A) (A) (A) (A) (A) (A) (A) (A)
                 (A) (A) (A) (A) (A) (A) (A) (A) (A) (A) (A) (A)
                 (A) (A) (A) (A) (A) (A) (A) (A) (A) (A) (A) (A)
                 (A) (A) (A) (A) (A) (A) (A) (A) (A) (A) (A) (A)
                 (A) (A) (A) (A) (A) (A) (A) (A) (A) (A) (A) (A)
                 (A) (A) (A) (A) (A) (A) (A) (A) (A) (A) (A) (A)
                 (A) (A) (A) (A) (A) (A) (A) (A) (A) (A) (A) (A)
                 (A) (A) (A) (A) (A) (A) (A) (A) (A) (A) (A) (A)
                 (A) (A) (A) (A) (A) (A) (A) (A) (A) (A) (A) (A)
                 (A) (A) (A) (A) (A) (A) (A) (A) (A) (A) (A) (A)
                 (A) (A) (A) (A) (A) (A) (A) (A) (A) (A) (A) (A)
                 (A) (A) (A) (A) (A) (A) (A) (A) (A) (A) (A) (A)
                 (A) (A) (A) (A) (A) (A) (A) (A) (A) (A) (A) (A)
                 (A) (A) (A) (A) (A) (A) (A) (A) (A) (A) (A) (A)
                 (A) (A) (A) (A) (A) (A) (A) (A) (A) (A) (A) (A)
                 (A) (A) (A) (A) (A) (A) (A) (A) (A) (A) (A) (A)
                 (A) (A) (A) (A) (A) (A) (A) (A) (A) (A) (A) (A)
                 (A) (A) (A) (A) (A) (A) (A) (A) (A) (A) (A) (A)
                 (A) (A) (A) (A) (A) (A) (A) (A) (A) (A) (A) (A)
                 (A) (A) (A) (A) (A) (A) (A) (A) (A) (A) (A) (A)
 The electronic state is 1-A.
 Alpha  occ. eigenvalues --  -19.62843 -19.62709 -19.62688 -10.62934 -10.58443
 Alpha  occ. eigenvalues --  -10.57423 -10.57096 -10.57045 -10.52515 -10.52260
 Alpha  occ. eigenvalues --  -10.52217 -10.52157 -10.52040  -1.19945  -1.16520
 Alpha  occ. eigenvalues --   -1.13432  -0.90443  -0.89167  -0.86676  -0.84563
 Alpha  occ. eigenvalues --   -0.74627  -0.73567  -0.72704  -0.71044  -0.65735
 Alpha  occ. eigenvalues --   -0.62150  -0.59788  -0.57959  -0.57390  -0.55445
 Alpha  occ. eigenvalues --   -0.53728  -0.52807  -0.52422  -0.50140  -0.49554
 Alpha  occ. eigenvalues --   -0.47988  -0.46697  -0.45486  -0.45073  -0.44933
 Alpha  occ. eigenvalues --   -0.43204  -0.42059  -0.40713  -0.39916  -0.38874
 Alpha  occ. eigenvalues --   -0.37804  -0.37055  -0.35707  -0.34457  -0.32982
 Alpha  occ. eigenvalues --   -0.31730
 Alpha virt. eigenvalues --    0.00290   0.01288   0.01354   0.01565   0.02751
 Alpha virt. eigenvalues --    0.03016   0.03227   0.03588   0.03720   0.05232
 Alpha virt. eigenvalues --    0.05387   0.05474   0.05892   0.06309   0.07604
 Alpha virt. eigenvalues --    0.08169   0.08373   0.08853   0.09612   0.09969
 Alpha virt. eigenvalues --    0.10432   0.11330   0.11501   0.11926   0.12663
 Alpha virt. eigenvalues --    0.12941   0.13191   0.13486   0.13727   0.13814
 Alpha virt. eigenvalues --    0.14257   0.14535   0.14857   0.15110   0.15203
 Alpha virt. eigenvalues --    0.15527   0.16058   0.16369   0.16486   0.16795
 Alpha virt. eigenvalues --    0.16979   0.17764   0.17853   0.18135   0.18357
 Alpha virt. eigenvalues --    0.18902   0.19025   0.19685   0.19834   0.20030
 Alpha virt. eigenvalues --    0.20566   0.20741   0.20974   0.21496   0.21907
 Alpha virt. eigenvalues --    0.22323   0.22835   0.23616   0.23835   0.24638
 Alpha virt. eigenvalues --    0.25230   0.25586   0.26576   0.26929   0.27862
 Alpha virt. eigenvalues --    0.28140   0.28867   0.29366   0.29772   0.30310
 Alpha virt. eigenvalues --    0.30616   0.31304   0.31725   0.32116   0.32798
 Alpha virt. eigenvalues --    0.33459   0.33725   0.33851   0.34649   0.35197
 Alpha virt. eigenvalues --    0.35413   0.35891   0.36073   0.36261   0.36520
 Alpha virt. eigenvalues --    0.37279   0.37821   0.38070   0.38800   0.38951
 Alpha virt. eigenvalues --    0.39495   0.39717   0.39849   0.40568   0.40686
 Alpha virt. eigenvalues --    0.41923   0.43211   0.43603   0.44576   0.45819
 Alpha virt. eigenvalues --    0.46912   0.48194   0.50379   0.50771   0.51595
 Alpha virt. eigenvalues --    0.52831   0.53374   0.54268   0.55463   0.56606
 Alpha virt. eigenvalues --    0.57369   0.58463   0.59326   0.60097   0.60607
 Alpha virt. eigenvalues --    0.61217   0.61588   0.62195   0.62585   0.62801
 Alpha virt. eigenvalues --    0.63308   0.63861   0.64502   0.64605   0.65450
 Alpha virt. eigenvalues --    0.66053   0.66299   0.66926   0.68009   0.68305
 Alpha virt. eigenvalues --    0.68713   0.68992   0.70088   0.70314   0.71052
 Alpha virt. eigenvalues --    0.71424   0.72001   0.72352   0.73155   0.73594
 Alpha virt. eigenvalues --    0.74589   0.75363   0.76278   0.76669   0.77201
 Alpha virt. eigenvalues --    0.77451   0.78079   0.78422   0.79013   0.80328
 Alpha virt. eigenvalues --    0.80659   0.81465   0.83910   0.84605   0.86087
 Alpha virt. eigenvalues --    0.87369   0.87809   0.88616   0.90408   0.91071
 Alpha virt. eigenvalues --    0.92059   0.93107   0.94180   0.96374   0.97186
 Alpha virt. eigenvalues --    0.98716   0.99761   1.00847   1.01243   1.02359
 Alpha virt. eigenvalues --    1.03293   1.04608   1.05314   1.06740   1.07326
 Alpha virt. eigenvalues --    1.09097   1.10022   1.11376   1.11761   1.11887
 Alpha virt. eigenvalues --    1.14333   1.15392   1.15932   1.17025   1.17576
 Alpha virt. eigenvalues --    1.18198   1.18734   1.19671   1.20554   1.20964
 Alpha virt. eigenvalues --    1.21856   1.23242   1.23746   1.24076   1.25253
 Alpha virt. eigenvalues --    1.25583   1.26556   1.27444   1.28007   1.28597
 Alpha virt. eigenvalues --    1.29478   1.29902   1.31376   1.31846   1.32394
 Alpha virt. eigenvalues --    1.33725   1.33914   1.34830   1.35802   1.36939
 Alpha virt. eigenvalues --    1.37094   1.37274   1.38091   1.38561   1.39121
 Alpha virt. eigenvalues --    1.39723   1.40526   1.41250   1.42318   1.42960
 Alpha virt. eigenvalues --    1.43562   1.43823   1.44506   1.45641   1.46228
 Alpha virt. eigenvalues --    1.46361   1.47154   1.47415   1.48684   1.49277
 Alpha virt. eigenvalues --    1.49730   1.50733   1.51593   1.51796   1.52915
 Alpha virt. eigenvalues --    1.53604   1.54836   1.55619   1.55972   1.56757
 Alpha virt. eigenvalues --    1.57388   1.57701   1.58686   1.59050   1.59818
 Alpha virt. eigenvalues --    1.59987   1.61256   1.61720   1.62566   1.64004
 Alpha virt. eigenvalues --    1.65981   1.66195   1.66493   1.67418   1.68050
 Alpha virt. eigenvalues --    1.69050   1.70145   1.70611   1.71457   1.73282
 Alpha virt. eigenvalues --    1.74509   1.75290   1.77362   1.77828   1.78743
 Alpha virt. eigenvalues --    1.80738   1.81316   1.81948   1.82827   1.84587
 Alpha virt. eigenvalues --    1.85634   1.91865   1.94979   1.96523   1.99269
 Alpha virt. eigenvalues --    2.04019   2.07758   2.16030   2.20346   2.20705
 Alpha virt. eigenvalues --    2.25115   2.27294   2.33774   2.35601   2.39790
 Alpha virt. eigenvalues --    2.41303   2.45070   2.46909   2.48252   2.52760
 Alpha virt. eigenvalues --    2.59765   2.77083   2.78666   2.80775   2.84420
 Alpha virt. eigenvalues --    2.85681   2.88592   2.92981   2.94197   2.94782
 Alpha virt. eigenvalues --    2.96755   2.98646   2.99614   3.02373   3.04763
 Alpha virt. eigenvalues --    3.07774   3.08578   3.10507   3.11155   3.13232
 Alpha virt. eigenvalues --    3.13748   3.15521   3.17630   3.20895   3.21585
 Alpha virt. eigenvalues --    3.25340   3.28694   3.33190   3.33678   3.34922
 Alpha virt. eigenvalues --    3.36161   3.37885   3.39519   3.41137   3.42021
 Alpha virt. eigenvalues --    3.42701   3.44281   3.45697   3.46559   3.47023
 Alpha virt. eigenvalues --    3.48758   3.49989   3.51433   3.52849   3.53147
 Alpha virt. eigenvalues --    3.54360   3.55276   3.55572   3.56286   3.57325
 Alpha virt. eigenvalues --    3.57959   3.58364   3.58909   3.60137   3.60670
 Alpha virt. eigenvalues --    3.61048   3.62280   3.63479   3.65947   3.66772
 Alpha virt. eigenvalues --    3.67191   3.67651   3.68500   3.69548   3.70065
 Alpha virt. eigenvalues --    3.70577   3.70995   3.72740   3.74867   3.75168
 Alpha virt. eigenvalues --    3.75723   3.76459   3.76923   3.77250   3.79402
 Alpha virt. eigenvalues --    3.80851   3.81734   3.82918   3.83943   3.84871
 Alpha virt. eigenvalues --    3.85931   3.90234   3.90532   3.90718   3.92995
 Alpha virt. eigenvalues --    3.93451   3.94710   3.95806   3.96903   3.98304
 Alpha virt. eigenvalues --    4.00096   4.02353   4.02673   4.03506   4.04527
 Alpha virt. eigenvalues --    4.06011   4.07074   4.08353   4.08603   4.08999
 Alpha virt. eigenvalues --    4.09329   4.09650   4.10817   4.11411   4.12476
 Alpha virt. eigenvalues --    4.13030   4.13731   4.14441   4.16326   4.17328
 Alpha virt. eigenvalues --    4.17783   4.18024   4.19749   4.20442   4.22066
 Alpha virt. eigenvalues --    4.23533   4.24137   4.24156   4.27258   4.28692
 Alpha virt. eigenvalues --    4.28852   4.31070   4.31940   4.32708   4.32912
 Alpha virt. eigenvalues --    4.33558   4.33724   4.34724   4.36974   4.37882
 Alpha virt. eigenvalues --    4.38949   4.43168   4.46850   4.47831   4.48238
 Alpha virt. eigenvalues --    4.58458   4.61836   4.74829   4.76627   4.82147
 Alpha virt. eigenvalues --    4.85939   4.94531   4.96192   5.00778   5.03816
 Alpha virt. eigenvalues --    5.07268   5.08292   5.08397   5.09654   5.12870
 Alpha virt. eigenvalues --    5.13380   5.14661   5.15103   5.33357   5.41980
 Alpha virt. eigenvalues --    5.44197   5.58307   5.61454   5.67883   5.87645
 Alpha virt. eigenvalues --    5.88437   6.05861   7.02108   7.05135   7.07305
 Alpha virt. eigenvalues --    7.09144   7.10902   7.13878   7.15282   7.20549
 Alpha virt. eigenvalues --    7.27948   7.36772   7.42236   7.47237   7.52921
 Alpha virt. eigenvalues --    7.54448   7.63020  23.97061  23.97965  24.06812
 Alpha virt. eigenvalues --   24.09351  24.11269  24.12490  24.15752  24.16084
 Alpha virt. eigenvalues --   24.16918  24.22051  50.17456  50.18529  50.29462
          Condensed to atoms (all electrons):
               1          2          3          4          5          6
     1  C    6.208619   0.225752  -0.952428   0.000763  -0.352007   0.170303
     2  C    0.225752   7.082053  -0.619349   0.210379   0.024700  -0.033009
     3  C   -0.952428  -0.619349   8.349213   0.067314   0.359547  -0.097522
     4  C    0.000763   0.210379   0.067314   5.934567  -0.034195   0.006433
     5  C   -0.352007   0.024700   0.359547  -0.034195   5.677725   0.030881
     6  O    0.170303  -0.033009  -0.097522   0.006433   0.030881   8.336242
     7  C   -0.001152  -0.244546  -0.047681  -0.037457   0.001332   0.005405
     8  C    0.023480  -0.321567  -0.011884  -0.232069   0.046472  -0.010102
     9  C   -0.254565  -1.079478   0.269650  -0.163406   0.008548   0.008584
    10  C    0.178799   0.040517  -0.083273   0.057484  -0.144434   0.028368
    11  O    0.010100   0.280314  -0.036651  -0.086015  -0.001416   0.018405
    12  O   -0.038933   0.071789  -0.051233  -0.023882  -0.037747   0.046065
    13  C    0.416965   0.094798  -1.718776  -0.059557  -0.088912   0.062787
    14  H    0.447601  -0.001508   0.030912   0.000602  -0.005989  -0.048519
    15  H    0.377625  -0.004524  -0.021989   0.008347  -0.000328  -0.072947
    16  H    0.010585   0.524824   0.036025   0.011413   0.004490  -0.004105
    17  H   -0.022417  -0.004013   0.446627   0.000952  -0.006043   0.004340
    18  H    0.001373   0.017403  -0.004629   0.495453  -0.000085   0.000377
    19  H    0.001507   0.004255   0.001682   0.451793  -0.000262  -0.000404
    20  H   -0.012226   0.000486   0.021606  -0.000203   0.464384  -0.066365
    21  H   -0.020506   0.000781   0.042384  -0.000326   0.461418  -0.056500
    22  H   -0.002047  -0.024401   0.010041  -0.065244   0.001867   0.000454
    23  H   -0.002292   0.006885   0.005010  -0.018611  -0.000406   0.000187
    24  H    0.002089  -0.004796   0.004675  -0.021141   0.001415  -0.003780
    25  H   -0.020808  -0.025888  -0.055743  -0.107330   0.013849   0.005916
    26  H   -0.003087  -0.168814   0.008141  -0.009197  -0.000315   0.000083
    27  H    0.000064  -0.019162  -0.015959  -0.013802   0.001526  -0.000055
    28  H   -0.001797   0.003255   0.000709   0.001376  -0.026258   0.009943
    29  H    0.045779  -0.001191   0.010381   0.012059  -0.109508  -0.015288
    30  H   -0.002800  -0.006749  -0.027667   0.000326   0.004275   0.000217
    31  H    0.003662  -0.008707  -0.087377  -0.000404  -0.021402   0.001159
               7          8          9         10         11         12
     1  C   -0.001152   0.023480  -0.254565   0.178799   0.010100  -0.038933
     2  C   -0.244546  -0.321567  -1.079478   0.040517   0.280314   0.071789
     3  C   -0.047681  -0.011884   0.269650  -0.083273  -0.036651  -0.051233
     4  C   -0.037457  -0.232069  -0.163406   0.057484  -0.086015  -0.023882
     5  C    0.001332   0.046472   0.008548  -0.144434  -0.001416  -0.037747
     6  O    0.005405  -0.010102   0.008584   0.028368   0.018405   0.046065
     7  C    5.728964   0.016403  -0.010814  -0.026770   0.003806   0.019429
     8  C    0.016403   5.601802   0.113417  -0.070171   0.096920   0.028011
     9  C   -0.010814   0.113417   6.957534  -0.013242  -0.078643  -0.004769
    10  C   -0.026770  -0.070171  -0.013242   5.711856   0.010601  -0.037335
    11  O    0.003806   0.096920  -0.078643   0.010601   8.304112  -0.050370
    12  O    0.019429   0.028011  -0.004769  -0.037335  -0.050370   8.424053
    13  C    0.048020   0.066715  -0.065829  -0.243242  -0.016149   0.026318
    14  H   -0.001334   0.000527  -0.004398   0.027955  -0.000005   0.002140
    15  H    0.000742  -0.006077   0.013896   0.010882  -0.009400  -0.010589
    16  H   -0.017097  -0.017082  -0.081172  -0.000596  -0.049896  -0.034692
    17  H   -0.004483  -0.001638   0.003057  -0.006576  -0.002467  -0.029588
    18  H   -0.021788  -0.092306  -0.025026   0.001657   0.001160  -0.000530
    19  H   -0.048463  -0.041032  -0.005717  -0.000278   0.009562  -0.000329
    20  H    0.000019  -0.001404   0.001896  -0.071320   0.000541   0.000346
    21  H   -0.000128  -0.000129  -0.001634  -0.008724  -0.001712   0.000699
    22  H    0.524845  -0.000414  -0.053720   0.003332   0.004099   0.000525
    23  H    0.418281   0.005963  -0.036189  -0.000447  -0.006400   0.000704
    24  H    0.007623   0.449082  -0.008455  -0.003593  -0.067644   0.001417
    25  H    0.019336   0.478756   0.053950  -0.028534  -0.029793   0.025378
    26  H   -0.006187   0.011013   0.541276   0.000449  -0.005967   0.011397
    27  H   -0.029931   0.013745   0.414789  -0.002127   0.009196  -0.004483
    28  H   -0.001024  -0.001924  -0.000286   0.442604  -0.000172  -0.000960
    29  H   -0.002678  -0.008527  -0.007653   0.574334  -0.001063  -0.002805
    30  H    0.002074  -0.000339   0.000717  -0.032191  -0.000040   0.003722
    31  H    0.001032   0.001026   0.002805  -0.026608   0.000288   0.007093
              13         14         15         16         17         18
     1  C    0.416965   0.447601   0.377625   0.010585  -0.022417   0.001373
     2  C    0.094798  -0.001508  -0.004524   0.524824  -0.004013   0.017403
     3  C   -1.718776   0.030912  -0.021989   0.036025   0.446627  -0.004629
     4  C   -0.059557   0.000602   0.008347   0.011413   0.000952   0.495453
     5  C   -0.088912  -0.005989  -0.000328   0.004490  -0.006043  -0.000085
     6  O    0.062787  -0.048519  -0.072947  -0.004105   0.004340   0.000377
     7  C    0.048020  -0.001334   0.000742  -0.017097  -0.004483  -0.021788
     8  C    0.066715   0.000527  -0.006077  -0.017082  -0.001638  -0.092306
     9  C   -0.065829  -0.004398   0.013896  -0.081172   0.003057  -0.025026
    10  C   -0.243242   0.027955   0.010882  -0.000596  -0.006576   0.001657
    11  O   -0.016149  -0.000005  -0.009400  -0.049896  -0.002467   0.001160
    12  O    0.026318   0.002140  -0.010589  -0.034692  -0.029588  -0.000530
    13  C    7.311208  -0.089281   0.024552  -0.024090  -0.040195  -0.002295
    14  H   -0.089281   0.447078  -0.011176   0.000675  -0.001955   0.000060
    15  H    0.024552  -0.011176   0.466298  -0.013436  -0.007222  -0.000442
    16  H   -0.024090   0.000675  -0.013436   0.422584   0.002465   0.001739
    17  H   -0.040195  -0.001955  -0.007222   0.002465   0.416619  -0.000034
    18  H   -0.002295   0.000060  -0.000442   0.001739  -0.000034   0.479401
    19  H    0.001324   0.000044   0.000168   0.000925  -0.000116  -0.012007
    20  H    0.009371  -0.002056   0.000264   0.000334   0.000536   0.000024
    21  H   -0.063707   0.006204  -0.001662  -0.000295   0.002542   0.000001
    22  H   -0.009407   0.000300  -0.000483  -0.002068   0.000007   0.001444
    23  H   -0.000710  -0.000085   0.000247   0.000504  -0.000013  -0.000978
    24  H    0.001209  -0.000269   0.000646  -0.000764   0.000004  -0.007972
    25  H    0.037094  -0.001326  -0.001296  -0.002889   0.000674   0.002119
    26  H   -0.000423  -0.000129   0.001519  -0.014964   0.000044  -0.003105
    27  H    0.009405  -0.000201  -0.000340  -0.009178  -0.001483  -0.002217
    28  H   -0.051992  -0.000090   0.001187  -0.000187   0.000736   0.000057
    29  H   -0.122696   0.000677   0.000319   0.000953  -0.000253   0.000533
    30  H    0.432755   0.000610   0.000641  -0.001213  -0.009821  -0.000018
    31  H    0.513873  -0.005754  -0.000074  -0.000041  -0.005546  -0.000044
              19         20         21         22         23         24
     1  C    0.001507  -0.012226  -0.020506  -0.002047  -0.002292   0.002089
     2  C    0.004255   0.000486   0.000781  -0.024401   0.006885  -0.004796
     3  C    0.001682   0.021606   0.042384   0.010041   0.005010   0.004675
     4  C    0.451793  -0.000203  -0.000326  -0.065244  -0.018611  -0.021141
     5  C   -0.000262   0.464384   0.461418   0.001867  -0.000406   0.001415
     6  O   -0.000404  -0.066365  -0.056500   0.000454   0.000187  -0.003780
     7  C   -0.048463   0.000019  -0.000128   0.524845   0.418281   0.007623
     8  C   -0.041032  -0.001404  -0.000129  -0.000414   0.005963   0.449082
     9  C   -0.005717   0.001896  -0.001634  -0.053720  -0.036189  -0.008455
    10  C   -0.000278  -0.071320  -0.008724   0.003332  -0.000447  -0.003593
    11  O    0.009562   0.000541  -0.001712   0.004099  -0.006400  -0.067644
    12  O   -0.000329   0.000346   0.000699   0.000525   0.000704   0.001417
    13  C    0.001324   0.009371  -0.063707  -0.009407  -0.000710   0.001209
    14  H    0.000044  -0.002056   0.006204   0.000300  -0.000085  -0.000269
    15  H    0.000168   0.000264  -0.001662  -0.000483   0.000247   0.000646
    16  H    0.000925   0.000334  -0.000295  -0.002068   0.000504  -0.000764
    17  H   -0.000116   0.000536   0.002542   0.000007  -0.000013   0.000004
    18  H   -0.012007   0.000024   0.000001   0.001444  -0.000978  -0.007972
    19  H    0.479890  -0.000129   0.000047  -0.003812  -0.007710  -0.007660
    20  H   -0.000129   0.467033  -0.007395   0.000098   0.000034  -0.000557
    21  H    0.000047  -0.007395   0.472671   0.000010  -0.000026  -0.000017
    22  H   -0.003812   0.000098   0.000010   0.454184  -0.005854  -0.002605
    23  H   -0.007710   0.000034  -0.000026  -0.005854   0.457583   0.001594
    24  H   -0.007660  -0.000557  -0.000017  -0.002605   0.001594   0.463638
    25  H   -0.005489   0.001331  -0.000527  -0.000150  -0.001278  -0.030169
    26  H   -0.001908  -0.000021  -0.000047   0.001305  -0.000753   0.000474
    27  H    0.001351  -0.000003   0.000027  -0.002456  -0.008985   0.001303
    28  H   -0.000025  -0.010007   0.004687   0.000301  -0.000059  -0.000119
    29  H    0.000601  -0.004476   0.002294  -0.002586   0.000253   0.003172
    30  H    0.000086   0.000160  -0.000497   0.000220   0.000057  -0.000209
    31  H   -0.000008  -0.000823  -0.006283  -0.000377   0.000093   0.000159
              25         26         27         28         29         30
     1  C   -0.020808  -0.003087   0.000064  -0.001797   0.045779  -0.002800
     2  C   -0.025888  -0.168814  -0.019162   0.003255  -0.001191  -0.006749
     3  C   -0.055743   0.008141  -0.015959   0.000709   0.010381  -0.027667
     4  C   -0.107330  -0.009197  -0.013802   0.001376   0.012059   0.000326
     5  C    0.013849  -0.000315   0.001526  -0.026258  -0.109508   0.004275
     6  O    0.005916   0.000083  -0.000055   0.009943  -0.015288   0.000217
     7  C    0.019336  -0.006187  -0.029931  -0.001024  -0.002678   0.002074
     8  C    0.478756   0.011013   0.013745  -0.001924  -0.008527  -0.000339
     9  C    0.053950   0.541276   0.414789  -0.000286  -0.007653   0.000717
    10  C   -0.028534   0.000449  -0.002127   0.442604   0.574334  -0.032191
    11  O   -0.029793  -0.005967   0.009196  -0.000172  -0.001063  -0.000040
    12  O    0.025378   0.011397  -0.004483  -0.000960  -0.002805   0.003722
    13  C    0.037094  -0.000423   0.009405  -0.051992  -0.122696   0.432755
    14  H   -0.001326  -0.000129  -0.000201  -0.000090   0.000677   0.000610
    15  H   -0.001296   0.001519  -0.000340   0.001187   0.000319   0.000641
    16  H   -0.002889  -0.014964  -0.009178  -0.000187   0.000953  -0.001213
    17  H    0.000674   0.000044  -0.001483   0.000736  -0.000253  -0.009821
    18  H    0.002119  -0.003105  -0.002217   0.000057   0.000533  -0.000018
    19  H   -0.005489  -0.001908   0.001351  -0.000025   0.000601   0.000086
    20  H    0.001331  -0.000021  -0.000003  -0.010007  -0.004476   0.000160
    21  H   -0.000527  -0.000047   0.000027   0.004687   0.002294  -0.000497
    22  H   -0.000150   0.001305  -0.002456   0.000301  -0.002586   0.000220
    23  H   -0.001278  -0.000753  -0.008985  -0.000059   0.000253   0.000057
    24  H   -0.030169   0.000474   0.001303  -0.000119   0.003172  -0.000209
    25  H    0.558457  -0.001072  -0.000271   0.001592  -0.027573   0.000466
    26  H   -0.001072   0.440742  -0.003412   0.000028  -0.000048  -0.000008
    27  H   -0.000271  -0.003412   0.468945   0.000062  -0.000331   0.000241
    28  H    0.001592   0.000028   0.000062   0.459130  -0.014380  -0.007014
    29  H   -0.027573  -0.000048  -0.000331  -0.014380   0.513397  -0.003994
    30  H    0.000466  -0.000008   0.000241  -0.007014  -0.003994   0.463332
    31  H    0.000215   0.000128  -0.000105  -0.005143   0.001573   0.000770
              31
     1  C    0.003662
     2  C   -0.008707
     3  C   -0.087377
     4  C   -0.000404
     5  C   -0.021402
     6  O    0.001159
     7  C    0.001032
     8  C    0.001026
     9  C    0.002805
    10  C   -0.026608
    11  O    0.000288
    12  O    0.007093
    13  C    0.513873
    14  H   -0.005754
    15  H   -0.000074
    16  H   -0.000041
    17  H   -0.005546
    18  H   -0.000044
    19  H   -0.000008
    20  H   -0.000823
    21  H   -0.006283
    22  H   -0.000377
    23  H    0.000093
    24  H    0.000159
    25  H    0.000215
    26  H    0.000128
    27  H   -0.000105
    28  H   -0.005143
    29  H    0.001573
    30  H    0.000770
    31  H    0.419103
 Mulliken charges:
               1
     1  C   -0.438000
     2  C   -0.020490
     3  C    0.168243
     4  C   -0.386420
     5  C   -0.273123
     6  O   -0.327554
     7  C   -0.295780
     8  C   -0.136665
     9  C   -0.495122
    10  C   -0.289376
    11  O   -0.305300
    12  O   -0.340841
    13  C   -0.459134
    14  H    0.208689
    15  H    0.254653
    16  H    0.256249
    17  H    0.265262
    18  H    0.170680
    19  H    0.182111
    20  H    0.208519
    21  H    0.176348
    22  H    0.172593
    23  H    0.193399
    24  H    0.221251
    25  H    0.141004
    26  H    0.202856
    27  H    0.193844
    28  H    0.195770
    29  H    0.158725
    30  H    0.181891
    31  H    0.215716
 Sum of Mulliken charges =  -0.00000
 Mulliken charges with hydrogens summed into heavy atoms:
               1
     1  C    0.025342
     2  C    0.235760
     3  C    0.433505
     4  C   -0.033629
     5  C    0.111745
     6  O   -0.327554
     7  C    0.070212
     8  C    0.225590
     9  C   -0.098422
    10  C    0.065119
    11  O   -0.305300
    12  O   -0.340841
    13  C   -0.061527
 Electronic spatial extent (au):  <R**2>=           2534.8871
 Charge=              0.0000 electrons
 Dipole moment (field-independent basis, Debye):
    X=             -0.8145    Y=             -2.1565    Z=              1.4635  Tot=              2.7305
 Quadrupole moment (field-independent basis, Debye-Ang):
   XX=            -67.5372   YY=            -77.4628   ZZ=            -80.8257
   XY=              3.1425   XZ=             -1.4316   YZ=              7.5056
 Traceless Quadrupole moment (field-independent basis, Debye-Ang):
   XX=              7.7381   YY=             -2.1876   ZZ=             -5.5505
   XY=              3.1425   XZ=             -1.4316   YZ=              7.5056
 Octapole moment (field-independent basis, Debye-Ang**2):
  XXX=            -13.8382  YYY=              3.9452  ZZZ=             -3.6122  XYY=              0.8737
  XXY=             -3.0156  XXZ=              6.8716  XZZ=             -3.7417  YZZ=             -7.1317
  YYZ=              0.3338  XYZ=             -3.3315
 Hexadecapole moment (field-independent basis, Debye-Ang**3):
 XXXX=          -2154.6082 YYYY=           -609.8871 ZZZZ=           -482.7291 XXXY=             -5.7593
 XXXZ=            -11.1917 YYYX=              3.5985 YYYZ=              4.0488 ZZZX=             -0.4618
 ZZZY=              9.6429 XXYY=           -468.3008 XXZZ=           -458.2045 YYZZ=           -190.0559
 XXYZ=             17.7831 YYXZ=             -5.9615 ZZXY=              4.5643
 N-N= 9.225799027138D+02 E-N=-3.288064502344D+03  KE= 6.153461287824D+02
 D1PCM: PCM CHGder 1st derivatives, ID1Alg=3 FixD1E=F DoIter=F DoCFld=F I1PDM=0.
 Calling FoFJK, ICntrl=      2127 FMM=F ISym2X=0 I1Cent= 0 IOpClX= 0 NMat=1 NMatS=1 NMatT=0.
 ***** Axes restored to original set *****
 -------------------------------------------------------------------
 Center     Atomic                   Forces (Hartrees/Bohr)
 Number     Number              X              Y              Z
 -------------------------------------------------------------------
      1        6           0.000442560   -0.003340987    0.006528418
      2        6           0.005760191   -0.007047463    0.002705939
      3        6          -0.003771806    0.006039546   -0.003696799
      4        6          -0.002451177   -0.001782570    0.001008324
      5        6           0.001466573   -0.004846641    0.005043482
      6        8           0.007363553    0.009690933   -0.004883543
      7        6          -0.001721331    0.001574221   -0.003644074
      8        6           0.005720295   -0.003610985    0.002695566
      9        6          -0.000702841    0.001738025    0.002282207
     10        6          -0.001564720   -0.001969188   -0.002814355
     11        8          -0.004152096    0.006260981   -0.012666012
     12        8           0.000574251    0.006476538    0.015305105
     13        6           0.001224222   -0.000766898   -0.001327787
     14        1          -0.004949648   -0.003006299   -0.001132431
     15        1           0.004825065   -0.000211471   -0.004347399
     16        1          -0.001729864   -0.002941077   -0.006672275
     17        1          -0.001199550   -0.005015519   -0.001977753
     18        1           0.001683593    0.000115051   -0.002949198
     19        1           0.000535798    0.001558603    0.002172110
     20        1          -0.000082761    0.004378581    0.000919503
     21        1          -0.004975408   -0.002667442   -0.000829796
     22        1          -0.002849210   -0.000251117    0.002496329
     23        1           0.002369412   -0.000749236    0.000442522
     24        1          -0.000014987    0.004179929   -0.001622462
     25        1          -0.004271875   -0.000718402    0.005452051
     26        1           0.001798447    0.000811193   -0.002686527
     27        1          -0.000639741   -0.002967039    0.000931139
     28        1          -0.001752020    0.000155631    0.002021157
     29        1           0.004072201    0.001683473    0.000325836
     30        1           0.001912120   -0.001570193    0.002168693
     31        1          -0.002919246   -0.001200177   -0.001247970
 -------------------------------------------------------------------
 Cartesian Forces:  Max     0.015305105 RMS     0.003919385

 GradGradGradGradGradGradGradGradGradGradGradGradGradGradGradGradGradGrad
 Berny optimization.
 FormGI is forming the generalized inverse of G from B-inverse, IUseBI=4.
 Internal  Forces:  Max     0.016160133 RMS     0.002471792
 Search for a local minimum.
 Step number   1 out of a maximum of  186
 All quantities printed in internal units (Hartrees-Bohrs-Radians)
 Mixed Optimization -- RFO/linear search
 Second derivative matrix not updated -- first step.
 ITU=  0
     Eigenvalues ---    0.00610   0.00626   0.00716   0.00721   0.01411
     Eigenvalues ---    0.01416   0.01721   0.02703   0.02824   0.03075
     Eigenvalues ---    0.03085   0.04090   0.04340   0.04591   0.04749
     Eigenvalues ---    0.04835   0.04893   0.05010   0.05134   0.05142
     Eigenvalues ---    0.05307   0.05699   0.05702   0.06143   0.06178
     Eigenvalues ---    0.06226   0.06483   0.07009   0.07585   0.07834
     Eigenvalues ---    0.07942   0.07948   0.07995   0.08249   0.08298
     Eigenvalues ---    0.08827   0.09177   0.09401   0.10903   0.11607
     Eigenvalues ---    0.11694   0.11765   0.11847   0.12404   0.12561
     Eigenvalues ---    0.14577   0.14703   0.15808   0.16499   0.17638
     Eigenvalues ---    0.19139   0.21422   0.21976   0.25000   0.28379
     Eigenvalues ---    0.28612   0.28848   0.28892   0.28953   0.28970
     Eigenvalues ---    0.30161   0.30250   0.35018   0.35061   0.35090
     Eigenvalues ---    0.35117   0.35176   0.35186   0.35234   0.35250
     Eigenvalues ---    0.35310   0.35334   0.35349   0.35363   0.35437
     Eigenvalues ---    0.35511   0.35811   0.35843   0.35973   0.36148
     Eigenvalues ---    0.40864   0.41586   0.41640   0.42508   0.43754
     Eigenvalues ---    0.459931000.000001000.000001000.000001000.00000
     Eigenvalues --- 1000.000001000.000001000.000001000.000001000.00000
     Eigenvalues --- 1000.000001000.000001000.000001000.000001000.00000
     Eigenvalues --- 1000.000001000.000001000.000001000.000001000.00000
     Eigenvalues --- 1000.000001000.000001000.000001000.000001000.00000
     Eigenvalues --- 1000.000001000.000001000.000001000.000001000.00000
     Eigenvalues --- 1000.000001000.000001000.000001000.000001000.00000
     Eigenvalues --- 1000.000001000.000001000.000001000.000001000.00000
     Eigenvalues --- 1000.000001000.000001000.000001000.000001000.00000
     Eigenvalues --- 1000.000001000.000001000.000001000.000001000.00000
     Eigenvalues --- 1000.000001000.000001000.000001000.000001000.00000
     Eigenvalues --- 1000.000001000.000001000.000001000.000001000.00000
     Eigenvalues --- 1000.000001000.000001000.000001000.000001000.00000
     Eigenvalues --- 1000.000001000.000001000.000001000.000001000.00000
     Eigenvalues --- 1000.000001000.000001000.000001000.000001000.00000
     Eigenvalues --- 1000.000001000.000001000.000001000.000001000.00000
     Eigenvalues --- 1000.000001000.000001000.000001000.000001000.00000
     Eigenvalues --- 1000.000001000.000001000.000001000.000001000.00000
     Eigenvalues --- 1000.000001000.000001000.000001000.000001000.00000
     Eigenvalues --- 1000.000001000.000001000.000001000.000001000.00000
 RFO step:  Lambda=-5.32478062D-03 EMin= 6.09885777D-03
 Linear search not attempted -- first point.
 Iteration  1 RMS(Cart)=  0.12701209 RMS(Int)=  0.00315559
 Iteration  2 RMS(Cart)=  0.00709796 RMS(Int)=  0.00006660
 Iteration  3 RMS(Cart)=  0.00001546 RMS(Int)=  0.00006625
 Iteration  4 RMS(Cart)=  0.00000000 RMS(Int)=  0.00006625
 Iteration  1 RMS(Cart)=  0.00005092 RMS(Int)=  0.00001129
 Iteration  2 RMS(Cart)=  0.00002838 RMS(Int)=  0.00001260
 Iteration  3 RMS(Cart)=  0.00001581 RMS(Int)=  0.00001427
 Iteration  4 RMS(Cart)=  0.00000881 RMS(Int)=  0.00001540
 Iteration  5 RMS(Cart)=  0.00000491 RMS(Int)=  0.00001607
 Iteration  6 RMS(Cart)=  0.00000274 RMS(Int)=  0.00001646
 Iteration  7 RMS(Cart)=  0.00000153 RMS(Int)=  0.00001669
 Iteration  8 RMS(Cart)=  0.00000085 RMS(Int)=  0.00001681
 Variable       Old X    -DE/DX   Delta X   Delta X   Delta X     New X
                                 (Linear)    (Quad)   (Total)
    R1        2.88631  -0.00195   0.00000  -0.00543  -0.00535   2.88095
    R2        2.66430   0.00627   0.00000   0.01505   0.01507   2.67937
    R3        2.05576   0.00582   0.00000   0.01636   0.01636   2.07212
    R4        2.03851   0.00636   0.00000   0.01734   0.01734   2.05585
    R5        2.87859  -0.00125   0.00000  -0.00414  -0.00414   2.87444
    R6        2.64929   0.00767   0.00000   0.01672   0.01674   2.66603
    R7        2.64139   0.00560   0.00000   0.01203   0.01203   2.65343
    R8        2.04124   0.00748   0.00000   0.02049   0.02049   2.06173
    R9        2.69454   0.00179   0.00000   0.00426   0.00426   2.69879
   R10        2.88647  -0.00284   0.00000  -0.00828  -0.00824   2.87824
   R11        2.05136   0.00544   0.00000   0.01517   0.01517   2.06653
   R12        2.88828  -0.00067   0.00000  -0.00219  -0.00221   2.88608
   R13        2.87135  -0.00046   0.00000  -0.00145  -0.00144   2.86991
   R14        2.05529   0.00328   0.00000   0.00922   0.00922   2.06451
   R15        2.05296   0.00272   0.00000   0.00761   0.00761   2.06057
   R16        2.67321   0.00702   0.00000   0.01521   0.01517   2.68838
   R17        2.86985  -0.00037   0.00000  -0.00211  -0.00218   2.86767
   R18        2.04378   0.00447   0.00000   0.01230   0.01230   2.05609
   R19        2.05646   0.00561   0.00000   0.01577   0.01577   2.07222
   R20        2.88950  -0.00109   0.00000  -0.00392  -0.00393   2.88557
   R21        2.05389   0.00368   0.00000   0.01030   0.01030   2.06420
   R22        2.05174   0.00252   0.00000   0.00703   0.00703   2.05877
   R23        2.68623   0.00536   0.00000   0.01273   0.01275   2.69897
   R24        2.04327   0.00448   0.00000   0.01231   0.01231   2.05559
   R25        2.04853   0.00693   0.00000   0.01924   0.01924   2.06777
   R26        2.05374   0.00325   0.00000   0.00910   0.00910   2.06284
   R27        2.04971   0.00315   0.00000   0.00876   0.00876   2.05847
   R28        2.88824  -0.00074   0.00000  -0.00393  -0.00395   2.88429
   R29        2.05271   0.00268   0.00000   0.00748   0.00748   2.06020
   R30        2.05112   0.00428   0.00000   0.01192   0.01192   2.06304
   R31        2.05090   0.00322   0.00000   0.00897   0.00897   2.05987
   R32        2.05485   0.00332   0.00000   0.00932   0.00932   2.06417
    A1        1.97887  -0.00079   0.00000  -0.00362  -0.00353   1.97534
    A2        1.86713  -0.00081   0.00000   0.00069   0.00065   1.86778
    A3        1.96320  -0.00051   0.00000  -0.01256  -0.01267   1.95053
    A4        1.90954   0.00161   0.00000   0.01524   0.01521   1.92474
    A5        1.86269  -0.00001   0.00000  -0.00533  -0.00552   1.85717
    A6        1.88011   0.00067   0.00000   0.00705   0.00707   1.88719
    A7        1.93809   0.00310   0.00000   0.01235   0.01214   1.95023
    A8        1.89538  -0.00167   0.00000  -0.00930  -0.00922   1.88615
    A9        1.92013   0.00049   0.00000   0.01151   0.01153   1.93165
   A10        1.95433  -0.00130   0.00000  -0.01536  -0.01525   1.93908
   A11        1.83781  -0.00203   0.00000  -0.01048  -0.01053   1.82727
   A12        1.91775   0.00149   0.00000   0.01216   0.01212   1.92987
   A13        2.01610  -0.00390   0.00000  -0.03627  -0.03630   1.97979
   A14        1.90089   0.00350   0.00000   0.00600   0.00568   1.90657
   A15        1.87144   0.00027   0.00000   0.00735   0.00742   1.87886
   A16        1.87153   0.00028   0.00000  -0.00700  -0.00728   1.86426
   A17        1.87891   0.00215   0.00000   0.02619   0.02633   1.90524
   A18        1.92458  -0.00243   0.00000   0.00504   0.00501   1.92959
   A19        1.92097  -0.00028   0.00000  -0.00183  -0.00202   1.91895
   A20        1.91611   0.00069   0.00000   0.00117   0.00125   1.91736
   A21        1.93990  -0.00055   0.00000  -0.00118  -0.00116   1.93874
   A22        1.90729  -0.00010   0.00000  -0.00237  -0.00232   1.90497
   A23        1.90286   0.00004   0.00000  -0.00044  -0.00038   1.90248
   A24        1.87592   0.00022   0.00000   0.00475   0.00472   1.88064
   A25        1.93033   0.00051   0.00000   0.00505   0.00493   1.93526
   A26        1.85678  -0.00096   0.00000  -0.00318  -0.00314   1.85364
   A27        1.90369   0.00117   0.00000   0.00517   0.00522   1.90891
   A28        1.94871  -0.00042   0.00000  -0.00353  -0.00351   1.94520
   A29        1.93111  -0.00081   0.00000  -0.00667  -0.00665   1.92445
   A30        1.89105   0.00055   0.00000   0.00354   0.00351   1.89456
   A31        1.98447  -0.00445   0.00000  -0.02579  -0.02574   1.95874
   A32        1.91137   0.00271   0.00000   0.00132   0.00132   1.91269
   A33        1.91433  -0.00130   0.00000  -0.00294  -0.00300   1.91133
   A34        1.93123  -0.00035   0.00000   0.00110   0.00115   1.93238
   A35        1.92290  -0.00091   0.00000  -0.00395  -0.00395   1.91895
   A36        1.91679  -0.00096   0.00000  -0.00023  -0.00023   1.91656
   A37        1.86690   0.00073   0.00000   0.00468   0.00468   1.87159
   A38        1.94626   0.00145   0.00000   0.00295   0.00292   1.94918
   A39        1.94611  -0.00003   0.00000  -0.00148  -0.00142   1.94470
   A40        1.93006  -0.00109   0.00000  -0.00353  -0.00358   1.92648
   A41        1.84126  -0.00100   0.00000  -0.00105  -0.00108   1.84019
   A42        1.91013   0.00027   0.00000   0.00130   0.00135   1.91148
   A43        1.88709   0.00040   0.00000   0.00199   0.00198   1.88907
   A44        1.95607  -0.00176   0.00000  -0.01523  -0.01534   1.94073
   A45        1.87328  -0.00011   0.00000   0.00240   0.00242   1.87569
   A46        1.89968   0.00081   0.00000  -0.00114  -0.00113   1.89855
   A47        1.90779   0.00139   0.00000   0.00859   0.00865   1.91644
   A48        1.94796  -0.00025   0.00000  -0.00058  -0.00068   1.94728
   A49        1.87588  -0.00001   0.00000   0.00698   0.00695   1.88283
   A50        1.92143   0.00094   0.00000  -0.00327  -0.00333   1.91811
   A51        1.90947   0.00060   0.00000   0.00265   0.00268   1.91215
   A52        1.90817  -0.00134   0.00000  -0.00394  -0.00395   1.90422
   A53        1.92039  -0.00112   0.00000  -0.00004  -0.00002   1.92037
   A54        1.92997   0.00046   0.00000  -0.00050  -0.00050   1.92947
   A55        1.87371   0.00044   0.00000   0.00533   0.00532   1.87903
   A56        2.02639  -0.00599   0.00000  -0.03564  -0.03552   1.99088
   A57        2.10746  -0.01616   0.00000  -0.06329  -0.06329   2.04417
   A58        1.95972  -0.00065   0.00000  -0.01168  -0.01163   1.94809
   A59        1.91096   0.00047   0.00000  -0.00491  -0.00498   1.90598
   A60        1.87911  -0.00065   0.00000   0.00286   0.00286   1.88197
   A61        1.93715  -0.00022   0.00000  -0.00083  -0.00097   1.93617
   A62        1.90589   0.00087   0.00000   0.00872   0.00872   1.91461
   A63        1.86782   0.00019   0.00000   0.00695   0.00695   1.87477
    D1       -1.20162   0.00113   0.00000   0.05417   0.05410  -1.14752
[...]
 00445,-0.00002597,0.00003956,0.00001976,0.00003405,0.00000206,0.000064
 64,-0.00014625,-0.00042148,0.00012054,0.00002341,-0.00000184,-0.000005
 66,-0.00292517,0.00116655,0.00012788,0.00107082,-0.00015217,0.00055302
 ,-0.00003092,-0.00002706,0.00000091,0.00001869,-0.00000445,0.00000046,
 0.00033326,-0.00029712,-0.00016667,0.00009863,-0.00010935,-0.00000208,
 0.00921172,0.00224850,-0.00763196,-0.13745222,-0.01160030,0.20379000,-
 0.00021837,-0.00033834,0.00004272,-0.01700335,-0.00392061,0.02384227,0
 .00097801,0.00107816,0.00167015,0.00023531,0.00051953,0.00002082,0.000
 08647,-0.00002662,-0.00001380,-0.00004143,0.00016128,0.00001145,0.0071
 7709,0.00048256,-0.00879613,-0.00015480,-0.00003954,-0.00012935,-0.163
 29692,-0.01076859,0.12850988,-0.00002349,-0.00007480,0.00000929,0.0018
 3232,-0.00050436,-0.00050076,-0.00944402,0.00051528,-0.00195584,-0.000
 60537,-0.00020732,-0.00037659,-0.00008179,0.00010887,-0.00010878,0.000
 02592,0.00001507,-0.00000474,0.00101279,-0.00046606,-0.00011761,-0.000
 14878,-0.00013757,-0.00010423,-0.00020566,0.00022146,0.00016431,-0.000
 04740,0.00017580,-0.00001489,-0.00001157,0.00001847,-0.00000214,-0.000
 01228,-0.00000431,-0.00000267,0.00038957,-0.00184226,-0.00182370,0.000
 75613,0.00059718,0.00043964,0.00003045,0.00003369,0.00001518,0.0000139
 3,-0.00004247,0.00001082,0.17916742,-0.00007997,0.00001295,-0.00002025
 ,0.00573905,-0.00182930,-0.00704520,0.00008723,0.00028067,-0.00029829,
 0.00083608,0.00100177,-0.00039079,-0.00000879,0.00000274,0.00000307,0.
 00000422,-0.00002125,-0.00000412,0.01310471,0.00043710,-0.01508819,0.0
 0000225,-0.00001730,-0.00008372,-0.01385120,-0.05109313,0.01733207,0.0
 0000220,0.00000625,-0.00000347,0.00020432,0.00044924,0.00006530,0.0010
 9436,0.00083696,0.00064576,0.00008745,0.00003132,0.00005363,0.00000013
 ,-0.00000143,-0.00000271,-0.00000379,-0.00000408,0.00000300,-0.0003849
 1,0.00019671,0.00015398,0.00006897,-0.00001815,-0.00000581,-0.00023421
 ,0.00004180,0.00015933,-0.00016299,0.00014359,0.00008874,0.00000106,-0
 .00000137,0.00000076,0.00000216,0.00000103,-0.00000024,-0.00098811,-0.
 00169958,-0.00305450,-0.00004622,0.00071566,0.00089069,0.00003775,-0.0
 0001732,0.00001478,-0.00003570,0.00001277,0.00001365,0.01490985,0.0512
 8072,-0.00000252,-0.00005727,0.00003955,-0.00765869,-0.00050882,0.0073
 3084,-0.00021025,0.00018123,0.00053793,0.00016269,0.00113741,0.0009450
 7,0.00001615,-0.00000723,-0.00000213,-0.00000064,0.00002634,0.00000070
 ,0.01620264,0.00110261,-0.02140795,-0.00023347,-0.00024046,-0.00015084
 ,0.13253248,0.01639547,-0.19470645,-0.00001293,-0.00002634,-0.00000128
 ,0.00002516,-0.00051126,0.00034598,-0.00352282,0.00061580,0.00054174,-
 0.00019836,-0.00005702,-0.00009683,-0.00001180,0.00001319,-0.00002278,
 0.00000306,0.00001111,-0.00001556,0.00049248,-0.00035429,0.00078768,-0
 .00001323,-0.00003196,-0.00002301,-0.00003551,-0.00045078,0.00044466,-
 0.00034809,0.00003921,0.00016155,-0.00000215,0.00000340,-0.00000158,-0
 .00000117,-0.00000079,0.00000035,-0.00186614,-0.00364680,-0.00292393,-
 0.00010318,0.00066681,0.00104393,0.00009173,-0.00001526,0.00004611,-0.
 00001651,0.00001058,-0.00002770,-0.14046512,-0.01494413,0.21367405,0.0
 0004582,0.00000668,-0.00003014,0.00258989,0.02701986,-0.00600371,0.000
 33554,-0.00026041,-0.00005966,0.00016095,-0.00120993,-0.00231404,0.000
 00021,-0.00000526,-0.00002299,-0.00009350,-0.00000429,0.00003625,-0.00
 101306,-0.00879628,0.00417669,-0.00058552,-0.00120277,-0.00130720,-0.0
 4961374,-0.01416523,0.00461076,-0.00000144,0.00000315,0.00000575,-0.00
 567219,0.00623067,-0.00303640,0.00111558,0.00056636,-0.00040608,0.0000
 4584,0.00001163,0.00001906,-0.00001487,-0.00000116,0.00001583,0.000004
 32,0.00000888,0.00003161,0.00081813,-0.00081761,0.00016293,-0.00004187
 ,-0.00003966,-0.00001843,-0.00000247,0.00037204,-0.00018147,0.00037498
 ,-0.00084229,0.00006234,-0.00000089,0.00000029,0.00000260,-0.00000671,
 0.00000074,0.00000609,0.00036453,0.00047378,-0.00013044,0.00010577,0.0
 0022891,0.00057047,0.00016169,0.00012471,0.00020162,0.00003585,0.00008
 429,0.00017562,-0.00025734,-0.02040152,0.00523097,0.05114801,-0.000100
 40,-0.00002978,0.00000910,-0.00256856,-0.00926896,0.00204092,0.0001677
 4,0.00033276,-0.00003428,-0.00129711,-0.00044894,-0.00426960,-0.000005
 61,0.00000162,0.00002063,0.00009855,-0.00000580,-0.00001292,-0.0004365
 6,-0.01628012,0.00566448,-0.00055850,0.00088532,0.00040470,-0.00951681
 ,-0.29483919,0.07517303,0.00000034,-0.00000160,-0.00000814,0.00226007,
 -0.00059644,0.00120755,-0.00112810,0.00128802,-0.00026306,0.00002110,-
 0.00000091,0.00001405,0.00001066,0.00000716,-0.00003035,-0.00000587,0.
 00000227,-0.00003609,0.00051733,0.00028691,0.00009514,0.00004063,-0.00
 005799,-0.00000962,-0.00008678,0.00011990,0.00007992,0.00023817,-0.001
 17656,0.00048828,0.00000088,-0.00000108,-0.00000275,0.00000538,-0.0000
 0070,-0.00000517,0.00038390,0.00071619,0.00009783,-0.00023425,0.000647
 91,0.00011092,0.00006417,-0.00005590,0.00004329,0.00006483,-0.00004760
 ,-0.00008431,-0.00055448,-0.00072938,0.00062931,0.01261012,0.31925436,
 0.00005321,0.00001742,-0.00001613,0.00403857,0.01003047,-0.00424236,-0
 .00004423,-0.00019014,0.00001403,-0.00174508,-0.00249041,-0.00437436,-
 0.00000290,-0.00000557,-0.00001305,-0.00007749,0.00000216,0.00001658,-
 0.00030054,-0.02596869,0.00874494,-0.00060704,-0.00049913,-0.00096577,
 0.00211156,0.07645045,-0.07056632,-0.00000317,-0.00000067,0.00000062,-
 0.00339941,0.00311083,-0.00022080,0.00106565,-0.00070107,0.00046671,-0
 .00000899,-0.00000875,0.00000407,-0.00001019,-0.00000231,0.00001504,0.
 00000293,0.00000520,0.00002107,0.00037236,-0.00040562,0.00011713,-0.00
 001031,0.00000621,-0.00000740,-0.00010285,-0.00010213,0.00016196,0.000
 07095,-0.00157664,0.00040182,-0.00000080,0.00000146,0.00000051,-0.0000
 0440,0.00000083,0.00000445,0.00059732,0.00085005,0.00113391,0.00014967
 ,0.00103168,0.00098428,0.00012762,0.00011665,0.00018994,0.00006633,0.0
 0008058,0.00013930,-0.00055066,0.02155573,-0.00657934,-0.00178162,-0.0
 8131312,0.07456985,-0.00023215,0.00032376,-0.00006431,0.00019615,0.000
 03706,-0.00014486,0.00083394,0.00021968,-0.00047855,-0.00001610,-0.000
 01607,0.00004939,0.00638923,-0.00242830,-0.00769217,0.00129303,0.00134
 651,-0.00290511,-0.00000351,0.00000089,0.00000116,0.00006183,-0.000036
 77,-0.00017208,-0.00000528,-0.00000712,0.00000835,-0.16398931,0.018286
 37,0.13267868,0.00000203,-0.00000849,0.00007738,0.00010677,0.00033533,
 0.00024834,-0.00117698,-0.00053747,0.00008820,0.00000897,-0.00003027,-
 0.00000135,-0.00001095,-0.00011257,0.00001536,-0.00002142,-0.00001350,
 0.00002673,-0.00014296,-0.00009444,0.00016599,-0.00002342,0.00000606,-
 0.00000653,-0.00000300,-0.00000291,-0.00000372,0.00027138,-0.00015591,
 0.00054140,0.00030763,-0.00055380,0.00062622,0.00000633,-0.00000041,0.
 00000130,-0.00000579,0.00000131,-0.00000311,-0.00003183,-0.00001449,0.
 00002457,-0.00004758,0.00004057,0.00010019,-0.00001187,0.00000013,-0.0
 0000093,-0.00000268,0.00000130,0.00000007,0.17300021,0.00025625,-0.001
 48435,0.00027054,-0.00020882,-0.00022965,0.00039892,-0.00121072,-0.006
 94019,-0.00035965,-0.00001322,-0.00000354,0.00002682,-0.01348067,0.002
 46308,0.00981117,0.00041147,-0.00091839,0.00644154,0.00001030,-0.00001
 680,-0.00000622,-0.00000633,-0.00002471,-0.00009645,0.00004279,0.00004
 620,-0.00007618,0.01773920,-0.04858403,-0.01850958,0.00003418,0.000196
 12,-0.00001565,0.00022321,0.00033471,-0.00019348,0.02179294,-0.0036336
 1,-0.02639747,-0.00006812,0.00018789,0.00002464,-0.00003046,0.00034685
 ,-0.00000273,-0.00000991,0.00000146,-0.00002455,0.00110222,-0.00025881
 ,-0.00168643,-0.00000651,0.00000260,-0.00000463,0.00000371,0.00000371,
 0.00000107,-0.00026010,0.00019733,-0.00100139,0.00020194,0.00055828,-0
 .00042057,0.00000310,0.00000177,-0.00000176,0.00000662,0.00000779,0.00
 000819,0.00000088,0.00000531,0.00001224,0.00000554,0.00001935,0.000029
 77,0.00004160,-0.00000598,0.00000936,-0.00000152,-0.00000062,0.0000001
 2,-0.01975668,0.05424954,-0.00013781,0.00157213,0.00102224,-0.00014341
 ,-0.00007052,0.00018163,-0.00111328,-0.00170894,0.00116856,-0.00000935
 ,-0.00000285,0.00002332,0.01822648,-0.00546374,-0.01581600,-0.00074055
 ,0.00288607,-0.00719144,0.00000899,-0.00000813,-0.00000633,-0.00002182
 ,-0.00006323,-0.00007208,0.00001918,0.00002521,-0.00003474,0.12979233,
 -0.01924236,-0.19891398,0.00016253,0.00008988,-0.00002629,0.00039230,0
 .00029654,0.00003500,0.00399598,-0.00110053,-0.00572210,-0.00004366,-0
 .00018878,-0.00006509,0.00005347,-0.00016671,-0.00003505,-0.00001103,-
 0.00000510,-0.00000681,0.00034624,0.00003629,-0.00033825,-0.00000630,0
 .00000207,-0.00000323,0.00000496,0.00000223,0.00000310,0.00001970,0.00
 023896,0.00079178,-0.00043181,-0.00057188,0.00087995,0.00000261,0.0000
 0022,-0.00000006,0.00000435,0.00000443,0.00000559,-0.00000791,0.000002
 40,0.00001120,0.00001752,0.00002223,0.00001360,0.00002232,-0.00000255,
 0.00000498,0.00000076,-0.00000182,0.00000156,-0.14385814,0.02179452,0.
 21489864,0.00001989,0.00037806,0.00005989,0.00020979,0.00002711,-0.000
 17224,-0.00056831,-0.00073008,0.00010851,-0.00002018,-0.00003393,0.000
 06163,-0.01144424,-0.00291553,-0.00253169,0.00185343,-0.00047455,0.000
 06802,0.00001027,-0.00001603,0.00004093,-0.00030271,-0.00002544,-0.000
 02759,0.00001553,0.00000873,-0.00002392,-0.25459544,-0.08158128,-0.071
 48261,0.00017216,0.00001208,0.00006181,-0.00044567,0.00095144,0.000584
 34,0.00376204,0.00060944,0.00089563,-0.00010085,-0.00002391,0.00002688
 ,-0.00000014,-0.00002150,-0.00004692,-0.00002275,-0.00000753,0.0000469
 9,0.00009788,-0.00005179,-0.00018217,-0.00004206,0.00000527,-0.0000107
 0,-0.00000085,-0.00000116,-0.00000609,0.00047466,0.00023705,0.00020626
 ,0.00061233,0.00148439,-0.00175481,0.00008727,-0.00001086,-0.00005084,
 0.00000437,0.00000693,-0.00001118,-0.00002077,-0.00004855,0.00003449,-
 0.00159646,-0.00059002,0.00088928,0.00000063,-0.00000358,0.00000083,-0
 .00000235,0.00000012,-0.00000019,-0.01730457,-0.00637007,-0.00627897,0
 .27763339,0.00011628,-0.00037328,-0.00005120,0.00007526,0.00005663,0.0
 0018038,-0.00086270,0.00097815,0.00052391,-0.00001862,-0.00001289,0.00
 003509,0.01924512,0.00574396,0.00649497,-0.00080191,0.00034823,-0.0019
 9068,0.00000685,-0.00000155,-0.00001713,-0.00011991,-0.00001811,-0.000
 04404,0.00001657,0.00000827,-0.00003243,-0.08201647,-0.07934323,-0.028
 39844,0.00006444,0.00002355,-0.00001170,0.00059944,0.00021973,-0.00006
 922,-0.02961546,-0.01263592,-0.00939501,0.00007059,-0.00003564,-0.0000
 0300,-0.00002834,0.00009387,-0.00007763,-0.00004571,-0.00001874,0.0000
 1040,0.00018790,-0.00000194,0.00004135,-0.00001969,0.00000235,-0.00000
 474,0.00000046,-0.00000048,-0.00000284,-0.00008828,0.00095664,-0.00096
 510,0.00094738,-0.00102179,0.00382571,0.00000071,-0.00000167,0.0000100
 5,-0.00000394,0.00000282,0.00000565,-0.00000841,-0.00002419,0.00001985
 ,-0.00073345,-0.00027354,0.00039210,0.00001076,-0.00000361,0.00000450,
 -0.00000005,-0.00000077,0.00000010,0.00276436,0.00042278,0.00162083,0.
 08901550,0.08932321,0.00010056,-0.00009253,-0.00005110,0.00003783,-0.0
 0000641,-0.00001607,-0.00075447,0.00019163,-0.00003251,-0.00002217,-0.
 00001531,0.00007955,-0.02523134,-0.00833670,-0.01025465,0.00039211,-0.
 00067135,0.00268777,-0.00000719,-0.00001053,0.00000948,0.00017930,-0.0
 0006005,-0.00027657,0.00000279,0.00000178,0.00000499,-0.06879273,-0.02
 836943,-0.07344394,-0.00001127,0.00010049,0.00010882,0.00018409,-0.000
 03356,0.00013433,-0.00651276,-0.00257376,-0.00286995,-0.00002248,0.000
 03107,0.00005710,0.00000464,-0.00000190,-0.00002548,-0.00002206,-0.000
 00015,0.00001837,0.00007690,0.00001883,-0.00001972,-0.00003673,0.00001
 193,-0.00000953,-0.00000051,-0.00000154,-0.00000450,0.00087395,-0.0002
 5663,0.00107857,-0.00160643,0.00270286,-0.00362605,0.00003116,-0.00000
 368,-0.00001689,-0.00000328,0.00000668,-0.00000577,-0.00004324,-0.0000
 0826,0.00003880,0.00079387,0.00033038,-0.00025006,-0.00000802,0.000000
 42,-0.00000145,-0.00000343,0.00000221,-0.00000078,0.02090776,0.0087468
 2,0.00856574,0.07911210,0.02948316,0.07723205,-0.00269549,0.00122352,0
 .00279789,0.00039473,-0.00014336,0.00011661,0.00509126,-0.01159946,0.0
 1659690,0.00000163,-0.00000356,-0.00000415,0.00076805,0.00090765,0.000
 67140,0.00015459,-0.00012694,-0.00066201,-0.00001086,-0.00000637,0.000
 00008,-0.00000773,0.00000423,-0.00000787,0.00003713,0.00003183,-0.0000
 9659,-0.00131384,-0.00040560,-0.00094884,-0.00001968,0.00007192,-0.000
 04741,0.00178500,-0.00011359,0.00002707,-0.08537946,0.05507967,-0.0775
 1720,0.00018302,0.00002048,0.00005346,0.00040306,-0.00065142,0.0008267
 6,-0.00000535,-0.00001414,-0.00002474,0.00054705,0.00003811,-0.0010323
 4,0.00000223,0.00000091,-0.00000130,0.00000069,0.00000306,0.00000008,0
 .00019051,0.00023280,-0.00033739,0.00021429,-0.00018235,0.00033930,0.0
 0000666,0.00000242,-0.00000777,0.00000236,0.00000168,0.00000441,0.0000
 0141,0.00000192,-0.00000024,-0.00000313,-0.00000548,-0.00000533,0.0000
 3966,-0.00000490,0.00000858,-0.00000426,0.00000163,-0.00000063,-0.0001
 1272,-0.00000003,-0.00012516,0.00041173,0.00019739,0.00040455,0.089173
 09,0.00055810,0.00050592,-0.00141253,-0.00011990,0.00003021,-0.0000623
 6,-0.00284341,0.00222107,-0.00250674,-0.00000203,-0.00000228,0.0000034
 0,0.00025197,-0.00603834,-0.00511292,-0.00040191,0.00095521,0.00047489
 ,-0.00000321,-0.00000264,0.00000822,-0.00000777,-0.00000254,-0.0000023
 0,-0.00000809,-0.00000812,0.00001339,0.01251684,-0.01720322,0.02494962
 ,0.00000531,0.00005440,-0.00003228,-0.00011500,-0.00011963,0.00005596,
 0.05384323,-0.12601409,0.10802760,0.00030257,-0.00000709,0.00009954,0.
 00009130,0.00033130,-0.00022980,0.00002678,0.00001114,-0.00002391,-0.0
 0062120,0.00039159,0.00034325,-0.00000182,0.00000179,-0.00000252,0.000
 00031,-0.00000041,-0.00000038,0.00042587,-0.00111710,0.00185511,0.0001
 0619,0.00013200,-0.00000761,-0.00000273,-0.00000066,-0.00000507,0.0000
 0109,0.00000088,-0.00000203,0.00000011,0.00000045,-0.00000048,0.000003
 73,-0.00000334,0.00001007,-0.00000251,0.00000168,-0.00000339,0.0000012
 6,0.00000384,0.00000088,0.00008880,0.00140684,-0.00023969,-0.00060900,
 0.00142391,0.00013756,-0.06027323,0.13681515,0.00519932,-0.00309760,-0
 .00365813,-0.00012663,-0.00004907,0.00024450,-0.01104050,0.01519298,-0
 .02284710,0.00000049,0.00000396,0.00001045,0.00064954,-0.00248150,-0.0
 0027767,-0.00067600,0.00073414,0.00074130,0.00001365,-0.00000925,-0.00
 000175,0.00001156,-0.00003611,-0.00004166,0.00001920,0.00004344,-0.000
 01753,0.00432127,-0.00563495,0.00890575,0.00007063,-0.00004586,0.00009
 068,-0.00158604,-0.00049492,0.00202892,-0.07450501,0.10877026,-0.19909
 859,0.00002523,-0.00017669,0.00030598,-0.00054470,0.00148025,-0.001098
 27,-0.00007287,0.00002234,0.00007122,-0.00035929,-0.00032446,0.0009883
 3,0.,0.00000030,0.00000037,0.00000455,0.00000075,0.00000310,0.00011625
 ,-0.00047323,0.00044593,-0.00001925,-0.00004013,-0.00003057,0.00000902
 ,0.00000397,-0.00000829,0.00000554,0.00000374,0.00000437,-0.00000004,0
 .00000239,0.00000049,-0.00001044,-0.00000309,0.00000104,0.00001189,-0.
 00000456,-0.00000083,0.00000139,-0.00000420,-0.00000126,-0.00001440,0.
 00082389,0.00044010,-0.00010625,0.00064574,0.00033867,0.08060973,-0.11
 712209,0.21689534,-0.00019078,0.00001364,-0.00122603,0.00038504,0.0011
 6340,-0.00165386,-0.01597683,-0.00619875,-0.00692833,0.00001197,0.0000
 0031,-0.00002246,0.00055444,0.00021349,0.00003324,-0.00004072,-0.00016
 150,0.00034248,-0.00001281,0.00004019,0.00003075,0.00007850,0.00010345
 ,0.00009439,-0.00022077,-0.00015027,0.00042641,0.00323933,0.00117130,0
 .00043144,-0.00015287,-0.00060837,0.00021126,-0.00446849,-0.00066811,0
 .00504310,-0.26566232,-0.08447317,-0.04883223,0.00061058,-0.00003537,0
 .00007928,0.00024231,0.00019431,0.00021536,-0.00009232,-0.00001215,0.0
 0017811,0.00055894,0.00041649,-0.00029211,-0.00000985,0.00000039,0.000
 00714,-0.00001323,-0.00001216,-0.00000774,0.00014714,-0.00008231,0.000
 14818,-0.00007942,-0.00027656,0.00034986,0.00000313,-0.00000775,-0.000
 00357,-0.00002051,-0.00001633,-0.00003105,-0.00001163,-0.00003117,-0.0
 0001165,-0.00004820,-0.00001218,0.00000296,-0.00018125,0.00002393,-0.0
 0006327,0.00000580,0.00000610,-0.00000572,0.00066461,-0.00045279,-0.00
 014052,0.00110197,0.00104392,-0.00002348,-0.00985563,-0.00321165,-0.00
 200784,0.28943389,-0.00033414,-0.00006810,-0.00002882,0.00012955,0.000
 12643,0.00023120,0.00312707,-0.00058754,0.00152698,-0.00000802,-0.0000
 0484,0.00002717,-0.00120666,0.00155927,-0.00060620,0.00009507,-0.00023
 558,0.00032192,-0.00000070,-0.00001126,-0.00001761,-0.00000564,-0.0000
 5592,-0.00009957,0.00005366,0.00001308,-0.00007864,-0.02973128,-0.0141
 2679,-0.00773555,0.00009028,0.00021670,-0.00008187,0.00207572,0.000947
 67,-0.00140071,-0.08417694,-0.07924563,-0.01807432,0.00000304,-0.00000
 212,0.00011799,0.00003429,0.00001677,0.00000983,0.00001269,-0.00000371
 ,-0.00003492,0.00015263,0.00031031,0.00043200,-0.00000749,0.00000342,-
 0.00000270,0.00000445,0.00000286,0.00000139,0.00033936,0.00020101,-0.0
 0015344,0.00048737,0.00010969,0.00043496,-0.00000167,-0.00000074,0.000
 00283,0.00000284,0.00000443,0.00000660,-0.00000332,0.00000578,0.000009
 89,-0.00000371,0.00001086,0.00003560,0.00004030,-0.00001107,0.00000948
 ,0.00000462,-0.00000393,0.00000340,0.00031709,0.00164907,0.00024282,0.
 00077869,-0.00583679,-0.00132404,0.01571119,0.00623209,0.00226956,0.09
 201968,0.08878459,-0.00039337,0.00010976,0.00024403,0.00061280,-0.0008
 7868,0.00162816,0.02210702,0.00952790,0.00707376,-0.00001434,-0.000005
 20,0.00003702,0.00058826,0.00082697,-0.00004127,-0.00003788,0.00002727
 ,-0.00000171,0.00001062,-0.00003910,-0.00003912,-0.00004593,-0.0001067
 6,-0.00015143,0.00029638,0.00018229,-0.00048334,-0.00863734,-0.0045639
 6,-0.00327918,0.00007741,0.00044283,-0.00013845,0.00554370,0.00053732,
 -0.00514116,-0.05252404,-0.01871481,-0.06122253,0.00010442,0.00026417,
 -0.00045479,-0.00002029,-0.00028363,0.00018702,-0.00000508,-0.00001497
 ,-0.00008924,-0.00043742,-0.00032981,0.00110707,0.00000074,0.00000085,
 -0.00000626,0.00001116,0.00001211,0.00000492,0.00013065,0.00000505,-0.
 00002589,0.00013450,0.00007179,0.00029115,-0.00000309,0.00000777,0.000
 00464,0.00001538,0.00001741,0.00003146,0.00000410,0.00002326,0.0000153
 8,0.00000164,0.00001061,0.00002837,0.00020432,-0.00003239,0.00005655,-
 0.00001515,-0.00000593,-0.00000019,-0.00021580,0.00039713,0.00018445,0
 .00048858,-0.00223062,0.00055080,-0.02163785,-0.00921338,-0.00443488,0
 .05365592,0.02395476,0.06406463\\-0.00001143,-0.00000230,-0.00002138,-
 0.00104391,0.00593483,0.00071110,0.00006562,-0.00386520,0.00169205,0.0
 0001311,-0.00000210,0.00000649,0.00001982,0.00000451,-0.00002100,-0.00
 000971,0.00000093,0.00000773,-0.00000057,0.00000140,-0.00000033,-0.000
 01645,-0.00003937,-0.00004368,-0.00000155,0.00000323,0.00000772,0.0000
 0163,-0.00000140,0.00000717,0.00001634,0.00003076,0.00003738,0.0013769
 0,-0.00712730,-0.00138291,-0.00038251,0.00506469,-0.00102721,-0.000000
 07,-0.00000012,0.00000524,-0.00000578,-0.00000005,0.00000425,-0.000010
 96,0.00000036,-0.00000528,-0.00000869,0.00000021,-0.00000152,-0.000000
 35,-0.00000237,0.00000192,-0.00000009,-0.00000167,0.00000146,-0.000001
 94,0.00000168,0.00000377,-0.00000114,0.00000238,0.00000847,0.00000219,
 -0.00000402,-0.00000243,-0.00000054,-0.00000214,-0.00000105,0.00000396
 ,0.00000564,0.00000641,0.00000120,0.00000573,0.00000790,-0.00000355,-0
 .00000061,-0.00000085,0.00000073,-0.00000105,-0.00000408,-0.00000084,-
 0.00000412,0.00000513,0.00000033,0.00000021,-0.00000013,-0.00000233,0.
 00000021,0.00000088,0.00000057,-0.00000295,-0.00000320\\\@


 HE THAT WALD REACHE THE SWEITE ROSE
 SULD NOW AND THEN BE SCRATCHED WT THE SCHARPE BREERES.
 -- PROVERBS AND REASONS OF THE YEAR 1585
           AS REPRINTED IN PAISLEY MAGAZINE 1828.
 Job cpu time:       0 days 14 hours 27 minutes 33.3 seconds.
 Elapsed time:       0 days  1 hours 12 minutes 24.6 seconds.
 File lengths (MBytes):  RWF=    720 Int=      0 D2E=      0 Chk=     34 Scr=      1
 Normal termination of Gaussian 16 at Sat Mar  9 01:29:41 2019.
