 Entering Gaussian System, Link 0=g16
 Initial command:
 /sw/Projects/G16/g16/l1.exe "/nvme/pbs/tmpdir/pbs.74203[9].flm1/Gau-1316.inp" -scrdir="/nvme/pbs/tmpdir/pbs.74203[9].flm1/"
 Entering Link 1 = /sw/Projects/G16/g16/l1.exe PID=      1317.
  
 Copyright (c) 1988-2017, Gaussian, Inc.  All Rights Reserved.
  
 This is part of the Gaussian(R) 16 program.  It is based on
 the Gaussian(R) 09 system (copyright 2009, Gaussian, Inc.),
 the Gaussian(R) 03 system (copyright 2003, Gaussian, Inc.),
 the Gaussian(R) 98 system (copyright 1998, Gaussian, Inc.),
 the Gaussian(R) 94 system (copyright 1995, Gaussian, Inc.),
 the Gaussian 92(TM) system (copyright 1992, Gaussian, Inc.),
 the Gaussian 90(TM) system (copyright 1990, Gaussian, Inc.),
 the Gaussian 88(TM) system (copyright 1988, Gaussian, Inc.),
 the Gaussian 86(TM) system (copyright 1986, Carnegie Mellon
 University), and the Gaussian 82(TM) system (copyright 1983,
 Carnegie Mellon University). Gaussian is a federally registered
 trademark of Gaussian, Inc.
  
 This software contains proprietary and confidential information,
 including trade secrets, belonging to Gaussian, Inc.
  
 This software is provided under written license and may be
 used, copied, transmitted, or stored only in accord with that
 written license.
  
 The following legend is applicable only to US Government
 contracts under FAR:
  
                    RESTRICTED RIGHTS LEGEND
  
 Use, reproduction and disclosure by the US Government is
 subject to restrictions as set forth in subparagraphs (a)
 and (c) of the Commercial Computer Software - Restricted
 Rights clause in FAR 52.227-19.
  
 Gaussian, Inc.
 340 Quinnipiac St., Bldg. 40, Wallingford CT 06492
  
  
 ---------------------------------------------------------------
 Warning -- This program may not be used in any manner that
 competes with the business of Gaussian, Inc. or will provide
 assistance to any competitor of Gaussian, Inc.  The licensee
 of this program is prohibited from giving any competitor of
 Gaussian, Inc. access to this program.  By using this program,
 the user acknowledges that Gaussian, Inc. is engaged in the
 business of creating and licensing software in the field of
 computational chemistry and represents and warrants to the
 licensee that it is not a competitor of Gaussian, Inc. and that
 it will not use this program in any manner prohibited above.
 ---------------------------------------------------------------
  

 Cite this work as:
 Gaussian 16, Revision B.01,
 M. J. Frisch, G. W. Trucks, H. B. Schlegel, G. E. Scuseria, 
 M. A. Robb, J. R. Cheeseman, G. Scalmani, V. Barone, 
 G. A. Petersson, H. Nakatsuji, X. Li, M. Caricato, A. V. Marenich, 
 J. Bloino, B. G. Janesko, R. Gomperts, B. Mennucci, H. P. Hratchian, 
 J. V. Ortiz, A. F. Izmaylov, J. L. Sonnenberg, D. Williams-Young, 
 F. Ding, F. Lipparini, F. Egidi, J. Goings, B. Peng, A. Petrone, 
 T. Henderson, D. Ranasinghe, V. G. Zakrzewski, J. Gao, N. Rega, 
 G. Zheng, W. Liang, M. Hada, M. Ehara, K. Toyota, R. Fukuda, 
 J. Hasegawa, M. Ishida, T. Nakajima, Y. Honda, O. Kitao, H. Nakai, 
 T. Vreven, K. Throssell, J. A. Montgomery, Jr., J. E. Peralta, 
 F. Ogliaro, M. J. Bearpark, J. J. Heyd, E. N. Brothers, K. N. Kudin, 
 V. N. Staroverov, T. A. Keith, R. Kobayashi, J. Normand, 
 K. Raghavachari, A. P. Rendell, J. C. Burant, S. S. Iyengar, 
 J. Tomasi, M. Cossi, J. M. Millam, M. Klene, C. Adamo, R. Cammi, 
 J. W. Ochterski, R. L. Martin, K. Morokuma, O. Farkas, 
 J. B. Foresman, and D. J. Fox, Gaussian, Inc., Wallingford CT, 2016.
 
 ******************************************
 Gaussian 16:  ES64L-G16RevB.01 20-Dec-2017
                 8-Mar-2019 
 ******************************************
 %mem=20gb
 %nproc=12
 Will use up to   12 processors via shared memory.
 %chk=4c1_a1_a4_4c1_PSI.inp_extract_9.chk
 ----------------------------------------------------------------------
 #M062X/6-311++G(2d,2p) opt=ModRedundant freq=noraman SCRF=(SMD,solvent
 =water)
 ----------------------------------------------------------------------
 1/18=120,19=15,26=3,38=1/1,3;
 2/9=110,12=2,17=6,18=5,40=1/2;
 3/5=4,6=6,7=1212,11=2,25=1,30=1,70=32201,71=1,72=1,74=-55/1,2,3;
 4//1;
 5/5=2,38=5,53=1/2;
 6/7=2,8=2,9=2,10=2,28=1/1;
 7//1,2,3,16;
 1/18=20,19=15,26=3/3(2);
 2/9=110/2;
 99//99;
 2/9=110/2;
 3/5=4,6=6,7=1212,11=2,25=1,30=1,70=32205,71=1,72=1,74=-55/1,2,3;
 4/5=5,16=3,69=1/1;
 5/5=2,38=5,53=1/2;
 7//1,2,3,16;
 1/18=20,19=15,26=3/3(-5);
 2/9=110/2;
 6/7=2,8=2,9=2,10=2,19=2,28=1/1;
 99/9=1/99;
 -------------------------------
 4c1_a1_a4_4c1_PSI.inp_extract_9
 -------------------------------
 Symbolic Z-matrix:
 Charge =  0 Multiplicity = 1
 C                    -1.9775   -1.21891  -0.65799 
 C                     0.89931  -0.65265  -0.56237 
 C                    -1.24092  -1.10001   0.66913 
 C                     3.19021   0.99453   0.10657 
 C                    -2.88511   0.95528  -0.53828 
 O                    -2.1463    0.02119  -1.30531 
 C                     3.13505  -0.4471    0.61112 
 C                     1.78247   1.52801  -0.10007 
 C                     2.26659  -1.28342  -0.32888 
 C                    -2.20305   1.23294   0.79249 
 O                     1.02742   0.68828  -0.96278 
 O                     0.14489  -0.75007   0.60944 
 C                    -1.95356  -0.07389   1.54763 
 H                    -2.95108  -1.64962  -0.43637 
 H                    -1.4829   -1.87886  -1.35399 
 H                     0.40555  -1.14131  -1.38296 
 H                    -1.28406  -2.07506   1.14102 
 H                     3.73155   1.03463  -0.83594 
 H                     3.71239   1.63662   0.81038 
 H                    -2.95956   1.85087  -1.13975 
 H                    -3.88813   0.56452  -0.38006 
 H                     2.72515  -0.46724   1.61752 
 H                     4.13269  -0.87194   0.66688 
 H                     1.79256   2.49882  -0.57627 
 H                     1.26967   1.62455   0.85062 
 H                     2.75711  -1.36286  -1.2956 
 H                     2.12549  -2.29071   0.0485 
 H                    -2.83008   1.8952    1.38261 
 H                    -1.2662    1.75009   0.61314 
 H                    -1.37401   0.0997    2.44828 
 H                    -2.90513  -0.50128   1.85508 
 
 The following ModRedundant input section has been read:
 D      13       3      12       2 F                                           
 

 GradGradGradGradGradGradGradGradGradGradGradGradGradGradGradGradGradGrad
 Berny optimization.
 Initialization pass.
                           ----------------------------
                           !    Initial Parameters    !
                           ! (Angstroms and Degrees)  !
 --------------------------                            --------------------------
 ! Name  Definition              Value          Derivative Info.                !
 --------------------------------------------------------------------------------
 ! R1    R(1,3)                  1.5225         estimate D2E/DX2                !
 ! R2    R(1,6)                  1.409          estimate D2E/DX2                !
 ! R3    R(1,14)                 1.0874         estimate D2E/DX2                !
 ! R4    R(1,15)                 1.0792         estimate D2E/DX2                !
 ! R5    R(2,9)                  1.5238         estimate D2E/DX2                !
 ! R6    R(2,11)                 1.4053         estimate D2E/DX2                !
 ! R7    R(2,12)                 1.3971         estimate D2E/DX2                !
 ! R8    R(2,16)                 1.0752         estimate D2E/DX2                !
 ! R9    R(3,12)                 1.4306         estimate D2E/DX2                !
 ! R10   R(3,13)                 1.5273         estimate D2E/DX2                !
 ! R11   R(3,17)                 1.0841         estimate D2E/DX2                !
 ! R12   R(4,7)                  1.5284         estimate D2E/DX2                !
 ! R13   R(4,8)                  1.5195         estimate D2E/DX2                !
 ! R14   R(4,18)                 1.0876         estimate D2E/DX2                !
 ! R15   R(4,19)                 1.0864         estimate D2E/DX2                !
 ! R16   R(5,6)                  1.4166         estimate D2E/DX2                !
 ! R17   R(5,10)                 1.5209         estimate D2E/DX2                !
 ! R18   R(5,20)                 1.0814         estimate D2E/DX2                !
 ! R19   R(5,21)                 1.088          estimate D2E/DX2                !
 ! R20   R(7,9)                  1.5288         estimate D2E/DX2                !
 ! R21   R(7,22)                 1.0869         estimate D2E/DX2                !
 ! R22   R(7,23)                 1.0858         estimate D2E/DX2                !
 ! R23   R(8,11)                 1.4211         estimate D2E/DX2                !
 ! R24   R(8,24)                 1.0814         estimate D2E/DX2                !
 ! R25   R(8,25)                 1.0845         estimate D2E/DX2                !
 ! R26   R(9,26)                 1.087          estimate D2E/DX2                !
 ! R27   R(9,27)                 1.0849         estimate D2E/DX2                !
 ! R28   R(10,13)                1.5298         estimate D2E/DX2                !
 ! R29   R(10,28)                1.0863         estimate D2E/DX2                !
 ! R30   R(10,29)                1.085          estimate D2E/DX2                !
 ! R31   R(13,30)                1.085          estimate D2E/DX2                !
 ! R32   R(13,31)                1.0875         estimate D2E/DX2                !
 ! A1    A(3,1,6)              112.9351         estimate D2E/DX2                !
 ! A2    A(3,1,14)             106.6448         estimate D2E/DX2                !
 ! A3    A(3,1,15)             112.8437         estimate D2E/DX2                !
 ! A4    A(6,1,14)             109.5705         estimate D2E/DX2                !
 ! A5    A(6,1,15)             107.2673         estimate D2E/DX2                !
 ! A6    A(14,1,15)            107.431          estimate D2E/DX2                !
 ! A7    A(9,2,11)             110.9071         estimate D2E/DX2                !
 ! A8    A(9,2,12)             109.0964         estimate D2E/DX2                !
 ! A9    A(9,2,16)             109.9315         estimate D2E/DX2                !
 ! A10   A(11,2,12)            110.7787         estimate D2E/DX2                !
 ! A11   A(11,2,16)            104.9565         estimate D2E/DX2                !
 ! A12   A(12,2,16)            111.13           estimate D2E/DX2                !
 ! A13   A(1,3,12)             116.8335         estimate D2E/DX2                !
 ! A14   A(1,3,13)             109.1548         estimate D2E/DX2                !
 ! A15   A(1,3,17)             106.854          estimate D2E/DX2                !
 ! A16   A(12,3,13)            108.1599         estimate D2E/DX2                !
 ! A17   A(12,3,17)            106.0648         estimate D2E/DX2                !
 ! A18   A(13,3,17)            109.5937         estimate D2E/DX2                !
 ! A19   A(7,4,8)              110.0359         estimate D2E/DX2                !
 ! A20   A(7,4,18)             109.8041         estimate D2E/DX2                !
 ! A21   A(7,4,19)             111.1593         estimate D2E/DX2                !
 ! A22   A(8,4,18)             109.2875         estimate D2E/DX2                !
 ! A23   A(8,4,19)             109.0193         estimate D2E/DX2                !
 ! A24   A(18,4,19)            107.4793         estimate D2E/DX2                !
 ! A25   A(6,5,10)             111.1163         estimate D2E/DX2                !
 ! A26   A(6,5,20)             106.3107         estimate D2E/DX2                !
 ! A27   A(6,5,21)             108.8276         estimate D2E/DX2                !
 ! A28   A(10,5,20)            111.4899         estimate D2E/DX2                !
 ! A29   A(10,5,21)            110.5937         estimate D2E/DX2                !
 ! A30   A(20,5,21)            108.3525         estimate D2E/DX2                !
 ! A31   A(1,6,5)              113.2075         estimate D2E/DX2                !
 ! A32   A(4,7,9)              109.4828         estimate D2E/DX2                !
 ! A33   A(4,7,22)             109.6803         estimate D2E/DX2                !
 ! A34   A(4,7,23)             110.663          estimate D2E/DX2                !
 ! A35   A(9,7,22)             110.1794         estimate D2E/DX2                !
 ! A36   A(9,7,23)             109.8456         estimate D2E/DX2                !
 ! A37   A(22,7,23)            106.9611         estimate D2E/DX2                !
 ! A38   A(4,8,11)             111.5507         estimate D2E/DX2                !
 ! A39   A(4,8,24)             111.4955         estimate D2E/DX2                !
 ! A40   A(4,8,25)             110.4937         estimate D2E/DX2                !
 ! A41   A(11,8,24)            105.5517         estimate D2E/DX2                !
 ! A42   A(11,8,25)            109.4847         estimate D2E/DX2                !
 ! A43   A(24,8,25)            108.0911         estimate D2E/DX2                !
 ! A44   A(2,9,7)              112.1786         estimate D2E/DX2                !
 ! A45   A(2,9,26)             107.392          estimate D2E/DX2                !
 ! A46   A(2,9,27)             108.7203         estimate D2E/DX2                !
 ! A47   A(7,9,26)             109.297          estimate D2E/DX2                !
 ! A48   A(7,9,27)             111.5878         estimate D2E/DX2                !
 ! A49   A(26,9,27)            107.4702         estimate D2E/DX2                !
 ! A50   A(5,10,13)            110.4315         estimate D2E/DX2                !
 ! A51   A(5,10,28)            109.1335         estimate D2E/DX2                !
 ! A52   A(5,10,29)            109.2435         estimate D2E/DX2                !
 ! A53   A(13,10,28)           110.2911         estimate D2E/DX2                !
 ! A54   A(13,10,29)           110.3607         estimate D2E/DX2                !
 ! A55   A(28,10,29)           107.314          estimate D2E/DX2                !
 ! A56   A(2,11,8)             116.0592         estimate D2E/DX2                !
 ! A57   A(2,12,3)             125.1118         estimate D2E/DX2                !
 ! A58   A(3,13,10)            111.4758         estimate D2E/DX2                !
 ! A59   A(3,13,30)            109.6171         estimate D2E/DX2                !
 ! A60   A(3,13,31)            107.8705         estimate D2E/DX2                !
 ! A61   A(10,13,30)           111.1126         estimate D2E/DX2                !
 ! A62   A(10,13,31)           109.4245         estimate D2E/DX2                !
 ! A63   A(30,13,31)           107.1922         estimate D2E/DX2                !
 ! D1    D(6,1,3,12)           -69.0137         estimate D2E/DX2                !
 ! D2    D(6,1,3,13)            54.0428         estimate D2E/DX2                !
 ! D3    D(6,1,3,17)           172.478          estimate D2E/DX2                !
 ! D4    D(14,1,3,12)          170.5799         estimate D2E/DX2                !
 ! D5    D(14,1,3,13)          -66.3636         estimate D2E/DX2                !
 ! D6    D(14,1,3,17)           52.0716         estimate D2E/DX2                !
 ! D7    D(15,1,3,12)           52.8561         estimate D2E/DX2                !
 ! D8    D(15,1,3,13)          175.9127         estimate D2E/DX2                !
 ! D9    D(15,1,3,17)          -65.6522         estimate D2E/DX2                !
 ! D10   D(3,1,6,5)            -59.8819         estimate D2E/DX2                !
 ! D11   D(14,1,6,5)            58.8376         estimate D2E/DX2                !
 ! D12   D(15,1,6,5)           175.1608         estimate D2E/DX2                !
 ! D13   D(11,2,9,7)            51.9392         estimate D2E/DX2                !
 ! D14   D(11,2,9,26)          -68.1704         estimate D2E/DX2                !
 ! D15   D(11,2,9,27)          175.8335         estimate D2E/DX2                !
 ! D16   D(12,2,9,7)           -70.3459         estimate D2E/DX2                !
 ! D17   D(12,2,9,26)          169.5445         estimate D2E/DX2                !
 ! D18   D(12,2,9,27)           53.5484         estimate D2E/DX2                !
 ! D19   D(16,2,9,7)           167.5591         estimate D2E/DX2                !
 ! D20   D(16,2,9,26)           47.4495         estimate D2E/DX2                !
 ! D21   D(16,2,9,27)          -68.5466         estimate D2E/DX2                !
 ! D22   D(9,2,11,8)           -54.9504         estimate D2E/DX2                !
 ! D23   D(12,2,11,8)           66.3501         estimate D2E/DX2                !
 ! D24   D(16,2,11,8)         -173.6205         estimate D2E/DX2                !
 ! D25   D(9,2,12,3)          -137.8838         estimate D2E/DX2                !
 ! D26   D(11,2,12,3)           99.7539         estimate D2E/DX2                !
 ! D27   D(16,2,12,3)          -16.5146         estimate D2E/DX2                !
 ! D28   D(1,3,12,2)            -7.2744         estimate D2E/DX2                !
 ! D29   D(13,3,12,2)         -130.8422         Frozen                          !
 ! D30   D(17,3,12,2)          111.6594         estimate D2E/DX2                !
 ! D31   D(1,3,13,10)          -50.2077         estimate D2E/DX2                !
 ! D32   D(1,3,13,30)         -173.6538         estimate D2E/DX2                !
 ! D33   D(1,3,13,31)           69.9474         estimate D2E/DX2                !
 ! D34   D(12,3,13,10)          77.878          estimate D2E/DX2                !
 ! D35   D(12,3,13,30)         -45.5681         estimate D2E/DX2                !
 ! D36   D(12,3,13,31)        -161.9669         estimate D2E/DX2                !
 ! D37   D(17,3,13,10)        -166.9151         estimate D2E/DX2                !
 ! D38   D(17,3,13,30)          69.6387         estimate D2E/DX2                !
 ! D39   D(17,3,13,31)         -46.7601         estimate D2E/DX2                !
 ! D40   D(8,4,7,9)             53.0748         estimate D2E/DX2                !
 ! D41   D(8,4,7,22)           -67.9325         estimate D2E/DX2                !
 ! D42   D(8,4,7,23)           174.2921         estimate D2E/DX2                !
 ! D43   D(18,4,7,9)           -67.2573         estimate D2E/DX2                !
 ! D44   D(18,4,7,22)          171.7354         estimate D2E/DX2                !
 ! D45   D(18,4,7,23)           53.96           estimate D2E/DX2                !
 ! D46   D(19,4,7,9)           173.9461         estimate D2E/DX2                !
 ! D47   D(19,4,7,22)           52.9388         estimate D2E/DX2                !
 ! D48   D(19,4,7,23)          -64.8366         estimate D2E/DX2                !
 ! D49   D(7,4,8,11)           -54.9369         estimate D2E/DX2                !
 ! D50   D(7,4,8,24)          -172.669          estimate D2E/DX2                !
 ! D51   D(7,4,8,25)            67.1001         estimate D2E/DX2                !
 ! D52   D(18,4,8,11)           65.7067         estimate D2E/DX2                !
 ! D53   D(18,4,8,24)          -52.0254         estimate D2E/DX2                !
 ! D54   D(18,4,8,25)         -172.2563         estimate D2E/DX2                !
 ! D55   D(19,4,8,11)         -177.085          estimate D2E/DX2                !
 ! D56   D(19,4,8,24)           65.1829         estimate D2E/DX2                !
 ! D57   D(19,4,8,25)          -55.048          estimate D2E/DX2                !
 ! D58   D(10,5,6,1)            59.357          estimate D2E/DX2                !
 ! D59   D(20,5,6,1)          -179.164          estimate D2E/DX2                !
 ! D60   D(21,5,6,1)           -62.652          estimate D2E/DX2                !
 ! D61   D(6,5,10,13)          -54.5643         estimate D2E/DX2                !
 ! D62   D(6,5,10,28)         -175.9604         estimate D2E/DX2                !
 ! D63   D(6,5,10,29)           66.9899         estimate D2E/DX2                !
 ! D64   D(20,5,10,13)        -172.9629         estimate D2E/DX2                !
 ! D65   D(20,5,10,28)          65.6409         estimate D2E/DX2                !
 ! D66   D(20,5,10,29)         -51.4088         estimate D2E/DX2                !
 ! D67   D(21,5,10,13)          66.4118         estimate D2E/DX2                !
 ! D68   D(21,5,10,28)         -54.9843         estimate D2E/DX2                !
 ! D69   D(21,5,10,29)        -172.0341         estimate D2E/DX2                !
 ! D70   D(4,7,9,2)            -52.2409         estimate D2E/DX2                !
 ! D71   D(4,7,9,26)            66.7546         estimate D2E/DX2                !
 ! D72   D(4,7,9,27)          -174.5197         estimate D2E/DX2                !
 ! D73   D(22,7,9,2)            68.4635         estimate D2E/DX2                !
 ! D74   D(22,7,9,26)         -172.541          estimate D2E/DX2                !
 ! D75   D(22,7,9,27)          -53.8153         estimate D2E/DX2                !
 ! D76   D(23,7,9,2)          -173.9511         estimate D2E/DX2                !
 ! D77   D(23,7,9,26)          -54.9557         estimate D2E/DX2                !
 ! D78   D(23,7,9,27)           63.7701         estimate D2E/DX2                !
 ! D79   D(4,8,11,2)            57.3605         estimate D2E/DX2                !
 ! D80   D(24,8,11,2)          178.6156         estimate D2E/DX2                !
 ! D81   D(25,8,11,2)          -65.2565         estimate D2E/DX2                !
 ! D82   D(5,10,13,3)           51.3616         estimate D2E/DX2                !
 ! D83   D(5,10,13,30)         173.9535         estimate D2E/DX2                !
 ! D84   D(5,10,13,31)         -67.8738         estimate D2E/DX2                !
 ! D85   D(28,10,13,3)         172.0689         estimate D2E/DX2                !
 ! D86   D(28,10,13,30)        -65.3392         estimate D2E/DX2                !
 ! D87   D(28,10,13,31)         52.8335         estimate D2E/DX2                !
 ! D88   D(29,10,13,3)         -69.5289         estimate D2E/DX2                !
 ! D89   D(29,10,13,30)         53.063          estimate D2E/DX2                !
 ! D90   D(29,10,13,31)        171.2357         estimate D2E/DX2                !
 --------------------------------------------------------------------------------
 Trust Radius=3.00D-01 FncErr=1.00D-07 GrdErr=1.00D-06 EigMax=2.50D+02 EigMin=1.00D-04
 Number of steps in this run=    186 maximum allowed number of steps=    186.
 GradGradGradGradGradGradGradGradGradGradGradGradGradGradGradGradGradGrad

                          Input orientation:                          
 ---------------------------------------------------------------------
 Center     Atomic      Atomic             Coordinates (Angstroms)
 Number     Number       Type             X           Y           Z
 ---------------------------------------------------------------------
      1          6           0       -1.977501   -1.218908   -0.657987
      2          6           0        0.899307   -0.652651   -0.562369
      3          6           0       -1.240920   -1.100007    0.669134
      4          6           0        3.190207    0.994532    0.106572
      5          6           0       -2.885109    0.955276   -0.538278
      6          8           0       -2.146300    0.021186   -1.305312
      7          6           0        3.135050   -0.447097    0.611115
      8          6           0        1.782471    1.528006   -0.100066
      9          6           0        2.266589   -1.283419   -0.328875
     10          6           0       -2.203053    1.232935    0.792490
     11          8           0        1.027423    0.688280   -0.962783
     12          8           0        0.144889   -0.750066    0.609436
     13          6           0       -1.953559   -0.073890    1.547626
     14          1           0       -2.951083   -1.649616   -0.436368
     15          1           0       -1.482904   -1.878861   -1.353992
     16          1           0        0.405546   -1.141311   -1.382959
     17          1           0       -1.284056   -2.075062    1.141018
     18          1           0        3.731545    1.034632   -0.835938
     19          1           0        3.712393    1.636623    0.810380
     20          1           0       -2.959556    1.850874   -1.139749
     21          1           0       -3.888130    0.564517   -0.380056
     22          1           0        2.725152   -0.467238    1.617523
     23          1           0        4.132687   -0.871937    0.666875
     24          1           0        1.792557    2.498824   -0.576268
     25          1           0        1.269671    1.624552    0.850624
     26          1           0        2.757114   -1.362861   -1.295602
     27          1           0        2.125487   -2.290713    0.048504
     28          1           0       -2.830078    1.895203    1.382607
     29          1           0       -1.266198    1.750088    0.613138
     30          1           0       -1.374011    0.099695    2.448277
     31          1           0       -2.905129   -0.501275    1.855080
 ---------------------------------------------------------------------
                    Distance matrix (angstroms):
                    1          2          3          4          5
     1  C    0.000000
     2  C    2.933567   0.000000
     3  C    1.522478   2.509442   0.000000
     4  C    5.673541   2.899813   4.933402   0.000000
     5  C    2.359059   4.111911   2.895754   6.109569   0.000000
     6  O    1.409027   3.206516   2.444427   5.605277   1.416582
     7  C    5.323954   2.533350   4.424791   1.528365   6.287294
     8  C    4.689798   2.397700   4.079095   1.519544   4.722960
     9  C    4.257320   1.523761   3.651340   2.496346   5.620996
    10  C    2.857672   3.875012   2.526566   5.441927   1.520933
    11  O    3.572091   1.405290   3.317605   2.432066   3.944540
    12  O    2.516091   1.397055   1.430556   3.545484   3.661465
    13  C    2.485230   3.595259   1.527259   5.447613   2.505586
    14  H    1.087422   3.979362   2.109233   6.708334   2.607719
    15  H    1.079160   2.793777   2.181332   5.676936   3.265563
    16  H    2.492091   1.075154   2.631281   3.812462   3.992189
    17  H    2.109570   3.113174   1.084098   5.523723   3.816589
    18  H    6.140303   3.308071   5.616701   1.087649   6.623821
    19  H    6.533380   3.877972   5.660778   1.086418   6.768319
    20  H    3.258848   4.635928   3.864384   6.332947   1.081391
    21  H    2.628375   4.943105   3.298357   7.108064   1.088016
    22  H    5.278058   2.849564   4.126689   2.153142   6.176249
    23  H    6.261793   3.466103   5.378445   2.164697   7.351229
    24  H    5.295427   3.275650   4.868736   2.163929   4.925905
    25  H    4.572231   2.705434   3.709343   2.153833   4.431611
    26  H    4.779525   2.119782   4.462461   2.776862   6.146705
    27  H    4.299117   2.135399   3.624315   3.453959   5.998902
    28  H    3.819502   4.917601   3.464931   6.219590   2.139227
    29  H    3.307060   3.441567   2.850757   4.548299   2.139710
    30  H    3.428088   3.846815   2.149965   5.207341   3.454699
    31  H    2.773265   4.510067   2.129446   6.515201   2.801804
                    6          7          8          9         10
     6  O    0.000000
     7  C    5.637787   0.000000
     8  C    4.377027   2.497255   0.000000
     9  C    4.704148   1.528804   2.861963   0.000000
    10  C    2.423289   5.599174   4.094890   5.250447   0.000000
    11  O    3.261113   2.865018   1.421097   2.413497   3.716666
    12  O    3.083932   3.005471   2.893904   2.380442   3.078739
    13  C    2.861021   5.187512   4.386215   4.774292   1.529794
    14  H    2.048004   6.291605   5.711122   5.231611   3.221605
    15  H    2.013118   5.218917   4.882801   3.932444   3.848282
    16  H    2.805236   3.450863   3.266036   2.143541   4.144202
    17  H    3.335004   4.739152   4.891419   3.923565   3.450923
    18  H    5.983013   2.155293   2.140985   2.788650   6.157155
    19  H    6.435066   2.171387   2.136658   3.451796   5.929231
    20  H    2.009118   6.744658   4.865388   6.147674   2.165108
    21  H    2.045795   7.164554   5.758682   6.426356   2.158965
    22  H    5.701979   1.086867   2.796383   2.159837   5.278113
    23  H    6.641752   1.085761   3.445496   2.154799   6.677415
    24  H    4.710073   3.448277   1.081368   3.819852   4.409181
    25  H    4.345998   2.797987   1.084480   3.292622   3.495219
    26  H    5.095012   2.148727   3.276637   1.086962   5.975077
    27  H    5.042406   2.175929   3.836971   1.084881   5.630796
    28  H    3.347298   6.454791   4.858885   6.245704   1.086277
    29  H    2.728394   4.919208   3.138847   4.750804   1.085040
    30  H    3.833018   4.899569   4.300872   4.783257   2.170985
    31  H    3.291939   6.167183   5.469385   5.668163   2.151626
                   11         12         13         14         15
    11  O    0.000000
    12  O    2.306421   0.000000
    13  C    3.971059   2.396017   0.000000
    14  H    4.644500   3.389386   2.722903   0.000000
    15  H    3.611786   2.789075   3.449467   1.746464   0.000000
    16  H    1.977544   2.047108   3.910638   3.524396   2.027576
    17  H    4.171927   2.019920   2.149012   2.334123   2.510600
    18  H    2.729162   4.258915   6.263434   7.212653   5.995607
    19  H    3.354478   4.296946   5.964260   7.533635   6.635830
    20  H    4.156795   4.411589   3.455247   3.570469   4.017129
    21  H    4.951520   4.355739   2.804654   2.404914   3.564233
    22  H    3.297800   2.784598   4.695737   6.151108   5.341378
    23  H    3.838323   3.990073   6.201209   7.211222   6.052492
    24  H    2.003221   3.830925   5.016290   6.303273   5.522466
    25  H    2.055173   2.638582   3.709411   5.494660   4.971006
    26  H    2.703660   3.290654   5.651180   5.779621   4.271700
    27  H    3.332093   2.571188   4.878554   5.139812   3.893212
    28  H    4.673097   4.055326   2.161676   3.986108   4.852567
    29  H    2.978533   2.870880   2.161626   3.936786   4.133501
    30  H    4.212914   2.531894   1.084979   3.724033   4.287632
    31  H    4.982003   3.303958   1.087507   2.563500   3.770757
                   16         17         18         19         20
    16  H    0.000000
    17  H    3.177594   0.000000
    18  H    4.012011   6.223729   0.000000
    19  H    4.843851   6.233011   1.753032   0.000000
    20  H    4.509571   4.839646   6.747547   6.954409   0.000000
    21  H    4.727718   4.007773   7.647763   7.767529   1.759005
    22  H    3.851992   4.345792   3.047607   2.460154   6.729940
    23  H    4.262155   5.568970   2.460562   2.547570   7.808809
    24  H    3.978082   5.773652   2.443555   2.520308   4.829071
    25  H    3.658634   4.504775   3.041927   2.443083   4.679655
    26  H    2.363596   4.772358   2.628456   3.787430   6.559931
    27  H    2.515633   3.586792   3.797312   4.303800   6.665009
    28  H    5.228579   4.267500   6.979787   6.572536   2.526066
    29  H    3.890928   3.861444   5.252536   4.983788   2.439310
    30  H    4.402873   2.539013   6.142221   5.560248   4.295871
    31  H    4.674945   2.369508   7.324345   7.032326   3.808486
                   21         22         23         24         25
    21  H    0.000000
    22  H    6.985008   0.000000
    23  H    8.215411   1.746043   0.000000
    24  H    6.004186   3.805256   4.287615   0.000000
    25  H    5.407509   2.661230   3.803036   1.753220   0.000000
    26  H    6.979418   3.047861   2.446329   4.044802   3.967797
    27  H    6.670801   2.479210   2.534593   4.841575   4.087189
    28  H    2.448914   6.041266   7.526582   5.056709   4.142970
    29  H    3.044099   4.675061   6.002155   3.366196   2.550057
    30  H    3.812653   4.220747   5.868661   4.993080   3.444813
    31  H    2.664214   5.635393   7.147033   6.081143   4.791349
                   26         27         28         29         30
    26  H    0.000000
    27  H    1.751138   0.000000
    28  H    7.000321   6.622639   0.000000
    29  H    5.433303   5.305696   1.748960   0.000000
    30  H    5.763844   4.870262   2.545512   2.470457   0.000000
    31  H    6.536828   5.636746   2.443761   3.049123   1.748534
                   31
    31  H    0.000000
 Stoichiometry    C10H18O3
 Framework group  C1[X(C10H18O3)]
 Deg. of freedom    87
 Full point group                 C1      NOp   1
 Largest Abelian subgroup         C1      NOp   1
 Largest concise Abelian subgroup C1      NOp   1
                         Standard orientation:                         
 ---------------------------------------------------------------------
 Center     Atomic      Atomic             Coordinates (Angstroms)
 Number     Number       Type             X           Y           Z
 ---------------------------------------------------------------------
      1          6           0       -1.977501   -1.218908   -0.657987
      2          6           0        0.899307   -0.652651   -0.562369
      3          6           0       -1.240920   -1.100007    0.669134
      4          6           0        3.190207    0.994532    0.106572
      5          6           0       -2.885109    0.955276   -0.538278
      6          8           0       -2.146300    0.021186   -1.305312
      7          6           0        3.135050   -0.447097    0.611115
      8          6           0        1.782471    1.528006   -0.100066
      9          6           0        2.266589   -1.283419   -0.328875
     10          6           0       -2.203053    1.232935    0.792490
     11          8           0        1.027423    0.688280   -0.962783
     12          8           0        0.144889   -0.750066    0.609436
     13          6           0       -1.953559   -0.073890    1.547626
     14          1           0       -2.951083   -1.649616   -0.436368
     15          1           0       -1.482904   -1.878861   -1.353992
     16          1           0        0.405546   -1.141311   -1.382959
     17          1           0       -1.284056   -2.075062    1.141018
     18          1           0        3.731545    1.034632   -0.835938
     19          1           0        3.712393    1.636623    0.810380
     20          1           0       -2.959556    1.850874   -1.139749
     21          1           0       -3.888130    0.564517   -0.380056
     22          1           0        2.725152   -0.467238    1.617523
     23          1           0        4.132687   -0.871937    0.666875
     24          1           0        1.792557    2.498824   -0.576268
     25          1           0        1.269671    1.624552    0.850624
     26          1           0        2.757114   -1.362861   -1.295602
     27          1           0        2.125487   -2.290713    0.048504
     28          1           0       -2.830078    1.895203    1.382607
     29          1           0       -1.266198    1.750088    0.613138
     30          1           0       -1.374011    0.099695    2.448277
     31          1           0       -2.905129   -0.501275    1.855080
 ---------------------------------------------------------------------
 Rotational constants (GHZ):           1.5658517           0.5209960           0.4927363
 Standard basis: 6-311++G(2d,2p) (5D, 7F)
 There are   557 symmetry adapted cartesian basis functions of A   symmetry.
 There are   531 symmetry adapted basis functions of A   symmetry.
   531 basis functions,   762 primitive gaussians,   557 cartesian basis functions
    51 alpha electrons       51 beta electrons
       nuclear repulsion energy       919.7667425668 Hartrees.
 NAtoms=   31 NActive=   31 NUniq=   31 SFac= 1.00D+00 NAtFMM=   60 NAOKFM=F Big=F
 Integral buffers will be    131072 words long.
 Raffenetti 2 integral format.
 Two-electron integral symmetry is turned on.
 ------------------------------------------------------------------------------
 Polarizable Continuum Model (PCM)
 =================================
 Model                : PCM.
 Atomic radii         : SMD-Coulomb.
 Polarization charges : Total charges.
 Charge compensation  : None.
 Solution method      : On-the-fly selection.
 Cavity type          : VdW (van der Waals Surface) (Alpha=1.000).
 Cavity algorithm     : GePol (No added spheres)
                        Default sphere list used, NSphG=   31.
                        Lebedev-Laikov grids with approx.  5.0 points / Ang**2.
                        Smoothing algorithm: York/Karplus (Gamma=1.0000).
                        Polarization charges: spherical gaussians, with
                                              point-specific exponents (IZeta= 3).
                        Self-potential: point-specific (ISelfS= 7).
                        Self-field    : sphere-specific E.n sum rule (ISelfD= 2).
 1st derivatives      : Analytical E(r).r(x)/FMM algorithm (CHGder, D1EAlg=3).
                        Cavity 1st derivative terms included.
 Solvent              : Water, Eps=  78.355300 Eps(inf)=   1.777849
 ------------------------------------------------------------------------------
 ------------------------------------------------------------------------------
 Atomic radii for non-electrostatic terms: SMD-CDS.
 ------------------------------------------------------------------------------
 Nuclear repulsion after PCM non-electrostatic terms =      919.7730042733 Hartrees.
 One-electron integrals computed using PRISM.
 NBasis=   531 RedAO= T EigKep=  4.06D-06  NBF=   531
 NBsUse=   531 1.00D-06 EigRej= -1.00D+00 NBFU=   531
 ExpMin= 3.60D-02 ExpMax= 8.59D+03 ExpMxC= 1.30D+03 IAcc=3 IRadAn=         5 AccDes= 0.00D+00
 Harris functional with IExCor= 1009 and IRadAn=       5 diagonalized for initial guess.
 HarFok:  IExCor= 1009 AccDes= 0.00D+00 IRadAn=         5 IDoV= 1 UseB2=F ITyADJ=14
 ICtDFT=  3500011 ScaDFX=  1.000000  1.000000  1.000000  1.000000
 FoFCou: FMM=F IPFlag=           0 FMFlag=      100000 FMFlg1=           0
         NFxFlg=           0 DoJE=T BraDBF=F KetDBF=T FulRan=T
         wScrn=  0.000000 ICntrl=       500 IOpCl=  0 I1Cent=   200000004 NGrid=           0
         NMat0=    1 NMatS0=      1 NMatT0=    0 NMatD0=    1 NMtDS0=    0 NMtDT0=    0
 Petite list used in FoFCou.
 Requested convergence on RMS density matrix=1.00D-08 within 128 cycles.
 Requested convergence on MAX density matrix=1.00D-06.
 Requested convergence on             energy=1.00D-06.
 No special actions if energy rises.
 Inv3:  Mode=1 IEnd=    12048048.
 Iteration    1 A*A^-1 deviation from unit magnitude is 7.44D-15 for    564.
 Iteration    1 A*A^-1 deviation from orthogonality  is 3.21D-15 for   1841    956.
 Iteration    1 A^-1*A deviation from unit magnitude is 7.44D-15 for    564.
 Iteration    1 A^-1*A deviation from orthogonality  is 7.43D-15 for   2000   1979.
 Error on total polarization charges =  0.05958
 SCF Done:  E(RM062X) =  -617.498417479     A.U. after   13 cycles
            NFock= 13  Conv=0.20D-08     -V/T= 2.0035
 SMD-CDS (non-electrostatic) energy       (kcal/mol) =       3.93
 (included in total energy above)

 **********************************************************************

            Population analysis using the SCF Density.

 **********************************************************************

 Orbital symmetries:
       Occupied  (A) (A) (A) (A) (A) (A) (A) (A) (A) (A) (A) (A)
                 (A) (A) (A) (A) (A) (A) (A) (A) (A) (A) (A) (A)
                 (A) (A) (A) (A) (A) (A) (A) (A) (A) (A) (A) (A)
                 (A) (A) (A) (A) (A) (A) (A) (A) (A) (A) (A) (A)
                 (A) (A) (A)
       Virtual   (A) (A) (A) (A) (A) (A) (A) (A) (A) (A) (A) (A)
                 (A) (A) (A) (A) (A) (A) (A) (A) (A) (A) (A) (A)
                 (A) (A) (A) (A) (A) (A) (A) (A) (A) (A) (A) (A)
                 (A) (A) (A) (A) (A) (A) (A) (A) (A) (A) (A) (A)
                 (A) (A) (A) (A) (A) (A) (A) (A) (A) (A) (A) (A)
                 (A) (A) (A) (A) (A) (A) (A) (A) (A) (A) (A) (A)
                 (A) (A) (A) (A) (A) (A) (A) (A) (A) (A) (A) (A)
                 (A) (A) (A) (A) (A) (A) (A) (A) (A) (A) (A) (A)
                 (A) (A) (A) (A) (A) (A) (A) (A) (A) (A) (A) (A)
                 (A) (A) (A) (A) (A) (A) (A) (A) (A) (A) (A) (A)
                 (A) (A) (A) (A) (A) (A) (A) (A) (A) (A) (A) (A)
                 (A) (A) (A) (A) (A) (A) (A) (A) (A) (A) (A) (A)
                 (A) (A) (A) (A) (A) (A) (A) (A) (A) (A) (A) (A)
                 (A) (A) (A) (A) (A) (A) (A) (A) (A) (A) (A) (A)
                 (A) (A) (A) (A) (A) (A) (A) (A) (A) (A) (A) (A)
                 (A) (A) (A) (A) (A) (A) (A) (A) (A) (A) (A) (A)
                 (A) (A) (A) (A) (A) (A) (A) (A) (A) (A) (A) (A)
                 (A) (A) (A) (A) (A) (A) (A) (A) (A) (A) (A) (A)
                 (A) (A) (A) (A) (A) (A) (A) (A) (A) (A) (A) (A)
                 (A) (A) (A) (A) (A) (A) (A) (A) (A) (A) (A) (A)
                 (A) (A) (A) (A) (A) (A) (A) (A) (A) (A) (A) (A)
                 (A) (A) (A) (A) (A) (A) (A) (A) (A) (A) (A) (A)
                 (A) (A) (A) (A) (A) (A) (A) (A) (A) (A) (A) (A)
                 (A) (A) (A) (A) (A) (A) (A) (A) (A) (A) (A) (A)
                 (A) (A) (A) (A) (A) (A) (A) (A) (A) (A) (A) (A)
                 (A) (A) (A) (A) (A) (A) (A) (A) (A) (A) (A) (A)
                 (A) (A) (A) (A) (A) (A) (A) (A) (A) (A) (A) (A)
                 (A) (A) (A) (A) (A) (A) (A) (A) (A) (A) (A) (A)
                 (A) (A) (A) (A) (A) (A) (A) (A) (A) (A) (A) (A)
                 (A) (A) (A) (A) (A) (A) (A) (A) (A) (A) (A) (A)
                 (A) (A) (A) (A) (A) (A) (A) (A) (A) (A) (A) (A)
                 (A) (A) (A) (A) (A) (A) (A) (A) (A) (A) (A) (A)
                 (A) (A) (A) (A) (A) (A) (A) (A) (A) (A) (A) (A)
                 (A) (A) (A) (A) (A) (A) (A) (A) (A) (A) (A) (A)
                 (A) (A) (A) (A) (A) (A) (A) (A) (A) (A) (A) (A)
                 (A) (A) (A) (A) (A) (A) (A) (A) (A) (A) (A) (A)
                 (A) (A) (A) (A) (A) (A) (A) (A) (A) (A) (A) (A)
                 (A) (A) (A) (A) (A) (A) (A) (A) (A) (A) (A) (A)
                 (A) (A) (A) (A) (A) (A) (A) (A) (A) (A) (A) (A)
                 (A) (A) (A) (A) (A) (A) (A) (A) (A) (A) (A) (A)
 The electronic state is 1-A.
 Alpha  occ. eigenvalues --  -19.62838 -19.62608 -19.62571 -10.62946 -10.58504
 Alpha  occ. eigenvalues --  -10.57586 -10.57156 -10.57009 -10.52383 -10.52227
 Alpha  occ. eigenvalues --  -10.52165 -10.52156 -10.52019  -1.19683  -1.16645
 Alpha  occ. eigenvalues --   -1.13138  -0.90425  -0.89130  -0.86699  -0.84612
 Alpha  occ. eigenvalues --   -0.74907  -0.73468  -0.72877  -0.70791  -0.66009
 Alpha  occ. eigenvalues --   -0.61995  -0.59379  -0.58168  -0.57638  -0.55089
 Alpha  occ. eigenvalues --   -0.54138  -0.52809  -0.51698  -0.50408  -0.49522
 Alpha  occ. eigenvalues --   -0.48209  -0.46209  -0.45663  -0.45141  -0.44962
 Alpha  occ. eigenvalues --   -0.43031  -0.41753  -0.41520  -0.39753  -0.38986
 Alpha  occ. eigenvalues --   -0.37700  -0.36984  -0.36056  -0.33555  -0.32868
 Alpha  occ. eigenvalues --   -0.31888
 Alpha virt. eigenvalues --    0.00275   0.01269   0.01407   0.01508   0.02727
 Alpha virt. eigenvalues --    0.02998   0.03233   0.03600   0.03832   0.05168
 Alpha virt. eigenvalues --    0.05255   0.05531   0.05959   0.06238   0.07750
 Alpha virt. eigenvalues --    0.07988   0.08219   0.08939   0.09060   0.09834
 Alpha virt. eigenvalues --    0.10464   0.11063   0.11806   0.12218   0.12631
 Alpha virt. eigenvalues --    0.12823   0.13266   0.13444   0.13526   0.13948
 Alpha virt. eigenvalues --    0.14283   0.14659   0.14914   0.15025   0.15314
 Alpha virt. eigenvalues --    0.15685   0.16115   0.16258   0.16386   0.16590
 Alpha virt. eigenvalues --    0.17167   0.17313   0.17898   0.18274   0.18374
 Alpha virt. eigenvalues --    0.18692   0.18852   0.19232   0.19804   0.19985
 Alpha virt. eigenvalues --    0.20271   0.20846   0.21143   0.21706   0.22052
 Alpha virt. eigenvalues --    0.22287   0.22722   0.23788   0.24295   0.24689
 Alpha virt. eigenvalues --    0.24912   0.25354   0.26840   0.27125   0.27468
 Alpha virt. eigenvalues --    0.28207   0.28708   0.29136   0.29489   0.29854
 Alpha virt. eigenvalues --    0.30326   0.30841   0.31163   0.31929   0.32228
 Alpha virt. eigenvalues --    0.32751   0.33898   0.34636   0.34806   0.35212
 Alpha virt. eigenvalues --    0.35294   0.35765   0.36686   0.36828   0.37162
 Alpha virt. eigenvalues --    0.37550   0.37631   0.38559   0.38763   0.39002
 Alpha virt. eigenvalues --    0.39131   0.39475   0.39941   0.40751   0.41224
 Alpha virt. eigenvalues --    0.42416   0.43620   0.44050   0.44772   0.45635
 Alpha virt. eigenvalues --    0.45957   0.49157   0.49993   0.50609   0.51074
 Alpha virt. eigenvalues --    0.52432   0.53424   0.55151   0.55607   0.56738
 Alpha virt. eigenvalues --    0.57932   0.58541   0.59544   0.60263   0.60620
 Alpha virt. eigenvalues --    0.61022   0.61393   0.61609   0.61940   0.62568
 Alpha virt. eigenvalues --    0.62801   0.63428   0.63763   0.64515   0.64976
 Alpha virt. eigenvalues --    0.65529   0.66115   0.66667   0.67483   0.67767
 Alpha virt. eigenvalues --    0.68342   0.70132   0.70549   0.70910   0.71348
 Alpha virt. eigenvalues --    0.71515   0.72086   0.72565   0.73556   0.73858
 Alpha virt. eigenvalues --    0.74422   0.75155   0.75517   0.76219   0.76286
 Alpha virt. eigenvalues --    0.77114   0.78014   0.78316   0.78988   0.79565
 Alpha virt. eigenvalues --    0.80563   0.82323   0.83416   0.85891   0.86861
 Alpha virt. eigenvalues --    0.87718   0.88028   0.88529   0.88920   0.90382
 Alpha virt. eigenvalues --    0.91717   0.93561   0.93958   0.97515   0.97818
 Alpha virt. eigenvalues --    0.98309   0.99970   1.01613   1.02520   1.02818
 Alpha virt. eigenvalues --    1.03779   1.04786   1.04827   1.04994   1.06057
 Alpha virt. eigenvalues --    1.08154   1.09228   1.10385   1.11636   1.12550
 Alpha virt. eigenvalues --    1.13259   1.14984   1.16470   1.16763   1.17933
 Alpha virt. eigenvalues --    1.18691   1.19639   1.19950   1.20514   1.20655
 Alpha virt. eigenvalues --    1.21510   1.22868   1.23646   1.24040   1.24572
 Alpha virt. eigenvalues --    1.25599   1.26044   1.26239   1.28608   1.29227
 Alpha virt. eigenvalues --    1.29969   1.31484   1.32215   1.32672   1.32925
 Alpha virt. eigenvalues --    1.33355   1.34187   1.35182   1.35826   1.36348
 Alpha virt. eigenvalues --    1.37058   1.37646   1.38060   1.38785   1.39510
 Alpha virt. eigenvalues --    1.40036   1.40494   1.41460   1.42160   1.42729
 Alpha virt. eigenvalues --    1.43715   1.43836   1.44830   1.45295   1.45446
 Alpha virt. eigenvalues --    1.46282   1.47375   1.48531   1.49295   1.49599
 Alpha virt. eigenvalues --    1.50167   1.50670   1.51721   1.52317   1.52838
 Alpha virt. eigenvalues --    1.54072   1.54935   1.55206   1.55483   1.56553
 Alpha virt. eigenvalues --    1.56975   1.57964   1.58994   1.59395   1.59919
 Alpha virt. eigenvalues --    1.60751   1.61513   1.62280   1.63158   1.63447
 Alpha virt. eigenvalues --    1.64348   1.65945   1.66172   1.66757   1.67522
 Alpha virt. eigenvalues --    1.69145   1.69248   1.70723   1.72315   1.72959
 Alpha virt. eigenvalues --    1.74480   1.75486   1.76108   1.76741   1.78174
 Alpha virt. eigenvalues --    1.80680   1.81393   1.81932   1.83214   1.84745
 Alpha virt. eigenvalues --    1.86584   1.88828   1.94434   1.96383   2.00291
 Alpha virt. eigenvalues --    2.00926   2.09750   2.13782   2.18247   2.20717
 Alpha virt. eigenvalues --    2.23886   2.28681   2.31364   2.33918   2.40208
 Alpha virt. eigenvalues --    2.42308   2.42786   2.46530   2.48696   2.53622
 Alpha virt. eigenvalues --    2.59267   2.77427   2.79126   2.81797   2.82807
 Alpha virt. eigenvalues --    2.85157   2.87678   2.93823   2.94158   2.95044
 Alpha virt. eigenvalues --    2.96512   2.97508   2.98893   3.02725   3.04989
 Alpha virt. eigenvalues --    3.07265   3.09251   3.09759   3.10727   3.13057
 Alpha virt. eigenvalues --    3.14537   3.16502   3.18876   3.19706   3.20645
 Alpha virt. eigenvalues --    3.25208   3.28569   3.31440   3.33888   3.35137
 Alpha virt. eigenvalues --    3.36471   3.37123   3.39139   3.39475   3.41893
 Alpha virt. eigenvalues --    3.43483   3.44206   3.45532   3.46809   3.47166
 Alpha virt. eigenvalues --    3.49827   3.50592   3.51832   3.52298   3.53128
 Alpha virt. eigenvalues --    3.53943   3.54481   3.54927   3.56470   3.57058
 Alpha virt. eigenvalues --    3.58035   3.58333   3.58786   3.59873   3.60346
 Alpha virt. eigenvalues --    3.61856   3.62434   3.63053   3.64931   3.66229
 Alpha virt. eigenvalues --    3.66450   3.67854   3.68718   3.69521   3.70352
 Alpha virt. eigenvalues --    3.70681   3.71080   3.71984   3.73719   3.74982
 Alpha virt. eigenvalues --    3.75291   3.76553   3.77261   3.77530   3.78687
 Alpha virt. eigenvalues --    3.80108   3.81836   3.82426   3.84374   3.85250
 Alpha virt. eigenvalues --    3.86240   3.89243   3.89686   3.91547   3.92782
 Alpha virt. eigenvalues --    3.94049   3.94682   3.96175   3.97101   3.98084
 Alpha virt. eigenvalues --    3.99946   4.01474   4.02486   4.03368   4.04662
 Alpha virt. eigenvalues --    4.06073   4.06799   4.07532   4.07591   4.08280
 Alpha virt. eigenvalues --    4.09494   4.09866   4.10387   4.11635   4.12138
 Alpha virt. eigenvalues --    4.13528   4.14285   4.15401   4.16786   4.17558
 Alpha virt. eigenvalues --    4.18090   4.18805   4.19791   4.21446   4.22279
 Alpha virt. eigenvalues --    4.23203   4.24477   4.25106   4.26304   4.28309
 Alpha virt. eigenvalues --    4.29777   4.30854   4.31732   4.32211   4.33046
 Alpha virt. eigenvalues --    4.33872   4.34080   4.35920   4.36778   4.39255
 Alpha virt. eigenvalues --    4.42420   4.43140   4.46121   4.47613   4.49874
 Alpha virt. eigenvalues --    4.58629   4.61250   4.75102   4.76592   4.82429
 Alpha virt. eigenvalues --    4.86736   4.94324   4.96380   5.01888   5.03880
 Alpha virt. eigenvalues --    5.07276   5.08158   5.08787   5.09434   5.12767
 Alpha virt. eigenvalues --    5.13025   5.14289   5.15874   5.33281   5.40341
 Alpha virt. eigenvalues --    5.46911   5.58120   5.61612   5.65212   5.87369
 Alpha virt. eigenvalues --    5.88076   6.04272   6.99421   7.06283   7.07736
 Alpha virt. eigenvalues --    7.09784   7.10933   7.12646   7.15691   7.19010
 Alpha virt. eigenvalues --    7.31572   7.36659   7.44715   7.46579   7.52024
 Alpha virt. eigenvalues --    7.53724   7.60268  23.97170  23.97843  24.06849
 Alpha virt. eigenvalues --   24.08942  24.10882  24.12679  24.15274  24.15961
 Alpha virt. eigenvalues --   24.16964  24.20173  50.16638  50.18932  50.27654
          Condensed to atoms (all electrons):
               1          2          3          4          5          6
     1  C    6.379054   0.296411  -1.154557   0.011701  -0.358055   0.139177
     2  C    0.296411   7.482681  -0.913432   0.357920  -0.028871  -0.024123
     3  C   -1.154557  -0.913432   7.998812  -0.030745   0.321765  -0.010030
     4  C    0.011701   0.357920  -0.030745   5.883264   0.016700  -0.004253
     5  C   -0.358055  -0.028871   0.321765   0.016700   5.703396   0.026374
     6  O    0.139177  -0.024123  -0.010030  -0.004253   0.026374   8.345865
     7  C    0.017993  -0.185933   0.007347   0.000128  -0.006542   0.001544
     8  C   -0.015833  -0.424676   0.020090  -0.162543  -0.010462   0.003430
     9  C   -0.227180  -1.369761   0.302639  -0.254224  -0.013371   0.032338
    10  C    0.117819   0.035123  -0.083200  -0.034822  -0.173700   0.051833
    11  O   -0.006307   0.190623   0.048996  -0.104057   0.028411   0.014515
    12  O   -0.008333   0.206405  -0.002426  -0.018374  -0.023847   0.004734
    13  C    0.527817   0.241378  -1.357659   0.027149  -0.031421   0.007204
    14  H    0.393225  -0.018316   0.098707   0.000634   0.018844  -0.050354
    15  H    0.444921   0.047593  -0.095024  -0.004454  -0.011514  -0.063213
    16  H   -0.052283   0.488363   0.081692   0.035690   0.014038  -0.007641
    17  H   -0.023437  -0.027383   0.452963  -0.001735  -0.009390   0.007001
    18  H    0.000491  -0.004631  -0.001314   0.472936  -0.000621   0.000150
    19  H    0.000662   0.006171  -0.000863   0.448952  -0.000183  -0.000140
    20  H   -0.012322   0.000834   0.023710   0.000089   0.461994  -0.069805
    21  H   -0.041073  -0.003833   0.063916  -0.000282   0.461138  -0.059590
    22  H    0.001489  -0.039484  -0.006778  -0.077360  -0.000204  -0.000185
    23  H   -0.004073   0.005494   0.009727  -0.016290   0.000086   0.000164
    24  H    0.001597   0.001816  -0.002913  -0.016118   0.003194  -0.000470
    25  H   -0.002060  -0.013724  -0.007678  -0.056929  -0.000315   0.000739
    26  H    0.000484  -0.171048   0.003702  -0.020360   0.001217  -0.000496
    27  H    0.001945  -0.016727  -0.005007  -0.006948  -0.000085   0.000107
    28  H   -0.009820   0.002275   0.017766   0.000767  -0.019920   0.010036
    29  H    0.046745  -0.032571  -0.004561  -0.029553  -0.146274  -0.012535
    30  H   -0.017688  -0.009471  -0.001126   0.005223   0.010444   0.001224
    31  H    0.009972   0.000357  -0.090932  -0.000724  -0.025943  -0.001350
               7          8          9         10         11         12
     1  C    0.017993  -0.015833  -0.227180   0.117819  -0.006307  -0.008333
     2  C   -0.185933  -0.424676  -1.369761   0.035123   0.190623   0.206405
     3  C    0.007347   0.020090   0.302639  -0.083200   0.048996  -0.002426
     4  C    0.000128  -0.162543  -0.254224  -0.034822  -0.104057  -0.018374
     5  C   -0.006542  -0.010462  -0.013371  -0.173700   0.028411  -0.023847
     6  O    0.001544   0.003430   0.032338   0.051833   0.014515   0.004734
     7  C    5.724049  -0.028538  -0.054262   0.003094   0.010791   0.007648
     8  C   -0.028538   5.499063   0.259644   0.011850   0.134601   0.017093
     9  C   -0.054262   0.259644   7.095232   0.017917  -0.036091  -0.049223
    10  C    0.003094   0.011850   0.017917   5.726646  -0.037371  -0.045887
    11  O    0.010791   0.134601  -0.036091  -0.037371   8.264063  -0.035764
    12  O    0.007648   0.017093  -0.049223  -0.045887  -0.035764   8.365409
    13  C    0.007167   0.014161  -0.071649  -0.194397  -0.005101   0.013169
    14  H   -0.000529  -0.001240  -0.002101   0.009586   0.000979  -0.002193
    15  H    0.004914   0.008148   0.001909   0.016383  -0.000715  -0.009678
    16  H   -0.047225  -0.041982  -0.081342   0.002555  -0.079097  -0.033062
    17  H    0.000410   0.000847   0.003213  -0.009150   0.000334  -0.033054
    18  H   -0.009274  -0.077691  -0.016297   0.001135   0.003147   0.000113
    19  H   -0.054882  -0.039718   0.000687  -0.000290   0.010820   0.000263
    20  H   -0.000119  -0.002181  -0.000854  -0.061382  -0.000735  -0.000832
    21  H   -0.000337   0.001168   0.000251  -0.010436   0.000451  -0.000539
    22  H    0.537655   0.007846  -0.048930  -0.001000   0.003466   0.002064
    23  H    0.409575   0.005763  -0.030817   0.000381  -0.006055   0.000362
    24  H    0.008627   0.428219  -0.005315  -0.005338  -0.067500   0.001023
    25  H   -0.011268   0.471853   0.017390   0.009278  -0.033803   0.004296
    26  H    0.005352   0.015172   0.546005  -0.002445  -0.003173   0.011452
    27  H   -0.040145   0.005550   0.419668   0.001660   0.010323  -0.001222
    28  H   -0.000036  -0.001196   0.001712   0.419285   0.000002   0.000555
    29  H    0.005258   0.023963   0.004990   0.578714  -0.009125   0.006444
    30  H   -0.002422  -0.004872   0.011474  -0.025214   0.004210  -0.005501
    31  H    0.001532   0.001715  -0.002193  -0.021373  -0.002030   0.006651
              13         14         15         16         17         18
     1  C    0.527817   0.393225   0.444921  -0.052283  -0.023437   0.000491
     2  C    0.241378  -0.018316   0.047593   0.488363  -0.027383  -0.004631
     3  C   -1.357659   0.098707  -0.095024   0.081692   0.452963  -0.001314
     4  C    0.027149   0.000634  -0.004454   0.035690  -0.001735   0.472936
     5  C   -0.031421   0.018844  -0.011514   0.014038  -0.009390  -0.000621
     6  O    0.007204  -0.050354  -0.063213  -0.007641   0.007001   0.000150
     7  C    0.007167  -0.000529   0.004914  -0.047225   0.000410  -0.009274
     8  C    0.014161  -0.001240   0.008148  -0.041982   0.000847  -0.077691
     9  C   -0.071649  -0.002101   0.001909  -0.081342   0.003213  -0.016297
    10  C   -0.194397   0.009586   0.016383   0.002555  -0.009150   0.001135
    11  O   -0.005101   0.000979  -0.000715  -0.079097   0.000334   0.003147
    12  O    0.013169  -0.002193  -0.009678  -0.033062  -0.033054   0.000113
    13  C    6.789827  -0.099278   0.028169  -0.041547  -0.033423  -0.000667
    14  H   -0.099278   0.461513  -0.015307   0.006615  -0.001572  -0.000033
    15  H    0.028169  -0.015307   0.476205  -0.023260  -0.011009  -0.000248
    16  H   -0.041547   0.006615  -0.023260   0.464807   0.003074   0.000637
    17  H   -0.033423  -0.001572  -0.011009   0.003074   0.432135   0.000016
    18  H   -0.000667  -0.000033  -0.000248   0.000637   0.000016   0.478505
    19  H    0.001198   0.000014   0.000137   0.000751   0.000001  -0.011068
    20  H    0.003669  -0.000203   0.001055   0.001721   0.000361   0.000003
    21  H   -0.062705   0.003994  -0.002346  -0.000225   0.002446  -0.000020
    22  H    0.006497  -0.000270   0.000485  -0.005239  -0.000109   0.001233
    23  H   -0.002749   0.000036  -0.000275   0.003665   0.000292   0.000114
    24  H    0.004995  -0.000001  -0.000040  -0.000566   0.000010  -0.006077
    25  H   -0.006624   0.000063   0.000025  -0.000133  -0.000525   0.003576
    26  H    0.001212  -0.000217   0.001958  -0.020010  -0.000224  -0.002996
    27  H    0.000673   0.000471  -0.000351  -0.009219  -0.001259  -0.001512
    28  H   -0.042654  -0.001099   0.000938   0.000284   0.000650   0.000026
    29  H   -0.088264  -0.001968   0.000297  -0.001940   0.002838   0.001011
    30  H    0.411705   0.001327   0.000041   0.000377  -0.010846  -0.000022
    31  H    0.508037  -0.007648   0.000643  -0.001486  -0.002486  -0.000016
              19         20         21         22         23         24
     1  C    0.000662  -0.012322  -0.041073   0.001489  -0.004073   0.001597
     2  C    0.006171   0.000834  -0.003833  -0.039484   0.005494   0.001816
     3  C   -0.000863   0.023710   0.063916  -0.006778   0.009727  -0.002913
     4  C    0.448952   0.000089  -0.000282  -0.077360  -0.016290  -0.016118
     5  C   -0.000183   0.461994   0.461138  -0.000204   0.000086   0.003194
     6  O   -0.000140  -0.069805  -0.059590  -0.000185   0.000164  -0.000470
     7  C   -0.054882  -0.000119  -0.000337   0.537655   0.409575   0.008627
     8  C   -0.039718  -0.002181   0.001168   0.007846   0.005763   0.428219
     9  C    0.000687  -0.000854   0.000251  -0.048930  -0.030817  -0.005315
    10  C   -0.000290  -0.061382  -0.010436  -0.001000   0.000381  -0.005338
    11  O    0.010820  -0.000735   0.000451   0.003466  -0.006055  -0.067500
    12  O    0.000263  -0.000832  -0.000539   0.002064   0.000362   0.001023
    13  C    0.001198   0.003669  -0.062705   0.006497  -0.002749   0.004995
    14  H    0.000014  -0.000203   0.003994  -0.000270   0.000036  -0.000001
    15  H    0.000137   0.001055  -0.002346   0.000485  -0.000275  -0.000040
    16  H    0.000751   0.001721  -0.000225  -0.005239   0.003665  -0.000566
    17  H    0.000001   0.000361   0.002446  -0.000109   0.000292   0.000010
    18  H   -0.011068   0.000003  -0.000020   0.001233   0.000114  -0.006077
    19  H    0.478236  -0.000046   0.000035  -0.003092  -0.008697  -0.010130
    20  H   -0.000046   0.472775  -0.006342  -0.000032   0.000019  -0.000622
    21  H    0.000035  -0.006342   0.472742   0.000015  -0.000015   0.000116
    22  H   -0.003092  -0.000032   0.000015   0.451177  -0.004841  -0.001969
    23  H   -0.008697   0.000019  -0.000015  -0.004841   0.458842   0.001111
    24  H   -0.010130  -0.000622   0.000116  -0.001969   0.001111   0.464467
    25  H    0.000616   0.001067  -0.000410  -0.000085  -0.002531  -0.013530
    26  H   -0.002246  -0.000098  -0.000019   0.001541  -0.001772   0.000756
    27  H    0.001282   0.000076  -0.000001  -0.001137  -0.010387   0.001040
    28  H   -0.000127  -0.007657   0.002461  -0.000129   0.000052  -0.000003
    29  H    0.000376  -0.010222   0.002412   0.000762   0.000024  -0.002552
    30  H   -0.000118   0.000200   0.000214  -0.000708   0.000449  -0.000041
    31  H    0.000058  -0.001735  -0.004602   0.000251  -0.000053   0.000119
              25         26         27         28         29         30
     1  C   -0.002060   0.000484   0.001945  -0.009820   0.046745  -0.017688
     2  C   -0.013724  -0.171048  -0.016727   0.002275  -0.032571  -0.009471
     3  C   -0.007678   0.003702  -0.005007   0.017766  -0.004561  -0.001126
     4  C   -0.056929  -0.020360  -0.006948   0.000767  -0.029553   0.005223
     5  C   -0.000315   0.001217  -0.000085  -0.019920  -0.146274   0.010444
     6  O    0.000739  -0.000496   0.000107   0.010036  -0.012535   0.001224
     7  C   -0.011268   0.005352  -0.040145  -0.000036   0.005258  -0.002422
     8  C    0.471853   0.015172   0.005550  -0.001196   0.023963  -0.004872
     9  C    0.017390   0.546005   0.419668   0.001712   0.004990   0.011474
    10  C    0.009278  -0.002445   0.001660   0.419285   0.578714  -0.025214
    11  O   -0.033803  -0.003173   0.010323   0.000002  -0.009125   0.004210
    12  O    0.004296   0.011452  -0.001222   0.000555   0.006444  -0.005501
    13  C   -0.006624   0.001212   0.000673  -0.042654  -0.088264   0.411705
    14  H    0.000063  -0.000217   0.000471  -0.001099  -0.001968   0.001327
    15  H    0.000025   0.001958  -0.000351   0.000938   0.000297   0.000041
    16  H   -0.000133  -0.020010  -0.009219   0.000284  -0.001940   0.000377
    17  H   -0.000525  -0.000224  -0.001259   0.000650   0.002838  -0.010846
    18  H    0.003576  -0.002996  -0.001512   0.000026   0.001011  -0.000022
    19  H    0.000616  -0.002246   0.001282  -0.000127   0.000376  -0.000118
    20  H    0.001067  -0.000098   0.000076  -0.007657  -0.010222   0.000200
    21  H   -0.000410  -0.000019  -0.000001   0.002461   0.002412   0.000214
    22  H   -0.000085   0.001541  -0.001137  -0.000129   0.000762  -0.000708
    23  H   -0.002531  -0.001772  -0.010387   0.000052   0.000024   0.000449
    24  H   -0.013530   0.000756   0.001040  -0.000003  -0.002552  -0.000041
    25  H    0.500102  -0.000244  -0.000350   0.001699  -0.004306  -0.004679
    26  H   -0.000244   0.446130  -0.002329   0.000036  -0.000452   0.000138
    27  H   -0.000350  -0.002329   0.466837  -0.000041  -0.000071  -0.000549
    28  H    0.001699   0.000036  -0.000041   0.455323  -0.019105  -0.005973
    29  H   -0.004306  -0.000452  -0.000071  -0.019105   0.550104  -0.008023
    30  H   -0.004679   0.000138  -0.000549  -0.005973  -0.008023   0.466436
    31  H   -0.000323   0.000047   0.000087  -0.004517   0.005990  -0.001571
              31
     1  C    0.009972
     2  C    0.000357
     3  C   -0.090932
     4  C   -0.000724
     5  C   -0.025943
     6  O   -0.001350
     7  C    0.001532
     8  C    0.001715
     9  C   -0.002193
    10  C   -0.021373
    11  O   -0.002030
    12  O    0.006651
    13  C    0.508037
    14  H   -0.007648
    15  H    0.000643
    16  H   -0.001486
    17  H   -0.002486
    18  H   -0.000016
    19  H    0.000058
    20  H   -0.001735
    21  H   -0.004602
    22  H    0.000251
    23  H   -0.000053
    24  H    0.000119
    25  H   -0.000323
    26  H    0.000047
    27  H    0.000087
    28  H   -0.004517
    29  H    0.005990
    30  H   -0.001571
    31  H    0.420481
 Mulliken charges:
               1
     1  C   -0.458478
     2  C   -0.079459
     3  C    0.316409
     4  C   -0.421383
     5  C   -0.206882
     6  O   -0.342250
     7  C   -0.311571
     8  C   -0.119247
     9  C   -0.451462
    10  C   -0.297254
    11  O   -0.298810
    12  O   -0.377745
    13  C   -0.555891
    14  H    0.206317
    15  H    0.203614
    16  H    0.341990
    17  H    0.259009
    18  H    0.169393
    19  H    0.181341
    20  H    0.207615
    21  H    0.181414
    22  H    0.177072
    23  H    0.192398
    24  H    0.216093
    25  H    0.148814
    26  H    0.192927
    27  H    0.187621
    28  H    0.198410
    29  H    0.141596
    30  H    0.185360
    31  H    0.213041
 Sum of Mulliken charges =  -0.00000
 Mulliken charges with hydrogens summed into heavy atoms:
               1
     1  C   -0.048548
     2  C    0.262531
     3  C    0.575418
     4  C   -0.070649
     5  C    0.182147
     6  O   -0.342250
     7  C    0.057899
     8  C    0.245660
     9  C   -0.070914
    10  C    0.042752
    11  O   -0.298810
    12  O   -0.377745
    13  C   -0.157490
 Electronic spatial extent (au):  <R**2>=           2582.4670
 Charge=             -0.0000 electrons
 Dipole moment (field-independent basis, Debye):
    X=             -0.6702    Y=             -1.3521    Z=              2.3707  Tot=              2.8103
 Quadrupole moment (field-independent basis, Debye-Ang):
   XX=            -67.8190   YY=            -72.7223   ZZ=            -85.1924
   XY=              1.5747   XZ=             -4.3049   YZ=              3.7070
 Traceless Quadrupole moment (field-independent basis, Debye-Ang):
   XX=              7.4256   YY=              2.5223   ZZ=             -9.9478
   XY=              1.5747   XZ=             -4.3049   YZ=              3.7070
 Octapole moment (field-independent basis, Debye-Ang**2):
  XXX=            -11.4562  YYY=             -0.1436  ZZZ=              5.1694  XYY=             -5.9431
  XXY=              2.8446  XXZ=              8.7740  XZZ=              2.6436  YZZ=             -3.5306
  YYZ=             -4.9538  XYZ=              2.9810
 Hexadecapole moment (field-independent basis, Debye-Ang**3):
 XXXX=          -2263.5726 YYYY=           -601.8803 ZZZZ=           -465.0797 XXXY=             -3.2101
 XXXZ=            -16.2054 YYYX=             12.2665 YYYZ=             -6.7467 ZZZX=            -11.4978
 ZZZY=              6.2532 XXYY=           -467.4144 XXZZ=           -486.2329 YYZZ=           -172.8203
 XXYZ=              0.7664 YYXZ=              5.2851 ZZXY=             -0.1290
 N-N= 9.197730042733D+02 E-N=-3.282401426833D+03  KE= 6.153441455443D+02
 D1PCM: PCM CHGder 1st derivatives, ID1Alg=3 FixD1E=F DoIter=F DoCFld=F I1PDM=0.
 Calling FoFJK, ICntrl=      2127 FMM=F ISym2X=0 I1Cent= 0 IOpClX= 0 NMat=1 NMatS=1 NMatT=0.
 ***** Axes restored to original set *****
 -------------------------------------------------------------------
 Center     Atomic                   Forces (Hartrees/Bohr)
 Number     Number              X              Y              Z
 -------------------------------------------------------------------
      1        6           0.002121687    0.001667534    0.006890514
      2        6           0.004979868   -0.003166725    0.003090997
      3        6          -0.004251168    0.002249139   -0.003950624
      4        6          -0.002328383   -0.001360379    0.001635080
      5        6           0.002601752   -0.000186002    0.006660052
      6        8           0.006156696    0.003190124   -0.011071512
      7        6          -0.002309746    0.001586017   -0.003274077
      8        6           0.005815347   -0.004144880    0.001875174
      9        6           0.000277695    0.001930539    0.001950764
     10        6          -0.001894633   -0.003714727   -0.000476890
     11        8          -0.005810851    0.006083010   -0.011656241
     12        8           0.004087974    0.003221312    0.011021619
     13        6          -0.000158408    0.000939376   -0.003708522
     14        1          -0.004972059   -0.002620499    0.002135686
     15        1           0.003269568   -0.003243277   -0.003216576
     16        1          -0.004086444   -0.003447807   -0.006502192
     17        1          -0.001301307   -0.004733430    0.002317471
     18        1           0.000981066   -0.000239165   -0.003240314
     19        1           0.001189442    0.001579353    0.001866036
     20        1          -0.000124393    0.003830540   -0.002347307
     21        1          -0.004963966   -0.002186809    0.001847395
     22        1          -0.002200246    0.000233536    0.003075774
     23        1           0.002298788   -0.001030679   -0.000043536
     24        1           0.000104388    0.004039820   -0.001868195
     25        1          -0.002655074    0.000057057    0.006051668
     26        1           0.001313705    0.000399983   -0.003080361
     27        1          -0.000789905   -0.002779982    0.001250923
     28        1          -0.001411145    0.001629266    0.001547932
     29        1           0.004723862    0.001450098   -0.001517376
     30        1           0.002371091    0.000289341    0.002379837
     31        1          -0.003035203   -0.001521684    0.000356803
 -------------------------------------------------------------------
 Cartesian Forces:  Max     0.011656241 RMS     0.003651606

 GradGradGradGradGradGradGradGradGradGradGradGradGradGradGradGradGradGrad
 Berny optimization.
 FormGI is forming the generalized inverse of G from B-inverse, IUseBI=4.
 Internal  Forces:  Max     0.015196134 RMS     0.002365888
 Search for a local minimum.
 Step number   1 out of a maximum of  186
 All quantities printed in internal units (Hartrees-Bohrs-Radians)
 Mixed Optimization -- RFO/linear search
 Second derivative matrix not updated -- first step.
 ITU=  0
     Eigenvalues ---    0.00616   0.00627   0.00717   0.00723   0.01404
     Eigenvalues ---    0.01423   0.01731   0.02701   0.02794   0.03081
     Eigenvalues ---    0.03104   0.04090   0.04294   0.04571   0.04748
     Eigenvalues ---    0.04827   0.04895   0.04994   0.05109   0.05134
     Eigenvalues ---    0.05286   0.05690   0.05695   0.06158   0.06183
     Eigenvalues ---    0.06192   0.06538   0.06994   0.07601   0.07830
     Eigenvalues ---    0.07938   0.07976   0.07993   0.08171   0.08265
     Eigenvalues ---    0.08846   0.09222   0.09431   0.10902   0.11606
     Eigenvalues ---    0.11729   0.11765   0.11802   0.12398   0.12567
     Eigenvalues ---    0.14684   0.14699   0.15869   0.16477   0.17758
     Eigenvalues ---    0.19098   0.21526   0.21954   0.25000   0.28504
     Eigenvalues ---    0.28594   0.28811   0.28856   0.28960   0.28996
     Eigenvalues ---    0.30204   0.30226   0.35043   0.35086   0.35102
     Eigenvalues ---    0.35112   0.35166   0.35177   0.35230   0.35246
     Eigenvalues ---    0.35307   0.35392   0.35399   0.35411   0.35458
     Eigenvalues ---    0.35504   0.35827   0.35829   0.36096   0.36586
     Eigenvalues ---    0.40910   0.40915   0.41385   0.42616   0.43249
     Eigenvalues ---    0.461121000.000001000.000001000.000001000.00000
     Eigenvalues --- 1000.000001000.000001000.000001000.000001000.00000
     Eigenvalues --- 1000.000001000.000001000.000001000.000001000.00000
     Eigenvalues --- 1000.000001000.000001000.000001000.000001000.00000
     Eigenvalues --- 1000.000001000.000001000.000001000.000001000.00000
     Eigenvalues --- 1000.000001000.000001000.000001000.000001000.00000
     Eigenvalues --- 1000.000001000.000001000.000001000.000001000.00000
     Eigenvalues --- 1000.000001000.000001000.000001000.000001000.00000
     Eigenvalues --- 1000.000001000.000001000.000001000.000001000.00000
     Eigenvalues --- 1000.000001000.000001000.000001000.000001000.00000
     Eigenvalues --- 1000.000001000.000001000.000001000.000001000.00000
     Eigenvalues --- 1000.000001000.000001000.000001000.000001000.00000
     Eigenvalues --- 1000.000001000.000001000.000001000.000001000.00000
     Eigenvalues --- 1000.000001000.000001000.000001000.000001000.00000
     Eigenvalues --- 1000.000001000.000001000.000001000.000001000.00000
     Eigenvalues --- 1000.000001000.000001000.000001000.000001000.00000
     Eigenvalues --- 1000.000001000.000001000.000001000.000001000.00000
     Eigenvalues --- 1000.000001000.000001000.000001000.000001000.00000
     Eigenvalues --- 1000.000001000.000001000.000001000.000001000.00000
     Eigenvalues --- 1000.000001000.000001000.000001000.000001000.00000
 RFO step:  Lambda=-4.96198822D-03 EMin= 6.15785723D-03
 Linear search not attempted -- first point.
 Iteration  1 RMS(Cart)=  0.11607909 RMS(Int)=  0.00255947
 Iteration  2 RMS(Cart)=  0.00530571 RMS(Int)=  0.00008439
 Iteration  3 RMS(Cart)=  0.00001048 RMS(Int)=  0.00008427
 Iteration  4 RMS(Cart)=  0.00000000 RMS(Int)=  0.00008427
 Iteration  1 RMS(Cart)=  0.00009331 RMS(Int)=  0.00002105
 Iteration  2 RMS(Cart)=  0.00005210 RMS(Int)=  0.00002351
 Iteration  3 RMS(Cart)=  0.00002908 RMS(Int)=  0.00002662
 Iteration  4 RMS(Cart)=  0.00001624 RMS(Int)=  0.00002873
 Iteration  5 RMS(Cart)=  0.00000907 RMS(Int)=  0.00003000
 Iteration  6 RMS(Cart)=  0.00000506 RMS(Int)=  0.00003073
 Iteration  7 RMS(Cart)=  0.00000283 RMS(Int)=  0.00003115
 Iteration  8 RMS(Cart)=  0.00000158 RMS(Int)=  0.00003138
 Iteration  9 RMS(Cart)=  0.00000088 RMS(Int)=  0.00003151
 Variable       Old X    -DE/DX   Delta X   Delta X   Delta X     New X
                                 (Linear)    (Quad)   (Total)
    R1        2.87707  -0.00199   0.00000  -0.00677  -0.00667   2.87039
    R2        2.66267   0.00630   0.00000   0.01524   0.01528   2.67795
    R3        2.05493   0.00592   0.00000   0.01664   0.01664   2.07157
    R4        2.03932   0.00556   0.00000   0.01518   0.01518   2.05450
    R5        2.87949  -0.00089   0.00000  -0.00294  -0.00295   2.87654
    R6        2.65561   0.00773   0.00000   0.01715   0.01717   2.67278
    R7        2.64005   0.00568   0.00000   0.01218   0.01218   2.65223
    R8        2.03175   0.00841   0.00000   0.02267   0.02267   2.05442
    R9        2.70336   0.00147   0.00000   0.00354   0.00354   2.70690
   R10        2.88610  -0.00225   0.00000  -0.00854  -0.00848   2.87762
   R11        2.04865   0.00532   0.00000   0.01477   0.01477   2.06342
   R12        2.88819  -0.00075   0.00000  -0.00257  -0.00259   2.88561
   R13        2.87152  -0.00059   0.00000  -0.00187  -0.00185   2.86967
   R14        2.05536   0.00329   0.00000   0.00924   0.00924   2.06459
   R15        2.05303   0.00271   0.00000   0.00760   0.00760   2.06063
   R16        2.67695   0.00622   0.00000   0.01502   0.01496   2.69191
   R17        2.87415  -0.00075   0.00000  -0.00197  -0.00207   2.87207
   R18        2.04353   0.00449   0.00000   0.01236   0.01236   2.05589
   R19        2.05605   0.00563   0.00000   0.01584   0.01584   2.07189
   R20        2.88902  -0.00111   0.00000  -0.00414  -0.00416   2.88486
   R21        2.05388   0.00367   0.00000   0.01030   0.01030   2.06418
   R22        2.05179   0.00251   0.00000   0.00702   0.00702   2.05881
   R23        2.68548   0.00562   0.00000   0.01344   0.01346   2.69895
   R24        2.04349   0.00445   0.00000   0.01225   0.01225   2.05574
   R25        2.04937   0.00657   0.00000   0.01826   0.01826   2.06763
   R26        2.05406   0.00330   0.00000   0.00926   0.00926   2.06333
   R27        2.05013   0.00312   0.00000   0.00869   0.00869   2.05882
   R28        2.89089  -0.00099   0.00000  -0.00493  -0.00497   2.88592
   R29        2.05277   0.00265   0.00000   0.00741   0.00741   2.06018
   R30        2.05043   0.00502   0.00000   0.01399   0.01399   2.06442
   R31        2.05031   0.00329   0.00000   0.00916   0.00916   2.05947
   R32        2.05509   0.00335   0.00000   0.00942   0.00942   2.06451
    A1        1.97109  -0.00050   0.00000  -0.00591  -0.00578   1.96531
    A2        1.86130  -0.00106   0.00000  -0.00045  -0.00048   1.86082
    A3        1.96949  -0.00014   0.00000  -0.00852  -0.00865   1.96084
    A4        1.91237   0.00192   0.00000   0.01705   0.01702   1.92939
    A5        1.87217  -0.00059   0.00000  -0.00612  -0.00631   1.86586
    A6        1.87503   0.00053   0.00000   0.00559   0.00561   1.88064
    A7        1.93569   0.00260   0.00000   0.01049   0.01033   1.94602
    A8        1.90409  -0.00127   0.00000  -0.00663  -0.00656   1.89753
    A9        1.91867   0.00036   0.00000   0.00870   0.00871   1.92738
   A10        1.93345  -0.00101   0.00000  -0.01209  -0.01199   1.92146
   A11        1.83184  -0.00168   0.00000  -0.00809  -0.00813   1.82371
   A12        1.93958   0.00107   0.00000   0.00809   0.00805   1.94764
   A13        2.03913  -0.00327   0.00000  -0.03040  -0.03060   2.00853
   A14        1.90511   0.00267   0.00000   0.00451   0.00393   1.90904
   A15        1.86495  -0.00041   0.00000   0.00966   0.00976   1.87471
   A16        1.88775  -0.00098   0.00000  -0.01859  -0.01897   1.86878
   A17        1.85118   0.00279   0.00000   0.03273   0.03301   1.88419
   A18        1.91277  -0.00077   0.00000   0.00493   0.00505   1.91782
   A19        1.92049  -0.00028   0.00000  -0.00293  -0.00309   1.91740
   A20        1.91644   0.00066   0.00000   0.00144   0.00150   1.91795
   A21        1.94010  -0.00052   0.00000  -0.00095  -0.00093   1.93917
   A22        1.90743  -0.00011   0.00000  -0.00188  -0.00183   1.90559
   A23        1.90275   0.00005   0.00000  -0.00041  -0.00036   1.90239
   A24        1.87587   0.00022   0.00000   0.00485   0.00483   1.88069
   A25        1.93934   0.00032   0.00000   0.00583   0.00569   1.94503
   A26        1.85547  -0.00088   0.00000  -0.00308  -0.00302   1.85245
   A27        1.89940   0.00125   0.00000   0.00502   0.00508   1.90448
   A28        1.94587  -0.00030   0.00000  -0.00319  -0.00315   1.94271
   A29        1.93022  -0.00087   0.00000  -0.00764  -0.00762   1.92260
   A30        1.89111   0.00054   0.00000   0.00345   0.00341   1.89452
   A31        1.97584  -0.00389   0.00000  -0.02437  -0.02431   1.95153
   A32        1.91084   0.00260   0.00000   0.00044   0.00042   1.91126
   A33        1.91428  -0.00120   0.00000  -0.00246  -0.00250   1.91178
   A34        1.93143  -0.00039   0.00000   0.00100   0.00106   1.93249
   A35        1.92299  -0.00089   0.00000  -0.00339  -0.00339   1.91960
   A36        1.91717  -0.00091   0.00000  -0.00040  -0.00039   1.91678
   A37        1.86682   0.00071   0.00000   0.00482   0.00482   1.87164
   A38        1.94693   0.00147   0.00000   0.00374   0.00372   1.95064
   A39        1.94596  -0.00011   0.00000  -0.00168  -0.00164   1.94433
   A40        1.92848  -0.00115   0.00000  -0.00471  -0.00475   1.92373
   A41        1.84222  -0.00099   0.00000  -0.00126  -0.00127   1.84095
   A42        1.91087   0.00035   0.00000   0.00213   0.00217   1.91304
   A43        1.88655   0.00044   0.00000   0.00201   0.00200   1.88855
   A44        1.95789  -0.00145   0.00000  -0.01355  -0.01367   1.94422
   A45        1.87434  -0.00004   0.00000   0.00290   0.00292   1.87726
   A46        1.89753   0.00057   0.00000  -0.00211  -0.00209   1.89543
   A47        1.90759   0.00121   0.00000   0.00752   0.00758   1.91517
   A48        1.94757  -0.00025   0.00000  -0.00045  -0.00053   1.94704
   A49        1.87571   0.00003   0.00000   0.00665   0.00662   1.88233
   A50        1.92739   0.00086   0.00000  -0.00432  -0.00444   1.92296
   A51        1.90474   0.00045   0.00000   0.00296   0.00300   1.90774
   A52        1.90666  -0.00107   0.00000  -0.00302  -0.00301   1.90365
   A53        1.92494  -0.00106   0.00000   0.00033   0.00037   1.92531
   A54        1.92616   0.00036   0.00000  -0.00136  -0.00135   1.92481
   A55        1.87298   0.00044   0.00000   0.00571   0.00570   1.87868
   A56        2.02561  -0.00579   0.00000  -0.03421  -0.03411   1.99150
   A57        2.18361  -0.01520   0.00000  -0.05960  -0.05960   2.12401
   A58        1.94562  -0.00029   0.00000  -0.01812  -0.01812   1.92750
   A59        1.91318   0.00009   0.00000  -0.00658  -0.00676   1.90642
   A60        1.88269  -0.00043   0.00000   0.00766   0.00772   1.89042
   A61        1.93928  -0.00041   0.00000  -0.00269  -0.00295   1.93633
   A62        1.90982   0.00081   0.00000   0.01292   0.01296   1.92278
   A63        1.87086   0.00026   0.00000   0.00829   0.00830   1.87916
[...]
 000742,0.00002408,-0.00000997,0.00003031,0.00001711,-0.00010819,-0.000
 37970,0.00018957,-0.00003935,-0.00000203,0.00000041,-0.00125031,0.0009
 0722,0.00111538,0.00089539,-0.00019642,0.00035321,0.00000062,-0.000000
 15,0.00000207,0.00001364,0.00002669,0.00005721,0.00019170,-0.00049079,
 -0.00011277,0.00004774,-0.00008617,0.00007243,0.00727058,0.00079014,-0
 .01021351,-0.11487065,0.01097818,0.27044355,-0.00010588,-0.00016481,0.
 00025062,-0.01095815,-0.00092367,0.02712057,0.00130311,0.00187576,0.00
 071532,0.00053291,0.00084448,0.00002132,0.00007581,-0.00003408,0.00000
 107,-0.00007270,0.00011670,-0.00010018,0.00830020,-0.00154376,-0.01852
 651,-0.00029767,-0.00008004,-0.00012640,-0.10229378,0.00732221,0.10543
 940,-0.00002040,-0.00004984,0.00006098,0.00145119,-0.00061707,-0.00084
 108,-0.00964213,0.00120180,0.00166681,-0.00073438,-0.00038597,-0.00000
 409,-0.00008637,0.00000878,-0.00011598,0.00001193,0.00001930,-0.000035
 04,0.00093537,-0.00062193,-0.00010407,-0.00017058,-0.00014616,0.000059
 11,-0.00013188,0.00015170,0.00033115,-0.00011144,0.00021733,0.00006391
 ,-0.00001249,0.00001202,-0.00001429,-0.00001380,-0.00000289,0.00000344
 ,-0.00136113,-0.00293427,-0.00257386,0.00099636,0.00075267,0.00056318,
 0.00006649,0.00002302,0.00001085,0.00000705,-0.00003173,0.00000563,0.1
 1408237,0.00002015,0.00004660,-0.00006796,0.00466748,-0.00266566,-0.01
 147935,-0.00019069,-0.00039203,-0.00035737,0.00077078,0.00081693,-0.00
 059734,-0.00002061,0.00001101,0.00000162,0.00001201,-0.00003385,0.0000
 2710,0.00825848,-0.00177063,-0.01668121,0.00001458,-0.00000117,-0.0000
 6359,0.00486081,-0.05010948,-0.00725387,0.00001000,0.00000248,-0.00001
 656,0.00010620,0.00042778,0.00019443,0.00268942,0.00124161,-0.00019053
 ,0.00017200,0.00009622,0.00001527,0.00002542,-0.00000613,0.00002959,-0
 .00000339,-0.00000148,0.00001090,-0.00042924,0.00033089,0.00027568,0.0
 0006761,0.00000379,-0.00001105,-0.00017718,-0.00002340,0.00017252,-0.0
 0012014,0.00013931,0.00012857,0.00000291,-0.00000298,0.00000308,0.0000
 0393,0.00000031,-0.00000135,-0.00195263,-0.00138486,-0.00239032,0.0001
 4695,0.00067681,0.00081819,0.00003403,-0.00002771,0.00000565,-0.000029
 46,0.00003114,0.00002094,-0.00505413,0.04980693,0.00004201,0.00001990,
 -0.00001950,-0.00287809,0.00114002,0.00238246,-0.00027975,-0.00012932,
 0.00023576,0.00040262,0.00093859,0.00083196,-0.00000604,0.00000697,0.0
 0000317,0.00001454,-0.00001006,0.00000085,0.00830714,-0.00144688,-0.02
 040669,-0.00023223,-0.00019755,-0.00006423,0.10922683,-0.00932528,-0.2
 5553471,-0.00000083,0.00000248,-0.00000187,-0.00031513,-0.00028927,0.0
 0058444,-0.00086671,0.00059067,0.00132606,-0.00002719,0.00001500,0.000
 00719,0.00000923,-0.00000585,0.00000988,-0.00000593,-0.00001120,-0.000
 01615,0.00039031,-0.00025562,0.00074581,0.00000049,0.00001749,-0.00000
 243,0.00005394,-0.00048808,0.00038959,-0.00027215,0.00003345,0.0002334
 5,0.00000121,-0.00000173,0.00000085,0.00000218,-0.00000059,-0.00000061
 ,-0.00272984,-0.00274696,-0.00152139,0.00001459,0.00052762,0.00087286,
 0.00008325,-0.00003010,0.00002187,-0.00002824,0.00001842,-0.00002261,-
 0.11523393,0.01198457,0.27888858,-0.00000861,-0.00001249,-0.00003677,0
 .00446427,0.02647211,-0.00857113,0.00021488,-0.00036983,-0.00000573,-0
 .00170056,-0.00187450,-0.00357410,0.00000631,-0.00000595,-0.00000829,-
 0.00003247,-0.00001887,-0.00000807,-0.00166211,-0.01668471,0.00809074,
 -0.00127776,-0.00104520,-0.00111517,-0.05178753,-0.02768253,0.01117386
 ,0.00000755,0.00000709,0.00000314,-0.00553919,0.00740783,-0.00170673,0
 .00145603,0.00031115,-0.00093778,0.00006785,0.00001691,-0.00001235,-0.
 00000722,0.00000558,0.00000975,-0.00002180,0.00001104,0.00001252,0.000
 91768,-0.00097097,0.00005742,-0.00004196,-0.00005712,0.00001665,-0.000
 01972,0.00034329,-0.00013056,0.00027003,-0.00141160,0.00020475,0.00000
 210,0.00000145,0.00000088,-0.00000172,0.00000108,-0.00000018,0.0006703
 5,0.00068330,-0.00001717,0.00038818,0.00056068,0.00071996,0.00027163,0
 .00011389,0.00019150,0.00011611,0.00008678,0.00016352,-0.00158240,-0.0
 1391520,0.00434791,0.05481422,-0.00002018,0.00000384,0.00002167,-0.003
 70206,-0.01244655,0.00429265,0.00019681,0.00020340,-0.00013704,-0.0023
 7421,-0.00024512,-0.00352712,-0.00000844,0.00001203,0.00000897,0.00005
 017,0.00001405,0.00000194,-0.00107542,-0.01511865,0.00604972,-0.000167
 86,0.00110211,0.00059827,-0.02382119,-0.28162780,0.08713457,-0.0000011
 4,-0.00002234,-0.00000864,0.00312217,-0.00182266,0.00092309,-0.0010426
 3,0.00164886,-0.00004859,-0.00002974,-0.00000331,0.00003156,0.00000860
 ,-0.00001336,-0.00001217,0.00002206,-0.00002179,-0.00001785,0.00042505
 ,0.00034302,-0.00009040,0.00006625,-0.00006278,0.00000141,-0.00004636,
 0.00008321,0.00012387,0.00015399,-0.00109107,0.00049378,-0.00000047,-0
 .00000183,-0.00000078,0.00000432,-0.00000223,-0.00000144,0.00044119,0.
 00060136,0.00000913,-0.00012909,0.00067046,0.00006937,0.00003612,-0.00
 007391,0.00001029,0.00002794,-0.00006644,-0.00011578,-0.00018339,0.002
 85529,-0.00035008,0.02804809,0.30508057,-0.00000056,0.00000307,-0.0000
 1741,0.00321416,0.00309224,-0.00375027,-0.00014567,-0.00006007,0.00007
 713,-0.00273006,-0.00191179,-0.00274467,0.00000247,-0.00000347,-0.0000
 0213,-0.00002415,-0.00001288,-0.00000455,-0.00126699,-0.02154365,0.008
 13851,-0.00056687,-0.00018881,-0.00049924,0.00874084,0.08993926,-0.081
 02552,-0.00000166,0.00001341,0.00000612,-0.00166153,0.00174617,0.00087
 509,0.00065837,-0.00114088,0.00051762,0.00000033,0.00000653,-0.0000076
 1,-0.00000373,0.00000251,0.00000340,-0.00001607,0.00000916,0.00000149,
 0.00014261,-0.00023184,0.00005798,-0.00001440,0.00004473,-0.00000239,-
 0.00006714,-0.00017320,0.00022699,-0.00011969,-0.00121546,0.00042307,0
 .00000082,0.00000049,-0.00000087,-0.00000122,0.00000064,0.00000053,0.0
 0081965,0.00061338,0.00092703,0.00046165,0.00089296,0.00069863,0.00011
 863,0.00007573,0.00009847,0.00007753,0.00005376,0.00007638,0.00124696,
 0.02544848,-0.00893788,-0.00885363,-0.09545778,0.08486336,-0.00027880,
 0.00052243,-0.00038030,0.00012762,-0.00015425,-0.00014830,0.00045221,0
 .00012198,-0.00049178,-0.00001238,-0.00000336,0.00004803,0.00813655,-0
 .01043892,-0.00621664,0.00033623,-0.00188043,-0.00446756,-0.00000291,0
 .00000038,0.00000902,0.00003908,0.00010270,-0.00003763,0.00000477,-0.0
 0000410,0.00000726,-0.12795368,0.09629471,0.07776052,-0.00023355,0.000
 00706,0.00011880,0.00038604,0.00051854,-0.00014968,-0.00155479,-0.0000
 6353,0.00099350,0.00000801,-0.00005594,0.00004833,0.00000831,-0.000110
 14,0.00011939,-0.00000924,0.00001119,0.00001523,-0.00009331,0.00013284
 ,0.00024063,-0.00002262,0.00000935,-0.00000276,-0.00000496,-0.00000142
 ,-0.00000512,0.00041047,0.00038550,0.00053966,0.00040678,0.00005487,0.
 00099039,0.00000187,-0.00000052,-0.00000041,-0.00000547,0.00000275,-0.
 00000406,0.00000586,-0.00002172,0.00000713,-0.00001654,-0.00001083,0.0
 0008095,-0.00001096,0.00000129,0.00000130,-0.00000303,0.00000578,-0.00
 000185,0.13378222,0.00027135,0.00065279,0.00058486,-0.00021616,-0.0003
 2860,0.00052067,-0.00140636,-0.00413936,0.00506740,-0.00000536,0.00000
 014,0.00001959,0.00263538,-0.00438165,-0.00182550,-0.00048341,0.000704
 79,-0.00110125,0.00000389,-0.00001685,-0.00000699,-0.00002374,0.000003
 97,-0.00001996,0.00003107,0.00004233,-0.00008922,0.09420527,-0.1590520
 2,-0.09383039,-0.00004380,0.00022226,-0.00003248,0.00052641,0.00073216
 ,-0.00047414,0.01480387,-0.01917648,-0.01562643,-0.00007613,-0.0000137
 3,-0.00000457,-0.00000272,0.00007382,-0.00013473,-0.00001065,0.0000051
 6,-0.00003427,0.00082143,-0.00125639,-0.00111454,-0.00000422,0.0000019
 1,-0.00000360,0.00000457,0.00000402,0.00000013,-0.00022927,0.00012142,
 -0.00032103,-0.00013416,0.00024022,0.00022832,0.00000103,0.00000116,-0
 .00000166,0.00000951,0.00000591,0.00000580,0.00001035,0.00000535,0.000
 00281,0.00003324,-0.00000687,0.00000650,0.00004606,-0.00001304,-0.0000
 0110,-0.00000209,-0.00000108,-0.00000069,-0.10416757,0.17392237,-0.000
 27035,0.00187444,-0.00114466,0.00001307,0.00007111,-0.00020563,0.00000
 456,0.00360723,-0.00185422,0.00000405,0.00000369,-0.00000742,0.0187395
 9,-0.01721413,-0.01102577,-0.00248406,-0.00456298,-0.00777776,0.000002
 92,0.00000038,-0.00000088,-0.00000700,-0.00002347,0.00002059,-0.000010
 80,-0.00000212,0.00004046,0.07601875,-0.09446751,-0.12368828,0.0000218
 2,-0.00003270,0.00003215,0.00005828,-0.00018750,0.00012280,-0.01043069
 ,0.01244715,0.01078238,0.00002759,-0.00021541,0.00013763,0.00007891,-0
 .00026249,0.00022617,-0.00001943,0.00000531,0.00002636,-0.00039999,0.0
 0093341,0.00060840,0.00000246,-0.00000158,0.00000057,0.00000128,-0.000
 00048,0.00000164,0.00035719,0.00086386,0.00077125,-0.00029674,0.000092
 30,0.00118701,-0.00000001,-0.00000018,0.00000150,0.00000008,-0.0000000
 8,0.00000026,-0.00000291,0.00000351,-0.00000128,0.00001635,0.00000052,
 -0.00002008,-0.00001292,0.00000425,-0.00000118,0.00000296,-0.00000010,
 0.00000094,-0.08364839,0.10115649,0.13335212,0.00005299,0.00025738,-0.
 00023304,0.00017152,-0.00028662,-0.00019013,-0.00061803,-0.00037873,0.
 00047999,-0.00007538,0.00002667,-0.00008357,-0.01587948,-0.00495556,0.
 00205702,0.00185439,-0.00026461,0.00041912,0.00002690,0.00001083,-0.00
 000177,-0.00069617,0.00064072,0.00079605,0.00000961,-0.00002171,-0.000
 00149,-0.26158118,-0.09575878,0.03836527,-0.00110044,-0.00007449,0.000
 23675,-0.00029461,0.00139711,-0.00019686,0.00424459,0.00074950,-0.0002
 9430,-0.00010450,0.00002074,0.00006112,-0.00000597,-0.00005257,-0.0000
 0862,-0.00000712,-0.00001022,0.00000744,0.00005223,-0.00018743,-0.0001
 1881,0.00001589,-0.00002067,-0.00000443,0.00000685,0.00000425,0.000000
 97,0.00063851,0.00035220,0.00012849,-0.00008125,-0.00037445,-0.0029919
 0,-0.00000064,-0.00000121,0.00000491,-0.00000144,-0.00001477,0.0000069
 7,0.00013999,-0.00012532,-0.00003512,-0.00143716,0.00015748,-0.0003386
 4,-0.00000081,-0.00000580,0.00000163,0.00000781,-0.00000159,-0.0000062
 2,-0.01434957,-0.00609651,0.00205823,0.28760416,0.00014862,-0.00029902
 ,0.00013814,0.00010827,-0.00009040,-0.00001403,-0.00123376,0.00073720,
 -0.00008863,-0.00005425,-0.00000001,0.00011674,-0.00399142,-0.00276956
 ,-0.00003946,-0.00038441,0.00030599,0.00047151,-0.00000384,-0.00000505
 ,0.00000536,0.00014492,0.00014717,-0.00020429,0.00000441,0.00000597,-0
 .00001402,-0.09382877,-0.09060541,0.01615043,-0.00020197,0.00002813,-0
 .00004346,0.00072610,0.00026903,-0.00023748,-0.02595677,-0.01203727,0.
 00527503,0.00004614,0.00002968,0.00003954,-0.00003135,0.00000341,-0.00
 009146,-0.00000483,0.00000423,0.00001908,0.00017135,0.00009287,0.00000
 703,-0.00004768,0.00001857,-0.00000185,-0.00000058,-0.00000174,-0.0000
 0585,0.00054615,0.00035912,-0.00034604,-0.00054012,0.00101643,-0.00055
 411,0.00000283,-0.00000349,0.00000047,-0.00000540,0.00000538,-0.000003
 21,0.00002392,-0.00007305,0.00001767,0.00001109,0.00007995,0.00017566,
 -0.00000131,-0.00000123,0.00000030,-0.00000761,0.00000585,0.00000016,0
 .01867050,0.00917717,-0.00216536,0.10442922,0.09679926,-0.00003645,0.0
 0017223,-0.00010823,-0.00010599,0.00018230,-0.00015668,0.00031199,-0.0
 0059738,0.00001070,0.00002796,0.00001006,-0.00001857,-0.03048484,-0.01
 246238,0.00300522,0.00124948,0.00168524,0.00249362,-0.00000731,0.00000
 273,0.00000020,0.00000119,-0.00012779,-0.00003831,-0.00001491,0.000003
 49,0.00002462,0.04073303,0.01630008,-0.05485462,0.00069488,-0.00035056
 ,-0.00043759,-0.00029850,-0.00049318,0.00050804,0.01615702,0.00753834,
 -0.00428236,-0.00007385,0.00005461,-0.00000131,0.00003518,-0.00002976,
 0.00007355,0.00000768,-0.00000716,-0.00000506,-0.00009597,-0.00003448,
 -0.00002727,0.00000597,-0.00000090,0.00000399,-0.00000019,-0.00000116,
 0.00000375,0.00086499,0.00030150,0.00152381,-0.00279285,-0.00169864,-0
 .00496830,-0.00000059,0.00000024,-0.00000142,0.00000191,0.00000173,-0.
 00000068,0.00000019,0.00003702,-0.00002305,-0.00028298,0.00004493,0.00
 001615,-0.00000845,0.00000665,0.00000110,-0.00000212,-0.00000209,0.000
 00434,0.01494021,0.00750045,-0.00283255,-0.04015365,-0.02086945,0.0604
 3209,-0.00164243,0.00214339,0.00128646,0.00024450,-0.00004305,0.000051
 65,0.00591299,0.00258023,0.01524029,0.00000376,0.00000111,-0.00001938,
 0.00093390,0.00120410,-0.00006760,0.00001816,-0.00048256,-0.00034842,-
 0.00000106,-0.00000586,0.00000254,-0.00002359,-0.00001119,0.00006634,0
 .00001989,0.00002613,-0.00008053,-0.00161029,-0.00086958,-0.00052799,0
 .00002840,0.00005177,-0.00006663,0.00174619,0.00016370,0.00043110,-0.1
 2115506,-0.01908067,-0.12039319,0.00020112,0.00006031,0.00002171,0.000
 39303,0.00013202,0.00074296,0.00003939,0.00002374,0.00002565,0.0004487
 2,-0.00075353,-0.00070355,0.00000613,-0.00000345,-0.00000098,0.0000013
 2,0.00000251,0.00000188,0.00009483,-0.00012943,-0.00042802,0.00023589,
 0.00005619,0.00034527,0.00000509,-0.00000023,-0.00001096,0.00000422,0.
 00000062,0.00000306,0.00000491,0.00000361,-0.00000656,0.00006761,0.000
 00211,-0.00009697,0.00003342,-0.00000785,-0.00000588,-0.00000025,-0.00
 000103,-0.00000054,-0.00011956,0.00000972,-0.00004199,0.00046563,0.000
 40115,0.00014328,0.12743694,0.00357352,-0.00408390,-0.00197425,-0.0000
 9255,0.00021624,0.00010620,-0.01357611,-0.00354251,-0.02038310,-0.0000
 0022,0.00000284,-0.00000345,0.00030413,-0.00699128,0.00148911,-0.00069
 959,0.00154182,-0.00014641,0.00000669,-0.00000656,0.00000110,-0.000011
 58,0.00002102,0.00001664,-0.00001145,0.00000807,0.00003671,0.01635346,
 0.00497348,0.02593117,0.00002176,0.00003319,-0.00003316,-0.00114800,0.
 00050675,0.00162234,-0.01756855,-0.05195844,-0.02911725,0.00034177,0.0
 0009237,0.00022435,-0.00050181,0.00023009,-0.00156548,-0.00008971,-0.0
 0001260,0.00007747,-0.00058272,0.00086573,0.00079366,0.00000158,-0.000
 00152,-0.00000121,-0.00000005,0.00000028,0.00000111,0.00066614,0.00033
 664,0.00186856,0.00003979,0.00001952,-0.00008317,0.00000190,0.00000126
 ,-0.00000580,0.00000319,0.00000098,-0.00000041,0.00000724,-0.00000021,
 -0.00000546,0.00002583,-0.00000198,-0.00003623,-0.00001037,-0.00000011
 ,-0.00000595,0.00000226,-0.00000231,-0.00000210,0.00001616,0.00118167,
 -0.00104704,-0.00053104,0.00130599,-0.00074205,0.01808242,0.05737421,0
 .00345639,-0.00341163,-0.00007794,-0.00004309,0.00024568,0.00016588,-0
 .00953538,-0.00357455,-0.01787825,0.00000045,0.00000453,-0.00000319,0.
 00050104,0.00400412,0.00061579,-0.00012645,0.00007708,0.00028603,0.000
 00792,-0.00000642,-0.00000746,0.00000522,-0.00001914,-0.00000984,-0.00
 001619,0.00002291,0.00002530,-0.00759718,-0.00178701,-0.01281953,0.000
 06097,0.00003219,-0.00001344,-0.00106348,0.00056764,0.00149323,-0.1170
 5251,-0.02853441,-0.23827348,-0.00015113,0.00003096,0.00025143,-0.0006
 4260,0.00016129,-0.00106534,-0.00009900,-0.00000253,0.00012763,0.00026
 308,0.00009895,0.00083141,0.00000139,-0.00000156,0.00000145,0.00000423
 ,0.00000218,0.00000157,-0.00041897,-0.00034944,-0.00091175,-0.00012962
 ,-0.00010670,0.00001968,0.00000897,-0.00000488,-0.00000377,0.00000351,
 0.00000302,0.00000338,-0.00000056,0.00000327,0.00000033,0.00004949,0.0
 0002432,-0.00006890,-0.00000595,-0.00000303,-0.00000465,-0.00000074,-0
 .00000492,-0.00000098,0.00004769,0.00006662,0.00061475,0.00027451,-0.0
 0034959,0.00044006,0.12847546,0.03190626,0.25833931,-0.00047094,-0.000
 84229,-0.00090440,0.00019482,0.00130045,-0.00175112,-0.01255253,-0.006
 98643,0.00095557,0.00000559,0.00000329,-0.00002464,0.00067737,0.000076
 18,-0.00013319,0.00002970,0.00012885,0.00028872,0.00000259,0.00004119,
 0.00003598,0.00010318,0.00008354,0.00007178,-0.00015246,-0.00011600,0.
 00047951,0.00405268,0.00133113,-0.00128104,-0.00013426,-0.00046750,0.0
 0016826,-0.00348251,0.00137265,0.00430313,-0.26387029,-0.08157534,0.05
 755707,0.00067117,-0.00002945,-0.00018639,0.00028011,0.00025202,0.0000
 2125,-0.00005145,0.00000809,0.00018020,0.00043130,0.00013746,-0.000374
 29,-0.00000572,0.00000122,0.00000786,-0.00001390,-0.00001000,-0.000002
 74,0.00013816,0.00003015,0.00015891,-0.00002288,0.00001779,0.00048399,
 0.00000498,-0.00000720,-0.00000526,-0.00002691,-0.00001126,-0.00002335
 ,-0.00001812,-0.00002660,-0.00000898,-0.00002092,-0.00000153,-0.000009
 84,-0.00018928,0.00004226,-0.00001721,0.00001134,-0.00000377,-0.000002
 02,0.00056534,-0.00051098,0.00021717,0.00094270,0.00085940,-0.00081631
 ,-0.01379382,-0.00462410,0.00372250,0.28669497,-0.00038061,0.00022579,
 0.00018196,0.00065042,-0.00092350,0.00133322,0.01817958,0.00808594,-0.
 00285039,-0.00000269,-0.00000079,0.00004236,-0.00051917,0.00087443,-0.
 00141732,0.00009381,0.00004378,0.00020799,-0.00000522,-0.00004209,-0.0
 0003725,-0.00007160,-0.00006499,-0.00010685,0.00019166,0.00012650,-0.0
 0049215,-0.02716803,-0.01282530,0.00781413,0.00005806,0.00046197,-0.00
 012287,0.00498375,-0.00136198,-0.00523815,-0.08398993,-0.07855909,0.02
 062808,0.00001749,-0.00002139,-0.00034291,0.00002327,-0.00004898,0.000
 22858,0.00000222,-0.00000312,-0.00007828,-0.00023884,0.00072461,0.0009
 1754,-0.00000421,0.00000356,-0.00000609,0.00001199,0.00000932,0.000000
 93,0.00029165,-0.00001188,-0.00021988,0.00048648,0.00042353,0.00016443
 ,-0.00000482,0.00000697,0.00000645,0.00002209,0.00001423,0.00002451,0.
 00001825,0.00002085,0.00000377,0.00003365,0.00000323,0.00002874,0.0001
 9360,-0.00005332,0.00000014,-0.00001386,-0.00000080,-0.00000004,0.0000
 5469,0.00128747,-0.00088054,0.00111598,-0.00450517,0.00357539,-0.00355
 643,-0.00211073,0.00090478,0.08952678,0.08822097,0.00003638,0.00033109
 ,0.00016770,0.00030524,-0.00065271,0.00125220,0.01486954,0.00812633,-0
 .00452525,-0.00000378,-0.00000356,-0.00000269,0.00117784,-0.00032283,0
 .00055416,-0.00011380,-0.00004385,-0.00032603,0.00000165,-0.00002962,-
 0.00002893,-0.00002196,-0.00006216,-0.00001083,0.00014045,0.00011380,-
 0.00036676,0.01419525,0.00572036,-0.00464076,0.00006468,0.00028102,-0.
 00011096,0.00306931,-0.00177551,-0.00238225,0.05475044,0.01981824,-0.0
 6402729,-0.00009549,-0.00015914,-0.00052223,-0.00005170,-0.00008406,0.
 00024524,-0.00000246,0.00000141,-0.00003566,-0.00034702,0.00000629,0.0
 0072395,0.00000901,-0.00000486,-0.00000492,0.00000923,0.00000851,0.000
 00212,-0.00015719,-0.00002618,0.00014836,-0.00022766,-0.00013363,-0.00
 002953,-0.00000356,0.00000186,0.00000244,0.00001777,0.00000802,0.00002
 116,0.00000349,0.00001888,0.00000691,0.00005001,0.00001008,-0.00004979
 ,0.00014242,-0.00003395,-0.00000200,-0.00001503,0.00000449,-0.00000354
 ,-0.00041354,-0.00053709,0.00063271,-0.00023992,0.00261117,-0.00078525
 ,-0.02403847,-0.00892216,0.00792129,-0.06311113,-0.02427027,0.06617642
 \\-0.00001622,-0.00003356,0.00001447,0.00031907,-0.00114570,0.00002671
 ,-0.00000966,0.00014115,-0.00098723,0.00000623,-0.00001045,0.00000542,
 0.00002784,-0.00000174,-0.00001639,-0.00000352,0.00003451,-0.00002647,
 0.00000956,-0.00000937,0.00000054,0.00000637,-0.00001438,0.00001856,-0
 .00000224,-0.00000928,0.00000262,-0.00001020,0.00001919,0.00001088,-0.
 00002929,-0.00002561,0.00000056,-0.00044376,0.00155686,0.00015637,0.00
 015904,-0.00053454,0.00079445,0.00000119,0.00001115,-0.00000656,-0.000
 01250,0.00001836,-0.00000643,0.00000198,0.00002911,0.00001182,-0.00001
 029,-0.00000534,-0.00001812,-0.00000122,-0.00001106,0.00001274,0.00000
 523,-0.00000693,0.00000833,0.00000320,0.00000667,0.00000308,0.00000161
 ,0.00001704,0.00000488,-0.00000127,-0.00001249,-0.00000745,-0.00000225
 ,-0.00001072,0.00000726,0.00000472,-0.00000911,0.00000574,0.00000776,0
 .00000087,0.00000048,-0.00000060,-0.00000142,0.00000529,-0.00000829,-0
 .00000397,-0.00000943,0.00000494,0.00001387,-0.00000667,-0.00000380,-0
 .00000902,0.00000142,-0.00000766,-0.00000582,0.00000115,0.00000401,0.0
 0001174,-0.00000801\\\@


 LET US PLACE AT THE END OF EVERY CHAPTER.....THE
 TWO LETTERS USED BY THE ROMAN JUDGES WHEN THEY DID
 NOT UNDERSTAND A PLEADING.
 N. L. -NON LIQUET- IT IS NOT CLEAR.
                                              -- VOLTAIRE
 Job cpu time:       0 days 13 hours 46 minutes 57.9 seconds.
 Elapsed time:       0 days  1 hours  9 minutes 10.3 seconds.
 File lengths (MBytes):  RWF=    720 Int=      0 D2E=      0 Chk=     34 Scr=      1
 Normal termination of Gaussian 16 at Sat Mar  9 01:38:58 2019.
