 Entering Gaussian System, Link 0=g16
 Initial command:
 /sw/Projects/G16/g16/l1.exe "/nvme/pbs/tmpdir/pbs.74203[8].flm1/Gau-7722.inp" -scrdir="/nvme/pbs/tmpdir/pbs.74203[8].flm1/"
 Entering Link 1 = /sw/Projects/G16/g16/l1.exe PID=      7723.
  
 Copyright (c) 1988-2017, Gaussian, Inc.  All Rights Reserved.
  
 This is part of the Gaussian(R) 16 program.  It is based on
 the Gaussian(R) 09 system (copyright 2009, Gaussian, Inc.),
 the Gaussian(R) 03 system (copyright 2003, Gaussian, Inc.),
 the Gaussian(R) 98 system (copyright 1998, Gaussian, Inc.),
 the Gaussian(R) 94 system (copyright 1995, Gaussian, Inc.),
 the Gaussian 92(TM) system (copyright 1992, Gaussian, Inc.),
 the Gaussian 90(TM) system (copyright 1990, Gaussian, Inc.),
 the Gaussian 88(TM) system (copyright 1988, Gaussian, Inc.),
 the Gaussian 86(TM) system (copyright 1986, Carnegie Mellon
 University), and the Gaussian 82(TM) system (copyright 1983,
 Carnegie Mellon University). Gaussian is a federally registered
 trademark of Gaussian, Inc.
  
 This software contains proprietary and confidential information,
 including trade secrets, belonging to Gaussian, Inc.
  
 This software is provided under written license and may be
 used, copied, transmitted, or stored only in accord with that
 written license.
  
 The following legend is applicable only to US Government
 contracts under FAR:
  
                    RESTRICTED RIGHTS LEGEND
  
 Use, reproduction and disclosure by the US Government is
 subject to restrictions as set forth in subparagraphs (a)
 and (c) of the Commercial Computer Software - Restricted
 Rights clause in FAR 52.227-19.
  
 Gaussian, Inc.
 340 Quinnipiac St., Bldg. 40, Wallingford CT 06492
  
  
 ---------------------------------------------------------------
 Warning -- This program may not be used in any manner that
 competes with the business of Gaussian, Inc. or will provide
 assistance to any competitor of Gaussian, Inc.  The licensee
 of this program is prohibited from giving any competitor of
 Gaussian, Inc. access to this program.  By using this program,
 the user acknowledges that Gaussian, Inc. is engaged in the
 business of creating and licensing software in the field of
 computational chemistry and represents and warrants to the
 licensee that it is not a competitor of Gaussian, Inc. and that
 it will not use this program in any manner prohibited above.
 ---------------------------------------------------------------
  

 Cite this work as:
 Gaussian 16, Revision B.01,
 M. J. Frisch, G. W. Trucks, H. B. Schlegel, G. E. Scuseria, 
 M. A. Robb, J. R. Cheeseman, G. Scalmani, V. Barone, 
 G. A. Petersson, H. Nakatsuji, X. Li, M. Caricato, A. V. Marenich, 
 J. Bloino, B. G. Janesko, R. Gomperts, B. Mennucci, H. P. Hratchian, 
 J. V. Ortiz, A. F. Izmaylov, J. L. Sonnenberg, D. Williams-Young, 
 F. Ding, F. Lipparini, F. Egidi, J. Goings, B. Peng, A. Petrone, 
 T. Henderson, D. Ranasinghe, V. G. Zakrzewski, J. Gao, N. Rega, 
 G. Zheng, W. Liang, M. Hada, M. Ehara, K. Toyota, R. Fukuda, 
 J. Hasegawa, M. Ishida, T. Nakajima, Y. Honda, O. Kitao, H. Nakai, 
 T. Vreven, K. Throssell, J. A. Montgomery, Jr., J. E. Peralta, 
 F. Ogliaro, M. J. Bearpark, J. J. Heyd, E. N. Brothers, K. N. Kudin, 
 V. N. Staroverov, T. A. Keith, R. Kobayashi, J. Normand, 
 K. Raghavachari, A. P. Rendell, J. C. Burant, S. S. Iyengar, 
 J. Tomasi, M. Cossi, J. M. Millam, M. Klene, C. Adamo, R. Cammi, 
 J. W. Ochterski, R. L. Martin, K. Morokuma, O. Farkas, 
 J. B. Foresman, and D. J. Fox, Gaussian, Inc., Wallingford CT, 2016.
 
 ******************************************
 Gaussian 16:  ES64L-G16RevB.01 20-Dec-2017
                 8-Mar-2019 
 ******************************************
 %mem=20gb
 %nproc=12
 Will use up to   12 processors via shared memory.
 %chk=4c1_a1_a4_4c1_PSI.inp_extract_8.chk
 ----------------------------------------------------------------------
 #M062X/6-311++G(2d,2p) opt=ModRedundant freq=noraman SCRF=(SMD,solvent
 =water)
 ----------------------------------------------------------------------
 1/18=120,19=15,26=3,38=1/1,3;
 2/9=110,12=2,17=6,18=5,40=1/2;
 3/5=4,6=6,7=1212,11=2,25=1,30=1,70=32201,71=1,72=1,74=-55/1,2,3;
 4//1;
 5/5=2,38=5,53=1/2;
 6/7=2,8=2,9=2,10=2,28=1/1;
 7//1,2,3,16;
 1/18=20,19=15,26=3/3(2);
 2/9=110/2;
 99//99;
 2/9=110/2;
 3/5=4,6=6,7=1212,11=2,25=1,30=1,70=32205,71=1,72=1,74=-55/1,2,3;
 4/5=5,16=3,69=1/1;
 5/5=2,38=5,53=1/2;
 7//1,2,3,16;
 1/18=20,19=15,26=3/3(-5);
 2/9=110/2;
 6/7=2,8=2,9=2,10=2,19=2,28=1/1;
 99/9=1/99;
 -------------------------------
 4c1_a1_a4_4c1_PSI.inp_extract_8
 -------------------------------
 Symbolic Z-matrix:
 Charge =  0 Multiplicity = 1
 C                    -1.89217  -0.839    -1.07073 
 C                     1.01732  -0.72139  -0.65594 
 C                    -1.24024  -1.26574   0.24271 
 C                     3.04114   1.13374   0.27978 
 C                    -2.85706   1.119    -0.1649 
 O                    -2.06455   0.55431  -1.192 
 C                     3.07424  -0.31305   0.77042 
 C                     1.61731   1.52719  -0.07457 
 C                     2.40527  -1.21593  -0.26579 
 C                    -2.23125   0.86722   1.19594 
 O                     1.04717   0.63288  -1.02137 
 O                     0.14427  -0.94836   0.41095 
 C                    -2.00478  -0.63007   1.40294 
 H                    -2.86382  -1.32688  -1.1038 
 H                    -1.33853  -1.16044  -1.93883 
 H                     0.68235  -1.24498  -1.53607 
 H                    -1.32266  -2.34602   0.29555 
 H                     3.6739    1.24015  -0.59844 
 H                     3.41783   1.81443   1.03806 
 H                    -2.92847   2.17618  -0.3815 
 H                    -3.85653   0.6912   -0.21256 
 H                     2.55757  -0.38799   1.72375 
 H                     4.09646  -0.63881   0.93715 
 H                     1.57864   2.50273  -0.53942 
 H                     0.99986   1.55282   0.81578 
 H                     3.00824  -1.23027  -1.16998 
 H                     2.32439  -2.23834   0.08727 
 H                    -2.88604   1.25582   1.97066 
 H                    -1.29309   1.40775   1.26404 
 H                    -1.47629  -0.81967   2.33161 
 H                    -2.96762  -1.13013   1.47695 
 
 The following ModRedundant input section has been read:
 D      13       3      12       2 F                                           
 

 GradGradGradGradGradGradGradGradGradGradGradGradGradGradGradGradGradGrad
 Berny optimization.
 Initialization pass.
                           ----------------------------
                           !    Initial Parameters    !
                           ! (Angstroms and Degrees)  !
 --------------------------                            --------------------------
 ! Name  Definition              Value          Derivative Info.                !
 --------------------------------------------------------------------------------
 ! R1    R(1,3)                  1.5272         estimate D2E/DX2                !
 ! R2    R(1,6)                  1.4092         estimate D2E/DX2                !
 ! R3    R(1,14)                 1.0878         estimate D2E/DX2                !
 ! R4    R(1,15)                 1.0786         estimate D2E/DX2                !
 ! R5    R(2,9)                  1.5242         estimate D2E/DX2                !
 ! R6    R(2,11)                 1.403          estimate D2E/DX2                !
 ! R7    R(2,12)                 1.3971         estimate D2E/DX2                !
 ! R8    R(2,16)                 1.0775         estimate D2E/DX2                !
 ! R9    R(3,12)                 1.4303         estimate D2E/DX2                !
 ! R10   R(3,13)                 1.528          estimate D2E/DX2                !
 ! R11   R(3,17)                 1.0847         estimate D2E/DX2                !
 ! R12   R(4,7)                  1.5281         estimate D2E/DX2                !
 ! R13   R(4,8)                  1.5191         estimate D2E/DX2                !
 ! R14   R(4,18)                 1.0876         estimate D2E/DX2                !
 ! R15   R(4,19)                 1.0864         estimate D2E/DX2                !
 ! R16   R(5,6)                  1.4149         estimate D2E/DX2                !
 ! R17   R(5,10)                 1.5189         estimate D2E/DX2                !
 ! R18   R(5,20)                 1.0815         estimate D2E/DX2                !
 ! R19   R(5,21)                 1.0882         estimate D2E/DX2                !
 ! R20   R(7,9)                  1.5285         estimate D2E/DX2                !
 ! R21   R(7,22)                 1.0869         estimate D2E/DX2                !
 ! R22   R(7,23)                 1.0858         estimate D2E/DX2                !
 ! R23   R(8,11)                 1.4217         estimate D2E/DX2                !
 ! R24   R(8,24)                 1.0813         estimate D2E/DX2                !
 ! R25   R(8,25)                 1.0838         estimate D2E/DX2                !
 ! R26   R(9,26)                 1.0869         estimate D2E/DX2                !
 ! R27   R(9,27)                 1.0847         estimate D2E/DX2                !
 ! R28   R(10,13)                1.5284         estimate D2E/DX2                !
 ! R29   R(10,28)                1.0863         estimate D2E/DX2                !
 ! R30   R(10,29)                1.0849         estimate D2E/DX2                !
 ! R31   R(13,30)                1.0852         estimate D2E/DX2                !
 ! R32   R(13,31)                1.0875         estimate D2E/DX2                !
 ! A1    A(3,1,6)              113.7358         estimate D2E/DX2                !
 ! A2    A(3,1,14)             106.3878         estimate D2E/DX2                !
 ! A3    A(3,1,15)             112.9418         estimate D2E/DX2                !
 ! A4    A(6,1,14)             109.365          estimate D2E/DX2                !
 ! A5    A(6,1,15)             106.7494         estimate D2E/DX2                !
 ! A6    A(14,1,15)            107.4797         estimate D2E/DX2                !
 ! A7    A(9,2,11)             111.1293         estimate D2E/DX2                !
 ! A8    A(9,2,12)             108.7146         estimate D2E/DX2                !
 ! A9    A(9,2,16)             109.5421         estimate D2E/DX2                !
 ! A10   A(11,2,12)            111.6542         estimate D2E/DX2                !
 ! A11   A(11,2,16)            105.243          estimate D2E/DX2                !
 ! A12   A(12,2,16)            110.5211         estimate D2E/DX2                !
 ! A13   A(1,3,12)             116.8957         estimate D2E/DX2                !
 ! A14   A(1,3,13)             108.8574         estimate D2E/DX2                !
 ! A15   A(1,3,17)             106.7233         estimate D2E/DX2                !
 ! A16   A(12,3,13)            107.62           estimate D2E/DX2                !
 ! A17   A(12,3,17)            106.7861         estimate D2E/DX2                !
 ! A18   A(13,3,17)            109.8344         estimate D2E/DX2                !
 ! A19   A(7,4,8)              109.9028         estimate D2E/DX2                !
 ! A20   A(7,4,18)             109.8332         estimate D2E/DX2                !
 ! A21   A(7,4,19)             111.1991         estimate D2E/DX2                !
 ! A22   A(8,4,18)             109.3655         estimate D2E/DX2                !
 ! A23   A(8,4,19)             108.9977         estimate D2E/DX2                !
 ! A24   A(18,4,19)            107.492          estimate D2E/DX2                !
 ! A25   A(6,5,10)             110.6991         estimate D2E/DX2                !
 ! A26   A(6,5,20)             106.3634         estimate D2E/DX2                !
 ! A27   A(6,5,21)             109.0114         estimate D2E/DX2                !
 ! A28   A(10,5,20)            111.6345         estimate D2E/DX2                !
 ! A29   A(10,5,21)            110.64           estimate D2E/DX2                !
 ! A30   A(20,5,21)            108.353          estimate D2E/DX2                !
 ! A31   A(1,6,5)              113.6199         estimate D2E/DX2                !
 ! A32   A(4,7,9)              109.3972         estimate D2E/DX2                !
 ! A33   A(4,7,22)             109.6697         estimate D2E/DX2                !
 ! A34   A(4,7,23)             110.7182         estimate D2E/DX2                !
 ! A35   A(9,7,22)             110.232          estimate D2E/DX2                !
 ! A36   A(9,7,23)             109.8115         estimate D2E/DX2                !
 ! A37   A(22,7,23)            106.9872         estimate D2E/DX2                !
 ! A38   A(4,8,11)             111.6102         estimate D2E/DX2                !
 ! A39   A(4,8,24)             111.5591         estimate D2E/DX2                !
 ! A40   A(4,8,25)             110.394          estimate D2E/DX2                !
 ! A41   A(11,8,24)            105.4783         estimate D2E/DX2                !
 ! A42   A(11,8,25)            109.4811         estimate D2E/DX2                !
 ! A43   A(24,8,25)            108.1469         estimate D2E/DX2                !
 ! A44   A(2,9,7)              112.3585         estimate D2E/DX2                !
 ! A45   A(2,9,26)             107.2488         estimate D2E/DX2                !
 ! A46   A(2,9,27)             108.7383         estimate D2E/DX2                !
 ! A47   A(7,9,26)             109.2053         estimate D2E/DX2                !
 ! A48   A(7,9,27)             111.6387         estimate D2E/DX2                !
 ! A49   A(26,9,27)            107.4399         estimate D2E/DX2                !
 ! A50   A(5,10,13)            110.1691         estimate D2E/DX2                !
 ! A51   A(5,10,28)            109.3499         estimate D2E/DX2                !
 ! A52   A(5,10,29)            109.2661         estimate D2E/DX2                !
 ! A53   A(13,10,28)           110.0711         estimate D2E/DX2                !
 ! A54   A(13,10,29)           110.5765         estimate D2E/DX2                !
 ! A55   A(28,10,29)           107.3534         estimate D2E/DX2                !
 ! A56   A(2,11,8)             116.2481         estimate D2E/DX2                !
 ! A57   A(2,12,3)             123.4417         estimate D2E/DX2                !
 ! A58   A(3,13,10)            112.2623         estimate D2E/DX2                !
 ! A59   A(3,13,30)            109.4777         estimate D2E/DX2                !
 ! A60   A(3,13,31)            107.6616         estimate D2E/DX2                !
 ! A61   A(10,13,30)           111.0519         estimate D2E/DX2                !
 ! A62   A(10,13,31)           109.1775         estimate D2E/DX2                !
 ! A63   A(30,13,31)           107.0139         estimate D2E/DX2                !
 ! D1    D(6,1,3,12)           -70.4683         estimate D2E/DX2                !
 ! D2    D(6,1,3,13)            51.6665         estimate D2E/DX2                !
 ! D3    D(6,1,3,17)           170.1562         estimate D2E/DX2                !
 ! D4    D(14,1,3,12)          169.0757         estimate D2E/DX2                !
 ! D5    D(14,1,3,13)          -68.7896         estimate D2E/DX2                !
 ! D6    D(14,1,3,17)           49.7002         estimate D2E/DX2                !
 ! D7    D(15,1,3,12)           51.4005         estimate D2E/DX2                !
 ! D8    D(15,1,3,13)          173.5353         estimate D2E/DX2                !
 ! D9    D(15,1,3,17)          -67.9749         estimate D2E/DX2                !
 ! D10   D(3,1,6,5)            -58.7602         estimate D2E/DX2                !
 ! D11   D(14,1,6,5)            60.006          estimate D2E/DX2                !
 ! D12   D(15,1,6,5)           175.999          estimate D2E/DX2                !
 ! D13   D(11,2,9,7)            51.2437         estimate D2E/DX2                !
 ! D14   D(11,2,9,26)          -68.7664         estimate D2E/DX2                !
 ! D15   D(11,2,9,27)          175.3395         estimate D2E/DX2                !
 ! D16   D(12,2,9,7)           -72.0274         estimate D2E/DX2                !
 ! D17   D(12,2,9,26)          167.9624         estimate D2E/DX2                !
 ! D18   D(12,2,9,27)           52.0683         estimate D2E/DX2                !
 ! D19   D(16,2,9,7)           167.1095         estimate D2E/DX2                !
 ! D20   D(16,2,9,26)           47.0993         estimate D2E/DX2                !
 ! D21   D(16,2,9,27)          -68.7948         estimate D2E/DX2                !
 ! D22   D(9,2,11,8)           -54.0656         estimate D2E/DX2                !
 ! D23   D(12,2,11,8)           67.5039         estimate D2E/DX2                !
 ! D24   D(16,2,11,8)         -172.5549         estimate D2E/DX2                !
 ! D25   D(9,2,12,3)          -146.9864         estimate D2E/DX2                !
 ! D26   D(11,2,12,3)           90.0577         estimate D2E/DX2                !
 ! D27   D(16,2,12,3)          -26.7278         estimate D2E/DX2                !
 ! D28   D(1,3,12,2)           -23.0662         estimate D2E/DX2                !
 ! D29   D(13,3,12,2)         -145.8422         Frozen                          !
 ! D30   D(17,3,12,2)           96.2756         estimate D2E/DX2                !
 ! D31   D(1,3,13,10)          -48.8822         estimate D2E/DX2                !
 ! D32   D(1,3,13,30)         -172.6957         estimate D2E/DX2                !
 ! D33   D(1,3,13,31)           71.3068         estimate D2E/DX2                !
 ! D34   D(12,3,13,10)          78.7097         estimate D2E/DX2                !
 ! D35   D(12,3,13,30)         -45.1039         estimate D2E/DX2                !
 ! D36   D(12,3,13,31)        -161.1013         estimate D2E/DX2                !
 ! D37   D(17,3,13,10)        -165.3979         estimate D2E/DX2                !
 ! D38   D(17,3,13,30)          70.7886         estimate D2E/DX2                !
 ! D39   D(17,3,13,31)         -45.2088         estimate D2E/DX2                !
 ! D40   D(8,4,7,9)             53.4308         estimate D2E/DX2                !
 ! D41   D(8,4,7,22)           -67.5809         estimate D2E/DX2                !
 ! D42   D(8,4,7,23)           174.5849         estimate D2E/DX2                !
 ! D43   D(18,4,7,9)           -66.9322         estimate D2E/DX2                !
 ! D44   D(18,4,7,22)          172.0561         estimate D2E/DX2                !
 ! D45   D(18,4,7,23)           54.2219         estimate D2E/DX2                !
 ! D46   D(19,4,7,9)           174.212          estimate D2E/DX2                !
 ! D47   D(19,4,7,22)           53.2003         estimate D2E/DX2                !
 ! D48   D(19,4,7,23)          -64.634          estimate D2E/DX2                !
 ! D49   D(7,4,8,11)           -55.2372         estimate D2E/DX2                !
 ! D50   D(7,4,8,24)          -172.9575         estimate D2E/DX2                !
 ! D51   D(7,4,8,25)            66.7662         estimate D2E/DX2                !
 ! D52   D(18,4,8,11)           65.4085         estimate D2E/DX2                !
 ! D53   D(18,4,8,24)          -52.3119         estimate D2E/DX2                !
 ! D54   D(18,4,8,25)         -172.5881         estimate D2E/DX2                !
 ! D55   D(19,4,8,11)         -177.3361         estimate D2E/DX2                !
 ! D56   D(19,4,8,24)           64.9436         estimate D2E/DX2                !
 ! D57   D(19,4,8,25)          -55.3326         estimate D2E/DX2                !
 ! D58   D(10,5,6,1)            59.6528         estimate D2E/DX2                !
 ! D59   D(20,5,6,1)          -178.9003         estimate D2E/DX2                !
 ! D60   D(21,5,6,1)           -62.268          estimate D2E/DX2                !
 ! D61   D(6,5,10,13)          -55.4858         estimate D2E/DX2                !
 ! D62   D(6,5,10,28)         -176.5825         estimate D2E/DX2                !
 ! D63   D(6,5,10,29)           66.1837         estimate D2E/DX2                !
 ! D64   D(20,5,10,13)        -173.7707         estimate D2E/DX2                !
 ! D65   D(20,5,10,28)          65.1326         estimate D2E/DX2                !
 ! D66   D(20,5,10,29)         -52.1012         estimate D2E/DX2                !
 ! D67   D(21,5,10,13)          65.4746         estimate D2E/DX2                !
 ! D68   D(21,5,10,28)         -55.6221         estimate D2E/DX2                !
 ! D69   D(21,5,10,29)        -172.8559         estimate D2E/DX2                !
 ! D70   D(4,7,9,2)            -52.1343         estimate D2E/DX2                !
 ! D71   D(4,7,9,26)            66.7342         estimate D2E/DX2                !
 ! D72   D(4,7,9,27)          -174.6052         estimate D2E/DX2                !
 ! D73   D(22,7,9,2)            68.5355         estimate D2E/DX2                !
 ! D74   D(22,7,9,26)         -172.596          estimate D2E/DX2                !
 ! D75   D(22,7,9,27)          -53.9354         estimate D2E/DX2                !
 ! D76   D(23,7,9,2)          -173.8362         estimate D2E/DX2                !
 ! D77   D(23,7,9,26)          -54.9677         estimate D2E/DX2                !
 ! D78   D(23,7,9,27)           63.6929         estimate D2E/DX2                !
 ! D79   D(4,8,11,2)            57.037          estimate D2E/DX2                !
 ! D80   D(24,8,11,2)          178.3566         estimate D2E/DX2                !
 ! D81   D(25,8,11,2)          -65.491          estimate D2E/DX2                !
 ! D82   D(5,10,13,3)           51.9165         estimate D2E/DX2                !
 ! D83   D(5,10,13,30)         174.8476         estimate D2E/DX2                !
 ! D84   D(5,10,13,31)         -67.3891         estimate D2E/DX2                !
 ! D85   D(28,10,13,3)         172.5812         estimate D2E/DX2                !
 ! D86   D(28,10,13,30)        -64.4877         estimate D2E/DX2                !
 ! D87   D(28,10,13,31)         53.2756         estimate D2E/DX2                !
 ! D88   D(29,10,13,3)         -68.9712         estimate D2E/DX2                !
 ! D89   D(29,10,13,30)         53.9599         estimate D2E/DX2                !
 ! D90   D(29,10,13,31)        171.7232         estimate D2E/DX2                !
 --------------------------------------------------------------------------------
 Trust Radius=3.00D-01 FncErr=1.00D-07 GrdErr=1.00D-06 EigMax=2.50D+02 EigMin=1.00D-04
 Number of steps in this run=    186 maximum allowed number of steps=    186.
 GradGradGradGradGradGradGradGradGradGradGradGradGradGradGradGradGradGrad

                          Input orientation:                          
 ---------------------------------------------------------------------
 Center     Atomic      Atomic             Coordinates (Angstroms)
 Number     Number       Type             X           Y           Z
 ---------------------------------------------------------------------
      1          6           0       -1.892167   -0.839002   -1.070735
      2          6           0        1.017317   -0.721388   -0.655935
      3          6           0       -1.240237   -1.265735    0.242708
      4          6           0        3.041138    1.133743    0.279780
      5          6           0       -2.857063    1.118997   -0.164899
      6          8           0       -2.064550    0.554306   -1.192004
      7          6           0        3.074241   -0.313048    0.770416
      8          6           0        1.617306    1.527194   -0.074571
      9          6           0        2.405272   -1.215926   -0.265792
     10          6           0       -2.231251    0.867221    1.195941
     11          8           0        1.047171    0.632879   -1.021366
     12          8           0        0.144270   -0.948364    0.410949
     13          6           0       -2.004776   -0.630072    1.402942
     14          1           0       -2.863818   -1.326883   -1.103803
     15          1           0       -1.338527   -1.160439   -1.938825
     16          1           0        0.682353   -1.244983   -1.536071
     17          1           0       -1.322660   -2.346019    0.295554
     18          1           0        3.673895    1.240151   -0.598444
     19          1           0        3.417831    1.814430    1.038064
     20          1           0       -2.928468    2.176177   -0.381498
     21          1           0       -3.856525    0.691198   -0.212555
     22          1           0        2.557568   -0.387988    1.723754
     23          1           0        4.096462   -0.638805    0.937151
     24          1           0        1.578637    2.502726   -0.539420
     25          1           0        0.999855    1.552820    0.815783
     26          1           0        3.008243   -1.230273   -1.169977
     27          1           0        2.324390   -2.238344    0.087267
     28          1           0       -2.886039    1.255820    1.970664
     29          1           0       -1.293093    1.407747    1.264039
     30          1           0       -1.476286   -0.819668    2.331610
     31          1           0       -2.967623   -1.130132    1.476954
 ---------------------------------------------------------------------
                    Distance matrix (angstroms):
                    1          2          3          4          5
     1  C    0.000000
     2  C    2.941256   0.000000
     3  C    1.527169   2.490065   0.000000
     4  C    5.482072   2.900504   4.908059   0.000000
     5  C    2.363329   4.317285   2.909848   5.914958   0.000000
     6  O    1.409159   3.378264   2.459764   5.345086   1.414884
     7  C    5.322751   2.536169   4.449810   1.528078   6.173000
     8  C    4.348290   2.398769   4.008325   1.519100   4.493858
     9  C    4.388392   1.524204   3.681140   2.494578   5.757970
    10  C    2.857271   4.062797   2.537767   5.358029   1.518854
    11  O    3.287640   1.403022   3.230302   2.433054   4.026523
    12  O    2.520798   1.397129   1.430346   3.569905   3.689659
    13  C    2.485037   3.657917   1.527982   5.462031   2.498752
    14  H    1.087762   3.953532   2.110177   6.545035   2.619908
    15  H    1.078619   2.718193   2.186283   5.419128   3.263218
    16  H    2.647548   1.077493   2.619320   3.810449   4.471686
    17  H    2.112388   3.003373   1.084712   5.581373   3.817427
    18  H    5.960452   3.302779   5.579937   1.087650   6.546453
    19  H    6.299509   3.881040   5.640710   1.086383   6.426900
    20  H    3.261943   4.903103   3.884136   6.095913   1.081501
    21  H    2.633759   5.093753   3.298759   6.929357   1.088213
    22  H    5.273777   2.854198   4.169803   2.152804   5.929270
    23  H    6.319443   3.467835   5.418085   2.165126   7.256438
    24  H    4.847259   3.274686   4.770647   2.164281   4.661588
    25  H    4.200423   2.708926   3.645638   2.151688   4.003218
    26  H    4.917007   2.118252   4.477334   2.773346   6.397739
    27  H    4.591131   2.135871   3.698202   3.452790   6.179222
    28  H    3.824417   5.103387   3.471705   6.164854   2.140138
    29  H    3.295139   3.682052   2.862415   4.453022   2.138046
    30  H    3.427723   3.892703   2.149001   5.332255   3.449279
    31  H    2.780662   4.538285   2.127349   6.531735   2.786842
                    6          7          8          9         10
     6  O    0.000000
     7  C    5.568713   0.000000
     8  C    3.968782   2.494625   0.000000
     9  C    4.896008   1.528540   2.860448   0.000000
    10  C    2.414122   5.451821   4.106234   5.288999   0.000000
    11  O    3.117387   2.866055   1.421715   2.415245   3.964772
    12  O    3.115503   3.019532   2.921293   2.375226   3.091223
    13  C    2.853081   5.128061   4.467250   4.751465   1.528407
    14  H    2.045845   6.308812   5.411612   5.336467   3.240842
    15  H    2.006290   5.246959   4.408601   4.100994   3.838635
    16  H    3.301712   3.451016   3.270334   2.140772   4.518228
    17  H    3.342920   4.867361   4.876697   3.935695   3.458489
    18  H    5.809686   2.155409   2.141587   2.784309   6.183013
    19  H    6.051249   2.171601   2.135966   3.450851   5.730118
    20  H    2.008417   6.599671   4.602113   6.322067   2.165131
    21  H    2.046762   7.071793   5.539021   6.545996   2.157860
    22  H    5.545587   1.086932   2.790338   2.160317   4.978647
    23  H    6.626831   1.085750   3.444031   2.154127   6.509611
    24  H    4.182705   3.446895   1.081315   3.819237   4.494619
    25  H    3.797212   2.790448   1.083805   3.288002   3.324848
    26  H    5.377586   2.147273   3.276926   1.086890   6.119587
    27  H    5.357072   2.176174   3.834767   1.084680   5.623838
    28  H    3.342070   6.279083   4.953458   6.253738   1.086256
    29  H    2.712131   4.720001   3.205708   4.785598   1.084871
    30  H    3.827495   4.837488   4.568126   4.687218   2.169173
    31  H    3.282714   6.137666   5.521792   5.649117   2.147238
                   11         12         13         14         15
    11  O    0.000000
    12  O    2.316697   0.000000
    13  C    4.097157   2.388254   0.000000
    14  H    4.375305   3.389151   2.739940   0.000000
    15  H    3.122383   2.786593   3.448563   1.746848   0.000000
    16  H    1.981005   2.041667   4.029463   3.573359   2.062357
    17  H    4.027929   2.029443   2.153152   2.317759   2.529486
    18  H    2.728978   4.273959   6.304806   7.041785   5.716977
    19  H    3.355196   4.329262   5.959311   7.342653   6.350957
    20  H    4.312413   4.453364   3.451444   3.577336   4.010759
    21  H    4.970293   4.368442   2.790082   2.419182   3.570558
    22  H    3.295323   2.803834   4.580012   6.186116   5.402844
    23  H    3.840722   3.999067   6.118999   7.285907   6.171098
    24  H    2.002762   3.856246   5.140821   5.892354   4.887429
    25  H    2.055151   2.674292   3.759997   5.187048   4.518592
    26  H    2.709100   3.283465   5.666614   5.873228   4.414795
    27  H    3.332308   2.553770   4.802001   5.400640   4.322486
    28  H    4.981008   4.058807   2.157666   4.015370   4.849454
    29  H    3.361597   2.888777   2.162982   3.943609   4.105604
    30  H    4.440740   2.516288   1.085206   3.739596   4.286224
    31  H    5.046621   3.294432   1.087480   2.590327   3.784497
                   16         17         18         19         20
    16  H    0.000000
    17  H    2.930394   0.000000
    18  H    4.000545   6.214934   0.000000
    19  H    4.844483   6.350820   1.753147   0.000000
    20  H    5.106408   4.846367   6.671912   6.513181   0.000000
    21  H    5.109002   3.987898   7.560257   7.466053   1.759260
    22  H    3.857114   4.574911   3.047889   2.461883   6.411210
    23  H    4.259157   5.717789   2.463146   2.547368   7.681966
    24  H    3.980196   5.711833   2.446975   2.518897   4.521678
    25  H    3.668750   4.567894   3.041100   2.442224   4.153767
    26  H    2.354571   4.706314   2.621591   3.783309   6.889858
    27  H    2.513618   3.654579   3.793585   4.304022   6.877518
    28  H    5.593266   4.268886   7.045090   6.396918   2.526168
    29  H    4.333587   3.876802   5.307344   4.733842   2.443917
    30  H    4.449671   2.549289   6.273152   5.706498   4.294750
    31  H    4.734325   2.362200   7.350869   7.045360   3.793027
                   21         22         23         24         25
    21  H    0.000000
    22  H    6.786348   0.000000
    23  H    8.144982   1.746381   0.000000
    24  H    5.738420   3.799538   4.288231   0.000000
    25  H    5.038283   2.649078   3.795646   1.753250   0.000000
    26  H    7.192618   3.047332   2.444186   4.046808   3.965157
    27  H    6.846592   2.481185   2.533982   4.840106   4.081428
    28  H    2.455012   5.691742   7.308425   5.271492   4.064742
    29  H    3.043839   4.273592   5.774299   3.563464   2.340852
    30  H    3.797503   4.102172   5.747412   5.349175   3.749361
    31  H    2.638528   5.580271   7.101696   6.158888   4.834900
                   26         27         28         29         30
    26  H    0.000000
    27  H    1.750578   0.000000
    28  H    7.126489   6.550186   0.000000
    29  H    5.602238   5.269246   1.749251   0.000000
    30  H    5.704446   4.636254   2.534825   2.476822   0.000000
    31  H    6.536608   5.582541   2.437862   3.047985   1.746686
                   31
    31  H    0.000000
 Stoichiometry    C10H18O3
 Framework group  C1[X(C10H18O3)]
 Deg. of freedom    87
 Full point group                 C1      NOp   1
 Largest Abelian subgroup         C1      NOp   1
 Largest concise Abelian subgroup C1      NOp   1
                         Standard orientation:                         
 ---------------------------------------------------------------------
 Center     Atomic      Atomic             Coordinates (Angstroms)
 Number     Number       Type             X           Y           Z
 ---------------------------------------------------------------------
      1          6           0       -1.892167   -0.839002   -1.070735
      2          6           0        1.017317   -0.721388   -0.655935
      3          6           0       -1.240237   -1.265735    0.242708
      4          6           0        3.041138    1.133743    0.279780
      5          6           0       -2.857063    1.118997   -0.164899
      6          8           0       -2.064550    0.554306   -1.192004
      7          6           0        3.074241   -0.313048    0.770416
      8          6           0        1.617306    1.527194   -0.074571
      9          6           0        2.405272   -1.215926   -0.265792
     10          6           0       -2.231251    0.867221    1.195941
     11          8           0        1.047171    0.632879   -1.021366
     12          8           0        0.144270   -0.948364    0.410949
     13          6           0       -2.004776   -0.630072    1.402942
     14          1           0       -2.863818   -1.326883   -1.103803
     15          1           0       -1.338527   -1.160439   -1.938825
     16          1           0        0.682353   -1.244983   -1.536071
     17          1           0       -1.322660   -2.346019    0.295554
     18          1           0        3.673895    1.240151   -0.598444
     19          1           0        3.417831    1.814430    1.038064
     20          1           0       -2.928468    2.176177   -0.381498
     21          1           0       -3.856525    0.691198   -0.212555
     22          1           0        2.557568   -0.387988    1.723754
     23          1           0        4.096462   -0.638805    0.937151
     24          1           0        1.578637    2.502726   -0.539420
     25          1           0        0.999855    1.552820    0.815783
     26          1           0        3.008243   -1.230273   -1.169977
     27          1           0        2.324390   -2.238344    0.087267
     28          1           0       -2.886039    1.255820    1.970664
     29          1           0       -1.293093    1.407747    1.264039
     30          1           0       -1.476286   -0.819668    2.331610
     31          1           0       -2.967623   -1.130132    1.476954
 ---------------------------------------------------------------------
 Rotational constants (GHZ):           1.5184542           0.5293330           0.5012535
 Standard basis: 6-311++G(2d,2p) (5D, 7F)
 There are   557 symmetry adapted cartesian basis functions of A   symmetry.
 There are   531 symmetry adapted basis functions of A   symmetry.
   531 basis functions,   762 primitive gaussians,   557 cartesian basis functions
    51 alpha electrons       51 beta electrons
       nuclear repulsion energy       920.4265505830 Hartrees.
 NAtoms=   31 NActive=   31 NUniq=   31 SFac= 1.00D+00 NAtFMM=   60 NAOKFM=F Big=F
 Integral buffers will be    131072 words long.
 Raffenetti 2 integral format.
 Two-electron integral symmetry is turned on.
 ------------------------------------------------------------------------------
 Polarizable Continuum Model (PCM)
 =================================
 Model                : PCM.
 Atomic radii         : SMD-Coulomb.
 Polarization charges : Total charges.
 Charge compensation  : None.
 Solution method      : On-the-fly selection.
 Cavity type          : VdW (van der Waals Surface) (Alpha=1.000).
 Cavity algorithm     : GePol (No added spheres)
                        Default sphere list used, NSphG=   31.
                        Lebedev-Laikov grids with approx.  5.0 points / Ang**2.
                        Smoothing algorithm: York/Karplus (Gamma=1.0000).
                        Polarization charges: spherical gaussians, with
                                              point-specific exponents (IZeta= 3).
                        Self-potential: point-specific (ISelfS= 7).
                        Self-field    : sphere-specific E.n sum rule (ISelfD= 2).
 1st derivatives      : Analytical E(r).r(x)/FMM algorithm (CHGder, D1EAlg=3).
                        Cavity 1st derivative terms included.
 Solvent              : Water, Eps=  78.355300 Eps(inf)=   1.777849
 ------------------------------------------------------------------------------
 ------------------------------------------------------------------------------
 Atomic radii for non-electrostatic terms: SMD-CDS.
 ------------------------------------------------------------------------------
 Nuclear repulsion after PCM non-electrostatic terms =      920.4328733540 Hartrees.
 One-electron integrals computed using PRISM.
 NBasis=   531 RedAO= T EigKep=  3.92D-06  NBF=   531
 NBsUse=   531 1.00D-06 EigRej= -1.00D+00 NBFU=   531
 ExpMin= 3.60D-02 ExpMax= 8.59D+03 ExpMxC= 1.30D+03 IAcc=3 IRadAn=         5 AccDes= 0.00D+00
 Harris functional with IExCor= 1009 and IRadAn=       5 diagonalized for initial guess.
 HarFok:  IExCor= 1009 AccDes= 0.00D+00 IRadAn=         5 IDoV= 1 UseB2=F ITyADJ=14
 ICtDFT=  3500011 ScaDFX=  1.000000  1.000000  1.000000  1.000000
 FoFCou: FMM=F IPFlag=           0 FMFlag=      100000 FMFlg1=           0
         NFxFlg=           0 DoJE=T BraDBF=F KetDBF=T FulRan=T
         wScrn=  0.000000 ICntrl=       500 IOpCl=  0 I1Cent=   200000004 NGrid=           0
         NMat0=    1 NMatS0=      1 NMatT0=    0 NMatD0=    1 NMtDS0=    0 NMtDT0=    0
 Petite list used in FoFCou.
 Requested convergence on RMS density matrix=1.00D-08 within 128 cycles.
 Requested convergence on MAX density matrix=1.00D-06.
 Requested convergence on             energy=1.00D-06.
 No special actions if energy rises.
 Inv3:  Mode=1 IEnd=    11964027.
 Iteration    1 A*A^-1 deviation from unit magnitude is 4.44D-15 for   1994.
 Iteration    1 A*A^-1 deviation from orthogonality  is 3.22D-15 for   1964    975.
 Iteration    1 A^-1*A deviation from unit magnitude is 4.66D-15 for   1994.
 Iteration    1 A^-1*A deviation from orthogonality  is 3.08D-15 for   1985    586.
 Error on total polarization charges =  0.05954
 SCF Done:  E(RM062X) =  -617.499509127     A.U. after   13 cycles
            NFock= 13  Conv=0.22D-08     -V/T= 2.0035
 SMD-CDS (non-electrostatic) energy       (kcal/mol) =       3.97
 (included in total energy above)

 **********************************************************************

            Population analysis using the SCF Density.

 **********************************************************************

 Orbital symmetries:
       Occupied  (A) (A) (A) (A) (A) (A) (A) (A) (A) (A) (A) (A)
                 (A) (A) (A) (A) (A) (A) (A) (A) (A) (A) (A) (A)
                 (A) (A) (A) (A) (A) (A) (A) (A) (A) (A) (A) (A)
                 (A) (A) (A) (A) (A) (A) (A) (A) (A) (A) (A) (A)
                 (A) (A) (A)
       Virtual   (A) (A) (A) (A) (A) (A) (A) (A) (A) (A) (A) (A)
                 (A) (A) (A) (A) (A) (A) (A) (A) (A) (A) (A) (A)
                 (A) (A) (A) (A) (A) (A) (A) (A) (A) (A) (A) (A)
                 (A) (A) (A) (A) (A) (A) (A) (A) (A) (A) (A) (A)
                 (A) (A) (A) (A) (A) (A) (A) (A) (A) (A) (A) (A)
                 (A) (A) (A) (A) (A) (A) (A) (A) (A) (A) (A) (A)
                 (A) (A) (A) (A) (A) (A) (A) (A) (A) (A) (A) (A)
                 (A) (A) (A) (A) (A) (A) (A) (A) (A) (A) (A) (A)
                 (A) (A) (A) (A) (A) (A) (A) (A) (A) (A) (A) (A)
                 (A) (A) (A) (A) (A) (A) (A) (A) (A) (A) (A) (A)
                 (A) (A) (A) (A) (A) (A) (A) (A) (A) (A) (A) (A)
                 (A) (A) (A) (A) (A) (A) (A) (A) (A) (A) (A) (A)
                 (A) (A) (A) (A) (A) (A) (A) (A) (A) (A) (A) (A)
                 (A) (A) (A) (A) (A) (A) (A) (A) (A) (A) (A) (A)
                 (A) (A) (A) (A) (A) (A) (A) (A) (A) (A) (A) (A)
                 (A) (A) (A) (A) (A) (A) (A) (A) (A) (A) (A) (A)
                 (A) (A) (A) (A) (A) (A) (A) (A) (A) (A) (A) (A)
                 (A) (A) (A) (A) (A) (A) (A) (A) (A) (A) (A) (A)
                 (A) (A) (A) (A) (A) (A) (A) (A) (A) (A) (A) (A)
                 (A) (A) (A) (A) (A) (A) (A) (A) (A) (A) (A) (A)
                 (A) (A) (A) (A) (A) (A) (A) (A) (A) (A) (A) (A)
                 (A) (A) (A) (A) (A) (A) (A) (A) (A) (A) (A) (A)
                 (A) (A) (A) (A) (A) (A) (A) (A) (A) (A) (A) (A)
                 (A) (A) (A) (A) (A) (A) (A) (A) (A) (A) (A) (A)
                 (A) (A) (A) (A) (A) (A) (A) (A) (A) (A) (A) (A)
                 (A) (A) (A) (A) (A) (A) (A) (A) (A) (A) (A) (A)
                 (A) (A) (A) (A) (A) (A) (A) (A) (A) (A) (A) (A)
                 (A) (A) (A) (A) (A) (A) (A) (A) (A) (A) (A) (A)
                 (A) (A) (A) (A) (A) (A) (A) (A) (A) (A) (A) (A)
                 (A) (A) (A) (A) (A) (A) (A) (A) (A) (A) (A) (A)
                 (A) (A) (A) (A) (A) (A) (A) (A) (A) (A) (A) (A)
                 (A) (A) (A) (A) (A) (A) (A) (A) (A) (A) (A) (A)
                 (A) (A) (A) (A) (A) (A) (A) (A) (A) (A) (A) (A)
                 (A) (A) (A) (A) (A) (A) (A) (A) (A) (A) (A) (A)
                 (A) (A) (A) (A) (A) (A) (A) (A) (A) (A) (A) (A)
                 (A) (A) (A) (A) (A) (A) (A) (A) (A) (A) (A) (A)
                 (A) (A) (A) (A) (A) (A) (A) (A) (A) (A) (A) (A)
                 (A) (A) (A) (A) (A) (A) (A) (A) (A) (A) (A) (A)
                 (A) (A) (A) (A) (A) (A) (A) (A) (A) (A) (A) (A)
                 (A) (A) (A) (A) (A) (A) (A) (A) (A) (A) (A) (A)
 The electronic state is 1-A.
 Alpha  occ. eigenvalues --  -19.62704 -19.62703 -19.62648 -10.62935 -10.58520
 Alpha  occ. eigenvalues --  -10.57549 -10.57093 -10.57016 -10.52462 -10.52239
 Alpha  occ. eigenvalues --  -10.52197 -10.52133 -10.52024  -1.19747  -1.16558
 Alpha  occ. eigenvalues --   -1.13258  -0.90439  -0.89177  -0.86695  -0.84587
 Alpha  occ. eigenvalues --   -0.74823  -0.73484  -0.72821  -0.70904  -0.65807
 Alpha  occ. eigenvalues --   -0.62028  -0.59582  -0.58004  -0.57585  -0.55252
 Alpha  occ. eigenvalues --   -0.53772  -0.52970  -0.52118  -0.50295  -0.49545
 Alpha  occ. eigenvalues --   -0.48117  -0.46369  -0.45568  -0.45039  -0.44991
 Alpha  occ. eigenvalues --   -0.43088  -0.41838  -0.41199  -0.39863  -0.38992
 Alpha  occ. eigenvalues --   -0.37756  -0.36978  -0.35662  -0.33941  -0.33038
 Alpha  occ. eigenvalues --   -0.31753
 Alpha virt. eigenvalues --    0.00283   0.01271   0.01381   0.01549   0.02749
 Alpha virt. eigenvalues --    0.02993   0.03229   0.03596   0.03893   0.05215
 Alpha virt. eigenvalues --    0.05361   0.05536   0.05849   0.06320   0.07890
 Alpha virt. eigenvalues --    0.08167   0.08545   0.08566   0.09459   0.10085
 Alpha virt. eigenvalues --    0.10476   0.11105   0.11330   0.12030   0.12615
 Alpha virt. eigenvalues --    0.12849   0.13126   0.13493   0.13556   0.13805
 Alpha virt. eigenvalues --    0.14494   0.14644   0.14854   0.15135   0.15496
 Alpha virt. eigenvalues --    0.15582   0.16252   0.16405   0.16596   0.16697
 Alpha virt. eigenvalues --    0.17058   0.17547   0.18060   0.18293   0.18403
 Alpha virt. eigenvalues --    0.18765   0.19140   0.19208   0.19813   0.20220
 Alpha virt. eigenvalues --    0.20366   0.20707   0.21316   0.21406   0.21692
 Alpha virt. eigenvalues --    0.22520   0.23017   0.23402   0.24222   0.24530
 Alpha virt. eigenvalues --    0.25363   0.25730   0.26666   0.26907   0.27827
 Alpha virt. eigenvalues --    0.28184   0.28780   0.29136   0.29539   0.30092
 Alpha virt. eigenvalues --    0.30326   0.30732   0.31259   0.32429   0.32603
 Alpha virt. eigenvalues --    0.33252   0.33704   0.34274   0.34745   0.35330
 Alpha virt. eigenvalues --    0.35538   0.35673   0.35995   0.36376   0.36766
 Alpha virt. eigenvalues --    0.37633   0.37943   0.38314   0.38708   0.38994
 Alpha virt. eigenvalues --    0.39257   0.39715   0.40180   0.40416   0.40875
 Alpha virt. eigenvalues --    0.42473   0.43344   0.44256   0.45105   0.45978
 Alpha virt. eigenvalues --    0.46828   0.49262   0.50006   0.50710   0.51955
 Alpha virt. eigenvalues --    0.52854   0.53192   0.54804   0.55579   0.57188
 Alpha virt. eigenvalues --    0.57522   0.58711   0.59428   0.60293   0.60368
 Alpha virt. eigenvalues --    0.61139   0.61335   0.62185   0.62781   0.63234
 Alpha virt. eigenvalues --    0.63254   0.63367   0.64199   0.65053   0.65295
 Alpha virt. eigenvalues --    0.65661   0.66040   0.66623   0.67451   0.68236
 Alpha virt. eigenvalues --    0.68912   0.69389   0.70322   0.70488   0.71125
 Alpha virt. eigenvalues --    0.71351   0.71839   0.72214   0.73693   0.73963
 Alpha virt. eigenvalues --    0.74774   0.75672   0.76124   0.76483   0.76764
 Alpha virt. eigenvalues --    0.76892   0.77480   0.78185   0.79239   0.79802
 Alpha virt. eigenvalues --    0.80869   0.81905   0.83310   0.85294   0.86825
 Alpha virt. eigenvalues --    0.87523   0.88626   0.88944   0.89905   0.90178
 Alpha virt. eigenvalues --    0.91514   0.92386   0.93847   0.95821   0.97976
 Alpha virt. eigenvalues --    0.98898   0.99618   1.01037   1.01526   1.02154
 Alpha virt. eigenvalues --    1.03259   1.05151   1.05637   1.06682   1.07099
 Alpha virt. eigenvalues --    1.07551   1.09906   1.10259   1.11638   1.12296
 Alpha virt. eigenvalues --    1.14043   1.14338   1.16183   1.17315   1.17535
 Alpha virt. eigenvalues --    1.18381   1.18732   1.19587   1.21097   1.21411
 Alpha virt. eigenvalues --    1.22150   1.22651   1.23627   1.24352   1.24963
 Alpha virt. eigenvalues --    1.26023   1.26485   1.27123   1.28002   1.28220
 Alpha virt. eigenvalues --    1.28747   1.30402   1.31227   1.31665   1.32896
 Alpha virt. eigenvalues --    1.33386   1.33915   1.34942   1.36076   1.36659
 Alpha virt. eigenvalues --    1.37053   1.37792   1.38407   1.38674   1.39056
 Alpha virt. eigenvalues --    1.39858   1.41022   1.41794   1.42110   1.42816
 Alpha virt. eigenvalues --    1.43223   1.43978   1.44953   1.45841   1.46425
 Alpha virt. eigenvalues --    1.46824   1.47677   1.47780   1.48286   1.49118
 Alpha virt. eigenvalues --    1.49378   1.50652   1.50942   1.52053   1.52222
 Alpha virt. eigenvalues --    1.54023   1.54167   1.55601   1.55972   1.56399
 Alpha virt. eigenvalues --    1.57102   1.57874   1.58277   1.58912   1.59570
 Alpha virt. eigenvalues --    1.60641   1.61160   1.61808   1.62710   1.63718
 Alpha virt. eigenvalues --    1.64170   1.66034   1.66270   1.67658   1.67923
 Alpha virt. eigenvalues --    1.68670   1.69684   1.70678   1.71357   1.73183
 Alpha virt. eigenvalues --    1.73881   1.75219   1.76469   1.76978   1.78595
 Alpha virt. eigenvalues --    1.80603   1.81886   1.82144   1.82878   1.85483
 Alpha virt. eigenvalues --    1.85801   1.89909   1.93785   1.96805   1.97635
 Alpha virt. eigenvalues --    2.02629   2.08174   2.15501   2.18478   2.20570
 Alpha virt. eigenvalues --    2.24274   2.27658   2.33652   2.37666   2.38796
 Alpha virt. eigenvalues --    2.41761   2.45431   2.46487   2.48173   2.54324
 Alpha virt. eigenvalues --    2.59751   2.77490   2.78265   2.80986   2.82654
 Alpha virt. eigenvalues --    2.84988   2.89070   2.92869   2.94420   2.94859
 Alpha virt. eigenvalues --    2.96689   2.96880   3.00150   3.02448   3.04714
 Alpha virt. eigenvalues --    3.07668   3.08563   3.09469   3.11072   3.13458
 Alpha virt. eigenvalues --    3.14627   3.16842   3.17826   3.20747   3.22360
 Alpha virt. eigenvalues --    3.27898   3.28244   3.31478   3.33407   3.34920
 Alpha virt. eigenvalues --    3.36383   3.36785   3.38538   3.41353   3.41999
 Alpha virt. eigenvalues --    3.42255   3.43181   3.45699   3.46028   3.47764
 Alpha virt. eigenvalues --    3.49166   3.50273   3.51679   3.52444   3.53216
 Alpha virt. eigenvalues --    3.54480   3.54718   3.55483   3.56063   3.57263
 Alpha virt. eigenvalues --    3.57625   3.58705   3.59441   3.59795   3.60854
 Alpha virt. eigenvalues --    3.61547   3.62600   3.64170   3.64505   3.65731
 Alpha virt. eigenvalues --    3.66517   3.67310   3.68250   3.68658   3.69815
 Alpha virt. eigenvalues --    3.70512   3.71317   3.73081   3.74339   3.74667
 Alpha virt. eigenvalues --    3.75599   3.75877   3.76406   3.77742   3.78665
 Alpha virt. eigenvalues --    3.80439   3.80490   3.81836   3.83514   3.85037
 Alpha virt. eigenvalues --    3.85665   3.89686   3.90515   3.91521   3.92079
 Alpha virt. eigenvalues --    3.93697   3.95074   3.95652   3.96837   3.98453
 Alpha virt. eigenvalues --    3.99423   4.01058   4.01948   4.03708   4.04327
 Alpha virt. eigenvalues --    4.05497   4.06639   4.07712   4.08179   4.08413
 Alpha virt. eigenvalues --    4.09302   4.10128   4.10317   4.10927   4.11624
 Alpha virt. eigenvalues --    4.12795   4.14309   4.15604   4.16000   4.17006
 Alpha virt. eigenvalues --    4.17662   4.18531   4.19587   4.21346   4.21774
 Alpha virt. eigenvalues --    4.23361   4.24193   4.25516   4.27343   4.28123
 Alpha virt. eigenvalues --    4.28831   4.30659   4.31214   4.31799   4.32925
 Alpha virt. eigenvalues --    4.33760   4.34257   4.34646   4.37462   4.39541
 Alpha virt. eigenvalues --    4.42834   4.43916   4.46251   4.47911   4.51639
 Alpha virt. eigenvalues --    4.58687   4.62391   4.75173   4.76659   4.81866
 Alpha virt. eigenvalues --    4.86147   4.94587   4.96250   5.01064   5.03637
 Alpha virt. eigenvalues --    5.07312   5.08141   5.08718   5.09763   5.13017
 Alpha virt. eigenvalues --    5.14347   5.14707   5.15237   5.33624   5.39534
 Alpha virt. eigenvalues --    5.44373   5.57978   5.60382   5.66187   5.87297
 Alpha virt. eigenvalues --    5.88265   6.04724   7.00540   7.05916   7.07674
 Alpha virt. eigenvalues --    7.09213   7.10558   7.12891   7.16246   7.19424
 Alpha virt. eigenvalues --    7.30417   7.37623   7.42572   7.47861   7.52224
 Alpha virt. eigenvalues --    7.54022   7.61785  23.96824  23.97606  24.06490
 Alpha virt. eigenvalues --   24.09190  24.10803  24.12440  24.15505  24.15861
 Alpha virt. eigenvalues --   24.16605  24.21167  50.16128  50.18783  50.30094
          Condensed to atoms (all electrons):
               1          2          3          4          5          6
     1  C    6.429734   0.256191  -1.194506   0.016540  -0.403590   0.159227
     2  C    0.256191   7.724683  -0.723759   0.239920   0.021006  -0.016999
     3  C   -1.194506  -0.723759   8.407265   0.020768   0.392084  -0.061629
     4  C    0.016540   0.239920   0.020768   5.785815  -0.018283  -0.005221
     5  C   -0.403590   0.021006   0.392084  -0.018283   5.694364   0.041011
     6  O    0.159227  -0.016999  -0.061629  -0.005221   0.041011   8.318061
     7  C    0.011891  -0.255743  -0.013668   0.029414  -0.006224   0.004309
     8  C   -0.000577  -0.365296  -0.039541  -0.142781   0.016241   0.011300
     9  C   -0.396684  -1.594715   0.412073  -0.180625   0.018505   0.023106
    10  C    0.171976   0.051080  -0.049323   0.016872  -0.149898   0.029982
    11  O    0.001980   0.250059   0.025636  -0.085598   0.021633   0.010038
    12  O   -0.000083   0.082266  -0.058342  -0.018663  -0.036145   0.019234
    13  C    0.551959   0.087625  -1.755308  -0.018721  -0.097125   0.037227
    14  H    0.412014  -0.004606   0.080814   0.000193   0.005379  -0.051444
    15  H    0.385393   0.016594  -0.053387   0.002115  -0.001970  -0.065764
    16  H    0.021141   0.549921   0.042804   0.017552   0.007004  -0.009154
    17  H   -0.026775  -0.012510   0.461551  -0.000013  -0.008957   0.006730
    18  H    0.000547   0.003984  -0.000369   0.484598  -0.000411   0.000399
    19  H    0.002334   0.011814  -0.002797   0.448254  -0.000602  -0.000314
    20  H   -0.019552   0.004331   0.026391   0.000198   0.473706  -0.065976
    21  H   -0.033285  -0.000083   0.056757  -0.001039   0.455611  -0.061242
    22  H   -0.001571  -0.041523   0.009921  -0.066019  -0.000245   0.000352
    23  H   -0.002620   0.012202   0.006388  -0.013989  -0.000284   0.000019
    24  H    0.004212  -0.006162  -0.004595  -0.025412   0.001774  -0.001743
    25  H   -0.019002  -0.003025  -0.012874  -0.059414   0.014670   0.000491
    26  H   -0.005384  -0.188477   0.008523  -0.014367   0.000425   0.000017
    27  H    0.001320  -0.016098  -0.016589  -0.012622   0.000953   0.000117
    28  H   -0.010892   0.002334   0.028641   0.000816  -0.019012   0.008602
    29  H    0.069874  -0.025087  -0.030145  -0.004119  -0.145842  -0.010197
    30  H   -0.009370  -0.006634  -0.000807   0.002377   0.007464  -0.000935
    31  H    0.015200  -0.008281  -0.107595   0.000113  -0.028217   0.002034
               7          8          9         10         11         12
     1  C    0.011891  -0.000577  -0.396684   0.171976   0.001980  -0.000083
     2  C   -0.255743  -0.365296  -1.594715   0.051080   0.250059   0.082266
     3  C   -0.013668  -0.039541   0.412073  -0.049323   0.025636  -0.058342
     4  C    0.029414  -0.142781  -0.180625   0.016872  -0.085598  -0.018663
     5  C   -0.006224   0.016241   0.018505  -0.149898   0.021633  -0.036145
     6  O    0.004309   0.011300   0.023106   0.029982   0.010038   0.019234
     7  C    5.754834   0.003031  -0.082188  -0.011381   0.008390   0.017813
     8  C    0.003031   5.502882   0.149885  -0.061865   0.120342   0.035245
     9  C   -0.082188   0.149885   7.517223  -0.012236  -0.068170  -0.027282
    10  C   -0.011381  -0.061865  -0.012236   5.714165  -0.003000  -0.044887
    11  O    0.008390   0.120342  -0.068170  -0.003000   8.268679  -0.051146
    12  O    0.017813   0.035245  -0.027282  -0.044887  -0.051146   8.426116
    13  C    0.022732   0.087436  -0.074109  -0.261402  -0.025150   0.053897
    14  H   -0.001845  -0.001259  -0.009860   0.020555   0.001098  -0.001806
    15  H    0.007354   0.004796   0.011374   0.006869  -0.005867  -0.012211
    16  H   -0.041684  -0.035553  -0.105415   0.005224  -0.057565  -0.028996
    17  H   -0.001564  -0.001105   0.011177  -0.004442  -0.001233  -0.037399
    18  H   -0.012499  -0.083641  -0.020565   0.001929  -0.000653  -0.000401
    19  H   -0.048847  -0.038760  -0.010468  -0.001403   0.010952   0.000252
    20  H   -0.000377  -0.003390   0.001754  -0.073443   0.000233  -0.000475
    21  H   -0.000187   0.002026  -0.000324  -0.004945  -0.000983  -0.000077
    22  H    0.535069   0.000657  -0.050223   0.002538   0.003389   0.000712
    23  H    0.409251   0.005755  -0.037450  -0.000160  -0.005952   0.000738
    24  H    0.012359   0.441310  -0.009898  -0.005826  -0.068264   0.002408
    25  H   -0.022988   0.481742   0.052647  -0.017039  -0.038938   0.012414
    26  H    0.007741   0.016120   0.549161  -0.001602  -0.005430   0.011895
    27  H   -0.036180   0.010752   0.420439  -0.000173   0.010489  -0.001197
    28  H   -0.001413  -0.002723   0.001477   0.430887   0.000214  -0.000941
    29  H    0.011591   0.008008  -0.011780   0.593907  -0.005387   0.001556
    30  H   -0.001658  -0.001125   0.006513  -0.020996   0.001682  -0.001730
    31  H    0.001619   0.001253   0.000108  -0.027661  -0.000979   0.008442
              13         14         15         16         17         18
     1  C    0.551959   0.412014   0.385393   0.021141  -0.026775   0.000547
     2  C    0.087625  -0.004606   0.016594   0.549921  -0.012510   0.003984
     3  C   -1.755308   0.080814  -0.053387   0.042804   0.461551  -0.000369
     4  C   -0.018721   0.000193   0.002115   0.017552  -0.000013   0.484598
     5  C   -0.097125   0.005379  -0.001970   0.007004  -0.008957  -0.000411
     6  O    0.037227  -0.051444  -0.065764  -0.009154   0.006730   0.000399
     7  C    0.022732  -0.001845   0.007354  -0.041684  -0.001564  -0.012499
     8  C    0.087436  -0.001259   0.004796  -0.035553  -0.001105  -0.083641
     9  C   -0.074109  -0.009860   0.011374  -0.105415   0.011177  -0.020565
    10  C   -0.261402   0.020555   0.006869   0.005224  -0.004442   0.001929
    11  O   -0.025150   0.001098  -0.005867  -0.057565  -0.001233  -0.000653
    12  O    0.053897  -0.001806  -0.012211  -0.028996  -0.037399  -0.000401
    13  C    7.266438  -0.100640   0.038156  -0.039098  -0.054393  -0.003118
    14  H   -0.100640   0.450846  -0.011503   0.004464  -0.002687   0.000038
    15  H    0.038156  -0.011503   0.475759  -0.022890  -0.009351  -0.000508
    16  H   -0.039098   0.004464  -0.022890   0.444078   0.001937   0.001727
    17  H   -0.054393  -0.002687  -0.009351   0.001937   0.431134   0.000078
    18  H   -0.003118   0.000038  -0.000508   0.001727   0.000078   0.479946
    19  H    0.003197   0.000014   0.000272   0.000613  -0.000125  -0.012308
    20  H    0.007279  -0.001365   0.000118   0.000973   0.000605   0.000048
    21  H   -0.066949   0.004794  -0.000342  -0.001147   0.002899  -0.000020
    22  H   -0.006079   0.000054   0.000050  -0.003231   0.000343   0.001815
    23  H   -0.001111  -0.000083   0.000123   0.001737   0.000079  -0.000602
    24  H    0.007487  -0.000049   0.000299  -0.001453  -0.000117  -0.006596
    25  H    0.005265  -0.000537  -0.001218   0.001400   0.000312  -0.001471
    26  H    0.001534  -0.000395   0.002407  -0.019299  -0.000211  -0.003094
    27  H    0.007330   0.000125   0.000173  -0.010467  -0.001859  -0.002232
    28  H   -0.062917  -0.000485   0.000529   0.000242   0.001384   0.000037
    29  H   -0.101543  -0.000115   0.001018  -0.001177   0.000672   0.001438
    30  H    0.402059   0.001073   0.001047  -0.001200  -0.009783   0.000004
    31  H    0.529308  -0.005719   0.000001  -0.000582  -0.004594  -0.000049
              19         20         21         22         23         24
     1  C    0.002334  -0.019552  -0.033285  -0.001571  -0.002620   0.004212
     2  C    0.011814   0.004331  -0.000083  -0.041523   0.012202  -0.006162
     3  C   -0.002797   0.026391   0.056757   0.009921   0.006388  -0.004595
     4  C    0.448254   0.000198  -0.001039  -0.066019  -0.013989  -0.025412
     5  C   -0.000602   0.473706   0.455611  -0.000245  -0.000284   0.001774
     6  O   -0.000314  -0.065976  -0.061242   0.000352   0.000019  -0.001743
     7  C   -0.048847  -0.000377  -0.000187   0.535069   0.409251   0.012359
     8  C   -0.038760  -0.003390   0.002026   0.000657   0.005755   0.441310
     9  C   -0.010468   0.001754  -0.000324  -0.050223  -0.037450  -0.009898
    10  C   -0.001403  -0.073443  -0.004945   0.002538  -0.000160  -0.005826
    11  O    0.010952   0.000233  -0.000983   0.003389  -0.005952  -0.068264
    12  O    0.000252  -0.000475  -0.000077   0.000712   0.000738   0.002408
    13  C    0.003197   0.007279  -0.066949  -0.006079  -0.001111   0.007487
    14  H    0.000014  -0.001365   0.004794   0.000054  -0.000083  -0.000049
    15  H    0.000272   0.000118  -0.000342   0.000050   0.000123   0.000299
    16  H    0.000613   0.000973  -0.001147  -0.003231   0.001737  -0.001453
    17  H   -0.000125   0.000605   0.002899   0.000343   0.000079  -0.000117
    18  H   -0.012308   0.000048  -0.000020   0.001815  -0.000602  -0.006596
    19  H    0.479902  -0.000155   0.000054  -0.003268  -0.007734  -0.008542
    20  H   -0.000155   0.468997  -0.006681   0.000019   0.000007  -0.001080
    21  H    0.000054  -0.006681   0.478054   0.000035  -0.000027   0.000150
    22  H   -0.003268   0.000019   0.000035   0.452557  -0.003898  -0.002111
    23  H   -0.007734   0.000007  -0.000027  -0.003898   0.457721   0.001463
    24  H   -0.008542  -0.001080   0.000150  -0.002111   0.001463   0.470414
    25  H   -0.002473   0.002784  -0.000946  -0.005924  -0.003092  -0.019998
    26  H   -0.001872  -0.000065  -0.000018   0.001609  -0.001295   0.001048
    27  H    0.001294   0.000026   0.000034  -0.003028  -0.009814   0.001154
    28  H   -0.000150  -0.008655   0.003452   0.000053  -0.000016   0.000047
    29  H    0.001078  -0.010717   0.003696   0.001368   0.000533   0.001319
    30  H   -0.000071   0.000660  -0.000429   0.000107   0.000064  -0.000131
    31  H    0.000054  -0.001845  -0.005795  -0.000148   0.000069   0.000158
              25         26         27         28         29         30
     1  C   -0.019002  -0.005384   0.001320  -0.010892   0.069874  -0.009370
     2  C   -0.003025  -0.188477  -0.016098   0.002334  -0.025087  -0.006634
     3  C   -0.012874   0.008523  -0.016589   0.028641  -0.030145  -0.000807
     4  C   -0.059414  -0.014367  -0.012622   0.000816  -0.004119   0.002377
     5  C    0.014670   0.000425   0.000953  -0.019012  -0.145842   0.007464
     6  O    0.000491   0.000017   0.000117   0.008602  -0.010197  -0.000935
     7  C   -0.022988   0.007741  -0.036180  -0.001413   0.011591  -0.001658
     8  C    0.481742   0.016120   0.010752  -0.002723   0.008008  -0.001125
     9  C    0.052647   0.549161   0.420439   0.001477  -0.011780   0.006513
    10  C   -0.017039  -0.001602  -0.000173   0.430887   0.593907  -0.020996
    11  O   -0.038938  -0.005430   0.010489   0.000214  -0.005387   0.001682
    12  O    0.012414   0.011895  -0.001197  -0.000941   0.001556  -0.001730
    13  C    0.005265   0.001534   0.007330  -0.062917  -0.101543   0.402059
    14  H   -0.000537  -0.000395   0.000125  -0.000485  -0.000115   0.001073
    15  H   -0.001218   0.002407   0.000173   0.000529   0.001018   0.001047
    16  H    0.001400  -0.019299  -0.010467   0.000242  -0.001177  -0.001200
    17  H    0.000312  -0.000211  -0.001859   0.001384   0.000672  -0.009783
    18  H   -0.001471  -0.003094  -0.002232   0.000037   0.001438   0.000004
    19  H   -0.002473  -0.001872   0.001294  -0.000150   0.001078  -0.000071
    20  H    0.002784  -0.000065   0.000026  -0.008655  -0.010717   0.000660
    21  H   -0.000946  -0.000018   0.000034   0.003452   0.003696  -0.000429
    22  H   -0.005924   0.001609  -0.003028   0.000053   0.001368   0.000107
    23  H   -0.003092  -0.001295  -0.009814  -0.000016   0.000533   0.000064
    24  H   -0.019998   0.001048   0.001154   0.000047   0.001319  -0.000131
    25  H    0.514280  -0.000985   0.000024   0.001609  -0.021042  -0.002522
    26  H   -0.000985   0.444325  -0.002105   0.000019  -0.000144   0.000151
    27  H    0.000024  -0.002105   0.467554   0.000033  -0.000416  -0.000163
    28  H    0.001609   0.000019   0.000033   0.459106  -0.015518  -0.006838
    29  H   -0.021042  -0.000144  -0.000416  -0.015518   0.550831  -0.004309
    30  H   -0.002522   0.000151  -0.000163  -0.006838  -0.004309   0.463360
    31  H   -0.000277   0.000152  -0.000065  -0.004846   0.004251  -0.000115
              31
     1  C    0.015200
     2  C   -0.008281
     3  C   -0.107595
     4  C    0.000113
     5  C   -0.028217
     6  O    0.002034
     7  C    0.001619
     8  C    0.001253
     9  C    0.000108
    10  C   -0.027661
    11  O   -0.000979
    12  O    0.008442
    13  C    0.529308
    14  H   -0.005719
    15  H    0.000001
    16  H   -0.000582
    17  H   -0.004594
    18  H   -0.000049
    19  H    0.000054
    20  H   -0.001845
    21  H   -0.005795
    22  H   -0.000148
    23  H    0.000069
    24  H    0.000158
    25  H   -0.000277
    26  H    0.000152
    27  H   -0.000065
    28  H   -0.004846
    29  H    0.004251
    30  H   -0.000115
    31  H    0.420469
 Mulliken charges:
               1
     1  C   -0.387641
     2  C   -0.045009
     3  C    0.145618
     4  C   -0.398662
     5  C   -0.255024
     6  O   -0.321638
     7  C   -0.298952
     8  C   -0.121165
     9  C   -0.483450
    10  C   -0.294302
    11  O   -0.310502
    12  O   -0.351207
    13  C   -0.441265
    14  H    0.212938
    15  H    0.230562
    16  H    0.278095
    17  H    0.258218
    18  H    0.171950
    19  H    0.179804
    20  H    0.205647
    21  H    0.176958
    22  H    0.176623
    23  H    0.191978
    24  H    0.216376
    25  H    0.146124
    26  H    0.199614
    27  H    0.191192
    28  H    0.194926
    29  H    0.136401
    30  H    0.182257
    31  H    0.213536
 Sum of Mulliken charges =  -0.00000
 Mulliken charges with hydrogens summed into heavy atoms:
               1
     1  C    0.055859
     2  C    0.233087
     3  C    0.403836
     4  C   -0.046908
     5  C    0.127581
     6  O   -0.321638
     7  C    0.069649
     8  C    0.241335
     9  C   -0.092644
    10  C    0.037025
    11  O   -0.310502
    12  O   -0.351207
    13  C   -0.045472
 Electronic spatial extent (au):  <R**2>=           2559.4571
 Charge=             -0.0000 electrons
 Dipole moment (field-independent basis, Debye):
    X=             -0.6667    Y=             -1.7474    Z=              2.0379  Tot=              2.7660
 Quadrupole moment (field-independent basis, Debye-Ang):
   XX=            -67.8011   YY=            -74.3473   ZZ=            -83.5888
   XY=              2.7894   XZ=             -3.2582   YZ=              6.5674
 Traceless Quadrupole moment (field-independent basis, Debye-Ang):
   XX=              7.4447   YY=              0.8984   ZZ=             -8.3431
   XY=              2.7894   XZ=             -3.2582   YZ=              6.5674
 Octapole moment (field-independent basis, Debye-Ang**2):
  XXX=            -12.1694  YYY=              3.9509  ZZZ=              1.3123  XYY=             -3.7733
  XXY=             -1.1236  XXZ=              8.1365  XZZ=              0.5892  YZZ=             -7.4587
  YYZ=             -3.5835  XYZ=             -2.0847
 Hexadecapole moment (field-independent basis, Debye-Ang**3):
 XXXX=          -2206.6309 YYYY=           -600.5579 ZZZZ=           -479.0742 XXXY=             -3.7560
 XXXZ=            -15.0689 YYYX=              3.3327 YYYZ=             -5.1386 ZZZX=             -7.7949
 ZZZY=             13.5659 XXYY=           -464.8582 XXZZ=           -475.4880 YYZZ=           -183.6961
 XXYZ=             13.3277 YYXZ=              1.2087 ZZXY=              6.0544
 N-N= 9.204328733540D+02 E-N=-3.283770078348D+03  KE= 6.153440639017D+02
 D1PCM: PCM CHGder 1st derivatives, ID1Alg=3 FixD1E=F DoIter=F DoCFld=F I1PDM=0.
 Calling FoFJK, ICntrl=      2127 FMM=F ISym2X=0 I1Cent= 0 IOpClX= 0 NMat=1 NMatS=1 NMatT=0.
 ***** Axes restored to original set *****
 -------------------------------------------------------------------
 Center     Atomic                   Forces (Hartrees/Bohr)
 Number     Number              X              Y              Z
 -------------------------------------------------------------------
      1        6           0.001697932   -0.000762416    0.007365089
      2        6           0.005560438   -0.006155626    0.002946481
      3        6          -0.003989462    0.004393294   -0.005539552
      4        6          -0.002381280   -0.001622117    0.001362757
      5        6           0.002145973   -0.002693700    0.006201559
      6        8           0.005952909    0.007255216   -0.008702535
      7        6          -0.002078364    0.001409118   -0.003461171
      8        6           0.005987057   -0.003606919    0.002319576
      9        6          -0.000290042    0.001888102    0.002188999
     10        6          -0.001832592   -0.003099278   -0.001884358
     11        8          -0.005048012    0.005731381   -0.012253757
     12        8           0.002078053    0.007033788    0.013620782
     13        6           0.000698435   -0.000358298   -0.001591863
     14        1          -0.004983646   -0.003291231    0.000500231
     15        1           0.003926510   -0.001781231   -0.004234541
     16        1          -0.002398953   -0.003346551   -0.006541870
     17        1          -0.001475858   -0.005270885    0.000176000
     18        1           0.001337333   -0.000092763   -0.003110168
     19        1           0.000824128    0.001652122    0.002011485
     20        1          -0.000129125    0.004411354   -0.000716262
     21        1          -0.004974156   -0.002752830    0.000651643
     22        1          -0.002560069   -0.000034397    0.002783188
     23        1           0.002385864   -0.000807339    0.000211557
     24        1          -0.000093457    0.004074139   -0.001795124
     25        1          -0.003404703   -0.000327326    0.005928355
     26        1           0.001557568    0.000605255   -0.002905310
     27        1          -0.000620851   -0.002894654    0.001152276
     28        1          -0.001525765    0.000920209    0.002000409
     29        1           0.004485168    0.001793225   -0.000689497
     30        1           0.002170106   -0.000714818    0.002415207
     31        1          -0.003021138   -0.001554824   -0.000409587
 -------------------------------------------------------------------
 Cartesian Forces:  Max     0.013620782 RMS     0.003838269

 GradGradGradGradGradGradGradGradGradGradGradGradGradGradGradGradGradGrad
 Berny optimization.
 FormGI is forming the generalized inverse of G from B-inverse, IUseBI=4.
 Internal  Forces:  Max     0.014454902 RMS     0.002352464
 Search for a local minimum.
 Step number   1 out of a maximum of  186
 All quantities printed in internal units (Hartrees-Bohrs-Radians)
 Mixed Optimization -- RFO/linear search
 Second derivative matrix not updated -- first step.
 ITU=  0
     Eigenvalues ---    0.00605   0.00628   0.00714   0.00720   0.01400
     Eigenvalues ---    0.01410   0.01730   0.02697   0.02811   0.03072
     Eigenvalues ---    0.03086   0.04085   0.04301   0.04577   0.04752
     Eigenvalues ---    0.04771   0.04895   0.05008   0.05120   0.05141
     Eigenvalues ---    0.05321   0.05677   0.05706   0.06112   0.06195
     Eigenvalues ---    0.06213   0.06458   0.06974   0.07575   0.07818
     Eigenvalues ---    0.07919   0.07961   0.08004   0.08292   0.08295
     Eigenvalues ---    0.08853   0.09170   0.09442   0.10956   0.11617
     Eigenvalues ---    0.11703   0.11767   0.11887   0.12403   0.12574
     Eigenvalues ---    0.14645   0.14722   0.15885   0.16513   0.17726
     Eigenvalues ---    0.19129   0.21487   0.21974   0.25000   0.28392
     Eigenvalues ---    0.28595   0.28873   0.28885   0.28945   0.28986
     Eigenvalues ---    0.30153   0.30234   0.35020   0.35073   0.35086
     Eigenvalues ---    0.35106   0.35170   0.35175   0.35234   0.35249
     Eigenvalues ---    0.35308   0.35373   0.35412   0.35431   0.35435
     Eigenvalues ---    0.35539   0.35814   0.35836   0.36162   0.36299
     Eigenvalues ---    0.40835   0.40940   0.41613   0.42619   0.43609
     Eigenvalues ---    0.461001000.000001000.000001000.000001000.00000
     Eigenvalues --- 1000.000001000.000001000.000001000.000001000.00000
     Eigenvalues --- 1000.000001000.000001000.000001000.000001000.00000
     Eigenvalues --- 1000.000001000.000001000.000001000.000001000.00000
     Eigenvalues --- 1000.000001000.000001000.000001000.000001000.00000
     Eigenvalues --- 1000.000001000.000001000.000001000.000001000.00000
     Eigenvalues --- 1000.000001000.000001000.000001000.000001000.00000
     Eigenvalues --- 1000.000001000.000001000.000001000.000001000.00000
     Eigenvalues --- 1000.000001000.000001000.000001000.000001000.00000
     Eigenvalues --- 1000.000001000.000001000.000001000.000001000.00000
     Eigenvalues --- 1000.000001000.000001000.000001000.000001000.00000
     Eigenvalues --- 1000.000001000.000001000.000001000.000001000.00000
     Eigenvalues --- 1000.000001000.000001000.000001000.000001000.00000
     Eigenvalues --- 1000.000001000.000001000.000001000.000001000.00000
     Eigenvalues --- 1000.000001000.000001000.000001000.000001000.00000
     Eigenvalues --- 1000.000001000.000001000.000001000.000001000.00000
     Eigenvalues --- 1000.000001000.000001000.000001000.000001000.00000
     Eigenvalues --- 1000.000001000.000001000.000001000.000001000.00000
     Eigenvalues --- 1000.000001000.000001000.000001000.000001000.00000
     Eigenvalues --- 1000.000001000.000001000.000001000.000001000.00000
 RFO step:  Lambda=-4.58902830D-03 EMin= 6.05317628D-03
 Linear search not attempted -- first point.
 Iteration  1 RMS(Cart)=  0.10891108 RMS(Int)=  0.00216137
 Iteration  2 RMS(Cart)=  0.00451589 RMS(Int)=  0.00006550
 Iteration  3 RMS(Cart)=  0.00000668 RMS(Int)=  0.00006543
 Iteration  4 RMS(Cart)=  0.00000000 RMS(Int)=  0.00006543
 Iteration  1 RMS(Cart)=  0.00006295 RMS(Int)=  0.00001409
 Iteration  2 RMS(Cart)=  0.00003513 RMS(Int)=  0.00001573
 Iteration  3 RMS(Cart)=  0.00001960 RMS(Int)=  0.00001781
 Iteration  4 RMS(Cart)=  0.00001094 RMS(Int)=  0.00001922
 Iteration  5 RMS(Cart)=  0.00000611 RMS(Int)=  0.00002007
 Iteration  6 RMS(Cart)=  0.00000341 RMS(Int)=  0.00002056
 Iteration  7 RMS(Cart)=  0.00000190 RMS(Int)=  0.00002084
 Iteration  8 RMS(Cart)=  0.00000106 RMS(Int)=  0.00002099
 Iteration  9 RMS(Cart)=  0.00000059 RMS(Int)=  0.00002108
 Variable       Old X    -DE/DX   Delta X   Delta X   Delta X     New X
                                 (Linear)    (Quad)   (Total)
    R1        2.88593  -0.00195   0.00000  -0.00521  -0.00512   2.88081
    R2        2.66292   0.00634   0.00000   0.01550   0.01553   2.67846
    R3        2.05557   0.00592   0.00000   0.01665   0.01665   2.07222
    R4        2.03829   0.00595   0.00000   0.01624   0.01624   2.05454
    R5        2.88033  -0.00103   0.00000  -0.00335  -0.00337   2.87696
    R6        2.65133   0.00772   0.00000   0.01704   0.01705   2.66838
    R7        2.64019   0.00572   0.00000   0.01228   0.01228   2.65247
    R8        2.03617   0.00772   0.00000   0.02100   0.02100   2.05717
    R9        2.70296   0.00211   0.00000   0.00509   0.00509   2.70806
   R10        2.88747  -0.00266   0.00000  -0.00843  -0.00839   2.87908
   R11        2.04981   0.00537   0.00000   0.01496   0.01496   2.06477
   R12        2.88765  -0.00075   0.00000  -0.00260  -0.00262   2.88503
   R13        2.87068  -0.00058   0.00000  -0.00191  -0.00190   2.86879
   R14        2.05536   0.00329   0.00000   0.00925   0.00925   2.06461
   R15        2.05297   0.00272   0.00000   0.00762   0.00762   2.06058
   R16        2.67374   0.00660   0.00000   0.01479   0.01476   2.68850
   R17        2.87022  -0.00040   0.00000  -0.00233  -0.00242   2.86780
   R18        2.04374   0.00447   0.00000   0.01231   0.01231   2.05605
   R19        2.05642   0.00562   0.00000   0.01584   0.01584   2.07227
   R20        2.88852  -0.00115   0.00000  -0.00419  -0.00421   2.88431
   R21        2.05400   0.00365   0.00000   0.01025   0.01025   2.06426
   R22        2.05177   0.00252   0.00000   0.00705   0.00705   2.05882
   R23        2.68665   0.00560   0.00000   0.01340   0.01342   2.70007
   R24        2.04339   0.00445   0.00000   0.01226   0.01226   2.05565
   R25        2.04809   0.00680   0.00000   0.01888   0.01888   2.06698
   R26        2.05392   0.00328   0.00000   0.00919   0.00919   2.06312
   R27        2.04975   0.00315   0.00000   0.00878   0.00878   2.05853
   R28        2.88827  -0.00081   0.00000  -0.00463  -0.00467   2.88360
   R29        2.05273   0.00268   0.00000   0.00750   0.00750   2.06023
   R30        2.05011   0.00473   0.00000   0.01320   0.01320   2.06331
   R31        2.05074   0.00325   0.00000   0.00908   0.00908   2.05982
   R32        2.05504   0.00336   0.00000   0.00944   0.00944   2.06448
    A1        1.98506  -0.00058   0.00000  -0.00115  -0.00102   1.98404
    A2        1.85682  -0.00103   0.00000  -0.00181  -0.00185   1.85496
    A3        1.97121  -0.00026   0.00000  -0.01018  -0.01027   1.96093
    A4        1.90878   0.00162   0.00000   0.01400   0.01395   1.92273
    A5        1.86313  -0.00017   0.00000  -0.00469  -0.00482   1.85831
    A6        1.87587   0.00057   0.00000   0.00523   0.00523   1.88111
    A7        1.93957   0.00277   0.00000   0.01051   0.01031   1.94988
    A8        1.89743  -0.00174   0.00000  -0.00959  -0.00953   1.88790
    A9        1.91187   0.00033   0.00000   0.00879   0.00882   1.92069
   A10        1.94873  -0.00094   0.00000  -0.01268  -0.01258   1.93615
   A11        1.83684  -0.00175   0.00000  -0.00794  -0.00797   1.82887
   A12        1.92896   0.00144   0.00000   0.01182   0.01181   1.94076
   A13        2.04022  -0.00286   0.00000  -0.02813  -0.02823   2.01198
   A14        1.89992   0.00311   0.00000   0.00422   0.00386   1.90378
   A15        1.86267   0.00001   0.00000   0.00763   0.00769   1.87037
   A16        1.87832  -0.00060   0.00000  -0.01328  -0.01356   1.86476
   A17        1.86377   0.00214   0.00000   0.02731   0.02750   1.89127
   A18        1.91697  -0.00192   0.00000   0.00424   0.00430   1.92127
   A19        1.91817  -0.00028   0.00000  -0.00283  -0.00300   1.91516
   A20        1.91695   0.00067   0.00000   0.00137   0.00145   1.91840
   A21        1.94079  -0.00054   0.00000  -0.00101  -0.00099   1.93980
   A22        1.90879  -0.00011   0.00000  -0.00208  -0.00203   1.90676
   A23        1.90237   0.00005   0.00000  -0.00025  -0.00020   1.90217
   A24        1.87609   0.00022   0.00000   0.00490   0.00488   1.88096
   A25        1.93206   0.00049   0.00000   0.00444   0.00434   1.93640
   A26        1.85639  -0.00097   0.00000  -0.00314  -0.00310   1.85329
   A27        1.90261   0.00123   0.00000   0.00574   0.00579   1.90840
   A28        1.94839  -0.00031   0.00000  -0.00307  -0.00304   1.94534
   A29        1.93103  -0.00093   0.00000  -0.00716  -0.00715   1.92388
   A30        1.89112   0.00055   0.00000   0.00360   0.00357   1.89469
   A31        1.98304  -0.00419   0.00000  -0.02408  -0.02403   1.95901
   A32        1.90934   0.00261   0.00000   0.00038   0.00036   1.90970
   A33        1.91410  -0.00122   0.00000  -0.00247  -0.00252   1.91158
   A34        1.93240  -0.00038   0.00000   0.00109   0.00114   1.93354
   A35        1.92391  -0.00089   0.00000  -0.00362  -0.00362   1.92029
   A36        1.91657  -0.00093   0.00000  -0.00035  -0.00034   1.91623
   A37        1.86728   0.00072   0.00000   0.00500   0.00500   1.87228
   A38        1.94796   0.00149   0.00000   0.00342   0.00338   1.95134
   A39        1.94707  -0.00011   0.00000  -0.00184  -0.00179   1.94529
   A40        1.92674  -0.00118   0.00000  -0.00458  -0.00462   1.92211
   A41        1.84094  -0.00099   0.00000  -0.00103  -0.00104   1.83990
   A42        1.91080   0.00035   0.00000   0.00221   0.00226   1.91307
   A43        1.88752   0.00045   0.00000   0.00207   0.00206   1.88958
   A44        1.96103  -0.00148   0.00000  -0.01387  -0.01400   1.94703
   A45        1.87184  -0.00009   0.00000   0.00256   0.00257   1.87442
   A46        1.89784   0.00063   0.00000  -0.00184  -0.00182   1.89602
   A47        1.90599   0.00125   0.00000   0.00787   0.00794   1.91393
   A48        1.94846  -0.00027   0.00000  -0.00054  -0.00063   1.94783
   A49        1.87518   0.00003   0.00000   0.00686   0.00683   1.88201
   A50        1.92281   0.00081   0.00000  -0.00480  -0.00491   1.91791
   A51        1.90852   0.00049   0.00000   0.00256   0.00260   1.91112
   A52        1.90705  -0.00111   0.00000  -0.00283  -0.00282   1.90423
   A53        1.92110  -0.00108   0.00000  -0.00006  -0.00003   1.92107
   A54        1.92992   0.00045   0.00000  -0.00035  -0.00034   1.92958
   A55        1.87367   0.00043   0.00000   0.00576   0.00575   1.87942
   A56        2.02891  -0.00589   0.00000  -0.03486  -0.03476   1.99415
   A57        2.15446  -0.01445   0.00000  -0.05678  -0.05678   2.09769
   A58        1.95935  -0.00050   0.00000  -0.01394  -0.01395   1.94539
   A59        1.91075   0.00018   0.00000  -0.00636  -0.00645   1.90429
   A60        1.87905  -0.00043   0.00000   0.00538   0.00542   1.88447
   A61        1.93822  -0.00015   0.00000  -0.00116  -0.00134   1.93689
   A62        1.90551   0.00072   0.00000   0.01012   0.01014   1.91565
   A63        1.86774   0.00021   0.00000   0.00731   0.00732   1.87506
[...]
 ,0.00076696,0.00220956,-0.00018614,-0.00009223,0.00003446,-0.00002117,
 0.00002157,0.00000571,0.00002805,0.00001378,0.00004129,-0.00011333,-0.
 00042972,0.00016059,-0.00000766,-0.00000138,-0.00000640,-0.00235728,0.
 00097186,0.00059314,0.00102212,-0.00011515,0.00045088,-0.00000833,-0.0
 0000851,0.00001165,0.00001385,0.00000843,0.00004422,0.00031090,-0.0004
 0623,-0.00009816,0.00007588,-0.00009864,0.00004875,0.00947160,0.001392
 35,-0.01039277,-0.13464444,0.00188193,0.23864497,-0.00016444,-0.000296
 21,0.00017455,-0.01526828,-0.00134509,0.02604679,0.00116816,0.00119232
 ,0.00137255,0.00028726,0.00063230,0.00001221,0.00008284,-0.00002727,-0
 .00001426,-0.00004917,0.00017021,-0.00003904,0.00773460,-0.00065397,-0
 .01189636,-0.00021565,-0.00009637,-0.00012920,-0.13719838,0.00326781,0
 .12302801,-0.00002439,-0.00006338,0.00004367,0.00165049,-0.00050152,-0
 .00066006,-0.00994970,0.00038306,-0.00091640,-0.00068639,-0.00030720,-
 0.00023130,-0.00008321,0.00006850,-0.00012657,0.00003312,0.00002204,-0
 .00001902,0.00104914,-0.00052131,-0.00000389,-0.00021719,-0.00013884,-
 0.00002850,-0.00020353,0.00020028,0.00021203,-0.00008163,0.00018508,-0
 .00000774,-0.00001271,0.00001606,-0.00000706,-0.00001232,-0.00000514,0
 .00000097,-0.00004416,-0.00243363,-0.00193454,0.00082003,0.00071100,0.
 00040464,0.00003946,0.00003413,0.00001367,0.00001457,-0.00003166,0.000
 01809,0.15147427,-0.00006364,0.00000875,-0.00001364,0.00457971,-0.0024
 1566,-0.00699949,-0.00001536,0.00028195,-0.00027670,0.00081040,0.00106
 263,-0.00052065,-0.00000704,0.00000399,0.00000300,0.00001215,-0.000023
 66,0.00000390,0.01261383,-0.00134813,-0.01834981,-0.00001547,-0.000039
 96,-0.00009171,0.00081890,-0.04900634,0.00146389,0.00000480,0.00000112
 ,-0.00000874,0.00017375,0.00040463,0.00007970,0.00092180,0.00090761,0.
 00051846,0.00004278,0.00002505,0.00002323,0.00000031,-0.00000506,0.000
 00115,-0.00000534,-0.00000083,0.00000582,-0.00040128,0.00022459,0.0002
 4809,0.00008114,-0.00001583,-0.00000554,-0.00020791,-0.00002537,0.0001
 9708,-0.00018348,0.00016487,0.00010730,0.00000004,-0.00000084,0.000001
 00,0.00000166,0.00000093,-0.00000055,-0.00155281,-0.00230825,-0.002954
 29,0.00005230,0.00086924,0.00092091,0.00004620,-0.00001678,0.00001521,
 -0.00003785,0.00001980,0.00002002,-0.00005172,0.04964765,0.00004188,-0
 .00000904,0.00003293,-0.00605949,0.00069580,0.00608169,-0.00026850,0.0
 0008932,0.00044811,0.00017111,0.00108384,0.00087684,0.00000756,-0.0000
 0334,-0.00000030,-0.00000043,0.00001328,-0.00000486,0.01212222,-0.0010
 6799,-0.02043296,-0.00021247,-0.00022007,-0.00007747,0.12733897,0.0002
 8892,-0.22179453,-0.00001097,-0.00001676,0.00000895,-0.00009239,-0.000
 50167,0.00040049,-0.00259704,0.00045156,0.00086629,-0.00016134,-0.0000
 4966,-0.00003548,-0.00000346,-0.00000146,-0.00001247,-0.00000353,0.000
 00471,-0.00002491,0.00040372,-0.00021788,0.00088185,-0.00002168,-0.000
 01145,-0.00000048,0.00005264,-0.00043177,0.00044723,-0.00031515,0.0000
 3622,0.00018747,-0.00000127,0.00000062,-0.00000158,0.00000002,0.,0.000
 00067,-0.00209096,-0.00348532,-0.00191970,-0.00006583,0.00063089,0.000
 87451,0.00008719,-0.00001402,0.00003479,-0.00002168,0.00001055,-0.0000
 3410,-0.13453800,0.00283002,0.24238930,0.00004614,0.00002194,-0.000042
 48,0.00224037,0.02701151,-0.00915346,0.00032676,-0.00029650,-0.0000488
 0,-0.00035903,-0.00172723,-0.00262149,0.00000063,-0.00001262,-0.000020
 76,-0.00013582,0.00000298,0.00001894,-0.00058972,-0.01098908,0.0062610
 8,-0.00078075,-0.00136170,-0.00117947,-0.04881432,-0.00803010,0.003697
 85,0.00000270,0.00000537,0.00000104,-0.00620684,0.00619823,-0.00298368
 ,0.00111690,0.00057439,-0.00050007,0.00006117,0.00001662,0.00000916,-0
 .00001226,0.00000020,0.00001475,-0.00000538,0.00001220,0.00002257,0.00
 085156,-0.00085294,0.00018416,-0.00004933,-0.00004406,-0.00000609,-0.0
 0002861,0.00033987,-0.00020173,0.00038603,-0.00100843,0.00015870,-0.00
 000024,0.00000088,0.00000229,-0.00000606,0.00000234,0.00000550,0.00043
 194,0.00055415,-0.00010774,0.00019118,0.00038878,0.00061209,0.00019623
 ,0.00014186,0.00018227,0.00006870,0.00011010,0.00017018,-0.00000814,-0
 .01762120,0.00627610,0.05107140,-0.00007992,-0.00002348,0.00003203,-0.
 00206088,-0.00857325,0.00274233,0.00016735,0.00033327,-0.00009111,-0.0
 0194604,-0.00108200,-0.00435496,-0.00000476,0.00000816,0.00001521,0.00
 010059,-0.00000467,-0.00000261,0.00002687,-0.01776417,0.00812903,-0.00
 055899,0.00087775,0.00031167,-0.00379379,-0.27917810,0.09497934,-0.000
 00140,-0.00001064,-0.00000827,0.00211887,-0.00031003,0.00104129,-0.001
 15975,0.00122569,-0.00021801,-0.00000849,-0.00000716,0.00000694,0.0000
 0528,-0.00000317,-0.00002728,-0.00000080,-0.00000558,-0.00002852,0.000
 54675,0.00023788,0.00002550,0.00004195,-0.00005236,-0.00000294,-0.0000
 8248,0.00012306,0.00009292,0.00028927,-0.00125829,0.00061606,0.0000004
 9,-0.00000164,-0.00000261,0.00000468,-0.00000173,-0.00000305,0.0004788
 6,0.00080843,0.00008468,-0.00019580,0.00073961,0.00012681,0.00008005,-
 0.00004387,0.00005269,0.00005675,-0.00004710,-0.00007913,-0.00059582,0
 .00161145,-0.00013850,0.00656877,0.30240096,0.00004208,0.00002309,-0.0
 0002554,0.00364927,0.00768130,-0.00484394,-0.00008975,-0.00022335,0.00
 004918,-0.00202983,-0.00263676,-0.00328842,0.00000032,-0.00000912,-0.0
 0001287,-0.00009583,0.00000251,0.00000027,0.00043614,-0.02253649,0.009
 87892,-0.00056851,-0.00052245,-0.00074622,0.00084604,0.09678586,-0.087
 07737,-0.00000288,0.00000067,0.00000183,-0.00293678,0.00243002,0.00005
 196,0.00115896,-0.00077464,0.00050811,-0.00000097,-0.00000074,0.000004
 65,-0.00000781,0.00000175,0.00001255,-0.00000319,0.00000746,0.00001390
 ,0.00025164,-0.00035519,0.00009855,-0.00001980,0.00001715,-0.00000041,
 -0.00007561,-0.00012151,0.00019415,0.00003741,-0.00133341,0.00047670,-
 0.00000090,0.00000155,0.00000080,-0.00000349,0.00000102,0.00000402,0.0
 0066282,0.00084916,0.00100178,0.00026089,0.00100035,0.00078203,0.00012
 160,0.00011743,0.00013833,0.00006940,0.00008706,0.00010908,-0.00097324
 ,0.02280289,-0.00922429,-0.00072757,-0.10329945,0.09189619,-0.00025704
 ,0.00044429,-0.00016559,0.00012447,-0.00006435,-0.00012898,0.00087708,
 0.00037557,-0.00054864,-0.00003012,-0.00001447,0.00012011,0.00799451,-
 0.00598869,-0.00884176,0.00080274,0.00030024,-0.00421321,-0.00000443,-
 0.00000600,0.00000254,-0.00007983,-0.00006500,-0.00030497,-0.00000029,
 -0.00000644,0.00000438,-0.14101173,0.05415301,0.11631361,0.00007324,0.
 00001610,0.00004273,0.00028484,0.00017732,-0.00003166,-0.00174047,-0.0
 0014738,0.00114764,0.00000917,-0.00005475,-0.00000078,-0.00000322,-0.0
 0013002,0.00005648,0.00000447,0.00000842,0.00001216,-0.00015880,0.0000
 3201,0.00027990,-0.00004849,0.00001346,-0.00001057,-0.00000077,-0.0000
 0426,-0.00000466,0.00036681,0.00008910,0.00065336,0.00031723,-0.000332
 85,0.00089264,0.00000363,0.00000153,0.00000073,-0.00000521,0.00000555,
 -0.00000397,-0.00001966,-0.00001980,0.00003830,-0.00006053,0.00000797,
 0.00019946,-0.00000857,0.00000006,0.00000119,-0.00000171,0.00000328,0.
 00000083,0.14756316,0.00031864,-0.00061950,0.00086607,-0.00022441,-0.0
 0031151,0.00052080,-0.00149952,-0.00651706,0.00256786,-0.00001841,-0.0
 0000281,0.00005678,-0.00603980,0.00153578,0.00397104,0.00046262,0.0013
 8427,0.00338775,0.00000847,-0.00002001,-0.00000687,-0.00008420,-0.0000
 4429,-0.00013814,0.00004174,0.00004268,-0.00010342,0.05272925,-0.07577
 450,-0.06646991,0.00007511,0.00019673,-0.00007557,0.00060267,0.0005274
 1,-0.00034050,0.01951751,-0.01274957,-0.02611730,-0.00007498,0.0001063
 7,-0.00002726,-0.00002005,0.00024944,-0.00009994,-0.00001072,-0.000011
 02,-0.00004741,0.00088993,-0.00086810,-0.00162833,-0.00001789,0.000005
 79,-0.00000679,0.00000582,0.00000349,0.00000065,-0.00031881,0.00003583
 ,-0.00068250,0.00003127,0.00026983,-0.00020222,0.00000237,0.00000256,-
 0.00000105,0.00000769,0.00001027,0.00000756,0.00000454,0.00000237,0.00
 001530,0.00001712,0.00000975,0.00006280,0.00005101,-0.00000526,0.00000
 822,-0.00000224,0.00000007,0.00000056,-0.05872095,0.08457497,-0.000218
 03,0.00214434,0.00016594,-0.00008904,-0.00004004,0.00004950,-0.0006016
 7,0.00111503,0.00099849,-0.00000468,0.00000232,0.00001480,0.01951008,-
 0.01088031,-0.01624155,-0.00184123,-0.00029915,-0.00908335,0.00000393,
 -0.00000511,-0.00000269,-0.00005910,-0.00004232,-0.00001592,0.00000505
 ,0.00000845,-0.00000753,0.11367462,-0.06744168,-0.19400843,0.00015853,
 0.00001984,-0.00002207,0.00033403,0.00008001,-0.00001989,-0.00310232,0
 .00145617,0.00358062,-0.00001784,-0.00024955,0.00001042,0.00007127,-0.
 00025295,0.00004740,0.00000088,0.00000665,-0.00000068,0.00001294,0.000
 21937,0.00018222,-0.00000478,0.00000146,-0.00000134,0.00000436,0.00000
 126,0.00000219,0.00017781,0.00050760,0.00092575,-0.00040674,-0.0003186
 1,0.00108602,0.00000048,0.00000036,0.00000066,0.00000281,0.00000275,0.
 00000229,-0.00000063,0.00000241,0.00000427,0.00002378,0.00000647,0.000
 00226,0.00000798,0.00000011,0.00000058,0.00000150,-0.00000075,0.000001
 59,-0.12587895,0.07291406,0.20922137,0.00000435,0.00030624,-0.00009862
 ,0.00009831,0.00000084,-0.00019038,-0.00037710,-0.00061369,0.00032481,
 -0.00004316,-0.00001886,0.00008707,-0.01481416,-0.00534425,-0.00073373
 ,0.00223212,-0.00032069,0.00069169,0.00001364,0.00000088,0.00000602,-0
 .00115064,0.00016266,0.00026301,0.00001215,-0.00000631,-0.00001337,-0.
 25889657,-0.10552603,-0.01781808,0.00039199,-0.00028870,-0.00030714,-0
 .00009615,0.00049293,-0.00008835,0.00484869,0.00140688,0.00019907,-0.0
 0010939,0.00000021,0.00003682,-0.00000506,-0.00003958,-0.00002992,0.00
 000043,-0.00000431,0.00000722,0.00006120,-0.00012319,-0.00014988,-0.00
 005047,0.00000334,-0.00000501,0.00000814,-0.00000325,0.00000085,0.0005
 6876,0.00028550,0.00021377,0.00008202,0.00089570,-0.00274112,0.0000164
 6,-0.00000258,-0.00000884,0.00000358,0.00000209,0.00000024,0.00011439,
 -0.00009199,-0.00002779,-0.00416306,-0.00012551,0.00154850,0.00000400,
 -0.00000254,0.00000472,0.00000279,-0.00000233,0.00000301,-0.01554995,-
 0.00729747,-0.00165604,0.28528247,0.00017633,-0.00042236,0.00004290,0.
 00005788,-0.00005846,0.00015176,-0.00094403,0.00111156,0.00012738,-0.0
 0005863,-0.00001798,0.00015117,0.00940708,0.00345265,0.00051367,-0.000
 70372,-0.00003493,-0.00076171,0.00000365,-0.00001158,-0.00001160,-0.00
 023879,-0.00000982,-0.00027022,0.00002082,0.00000593,-0.00003897,-0.10
 560350,-0.10113287,-0.00968682,0.00009070,0.00006831,0.00000121,0.0007
 6409,0.00026236,-0.00013912,-0.03031824,-0.01520695,-0.00155753,0.0000
 3416,-0.00001605,0.00001617,-0.00003373,0.00006168,-0.00010443,-0.0000
 2637,-0.00000153,0.00000396,0.00021085,0.00003834,-0.00000156,-0.00006
 547,0.00001525,-0.00001135,0.00000267,-0.00000196,-0.00000635,0.000118
 50,0.00056757,-0.00079803,0.00053756,0.00077134,0.00218174,0.00000726,
 -0.00000109,0.00000581,-0.00000514,0.00000941,0.00000218,0.00001423,-0
 .00005421,0.00003881,-0.00032736,0.00000227,0.00024185,0.00001321,-0.0
 0000307,0.00000393,-0.00000167,0.00000264,0.00000032,0.00976711,0.0047
 8869,0.00196277,0.11574403,0.11051618,0.00007265,-0.00001328,-0.000029
 61,-0.00002514,-0.00005441,-0.00006166,-0.00040522,-0.00017930,-0.0001
 3532,0.00000532,-0.00000608,0.00010096,-0.02922229,-0.01328252,-0.0048
 2576,0.00045731,0.00062435,0.00330164,-0.00001324,-0.00001128,0.000014
 67,0.00019906,-0.00006085,-0.00033272,-0.00000367,0.00000441,0.0000136
 6,-0.01514471,-0.00960530,-0.04988187,-0.00001574,0.00015284,0.0002006
 0,-0.00004112,-0.00013291,0.00025653,0.00350707,0.00192431,-0.00064646
 ,-0.00003358,0.00005679,0.00003555,0.00001397,-0.00003047,0.00001471,0
 .00000445,0.00001137,0.00000493,-0.00001926,0.00001116,-0.00002598,-0.
 00003994,0.00001519,-0.00000972,-0.00000573,-0.00000594,-0.00000523,0.
 00093738,-0.00007190,0.00132061,-0.00240316,0.00096380,-0.00494249,0.0
 0000809,0.00000177,-0.00000786,-0.00000300,0.00000798,-0.00000932,-0.0
 0005526,0.00000849,0.00003354,0.00134602,-0.00001570,-0.00033917,-0.00
 000991,0.00000101,-0.00000115,-0.00000338,0.00000485,-0.00000116,0.020
 74560,0.01126882,0.00251787,0.02026332,0.00759393,0.05229234,-0.001975
 76,0.00171410,0.00217625,0.00033301,-0.00009453,0.00016441,0.00546254,
 -0.00422908,0.01652154,0.00000456,-0.00000040,-0.00001094,0.00079985,0
 .00114737,0.00038533,0.00006720,-0.00028217,-0.00055662,-0.00000793,-0
 .00000822,0.00000812,-0.00001380,-0.00000115,0.00001705,0.00003109,0.0
 0003191,-0.00010408,-0.00139480,-0.00063416,-0.00066565,0.00000512,0.0
 0006791,-0.00006440,0.00159451,-0.00028292,0.00036565,-0.10546679,0.03
 161253,-0.10826147,0.00015384,0.00002498,0.00005596,0.00034688,-0.0002
 7066,0.00082888,-0.00000207,-0.00001973,0.00000525,0.00039281,-0.00033
 478,-0.00090071,0.00000457,-0.00000045,-0.00000109,0.00000211,0.000003
 52,0.00000079,0.00014827,0.00009979,-0.00042625,0.00024955,-0.00004690
 ,0.00035315,0.00001343,0.00000159,-0.00001543,0.00000405,0.00000256,0.
 00000449,0.00000414,0.00000304,-0.00000282,0.00001452,0.00000843,-0.00
 003919,0.00004283,-0.00000431,0.00000319,-0.00000398,0.00000185,-0.000
 00059,-0.00012257,0.00001731,-0.00006168,0.00042516,0.00035354,0.00029
 595,0.11149230,0.00207383,-0.00151119,-0.00231513,-0.00010981,0.000056
 50,0.00005412,-0.00760641,0.00342351,-0.01127571,-0.00000202,-0.000002
 10,0.00000902,0.00034833,-0.00781476,-0.00238590,-0.00059593,0.0012797
 1,0.00036581,0.00000277,-0.00000352,0.00000808,-0.00001357,-0.00000580
 ,-0.00001079,0.00000014,0.00000786,0.00000430,0.01647919,-0.00778492,0
 .02948901,0.00000271,0.00003733,-0.00001937,-0.00064621,0.00001946,0.0
 0072441,0.03147344,-0.06489209,0.05603307,0.00028115,-0.00001135,0.000
 19868,-0.00015797,0.00059679,-0.00079037,-0.00002282,0.00001714,0.0000
 0872,-0.00056911,0.00043165,0.00063249,-0.00000262,0.00000176,-0.00000
 251,0.00000049,-0.00000030,-0.00000030,0.00066585,-0.00048169,0.002143
 00,0.00008714,0.00010502,-0.00006969,0.00000021,0.00000037,-0.00000679
 ,0.00000230,0.00000161,-0.00000159,0.00000051,0.00000045,0.00000013,0.
 00000886,-0.00000514,0.00001334,-0.00000075,-0.00000194,-0.00000310,0.
 00000197,0.00000075,-0.00000048,-0.00000610,0.00147379,-0.00062147,-0.
 00066160,0.00154693,-0.00023175,-0.03607821,0.07078289,0.00466804,-0.0
 0415037,-0.00224541,-0.00004915,0.00024624,0.00026993,-0.01211302,0.00
 608612,-0.02509122,0.00000209,0.00000522,0.00000168,0.00058266,0.00017
 615,0.00136594,-0.00050694,0.00055521,0.00049621,0.00001116,-0.0000055
 6,-0.00000121,0.00000208,-0.00002225,-0.00002207,0.00000079,0.00003590
 ,-0.00000636,-0.00011972,0.00051896,-0.00029405,0.00008255,-0.00005507
 ,0.00002870,-0.00167875,0.00015838,0.00225075,-0.10490494,0.05701330,-
 0.23921509,-0.00010858,-0.00008508,0.00027903,-0.00067500,0.00092251,-
 0.00132280,-0.00012331,0.00001448,0.00013367,-0.00000889,-0.00011310,0
 .00089235,0.00000075,0.00000004,0.00000171,0.00000358,0.00000136,0.000
 00204,-0.00005708,-0.00014906,-0.00014304,-0.00007294,-0.00008659,-0.0
 0001703,0.00001641,-0.00000008,-0.00001051,0.00000388,0.00000330,0.000
 00252,0.00000167,0.00000070,-0.00000050,-0.00000096,0.00000833,-0.0000
 2315,0.00000102,-0.00000497,-0.00000377,-0.00000096,-0.00000497,-0.000
 00211,0.00000553,0.00043457,0.00038117,0.00008599,0.00017359,0.0001597
 5,0.11445993,-0.06052391,0.26030647,-0.00032577,-0.00031682,-0.0008896
 2,0.00036225,0.00134342,-0.00154822,-0.01397443,-0.00674964,-0.0024083
 3,0.00000977,-0.00000102,-0.00002203,0.00063203,0.00034231,-0.00008042
 ,-0.00002912,-0.00003936,0.00034001,-0.00001300,0.00004065,0.00002741,
 0.00007827,0.00009756,0.00007693,-0.00016220,-0.00011065,0.00041264,0.
 00330165,0.00131539,-0.00045893,-0.00011162,-0.00052999,0.00018916,-0.
 00377240,0.00037778,0.00468777,-0.26579090,-0.09640244,0.00674913,0.00
 051801,-0.00002079,0.00002357,0.00022093,0.00019298,0.00017734,-0.0001
 0381,-0.00001201,0.00021116,0.00050339,0.00026905,-0.00039042,-0.00000
 785,0.00000124,0.00000749,-0.00001304,-0.00001138,-0.00000503,0.000176
 91,-0.00002768,0.00015453,-0.00002047,-0.00010157,0.00043615,0.0000041
 6,-0.00000863,-0.00000637,-0.00002177,-0.00001712,-0.00002655,-0.00001
 180,-0.00002928,-0.00000832,-0.00004307,-0.00001190,0.00000088,-0.0001
 7289,0.00001014,-0.00004633,0.00000768,-0.00000041,-0.00000368,0.00068
 205,-0.00045361,-0.00004735,0.00108506,0.00100297,-0.00041187,-0.01260
 464,-0.00495575,0.00049211,0.28959660,-0.00042326,-0.00006863,0.000068
 63,0.00042371,-0.00047749,0.00075385,0.01084219,0.00362150,0.00127888,
 -0.00001117,-0.00000319,0.00005928,-0.00108733,0.00145987,-0.00111060,
 0.00009875,-0.00006131,0.00035894,0.00000174,-0.00003095,-0.00002644,-
 0.00007626,-0.00008632,-0.00016579,0.00014968,0.00007273,-0.00028911,-
 0.03105912,-0.01766198,0.00056410,0.00006879,0.00034354,-0.00010352,0.
 00370840,0.00031156,-0.00368247,-0.09740190,-0.08836275,0.00285677,0.0
 0001170,0.00007105,-0.00007762,0.00002093,-0.00006548,0.00008567,0.000
 02020,-0.00000326,-0.00007955,0.00032208,0.00052663,0.00059320,-0.0000
 1433,0.00000553,-0.00000560,0.00000820,0.00000651,0.00000080,0.0003446
 0,0.00014167,-0.00025019,0.00055165,0.00030623,0.00037927,-0.00000348,
 0.00000513,0.00000721,0.00000991,0.00001360,0.00001620,0.00000611,0.00
 001132,0.00001160,0.00002828,0.00000726,0.00005916,0.00012288,-0.00001
 726,0.00002415,-0.00000437,-0.00000249,0.00000345,0.00016603,0.0017035
 6,-0.00029949,0.00117159,-0.00624827,0.00105063,0.00719724,0.00273129,
 -0.00115335,0.10480655,0.10175041,-0.00041442,0.00013527,0.00019559,0.
 00050456,-0.00101355,0.00164200,0.02150392,0.01093180,0.00054469,-0.00
 000751,0.00000009,0.00002483,0.00090842,0.00025967,0.00000315,-0.00006
 471,0.00003100,-0.00013298,0.00001638,-0.00004196,-0.00003080,-0.00006
 003,-0.00009258,-0.00009108,0.00023535,0.00016132,-0.00048854,0.001794
 92,0.00038559,-0.00070770,0.00005598,0.00040520,-0.00015794,0.00441463
 ,-0.00099847,-0.00471016,0.00365260,0.00227381,-0.04982983,-0.00001070
 ,0.00010204,-0.00056205,-0.00005142,-0.00023762,0.00021433,-0.00000804
 ,-0.00001625,-0.00008228,-0.00029197,-0.00005564,0.00113892,0.00000380
 ,-0.00000105,-0.00000639,0.00001093,0.00001193,0.00000282,-0.00000228,
 -0.00004814,0.00003672,-0.00000418,0.00007175,0.00008772,-0.00000146,0
 .00000757,0.00000451,0.00001835,0.00001941,0.00002970,0.00000791,0.000
 02354,0.00000976,0.00002973,0.00001559,-0.00000548,0.00019889,-0.00001
 671,0.00003632,-0.00002050,0.00000083,-0.00000225,-0.00038348,-0.00013
 562,0.00020806,0.00013216,0.00017454,0.00098815,-0.02453505,-0.0114253
 0,0.00182639,-0.00763278,-0.00092808,0.04981384\\-0.00000590,0.0000101
 3,0.00000410,-0.00115461,0.00784628,0.00067817,-0.00023383,-0.00383746
 ,0.00457886,-0.00000127,0.00000897,0.00000021,0.00000338,-0.00000700,0
 .00000229,-0.00002003,-0.00000193,0.00000671,0.00000008,0.00000139,-0.
 00000318,-0.00001089,0.00000608,-0.00000187,0.00000378,0.00000374,-0.0
 0000766,-0.00000127,-0.00000819,0.00000919,0.00002562,-0.00000395,-0.0
 0000702,0.00165230,-0.00981714,-0.00204777,-0.00025601,0.00580523,-0.0
 0321144,-0.00000071,-0.00000205,-0.00000121,0.00000202,0.00000134,0.00
 000090,-0.00000066,0.00000776,-0.00001150,0.00000716,-0.00000416,-0.00
 000615,-0.00000299,0.00000952,0.00000014,-0.00000283,0.00000247,0.0000
 0204,-0.00000411,-0.00000344,0.00000885,-0.00000183,-0.00000543,0.0000
 0746,0.00000360,0.00000033,-0.00000156,0.00000071,0.00000396,-0.000005
 97,-0.00000594,0.00000737,0.00000766,0.00000221,0.00000373,0.00000176,
 -0.00000011,0.00000866,-0.00000710,0.00000431,0.00000353,-0.00000889,-
 0.00000214,-0.00001026,0.00000847,-0.00000746,-0.00001227,0.00000653,0
 .00000372,-0.00000952,-0.00000227,0.00000369,-0.00000770,0.00000025\\\
 @



 IN THIS SHORT LIFE

 THAT ONLY LASTS AN HOUR

 HOW MUCH, HOW LITTLE, IS WITHIN OUR POWER....


 EMILY DICKINSON BOLTS OF MELODY NO. 521
 Job cpu time:       0 days 13 hours 36 minutes 50.3 seconds.
 Elapsed time:       0 days  1 hours  8 minutes 21.7 seconds.
 File lengths (MBytes):  RWF=    721 Int=      0 D2E=      0 Chk=     34 Scr=      1
 Normal termination of Gaussian 16 at Sat Mar  9 01:42:20 2019.
