 Entering Gaussian System, Link 0=g16
 Initial command:
 /sw/Projects/G16/g16/l1.exe "/nvme/pbs/tmpdir/pbs.74203[3].flm1/Gau-11623.inp" -scrdir="/nvme/pbs/tmpdir/pbs.74203[3].flm1/"
 Entering Link 1 = /sw/Projects/G16/g16/l1.exe PID=     11624.
  
 Copyright (c) 1988-2017, Gaussian, Inc.  All Rights Reserved.
  
 This is part of the Gaussian(R) 16 program.  It is based on
 the Gaussian(R) 09 system (copyright 2009, Gaussian, Inc.),
 the Gaussian(R) 03 system (copyright 2003, Gaussian, Inc.),
 the Gaussian(R) 98 system (copyright 1998, Gaussian, Inc.),
 the Gaussian(R) 94 system (copyright 1995, Gaussian, Inc.),
 the Gaussian 92(TM) system (copyright 1992, Gaussian, Inc.),
 the Gaussian 90(TM) system (copyright 1990, Gaussian, Inc.),
 the Gaussian 88(TM) system (copyright 1988, Gaussian, Inc.),
 the Gaussian 86(TM) system (copyright 1986, Carnegie Mellon
 University), and the Gaussian 82(TM) system (copyright 1983,
 Carnegie Mellon University). Gaussian is a federally registered
 trademark of Gaussian, Inc.
  
 This software contains proprietary and confidential information,
 including trade secrets, belonging to Gaussian, Inc.
  
 This software is provided under written license and may be
 used, copied, transmitted, or stored only in accord with that
 written license.
  
 The following legend is applicable only to US Government
 contracts under FAR:
  
                    RESTRICTED RIGHTS LEGEND
  
 Use, reproduction and disclosure by the US Government is
 subject to restrictions as set forth in subparagraphs (a)
 and (c) of the Commercial Computer Software - Restricted
 Rights clause in FAR 52.227-19.
  
 Gaussian, Inc.
 340 Quinnipiac St., Bldg. 40, Wallingford CT 06492
  
  
 ---------------------------------------------------------------
 Warning -- This program may not be used in any manner that
 competes with the business of Gaussian, Inc. or will provide
 assistance to any competitor of Gaussian, Inc.  The licensee
 of this program is prohibited from giving any competitor of
 Gaussian, Inc. access to this program.  By using this program,
 the user acknowledges that Gaussian, Inc. is engaged in the
 business of creating and licensing software in the field of
 computational chemistry and represents and warrants to the
 licensee that it is not a competitor of Gaussian, Inc. and that
 it will not use this program in any manner prohibited above.
 ---------------------------------------------------------------
  

 Cite this work as:
 Gaussian 16, Revision B.01,
 M. J. Frisch, G. W. Trucks, H. B. Schlegel, G. E. Scuseria, 
 M. A. Robb, J. R. Cheeseman, G. Scalmani, V. Barone, 
 G. A. Petersson, H. Nakatsuji, X. Li, M. Caricato, A. V. Marenich, 
 J. Bloino, B. G. Janesko, R. Gomperts, B. Mennucci, H. P. Hratchian, 
 J. V. Ortiz, A. F. Izmaylov, J. L. Sonnenberg, D. Williams-Young, 
 F. Ding, F. Lipparini, F. Egidi, J. Goings, B. Peng, A. Petrone, 
 T. Henderson, D. Ranasinghe, V. G. Zakrzewski, J. Gao, N. Rega, 
 G. Zheng, W. Liang, M. Hada, M. Ehara, K. Toyota, R. Fukuda, 
 J. Hasegawa, M. Ishida, T. Nakajima, Y. Honda, O. Kitao, H. Nakai, 
 T. Vreven, K. Throssell, J. A. Montgomery, Jr., J. E. Peralta, 
 F. Ogliaro, M. J. Bearpark, J. J. Heyd, E. N. Brothers, K. N. Kudin, 
 V. N. Staroverov, T. A. Keith, R. Kobayashi, J. Normand, 
 K. Raghavachari, A. P. Rendell, J. C. Burant, S. S. Iyengar, 
 J. Tomasi, M. Cossi, J. M. Millam, M. Klene, C. Adamo, R. Cammi, 
 J. W. Ochterski, R. L. Martin, K. Morokuma, O. Farkas, 
 J. B. Foresman, and D. J. Fox, Gaussian, Inc., Wallingford CT, 2016.
 
 ******************************************
 Gaussian 16:  ES64L-G16RevB.01 20-Dec-2017
                 8-Mar-2019 
 ******************************************
 %mem=20gb
 %nproc=12
 Will use up to   12 processors via shared memory.
 %chk=4c1_a1_a4_4c1_PSI.inp_extract_3.chk
 ----------------------------------------------------------------------
 #M062X/6-311++G(2d,2p) opt=ModRedundant freq=noraman SCRF=(SMD,solvent
 =water)
 ----------------------------------------------------------------------
 1/18=120,19=15,26=3,38=1/1,3;
 2/9=110,12=2,17=6,18=5,40=1/2;
 3/5=4,6=6,7=1212,11=2,25=1,30=1,70=32201,71=1,72=1,74=-55/1,2,3;
 4//1;
 5/5=2,38=5,53=1/2;
 6/7=2,8=2,9=2,10=2,28=1/1;
 7//1,2,3,16;
 1/18=20,19=15,26=3/3(2);
 2/9=110/2;
 99//99;
 2/9=110/2;
 3/5=4,6=6,7=1212,11=2,25=1,30=1,70=32205,71=1,72=1,74=-55/1,2,3;
 4/5=5,16=3,69=1/1;
 5/5=2,38=5,53=1/2;
 7//1,2,3,16;
 1/18=20,19=15,26=3/3(-5);
 2/9=110/2;
 6/7=2,8=2,9=2,10=2,19=2,28=1/1;
 99/9=1/99;
 -------------------------------
 4c1_a1_a4_4c1_PSI.inp_extract_3
 -------------------------------
 Symbolic Z-matrix:
 Charge =  0 Multiplicity = 1
 C                    -1.55916   1.04997  -0.86064 
 C                     1.22621  -0.75801  -0.79115 
 C                    -1.15499  -0.41659  -0.92909 
 C                     3.12796   0.81191   0.7273 
 C                    -3.10499   0.68835   0.88912 
 O                    -1.97938   1.41801   0.43606 
 C                     2.6595   -0.53278   1.28236 
 C                     2.05721   1.40469  -0.17283 
 C                     2.2278   -1.43951   0.12934 
 C                    -2.80142  -0.80055   0.94464 
 O                     1.68666   0.50166  -1.20683 
 O                    -0.00377  -0.67279  -0.13568 
 C                    -2.29761  -1.28916  -0.41524 
 H                    -2.36798   1.22365  -1.56711 
 H                    -0.73586   1.69805  -1.11682 
 H                     1.10269  -1.32204  -1.70544 
 H                    -0.93394  -0.66475  -1.96131 
 H                     4.04375   0.67666   0.15645 
 H                     3.34338   1.51281   1.52883 
 H                    -3.34875   1.08008   1.86726 
 H                    -3.94309   0.88353   0.22322 
 H                     1.82998  -0.37669   1.96703 
 H                     3.45282  -1.01084   1.84871 
 H                     2.40995   2.29351  -0.67755 
 H                     1.17981   1.67033   0.40601 
 H                     3.09594  -1.69545  -0.47204 
 H                     1.79732  -2.36718   0.49046 
 H                    -3.70014  -1.3394    1.23061 
 H                    -2.05589  -0.98514   1.71246 
 H                    -1.97305  -2.32319  -0.36377 
 H                    -3.10811  -1.23897  -1.13839 
 
 The following ModRedundant input section has been read:
 D      13       3      12       2 F                                           
 

 GradGradGradGradGradGradGradGradGradGradGradGradGradGradGradGradGradGrad
 Berny optimization.
 Initialization pass.
                           ----------------------------
                           !    Initial Parameters    !
                           ! (Angstroms and Degrees)  !
 --------------------------                            --------------------------
 ! Name  Definition              Value          Derivative Info.                !
 --------------------------------------------------------------------------------
 ! R1    R(1,3)                  1.5228         estimate D2E/DX2                !
 ! R2    R(1,6)                  1.4119         estimate D2E/DX2                !
 ! R3    R(1,14)                 1.0879         estimate D2E/DX2                !
 ! R4    R(1,15)                 1.0786         estimate D2E/DX2                !
 ! R5    R(2,9)                  1.5215         estimate D2E/DX2                !
 ! R6    R(2,11)                 1.4041         estimate D2E/DX2                !
 ! R7    R(2,12)                 1.3963         estimate D2E/DX2                !
 ! R8    R(2,16)                 1.0813         estimate D2E/DX2                !
 ! R9    R(3,12)                 1.4214         estimate D2E/DX2                !
 ! R10   R(3,13)                 1.5268         estimate D2E/DX2                !
 ! R11   R(3,17)                 1.0844         estimate D2E/DX2                !
 ! R12   R(4,7)                  1.5283         estimate D2E/DX2                !
 ! R13   R(4,8)                  1.5192         estimate D2E/DX2                !
 ! R14   R(4,18)                 1.0876         estimate D2E/DX2                !
 ! R15   R(4,19)                 1.0863         estimate D2E/DX2                !
 ! R16   R(5,6)                  1.4159         estimate D2E/DX2                !
 ! R17   R(5,10)                 1.5205         estimate D2E/DX2                !
 ! R18   R(5,20)                 1.0815         estimate D2E/DX2                !
 ! R19   R(5,21)                 1.0881         estimate D2E/DX2                !
 ! R20   R(7,9)                  1.529          estimate D2E/DX2                !
 ! R21   R(7,22)                 1.0868         estimate D2E/DX2                !
 ! R22   R(7,23)                 1.0857         estimate D2E/DX2                !
 ! R23   R(8,11)                 1.4219         estimate D2E/DX2                !
 ! R24   R(8,24)                 1.0813         estimate D2E/DX2                !
 ! R25   R(8,25)                 1.0842         estimate D2E/DX2                !
 ! R26   R(9,26)                 1.0867         estimate D2E/DX2                !
 ! R27   R(9,27)                 1.0846         estimate D2E/DX2                !
 ! R28   R(10,13)                1.5303         estimate D2E/DX2                !
 ! R29   R(10,28)                1.0862         estimate D2E/DX2                !
 ! R30   R(10,29)                1.086          estimate D2E/DX2                !
 ! R31   R(13,30)                1.085          estimate D2E/DX2                !
 ! R32   R(13,31)                1.0874         estimate D2E/DX2                !
 ! A1    A(3,1,6)              111.7977         estimate D2E/DX2                !
 ! A2    A(3,1,14)             108.7776         estimate D2E/DX2                !
 ! A3    A(3,1,15)             111.4321         estimate D2E/DX2                !
 ! A4    A(6,1,14)             109.4825         estimate D2E/DX2                !
 ! A5    A(6,1,15)             106.779          estimate D2E/DX2                !
 ! A6    A(14,1,15)            108.5011         estimate D2E/DX2                !
 ! A7    A(9,2,11)             111.4116         estimate D2E/DX2                !
 ! A8    A(9,2,12)             108.8564         estimate D2E/DX2                !
 ! A9    A(9,2,16)             110.676          estimate D2E/DX2                !
 ! A10   A(11,2,12)            111.9058         estimate D2E/DX2                !
 ! A11   A(11,2,16)            104.7793         estimate D2E/DX2                !
 ! A12   A(12,2,16)            109.1546         estimate D2E/DX2                !
 ! A13   A(1,3,12)             111.3124         estimate D2E/DX2                !
 ! A14   A(1,3,13)             109.6729         estimate D2E/DX2                !
 ! A15   A(1,3,17)             108.4991         estimate D2E/DX2                !
 ! A16   A(12,3,13)            108.3763         estimate D2E/DX2                !
 ! A17   A(12,3,17)            108.9645         estimate D2E/DX2                !
 ! A18   A(13,3,17)            110.0073         estimate D2E/DX2                !
 ! A19   A(7,4,8)              110.0257         estimate D2E/DX2                !
 ! A20   A(7,4,18)             109.8352         estimate D2E/DX2                !
 ! A21   A(7,4,19)             111.1306         estimate D2E/DX2                !
 ! A22   A(8,4,18)             109.3296         estimate D2E/DX2                !
 ! A23   A(8,4,19)             108.976          estimate D2E/DX2                !
 ! A24   A(18,4,19)            107.4897         estimate D2E/DX2                !
 ! A25   A(6,5,10)             110.9522         estimate D2E/DX2                !
 ! A26   A(6,5,20)             106.3756         estimate D2E/DX2                !
 ! A27   A(6,5,21)             108.9091         estimate D2E/DX2                !
 ! A28   A(10,5,20)            111.5092         estimate D2E/DX2                !
 ! A29   A(10,5,21)            110.596          estimate D2E/DX2                !
 ! A30   A(20,5,21)            108.3561         estimate D2E/DX2                !
 ! A31   A(1,6,5)              113.3384         estimate D2E/DX2                !
 ! A32   A(4,7,9)              109.5378         estimate D2E/DX2                !
 ! A33   A(4,7,22)             109.6566         estimate D2E/DX2                !
 ! A34   A(4,7,23)             110.6655         estimate D2E/DX2                !
 ! A35   A(9,7,22)             110.1645         estimate D2E/DX2                !
 ! A36   A(9,7,23)             109.7889         estimate D2E/DX2                !
 ! A37   A(22,7,23)            106.9976         estimate D2E/DX2                !
 ! A38   A(4,8,11)             111.5131         estimate D2E/DX2                !
 ! A39   A(4,8,24)             111.5538         estimate D2E/DX2                !
 ! A40   A(4,8,25)             110.4657         estimate D2E/DX2                !
 ! A41   A(11,8,24)            105.5216         estimate D2E/DX2                !
 ! A42   A(11,8,25)            109.4473         estimate D2E/DX2                !
 ! A43   A(24,8,25)            108.1684         estimate D2E/DX2                !
 ! A44   A(2,9,7)              112.1141         estimate D2E/DX2                !
 ! A45   A(2,9,26)             107.2532         estimate D2E/DX2                !
 ! A46   A(2,9,27)             108.8608         estimate D2E/DX2                !
 ! A47   A(7,9,26)             109.3557         estimate D2E/DX2                !
 ! A48   A(7,9,27)             111.6051         estimate D2E/DX2                !
 ! A49   A(26,9,27)            107.4522         estimate D2E/DX2                !
 ! A50   A(5,10,13)            110.238          estimate D2E/DX2                !
 ! A51   A(5,10,28)            109.28           estimate D2E/DX2                !
 ! A52   A(5,10,29)            109.2263         estimate D2E/DX2                !
 ! A53   A(13,10,28)           110.3624         estimate D2E/DX2                !
 ! A54   A(13,10,29)           110.3649         estimate D2E/DX2                !
 ! A55   A(28,10,29)           107.3097         estimate D2E/DX2                !
 ! A56   A(2,11,8)             116.0983         estimate D2E/DX2                !
 ! A57   A(2,12,3)             117.5412         estimate D2E/DX2                !
 ! A58   A(3,13,10)            111.2842         estimate D2E/DX2                !
 ! A59   A(3,13,30)            109.6794         estimate D2E/DX2                !
 ! A60   A(3,13,31)            107.9164         estimate D2E/DX2                !
 ! A61   A(10,13,30)           111.1382         estimate D2E/DX2                !
 ! A62   A(10,13,31)           109.3206         estimate D2E/DX2                !
 ! A63   A(30,13,31)           107.3679         estimate D2E/DX2                !
 ! D1    D(6,1,3,12)           -65.438          estimate D2E/DX2                !
 ! D2    D(6,1,3,13)            54.4864         estimate D2E/DX2                !
 ! D3    D(6,1,3,17)           174.6695         estimate D2E/DX2                !
 ! D4    D(14,1,3,12)          173.5401         estimate D2E/DX2                !
 ! D5    D(14,1,3,13)          -66.5355         estimate D2E/DX2                !
 ! D6    D(14,1,3,17)           53.6476         estimate D2E/DX2                !
 ! D7    D(15,1,3,12)           53.968          estimate D2E/DX2                !
 ! D8    D(15,1,3,13)          173.8923         estimate D2E/DX2                !
 ! D9    D(15,1,3,17)          -65.9246         estimate D2E/DX2                !
 ! D10   D(3,1,6,5)            -60.636          estimate D2E/DX2                !
 ! D11   D(14,1,6,5)            59.976          estimate D2E/DX2                !
 ! D12   D(15,1,6,5)           177.249          estimate D2E/DX2                !
 ! D13   D(11,2,9,7)            51.3421         estimate D2E/DX2                !
 ! D14   D(11,2,9,26)          -68.7111         estimate D2E/DX2                !
 ! D15   D(11,2,9,27)          175.3155         estimate D2E/DX2                !
 ! D16   D(12,2,9,7)           -72.5334         estimate D2E/DX2                !
 ! D17   D(12,2,9,26)          167.4134         estimate D2E/DX2                !
 ! D18   D(12,2,9,27)           51.4401         estimate D2E/DX2                !
 ! D19   D(16,2,9,7)           167.5007         estimate D2E/DX2                !
 ! D20   D(16,2,9,26)           47.4475         estimate D2E/DX2                !
 ! D21   D(16,2,9,27)          -68.5258         estimate D2E/DX2                !
 ! D22   D(9,2,11,8)           -54.3212         estimate D2E/DX2                !
 ! D23   D(12,2,11,8)           67.8097         estimate D2E/DX2                !
 ! D24   D(16,2,11,8)         -174.0364         estimate D2E/DX2                !
 ! D25   D(9,2,12,3)          -162.9338         estimate D2E/DX2                !
 ! D26   D(11,2,12,3)           73.4847         estimate D2E/DX2                !
 ! D27   D(16,2,12,3)          -42.0297         estimate D2E/DX2                !
 ! D28   D(1,3,12,2)          -100.1529         estimate D2E/DX2                !
 ! D29   D(13,3,12,2)          139.1578         Frozen                          !
 ! D30   D(17,3,12,2)           19.4635         estimate D2E/DX2                !
 ! D31   D(1,3,13,10)          -50.5904         estimate D2E/DX2                !
 ! D32   D(1,3,13,30)         -173.9814         estimate D2E/DX2                !
 ! D33   D(1,3,13,31)           69.3513         estimate D2E/DX2                !
 ! D34   D(12,3,13,10)          71.1109         estimate D2E/DX2                !
 ! D35   D(12,3,13,30)         -52.2801         estimate D2E/DX2                !
 ! D36   D(12,3,13,31)        -168.9474         estimate D2E/DX2                !
 ! D37   D(17,3,13,10)        -169.8506         estimate D2E/DX2                !
 ! D38   D(17,3,13,30)          66.7584         estimate D2E/DX2                !
 ! D39   D(17,3,13,31)         -49.9089         estimate D2E/DX2                !
 ! D40   D(8,4,7,9)             53.3206         estimate D2E/DX2                !
 ! D41   D(8,4,7,22)           -67.6881         estimate D2E/DX2                !
 ! D42   D(8,4,7,23)           174.5048         estimate D2E/DX2                !
 ! D43   D(18,4,7,9)           -67.0769         estimate D2E/DX2                !
 ! D44   D(18,4,7,22)          171.9144         estimate D2E/DX2                !
 ! D45   D(18,4,7,23)           54.1074         estimate D2E/DX2                !
 ! D46   D(19,4,7,9)           174.1117         estimate D2E/DX2                !
 ! D47   D(19,4,7,22)           53.103          estimate D2E/DX2                !
 ! D48   D(19,4,7,23)          -64.7041         estimate D2E/DX2                !
 ! D49   D(7,4,8,11)           -55.0987         estimate D2E/DX2                !
 ! D50   D(7,4,8,24)          -172.8065         estimate D2E/DX2                !
 ! D51   D(7,4,8,25)            66.8452         estimate D2E/DX2                !
 ! D52   D(18,4,8,11)           65.6035         estimate D2E/DX2                !
 ! D53   D(18,4,8,24)          -52.1044         estimate D2E/DX2                !
 ! D54   D(18,4,8,25)         -172.4527         estimate D2E/DX2                !
 ! D55   D(19,4,8,11)         -177.1766         estimate D2E/DX2                !
 ! D56   D(19,4,8,24)           65.1155         estimate D2E/DX2                !
 ! D57   D(19,4,8,25)          -55.2328         estimate D2E/DX2                !
 ! D58   D(10,5,6,1)            60.4572         estimate D2E/DX2                !
 ! D59   D(20,5,6,1)          -178.0946         estimate D2E/DX2                !
 ! D60   D(21,5,6,1)           -61.5034         estimate D2E/DX2                !
 ! D61   D(6,5,10,13)          -54.7877         estimate D2E/DX2                !
 ! D62   D(6,5,10,28)         -176.2443         estimate D2E/DX2                !
 ! D63   D(6,5,10,29)           66.6374         estimate D2E/DX2                !
 ! D64   D(20,5,10,13)        -173.1727         estimate D2E/DX2                !
 ! D65   D(20,5,10,28)          65.3708         estimate D2E/DX2                !
 ! D66   D(20,5,10,29)         -51.7476         estimate D2E/DX2                !
 ! D67   D(21,5,10,13)          66.1831         estimate D2E/DX2                !
 ! D68   D(21,5,10,28)         -55.2735         estimate D2E/DX2                !
 ! D69   D(21,5,10,29)        -172.3918         estimate D2E/DX2                !
 ! D70   D(4,7,9,2)            -51.9658         estimate D2E/DX2                !
 ! D71   D(4,7,9,26)            66.8548         estimate D2E/DX2                !
 ! D72   D(4,7,9,27)          -174.3934         estimate D2E/DX2                !
 ! D73   D(22,7,9,2)            68.735          estimate D2E/DX2                !
 ! D74   D(22,7,9,26)         -172.4444         estimate D2E/DX2                !
 ! D75   D(22,7,9,27)          -53.6926         estimate D2E/DX2                !
 ! D76   D(23,7,9,2)          -173.6782         estimate D2E/DX2                !
 ! D77   D(23,7,9,26)          -54.8576         estimate D2E/DX2                !
 ! D78   D(23,7,9,27)           63.8942         estimate D2E/DX2                !
 ! D79   D(4,8,11,2)            56.9509         estimate D2E/DX2                !
 ! D80   D(24,8,11,2)          178.2367         estimate D2E/DX2                !
 ! D81   D(25,8,11,2)          -65.5793         estimate D2E/DX2                !
 ! D82   D(5,10,13,3)           51.1799         estimate D2E/DX2                !
 ! D83   D(5,10,13,30)         173.7342         estimate D2E/DX2                !
 ! D84   D(5,10,13,31)         -67.9264         estimate D2E/DX2                !
 ! D85   D(28,10,13,3)         171.9905         estimate D2E/DX2                !
 ! D86   D(28,10,13,30)        -65.4552         estimate D2E/DX2                !
 ! D87   D(28,10,13,31)         52.8842         estimate D2E/DX2                !
 ! D88   D(29,10,13,3)         -69.5654         estimate D2E/DX2                !
 ! D89   D(29,10,13,30)         52.9889         estimate D2E/DX2                !
 ! D90   D(29,10,13,31)        171.3283         estimate D2E/DX2                !
 --------------------------------------------------------------------------------
 Trust Radius=3.00D-01 FncErr=1.00D-07 GrdErr=1.00D-06 EigMax=2.50D+02 EigMin=1.00D-04
 Number of steps in this run=    186 maximum allowed number of steps=    186.
 GradGradGradGradGradGradGradGradGradGradGradGradGradGradGradGradGradGrad

                          Input orientation:                          
 ---------------------------------------------------------------------
 Center     Atomic      Atomic             Coordinates (Angstroms)
 Number     Number       Type             X           Y           Z
 ---------------------------------------------------------------------
      1          6           0       -1.559156    1.049971   -0.860638
      2          6           0        1.226210   -0.758005   -0.791152
      3          6           0       -1.154991   -0.416594   -0.929093
      4          6           0        3.127962    0.811914    0.727301
      5          6           0       -3.104991    0.688347    0.889124
      6          8           0       -1.979380    1.418013    0.436057
      7          6           0        2.659495   -0.532775    1.282362
      8          6           0        2.057213    1.404688   -0.172825
      9          6           0        2.227797   -1.439508    0.129344
     10          6           0       -2.801419   -0.800551    0.944644
     11          8           0        1.686663    0.501659   -1.206829
     12          8           0       -0.003767   -0.672793   -0.135675
     13          6           0       -2.297614   -1.289155   -0.415240
     14          1           0       -2.367977    1.223649   -1.567111
     15          1           0       -0.735864    1.698054   -1.116823
     16          1           0        1.102694   -1.322043   -1.705436
     17          1           0       -0.933943   -0.664749   -1.961306
     18          1           0        4.043750    0.676659    0.156449
     19          1           0        3.343383    1.512810    1.528825
     20          1           0       -3.348751    1.080077    1.867258
     21          1           0       -3.943093    0.883534    0.223221
     22          1           0        1.829982   -0.376688    1.967025
     23          1           0        3.452820   -1.010841    1.848713
     24          1           0        2.409946    2.293508   -0.677554
     25          1           0        1.179809    1.670327    0.406011
     26          1           0        3.095945   -1.695445   -0.472039
     27          1           0        1.797317   -2.367177    0.490456
     28          1           0       -3.700138   -1.339397    1.230612
     29          1           0       -2.055889   -0.985141    1.712464
     30          1           0       -1.973046   -2.323193   -0.363773
     31          1           0       -3.108111   -1.238967   -1.138388
 ---------------------------------------------------------------------
                    Distance matrix (angstroms):
                    1          2          3          4          5
     1  C    0.000000
     2  C    3.321426   0.000000
     3  C    1.522777   2.409504   0.000000
     4  C    4.954523   2.896033   4.753584   0.000000
     5  C    2.362635   4.865651   2.886054   6.236278   0.000000
     6  O    1.411900   4.064099   2.430851   5.151419   1.415868
     7  C    4.989444   2.530710   4.410707   1.528314   5.905512
     8  C    3.698248   2.397944   3.769252   1.519247   5.318762
     9  C    4.638813   1.521491   3.689159   2.497349   5.791689
    10  C    2.868221   4.385954   2.523695   6.148564   1.520545
    11  O    3.309960   1.404122   2.999220   2.431966   5.233337
    12  O    2.431609   1.396336   1.421431   3.571668   3.538433
    13  C    2.493032   3.583401   1.526760   5.929314   2.502746
    14  H    1.087869   4.176990   2.137475   5.969857   2.619700
    15  H    1.078634   3.160383   2.163942   4.372092   3.264367
    16  H    3.664093   1.081347   2.553368   3.817551   5.336480
    17  H    2.131344   2.458499   1.084392   5.090011   3.830048
    18  H    5.706696   3.300718   5.422224   1.087582   7.186198
    19  H    5.473449   3.875734   5.477164   1.086325   6.532265
    20  H    3.262664   5.601425   3.856447   6.581734   1.081489
    21  H    2.624044   5.517726   3.285068   7.089361   1.088090
    22  H    4.638673   2.849120   4.159225   2.152776   5.162376
    23  H    6.058666   3.462745   5.413064   2.164609   6.841998
    24  H    4.163373   3.275037   4.485164   2.164321   5.953617
    25  H    3.080774   2.707794   3.404267   2.152998   4.422352
    26  H    5.418328   2.115783   4.462602   2.779621   6.781359
    27  H    4.976773   2.134975   3.812613   3.454465   5.790318
    28  H    3.829649   5.356720   3.463187   7.176657   2.140691
    29  H    3.318023   4.134230   2.848278   5.574250   2.139875
    30  H    3.434591   3.587158   2.150330   6.086018   3.452597
    31  H    2.777705   4.374727   2.129502   6.824626   2.797383
                    6          7          8          9         10
     6  O    0.000000
     7  C    5.103035   0.000000
     8  C    4.082279   2.496813   0.000000
     9  C    5.095080   1.529045   2.865285   0.000000
    10  C    2.420007   5.477896   5.451433   5.134783   0.000000
    11  O    4.120516   2.865751   1.421947   2.417915   5.144654
    12  O    2.932813   3.020496   2.926593   2.374440   3.001711
    13  C    2.855650   5.294043   5.126409   4.560540   1.530306
    14  H    2.049748   6.039867   4.643179   5.575976   3.254869
    15  H    2.009027   4.718172   2.962849   4.492273   3.841769
    16  H    4.646835   3.460276   3.270331   2.155475   4.747313
    17  H    3.343379   4.842685   4.053178   3.868807   3.456943
    18  H    6.075021   2.155591   2.141209   2.788652   7.046967
    19  H    5.434605   2.170913   2.135775   3.452428   6.591775
    20  H    2.009406   6.248393   5.787206   6.361332   2.165075
    21  H    2.046249   6.835340   6.035903   6.594332   2.158706
    22  H    4.480631   1.086839   2.793545   2.159841   4.761806
    23  H    6.115859   1.085663   3.445158   2.154221   6.322742
    24  H    4.612245   3.448394   1.081283   3.823568   6.273998
    25  H    3.169391   2.794838   1.084183   3.293311   4.716518
    26  H    6.023054   2.149468   3.283187   1.086667   6.130802
    27  H    5.347342   2.176120   3.838548   1.084567   4.879444
    28  H    3.345988   6.410792   6.530446   6.030193   1.086199
    29  H    2.722171   4.756519   5.116953   4.589410   1.086018
    30  H    3.825754   5.232188   5.493318   4.321012   2.171772
    31  H    3.288230   6.294761   5.882329   5.488103   2.150649
                   11         12         13         14         15
    11  O    0.000000
    12  O    2.320401   0.000000
    13  C    4.439380   2.391609   0.000000
    14  H    4.134148   3.351864   2.765130   0.000000
    15  H    2.703350   2.668245   3.443065   1.758298   0.000000
    16  H    1.978767   2.027297   3.637002   4.306418   3.584375
    17  H    2.966027   2.048956   2.154020   2.403724   2.516987
    18  H    2.728555   4.276535   6.663644   6.661839   5.050661
    19  H    3.354244   4.330223   6.591756   6.502928   4.865596
    20  H    5.927898   4.274718   3.453686   3.574552   4.014201
    21  H    5.821084   4.250794   2.799252   2.408725   3.570081
    22  H    3.296268   2.805648   4.852302   5.716122   4.516441
    23  H    3.839701   4.000008   6.186310   7.109323   5.803240
    24  H    2.003495   3.862458   5.921605   4.976390   3.231663
    25  H    2.055222   2.680389   4.639554   4.084056   2.447365
    26  H    2.711689   3.281337   5.409138   6.290845   5.158909
    27  H    3.335152   2.550859   4.330228   5.871736   5.052371
    28  H    6.192595   3.996781   2.162967   4.021332   4.850101
    29  H    4.973886   2.779278   2.162864   3.966329   4.116657
    30  H    4.699362   2.579517   1.085001   3.766176   4.274123
    31  H    5.101404   3.311033   1.087367   2.606929   3.775462
                   16         17         18         19         20
    16  H    0.000000
    17  H    2.155318   0.000000
    18  H    4.013880   5.573301   0.000000
    19  H    4.849487   5.934500   1.753020   0.000000
    20  H    6.192712   4.851146   7.598598   6.714645   0.000000
    21  H    5.834745   4.027943   7.989801   7.429221   1.759184
    22  H    3.861297   4.811865   3.047703   2.460204   5.380650
    23  H    4.272226   5.820628   2.461831   2.546197   7.115733
    24  H    3.979656   4.645524   2.445215   2.519703   6.411792
    25  H    3.663118   3.940142   3.041680   2.442657   4.794945
    26  H    2.373552   4.418172   2.630629   3.789140   7.396617
    27  H    2.529179   4.045884   3.797757   4.303816   6.345168
    28  H    5.629198   4.277303   8.073792   7.604946   2.526390
    29  H    4.666068   3.854608   6.510634   5.951943   2.441430
    30  H    3.501791   2.526318   6.743262   6.823581   4.295615
    31  H    4.249626   2.394562   7.516338   7.503871   3.803916
                   21         22         23         24         25
    21  H    0.000000
    22  H    6.160958   0.000000
    23  H    7.805793   1.746354   0.000000
    24  H    6.569667   3.802644   4.288162   0.000000
    25  H    5.186191   2.655138   3.799557   1.753769   0.000000
    26  H    7.528783   3.048084   2.445799   4.052725   3.971268
    27  H    6.602336   2.478582   2.534798   4.843712   4.085326
    28  H    2.452608   5.661390   7.187128   7.360178   5.792434
    29  H    3.044886   3.941448   5.510454   6.033689   4.384982
    30  H    3.809035   4.866675   6.004780   6.373618   5.145995
    31  H    2.656348   5.896768   7.212533   6.568082   5.406979
                   26         27         28         29         30
    26  H    0.000000
    27  H    1.750444   0.000000
    28  H    7.015165   5.641469   0.000000
    29  H    5.640743   4.272063   1.749638   0.000000
    30  H    5.108861   3.866171   2.548090   2.471438   0.000000
    31  H    6.256413   5.290483   2.443920   3.049419   1.750413
                   31
    31  H    0.000000
 Stoichiometry    C10H18O3
 Framework group  C1[X(C10H18O3)]
 Deg. of freedom    87
 Full point group                 C1      NOp   1
 Largest Abelian subgroup         C1      NOp   1
 Largest concise Abelian subgroup C1      NOp   1
                         Standard orientation:                         
 ---------------------------------------------------------------------
 Center     Atomic      Atomic             Coordinates (Angstroms)
 Number     Number       Type             X           Y           Z
 ---------------------------------------------------------------------
      1          6           0       -1.559156    1.049971   -0.860638
      2          6           0        1.226210   -0.758005   -0.791152
      3          6           0       -1.154991   -0.416594   -0.929093
      4          6           0        3.127962    0.811914    0.727301
      5          6           0       -3.104991    0.688347    0.889124
      6          8           0       -1.979380    1.418013    0.436057
      7          6           0        2.659495   -0.532775    1.282362
      8          6           0        2.057213    1.404688   -0.172825
      9          6           0        2.227797   -1.439508    0.129344
     10          6           0       -2.801419   -0.800551    0.944644
     11          8           0        1.686663    0.501659   -1.206829
     12          8           0       -0.003767   -0.672793   -0.135675
     13          6           0       -2.297614   -1.289155   -0.415240
     14          1           0       -2.367977    1.223649   -1.567111
     15          1           0       -0.735864    1.698054   -1.116823
     16          1           0        1.102694   -1.322043   -1.705436
     17          1           0       -0.933943   -0.664749   -1.961306
     18          1           0        4.043750    0.676659    0.156449
     19          1           0        3.343383    1.512810    1.528825
     20          1           0       -3.348751    1.080077    1.867258
     21          1           0       -3.943093    0.883534    0.223221
     22          1           0        1.829982   -0.376688    1.967025
     23          1           0        3.452820   -1.010841    1.848713
     24          1           0        2.409946    2.293508   -0.677554
     25          1           0        1.179809    1.670327    0.406011
     26          1           0        3.095945   -1.695445   -0.472039
     27          1           0        1.797317   -2.367177    0.490456
     28          1           0       -3.700138   -1.339397    1.230612
     29          1           0       -2.055889   -0.985141    1.712464
     30          1           0       -1.973046   -2.323193   -0.363773
     31          1           0       -3.108111   -1.238967   -1.138388
 ---------------------------------------------------------------------
 Rotational constants (GHZ):           1.5280185           0.4951436           0.4656356
 Standard basis: 6-311++G(2d,2p) (5D, 7F)
 There are   557 symmetry adapted cartesian basis functions of A   symmetry.
 There are   531 symmetry adapted basis functions of A   symmetry.
   531 basis functions,   762 primitive gaussians,   557 cartesian basis functions
    51 alpha electrons       51 beta electrons
       nuclear repulsion energy       911.3341064352 Hartrees.
 NAtoms=   31 NActive=   31 NUniq=   31 SFac= 1.00D+00 NAtFMM=   60 NAOKFM=F Big=F
 Integral buffers will be    131072 words long.
 Raffenetti 2 integral format.
 Two-electron integral symmetry is turned on.
 ------------------------------------------------------------------------------
 Polarizable Continuum Model (PCM)
 =================================
 Model                : PCM.
 Atomic radii         : SMD-Coulomb.
 Polarization charges : Total charges.
 Charge compensation  : None.
 Solution method      : On-the-fly selection.
 Cavity type          : VdW (van der Waals Surface) (Alpha=1.000).
 Cavity algorithm     : GePol (No added spheres)
                        Default sphere list used, NSphG=   31.
                        Lebedev-Laikov grids with approx.  5.0 points / Ang**2.
                        Smoothing algorithm: York/Karplus (Gamma=1.0000).
                        Polarization charges: spherical gaussians, with
                                              point-specific exponents (IZeta= 3).
                        Self-potential: point-specific (ISelfS= 7).
                        Self-field    : sphere-specific E.n sum rule (ISelfD= 2).
 1st derivatives      : Analytical E(r).r(x)/FMM algorithm (CHGder, D1EAlg=3).
                        Cavity 1st derivative terms included.
 Solvent              : Water, Eps=  78.355300 Eps(inf)=   1.777849
 ------------------------------------------------------------------------------
 ------------------------------------------------------------------------------
 Atomic radii for non-electrostatic terms: SMD-CDS.
 ------------------------------------------------------------------------------
 Nuclear repulsion after PCM non-electrostatic terms =      911.3404196755 Hartrees.
 One-electron integrals computed using PRISM.
 NBasis=   531 RedAO= T EigKep=  4.10D-06  NBF=   531
 NBsUse=   531 1.00D-06 EigRej= -1.00D+00 NBFU=   531
 ExpMin= 3.60D-02 ExpMax= 8.59D+03 ExpMxC= 1.30D+03 IAcc=3 IRadAn=         5 AccDes= 0.00D+00
 Harris functional with IExCor= 1009 and IRadAn=       5 diagonalized for initial guess.
 HarFok:  IExCor= 1009 AccDes= 0.00D+00 IRadAn=         5 IDoV= 1 UseB2=F ITyADJ=14
 ICtDFT=  3500011 ScaDFX=  1.000000  1.000000  1.000000  1.000000
 FoFCou: FMM=F IPFlag=           0 FMFlag=      100000 FMFlg1=           0
         NFxFlg=           0 DoJE=T BraDBF=F KetDBF=T FulRan=T
         wScrn=  0.000000 ICntrl=       500 IOpCl=  0 I1Cent=   200000004 NGrid=           0
         NMat0=    1 NMatS0=      1 NMatT0=    0 NMatD0=    1 NMtDS0=    0 NMtDT0=    0
 Petite list used in FoFCou.
 Requested convergence on RMS density matrix=1.00D-08 within 128 cycles.
 Requested convergence on MAX density matrix=1.00D-06.
 Requested convergence on             energy=1.00D-06.
 No special actions if energy rises.
 Inv3:  Mode=1 IEnd=    12644427.
 Iteration    1 A*A^-1 deviation from unit magnitude is 8.10D-15 for    180.
 Iteration    1 A*A^-1 deviation from orthogonality  is 4.47D-15 for   1561    175.
 Iteration    1 A^-1*A deviation from unit magnitude is 7.55D-15 for    376.
 Iteration    1 A^-1*A deviation from orthogonality  is 8.29D-14 for   1582   1527.
 Error on total polarization charges =  0.06036
 SCF Done:  E(RM062X) =  -617.507001171     A.U. after   12 cycles
            NFock= 12  Conv=0.55D-08     -V/T= 2.0035
 SMD-CDS (non-electrostatic) energy       (kcal/mol) =       3.96
 (included in total energy above)

 **********************************************************************

            Population analysis using the SCF Density.

 **********************************************************************

 Orbital symmetries:
       Occupied  (A) (A) (A) (A) (A) (A) (A) (A) (A) (A) (A) (A)
                 (A) (A) (A) (A) (A) (A) (A) (A) (A) (A) (A) (A)
                 (A) (A) (A) (A) (A) (A) (A) (A) (A) (A) (A) (A)
                 (A) (A) (A) (A) (A) (A) (A) (A) (A) (A) (A) (A)
                 (A) (A) (A)
       Virtual   (A) (A) (A) (A) (A) (A) (A) (A) (A) (A) (A) (A)
                 (A) (A) (A) (A) (A) (A) (A) (A) (A) (A) (A) (A)
                 (A) (A) (A) (A) (A) (A) (A) (A) (A) (A) (A) (A)
                 (A) (A) (A) (A) (A) (A) (A) (A) (A) (A) (A) (A)
                 (A) (A) (A) (A) (A) (A) (A) (A) (A) (A) (A) (A)
                 (A) (A) (A) (A) (A) (A) (A) (A) (A) (A) (A) (A)
                 (A) (A) (A) (A) (A) (A) (A) (A) (A) (A) (A) (A)
                 (A) (A) (A) (A) (A) (A) (A) (A) (A) (A) (A) (A)
                 (A) (A) (A) (A) (A) (A) (A) (A) (A) (A) (A) (A)
                 (A) (A) (A) (A) (A) (A) (A) (A) (A) (A) (A) (A)
                 (A) (A) (A) (A) (A) (A) (A) (A) (A) (A) (A) (A)
                 (A) (A) (A) (A) (A) (A) (A) (A) (A) (A) (A) (A)
                 (A) (A) (A) (A) (A) (A) (A) (A) (A) (A) (A) (A)
                 (A) (A) (A) (A) (A) (A) (A) (A) (A) (A) (A) (A)
                 (A) (A) (A) (A) (A) (A) (A) (A) (A) (A) (A) (A)
                 (A) (A) (A) (A) (A) (A) (A) (A) (A) (A) (A) (A)
                 (A) (A) (A) (A) (A) (A) (A) (A) (A) (A) (A) (A)
                 (A) (A) (A) (A) (A) (A) (A) (A) (A) (A) (A) (A)
                 (A) (A) (A) (A) (A) (A) (A) (A) (A) (A) (A) (A)
                 (A) (A) (A) (A) (A) (A) (A) (A) (A) (A) (A) (A)
                 (A) (A) (A) (A) (A) (A) (A) (A) (A) (A) (A) (A)
                 (A) (A) (A) (A) (A) (A) (A) (A) (A) (A) (A) (A)
                 (A) (A) (A) (A) (A) (A) (A) (A) (A) (A) (A) (A)
                 (A) (A) (A) (A) (A) (A) (A) (A) (A) (A) (A) (A)
                 (A) (A) (A) (A) (A) (A) (A) (A) (A) (A) (A) (A)
                 (A) (A) (A) (A) (A) (A) (A) (A) (A) (A) (A) (A)
                 (A) (A) (A) (A) (A) (A) (A) (A) (A) (A) (A) (A)
                 (A) (A) (A) (A) (A) (A) (A) (A) (A) (A) (A) (A)
                 (A) (A) (A) (A) (A) (A) (A) (A) (A) (A) (A) (A)
                 (A) (A) (A) (A) (A) (A) (A) (A) (A) (A) (A) (A)
                 (A) (A) (A) (A) (A) (A) (A) (A) (A) (A) (A) (A)
                 (A) (A) (A) (A) (A) (A) (A) (A) (A) (A) (A) (A)
                 (A) (A) (A) (A) (A) (A) (A) (A) (A) (A) (A) (A)
                 (A) (A) (A) (A) (A) (A) (A) (A) (A) (A) (A) (A)
                 (A) (A) (A) (A) (A) (A) (A) (A) (A) (A) (A) (A)
                 (A) (A) (A) (A) (A) (A) (A) (A) (A) (A) (A) (A)
                 (A) (A) (A) (A) (A) (A) (A) (A) (A) (A) (A) (A)
                 (A) (A) (A) (A) (A) (A) (A) (A) (A) (A) (A) (A)
                 (A) (A) (A) (A) (A) (A) (A) (A) (A) (A) (A) (A)
                 (A) (A) (A) (A) (A) (A) (A) (A) (A) (A) (A) (A)
 The electronic state is 1-A.
 Alpha  occ. eigenvalues --  -19.62916 -19.62781 -19.62712 -10.62987 -10.58209
 Alpha  occ. eigenvalues --  -10.57132 -10.57101 -10.57072 -10.52432 -10.52294
 Alpha  occ. eigenvalues --  -10.52254 -10.52166 -10.52062  -1.20149  -1.16525
 Alpha  occ. eigenvalues --   -1.13480  -0.90457  -0.89139  -0.86843  -0.84253
 Alpha  occ. eigenvalues --   -0.74054  -0.73541  -0.72705  -0.71440  -0.65864
 Alpha  occ. eigenvalues --   -0.62439  -0.59815  -0.57709  -0.57429  -0.54992
 Alpha  occ. eigenvalues --   -0.54314  -0.53037  -0.51899  -0.50170  -0.49515
 Alpha  occ. eigenvalues --   -0.47840  -0.46845  -0.45503  -0.45242  -0.44527
 Alpha  occ. eigenvalues --   -0.43306  -0.42589  -0.40995  -0.39336  -0.38237
 Alpha  occ. eigenvalues --   -0.37887  -0.37177  -0.35703  -0.35456  -0.33050
 Alpha  occ. eigenvalues --   -0.31529
 Alpha virt. eigenvalues --    0.00347   0.01303   0.01342   0.01595   0.02696
 Alpha virt. eigenvalues --    0.03013   0.03147   0.03658   0.03890   0.05156
 Alpha virt. eigenvalues --    0.05315   0.05353   0.05693   0.06162   0.07854
 Alpha virt. eigenvalues --    0.08121   0.08511   0.08776   0.09271   0.09605
 Alpha virt. eigenvalues --    0.10150   0.11106   0.11809   0.12136   0.12613
 Alpha virt. eigenvalues --    0.12995   0.13397   0.13470   0.13725   0.14056
 Alpha virt. eigenvalues --    0.14209   0.14644   0.14958   0.15041   0.15180
 Alpha virt. eigenvalues --    0.15760   0.15804   0.16116   0.16258   0.16804
 Alpha virt. eigenvalues --    0.17026   0.17204   0.17838   0.18048   0.18416
 Alpha virt. eigenvalues --    0.18681   0.19094   0.19286   0.19638   0.19830
 Alpha virt. eigenvalues --    0.20509   0.20936   0.21183   0.21613   0.21961
 Alpha virt. eigenvalues --    0.22296   0.22634   0.23241   0.24599   0.24801
 Alpha virt. eigenvalues --    0.25226   0.25852   0.26367   0.27110   0.27904
 Alpha virt. eigenvalues --    0.28140   0.28465   0.28817   0.29543   0.29592
 Alpha virt. eigenvalues --    0.29944   0.30890   0.31292   0.32085   0.32527
 Alpha virt. eigenvalues --    0.33155   0.33882   0.34386   0.34554   0.35030
 Alpha virt. eigenvalues --    0.35301   0.35715   0.35821   0.36662   0.37025
 Alpha virt. eigenvalues --    0.37359   0.37743   0.37831   0.38488   0.39025
 Alpha virt. eigenvalues --    0.39107   0.39576   0.39919   0.40489   0.41462
 Alpha virt. eigenvalues --    0.42155   0.43423   0.43885   0.44320   0.45443
 Alpha virt. eigenvalues --    0.46950   0.48080   0.49977   0.51012   0.51664
 Alpha virt. eigenvalues --    0.52056   0.52686   0.53658   0.54800   0.56263
 Alpha virt. eigenvalues --    0.56778   0.58099   0.58988   0.60238   0.60501
 Alpha virt. eigenvalues --    0.61301   0.61480   0.61783   0.62078   0.62429
 Alpha virt. eigenvalues --    0.62903   0.63710   0.63919   0.64239   0.64705
 Alpha virt. eigenvalues --    0.64777   0.65932   0.67081   0.67393   0.67996
 Alpha virt. eigenvalues --    0.68750   0.68909   0.70037   0.70252   0.71405
 Alpha virt. eigenvalues --    0.71603   0.72311   0.72489   0.72820   0.73381
 Alpha virt. eigenvalues --    0.74554   0.75019   0.75524   0.75707   0.76663
 Alpha virt. eigenvalues --    0.77363   0.77847   0.78267   0.79153   0.80010
 Alpha virt. eigenvalues --    0.80561   0.82488   0.84099   0.85877   0.85908
 Alpha virt. eigenvalues --    0.86983   0.87347   0.88318   0.90128   0.90236
 Alpha virt. eigenvalues --    0.91381   0.93143   0.94719   0.95569   0.97312
 Alpha virt. eigenvalues --    0.98407   0.99016   1.00590   1.01253   1.02172
 Alpha virt. eigenvalues --    1.03245   1.04326   1.04655   1.06029   1.07244
 Alpha virt. eigenvalues --    1.08275   1.09949   1.11044   1.11967   1.12555
 Alpha virt. eigenvalues --    1.14157   1.14984   1.15694   1.16314   1.17281
 Alpha virt. eigenvalues --    1.18084   1.18956   1.20504   1.20847   1.21292
 Alpha virt. eigenvalues --    1.22066   1.22463   1.23333   1.24197   1.25538
 Alpha virt. eigenvalues --    1.25901   1.26582   1.26787   1.27838   1.28626
 Alpha virt. eigenvalues --    1.29729   1.29947   1.31397   1.31912   1.32907
 Alpha virt. eigenvalues --    1.33271   1.33664   1.34497   1.35251   1.36057
 Alpha virt. eigenvalues --    1.36459   1.37097   1.37603   1.38098   1.38535
 Alpha virt. eigenvalues --    1.39393   1.40224   1.40600   1.41379   1.41711
 Alpha virt. eigenvalues --    1.42779   1.43154   1.43721   1.45244   1.45782
 Alpha virt. eigenvalues --    1.46214   1.47088   1.47633   1.48403   1.48962
 Alpha virt. eigenvalues --    1.49352   1.50550   1.50649   1.51937   1.52185
 Alpha virt. eigenvalues --    1.52919   1.54471   1.55065   1.55903   1.56894
 Alpha virt. eigenvalues --    1.57225   1.58204   1.58351   1.58959   1.59580
 Alpha virt. eigenvalues --    1.60460   1.61192   1.61935   1.62432   1.63211
 Alpha virt. eigenvalues --    1.64402   1.65259   1.65795   1.66011   1.66996
 Alpha virt. eigenvalues --    1.67988   1.70174   1.71041   1.71904   1.72644
 Alpha virt. eigenvalues --    1.73683   1.74082   1.76816   1.77723   1.78476
 Alpha virt. eigenvalues --    1.80047   1.80640   1.81504   1.81997   1.83679
 Alpha virt. eigenvalues --    1.86054   1.89624   1.93885   1.96975   1.98335
 Alpha virt. eigenvalues --    2.06227   2.09069   2.12524   2.17831   2.22891
 Alpha virt. eigenvalues --    2.23786   2.27666   2.31495   2.33438   2.41466
 Alpha virt. eigenvalues --    2.41673   2.42815   2.45198   2.46873   2.50723
 Alpha virt. eigenvalues --    2.60579   2.77713   2.78574   2.80538   2.80925
 Alpha virt. eigenvalues --    2.83347   2.87282   2.92435   2.93852   2.94782
 Alpha virt. eigenvalues --    2.96491   2.97532   3.00527   3.01707   3.04698
 Alpha virt. eigenvalues --    3.07129   3.08171   3.10380   3.12088   3.12218
 Alpha virt. eigenvalues --    3.13922   3.16444   3.16957   3.19254   3.20875
 Alpha virt. eigenvalues --    3.24189   3.30278   3.31925   3.33571   3.34673
 Alpha virt. eigenvalues --    3.35995   3.37116   3.39619   3.40221   3.41812
 Alpha virt. eigenvalues --    3.42693   3.44651   3.44737   3.47207   3.47798
 Alpha virt. eigenvalues --    3.49204   3.50448   3.51323   3.51955   3.52464
 Alpha virt. eigenvalues --    3.53618   3.54002   3.54947   3.55636   3.57445
 Alpha virt. eigenvalues --    3.57983   3.58307   3.58758   3.59499   3.60435
 Alpha virt. eigenvalues --    3.61864   3.62093   3.64251   3.65058   3.66133
 Alpha virt. eigenvalues --    3.67362   3.67809   3.68562   3.69109   3.69516
 Alpha virt. eigenvalues --    3.70457   3.70995   3.71726   3.73148   3.74377
 Alpha virt. eigenvalues --    3.75211   3.75563   3.75687   3.78055   3.78573
 Alpha virt. eigenvalues --    3.79318   3.79983   3.81837   3.83072   3.84624
 Alpha virt. eigenvalues --    3.86678   3.89591   3.90694   3.92127   3.92896
 Alpha virt. eigenvalues --    3.93952   3.95078   3.95556   3.97140   3.99163
 Alpha virt. eigenvalues --    3.99591   4.00741   4.03277   4.04127   4.05002
 Alpha virt. eigenvalues --    4.06167   4.06320   4.07711   4.08264   4.08834
 Alpha virt. eigenvalues --    4.09080   4.09382   4.10586   4.11015   4.11711
 Alpha virt. eigenvalues --    4.11869   4.12769   4.14025   4.15821   4.16255
 Alpha virt. eigenvalues --    4.17336   4.17796   4.18388   4.18988   4.21614
 Alpha virt. eigenvalues --    4.22652   4.23487   4.26118   4.27141   4.28766
 Alpha virt. eigenvalues --    4.29345   4.31424   4.31699   4.32557   4.33023
 Alpha virt. eigenvalues --    4.33151   4.34082   4.35776   4.35811   4.37759
 Alpha virt. eigenvalues --    4.40705   4.44351   4.45691   4.47542   4.48372
 Alpha virt. eigenvalues --    4.58206   4.63122   4.74795   4.76545   4.82806
 Alpha virt. eigenvalues --    4.85756   4.94596   4.96440   5.00813   5.04048
 Alpha virt. eigenvalues --    5.07305   5.08133   5.08536   5.09070   5.12352
 Alpha virt. eigenvalues --    5.13619   5.14567   5.15157   5.33158   5.38723
 Alpha virt. eigenvalues --    5.43794   5.57371   5.60941   5.63955   5.86696
 Alpha virt. eigenvalues --    5.87954   6.08953   7.01694   7.04487   7.07203
 Alpha virt. eigenvalues --    7.09749   7.10760   7.12963   7.15421   7.19442
 Alpha virt. eigenvalues --    7.27761   7.36544   7.38905   7.44044   7.53231
 Alpha virt. eigenvalues --    7.55190   7.66821  23.96567  23.98883  24.07117
 Alpha virt. eigenvalues --   24.08292  24.11161  24.12316  24.14792  24.15946
 Alpha virt. eigenvalues --   24.16843  24.22266  50.14848  50.18872  50.25785
          Condensed to atoms (all electrons):
               1          2          3          4          5          6
     1  C    6.993566   0.357516  -1.323773   0.007689  -0.353764   0.139908
     2  C    0.357516   6.973957  -1.007858   0.084106  -0.039221  -0.002730
     3  C   -1.323773  -1.007858   8.045999   0.021431   0.328781  -0.010155
     4  C    0.007689   0.084106   0.021431   5.956507  -0.006756   0.002683
     5  C   -0.353764  -0.039221   0.328781  -0.006756   5.471168   0.059410
     6  O    0.139908  -0.002730  -0.010155   0.002683   0.059410   8.305101
     7  C   -0.009845  -0.042011  -0.022457  -0.088870   0.001155   0.001683
     8  C   -0.113527  -0.422962   0.184578  -0.204667   0.017559  -0.013902
     9  C   -0.070804  -0.882063   0.254782  -0.032011   0.012695   0.001721
    10  C    0.138933   0.101168  -0.400974   0.005717  -0.019660   0.033970
    11  O   -0.060051   0.319338   0.036548  -0.072272   0.000333  -0.004410
    12  O   -0.107607   0.130761   0.032047  -0.020006  -0.009400   0.042261
    13  C    0.109725   0.144481  -0.606917   0.019101  -0.051855  -0.021333
    14  H    0.462465   0.008103  -0.059217   0.004591  -0.009023  -0.040770
    15  H    0.453042   0.012578  -0.059233  -0.023018   0.006194  -0.071543
    16  H    0.010570   0.532488  -0.041899   0.005064   0.003602  -0.000919
    17  H   -0.021919  -0.049471   0.470410   0.008720  -0.008873   0.007085
    18  H    0.005812   0.031731  -0.010821   0.486451  -0.000342  -0.000075
    19  H    0.000821  -0.007802   0.001162   0.436658   0.000135  -0.000002
    20  H   -0.006306  -0.002599   0.013413   0.000039   0.450069  -0.064062
    21  H   -0.038611   0.000084   0.039260   0.000037   0.468256  -0.056889
    22  H    0.010451  -0.012353  -0.014235  -0.060141  -0.001316   0.000224
    23  H   -0.001988   0.012178   0.003115  -0.025119   0.000303   0.000146
    24  H   -0.003054  -0.010064   0.011076  -0.006963   0.001072   0.000117
    25  H   -0.015567   0.017644  -0.029655  -0.066671  -0.005242   0.006997
    26  H   -0.004738  -0.151778   0.007805  -0.006691   0.000114   0.000070
    27  H    0.004705  -0.015243  -0.002662  -0.011237   0.000837   0.000357
    28  H   -0.007367   0.004441  -0.001591   0.000355  -0.027964   0.010122
    29  H    0.028374  -0.001392  -0.036314   0.004933  -0.091068  -0.014927
    30  H   -0.016702  -0.002323   0.024195  -0.000771   0.001503  -0.000991
    31  H    0.005487  -0.002420  -0.089233  -0.000574  -0.009001  -0.000182
               7          8          9         10         11         12
     1  C   -0.009845  -0.113527  -0.070804   0.138933  -0.060051  -0.107607
     2  C   -0.042011  -0.422962  -0.882063   0.101168   0.319338   0.130761
     3  C   -0.022457   0.184578   0.254782  -0.400974   0.036548   0.032047
     4  C   -0.088870  -0.204667  -0.032011   0.005717  -0.072272  -0.020006
     5  C    0.001155   0.017559   0.012695  -0.019660   0.000333  -0.009400
     6  O    0.001683  -0.013902   0.001721   0.033970  -0.004410   0.042261
     7  C    5.745792   0.049245  -0.166594  -0.014497  -0.007419   0.004625
     8  C    0.049245   5.595633   0.165577  -0.007754   0.101775   0.022159
     9  C   -0.166594   0.165577   6.589961  -0.007303  -0.083668  -0.038167
    10  C   -0.014497  -0.007754  -0.007303   5.674633   0.000165   0.006786
    11  O   -0.007419   0.101775  -0.083668   0.000165   8.257258  -0.038024
    12  O    0.004625   0.022159  -0.038167   0.006786  -0.038024   8.389740
    13  C    0.020663  -0.018296  -0.117131  -0.040238   0.013843  -0.086708
    14  H   -0.002827  -0.007449   0.006494   0.024369   0.001498   0.011130
    15  H    0.005208   0.024394  -0.017086   0.007159  -0.001254  -0.011719
    16  H   -0.003929  -0.025624  -0.074888  -0.003590  -0.039854  -0.031829
    17  H   -0.004271   0.002257   0.006612  -0.025732  -0.011074  -0.022499
    18  H   -0.022809  -0.093024  -0.030843   0.000203   0.001773  -0.001041
    19  H   -0.039521  -0.032911   0.003177  -0.000283   0.010302   0.001147
    20  H   -0.000353   0.000631   0.002100  -0.066803   0.000140   0.001169
    21  H    0.000055  -0.000037  -0.000519  -0.010857  -0.000100   0.001599
    22  H    0.512095  -0.005719  -0.047749   0.000696   0.002941   0.000401
    23  H    0.422295   0.011721  -0.047358  -0.001222  -0.004389   0.001255
    24  H    0.007217   0.427615  -0.000915  -0.000287  -0.069049  -0.000336
    25  H    0.005226   0.454833   0.000373   0.010203  -0.025406   0.014920
    26  H   -0.016178   0.009073   0.540495   0.000546  -0.008319   0.009965
    27  H   -0.030504   0.011480   0.416931   0.000915   0.008491  -0.006185
    28  H   -0.000486   0.000135  -0.001511   0.444067   0.000029   0.001245
    29  H   -0.000054  -0.005693   0.001573   0.518334   0.000497   0.000245
    30  H    0.001060   0.002097  -0.003138  -0.016007   0.000073   0.001898
    31  H    0.000971   0.000422   0.001999  -0.031191  -0.000247   0.004623
              13         14         15         16         17         18
     1  C    0.109725   0.462465   0.453042   0.010570  -0.021919   0.005812
     2  C    0.144481   0.008103   0.012578   0.532488  -0.049471   0.031731
     3  C   -0.606917  -0.059217  -0.059233  -0.041899   0.470410  -0.010821
     4  C    0.019101   0.004591  -0.023018   0.005064   0.008720   0.486451
     5  C   -0.051855  -0.009023   0.006194   0.003602  -0.008873  -0.000342
     6  O   -0.021333  -0.040770  -0.071543  -0.000919   0.007085  -0.000075
     7  C    0.020663  -0.002827   0.005208  -0.003929  -0.004271  -0.022809
     8  C   -0.018296  -0.007449   0.024394  -0.025624   0.002257  -0.093024
     9  C   -0.117131   0.006494  -0.017086  -0.074888   0.006612  -0.030843
    10  C   -0.040238   0.024369   0.007159  -0.003590  -0.025732   0.000203
    11  O    0.013843   0.001498  -0.001254  -0.039854  -0.011074   0.001773
    12  O   -0.086708   0.011130  -0.011719  -0.031829  -0.022499  -0.001041
    13  C    6.340652  -0.029094   0.001018   0.012750  -0.011658   0.000527
    14  H   -0.029094   0.450232  -0.014148   0.000400  -0.005633   0.000206
    15  H    0.001018  -0.014148   0.458238  -0.001354  -0.003936   0.000088
    16  H    0.012750   0.000400  -0.001354   0.420979   0.000580   0.002181
    17  H   -0.011658  -0.005633  -0.003936   0.000580   0.431681  -0.000915
    18  H    0.000527   0.000206   0.000088   0.002181  -0.000915   0.479209
    19  H   -0.000132  -0.000196   0.000533   0.000286   0.000274  -0.012387
    20  H    0.017226  -0.001762   0.000381   0.000010   0.000276  -0.000011
    21  H   -0.046217   0.004371  -0.001606  -0.000274   0.000707  -0.000006
    22  H    0.001656   0.000463  -0.000422  -0.001840  -0.000182   0.001927
    23  H   -0.000111  -0.000092   0.000129   0.001437  -0.000025  -0.002132
    24  H    0.000628   0.000057  -0.002454  -0.000650   0.000692  -0.009032
    25  H   -0.003510   0.001829  -0.006020   0.000741  -0.003903   0.005400
    26  H    0.002574   0.000171  -0.000662  -0.011640   0.001621  -0.003885
    27  H   -0.009024  -0.000225   0.000532  -0.007343  -0.001808  -0.002156
    28  H   -0.046439  -0.000591   0.000888  -0.000142   0.000339  -0.000007
    29  H   -0.027445  -0.000154  -0.000780   0.000097  -0.000420   0.000117
    30  H    0.384065  -0.001363   0.000520  -0.003257  -0.005160  -0.000107
    31  H    0.502945  -0.004221  -0.000651   0.000856  -0.006717  -0.000007
              19         20         21         22         23         24
     1  C    0.000821  -0.006306  -0.038611   0.010451  -0.001988  -0.003054
     2  C   -0.007802  -0.002599   0.000084  -0.012353   0.012178  -0.010064
     3  C    0.001162   0.013413   0.039260  -0.014235   0.003115   0.011076
     4  C    0.436658   0.000039   0.000037  -0.060141  -0.025119  -0.006963
     5  C    0.000135   0.450069   0.468256  -0.001316   0.000303   0.001072
     6  O   -0.000002  -0.064062  -0.056889   0.000224   0.000146   0.000117
     7  C   -0.039521  -0.000353   0.000055   0.512095   0.422295   0.007217
     8  C   -0.032911   0.000631  -0.000037  -0.005719   0.011721   0.427615
     9  C    0.003177   0.002100  -0.000519  -0.047749  -0.047358  -0.000915
    10  C   -0.000283  -0.066803  -0.010857   0.000696  -0.001222  -0.000287
    11  O    0.010302   0.000140  -0.000100   0.002941  -0.004389  -0.069049
    12  O    0.001147   0.001169   0.001599   0.000401   0.001255  -0.000336
    13  C   -0.000132   0.017226  -0.046217   0.001656  -0.000111   0.000628
    14  H   -0.000196  -0.001762   0.004371   0.000463  -0.000092   0.000057
    15  H    0.000533   0.000381  -0.001606  -0.000422   0.000129  -0.002454
    16  H    0.000286   0.000010  -0.000274  -0.001840   0.001437  -0.000650
    17  H    0.000274   0.000276   0.000707  -0.000182  -0.000025   0.000692
    18  H   -0.012387  -0.000011  -0.000006   0.001927  -0.002132  -0.009032
    19  H    0.479339  -0.000057   0.000018  -0.005122  -0.005385  -0.008617
    20  H   -0.000057   0.465518  -0.003657   0.000156   0.000040   0.000027
    21  H    0.000018  -0.003657   0.477711  -0.000112  -0.000013  -0.000008
    22  H   -0.005122   0.000156  -0.000112   0.460029  -0.007528  -0.002716
    23  H   -0.005385   0.000040  -0.000013  -0.007528   0.460881   0.001654
    24  H   -0.008617   0.000027  -0.000008  -0.002716   0.001654   0.466895
    25  H   -0.001026   0.000064   0.000302  -0.000022  -0.001861  -0.022384
    26  H   -0.002232   0.000012   0.000010   0.001731  -0.002479   0.000730
    27  H    0.001500   0.000012  -0.000009  -0.002408  -0.007700   0.000834
    28  H   -0.000001  -0.009979   0.005200   0.000282  -0.000091   0.000019
    29  H    0.000040  -0.002181  -0.000695  -0.002682   0.000459  -0.000085
    30  H    0.000036   0.000817  -0.000130  -0.000196  -0.000036   0.000124
    31  H    0.000027  -0.001477  -0.004089  -0.000123   0.000118   0.000001
              25         26         27         28         29         30
     1  C   -0.015567  -0.004738   0.004705  -0.007367   0.028374  -0.016702
     2  C    0.017644  -0.151778  -0.015243   0.004441  -0.001392  -0.002323
     3  C   -0.029655   0.007805  -0.002662  -0.001591  -0.036314   0.024195
     4  C   -0.066671  -0.006691  -0.011237   0.000355   0.004933  -0.000771
     5  C   -0.005242   0.000114   0.000837  -0.027964  -0.091068   0.001503
     6  O    0.006997   0.000070   0.000357   0.010122  -0.014927  -0.000991
     7  C    0.005226  -0.016178  -0.030504  -0.000486  -0.000054   0.001060
     8  C    0.454833   0.009073   0.011480   0.000135  -0.005693   0.002097
     9  C    0.000373   0.540495   0.416931  -0.001511   0.001573  -0.003138
    10  C    0.010203   0.000546   0.000915   0.444067   0.518334  -0.016007
    11  O   -0.025406  -0.008319   0.008491   0.000029   0.000497   0.000073
    12  O    0.014920   0.009965  -0.006185   0.001245   0.000245   0.001898
    13  C   -0.003510   0.002574  -0.009024  -0.046439  -0.027445   0.384065
    14  H    0.001829   0.000171  -0.000225  -0.000591  -0.000154  -0.001363
    15  H   -0.006020  -0.000662   0.000532   0.000888  -0.000780   0.000520
    16  H    0.000741  -0.011640  -0.007343  -0.000142   0.000097  -0.003257
    17  H   -0.003903   0.001621  -0.001808   0.000339  -0.000420  -0.005160
    18  H    0.005400  -0.003885  -0.002156  -0.000007   0.000117  -0.000107
    19  H   -0.001026  -0.002232   0.001500  -0.000001   0.000040   0.000036
    20  H    0.000064   0.000012   0.000012  -0.009979  -0.002181   0.000817
    21  H    0.000302   0.000010  -0.000009   0.005200  -0.000695  -0.000130
    22  H   -0.000022   0.001731  -0.002408   0.000282  -0.002682  -0.000196
    23  H   -0.001861  -0.002479  -0.007700  -0.000091   0.000459  -0.000036
    24  H   -0.022384   0.000730   0.000834   0.000019  -0.000085   0.000124
    25  H    0.506528  -0.000092  -0.000975   0.000334  -0.000339   0.000089
    26  H   -0.000092   0.439973  -0.004897   0.000110  -0.000107   0.000050
    27  H   -0.000975  -0.004897   0.468137  -0.000157  -0.000871   0.000046
    28  H    0.000334   0.000110  -0.000157   0.468064  -0.011490  -0.007144
    29  H   -0.000339  -0.000107  -0.000871  -0.011490   0.471550  -0.003577
    30  H    0.000089   0.000050   0.000046  -0.007144  -0.003577   0.461480
    31  H   -0.000283  -0.000077   0.000022  -0.005764   0.002839   0.001321
              31
     1  C    0.005487
     2  C   -0.002420
     3  C   -0.089233
     4  C   -0.000574
     5  C   -0.009001
     6  O   -0.000182
     7  C    0.000971
     8  C    0.000422
     9  C    0.001999
    10  C   -0.031191
    11  O   -0.000247
    12  O    0.004623
    13  C    0.502945
    14  H   -0.004221
    15  H   -0.000651
    16  H    0.000856
    17  H   -0.006717
    18  H   -0.000007
    19  H    0.000027
    20  H   -0.001477
    21  H   -0.004089
    22  H   -0.000123
    23  H    0.000118
    24  H    0.000001
    25  H   -0.000283
    26  H   -0.000077
    27  H    0.000022
    28  H   -0.005764
    29  H    0.002839
    30  H    0.001321
    31  H    0.427161
 Mulliken charges:
               1
     1  C   -0.573439
     2  C   -0.078285
     3  C    0.242394
     4  C   -0.418312
     5  C   -0.189699
     6  O   -0.308964
     7  C   -0.304663
     8  C   -0.129621
     9  C   -0.382742
    10  C   -0.321465
    11  O   -0.329469
    12  O   -0.304453
    13  C   -0.455745
    14  H    0.200390
    15  H    0.244985
    16  H    0.256992
    17  H    0.252943
    18  H    0.173977
    19  H    0.180218
    20  H    0.207151
    21  H    0.166219
    22  H    0.171815
    23  H    0.191800
    24  H    0.217856
    25  H    0.157475
    26  H    0.198725
    27  H    0.188607
    28  H    0.185098
    29  H    0.171216
    30  H    0.181530
    31  H    0.207468
 Sum of Mulliken charges =  -0.00000
 Mulliken charges with hydrogens summed into heavy atoms:
               1
     1  C   -0.128064
     2  C    0.178707
     3  C    0.495337
     4  C   -0.064117
     5  C    0.183671
     6  O   -0.308964
     7  C    0.058952
     8  C    0.245710
     9  C    0.004590
    10  C    0.034848
    11  O   -0.329469
    12  O   -0.304453
    13  C   -0.066747
 Electronic spatial extent (au):  <R**2>=           2696.3356
 Charge=              0.0000 electrons
 Dipole moment (field-independent basis, Debye):
    X=             -0.8619    Y=             -2.0047    Z=             -0.6726  Tot=              2.2834
 Quadrupole moment (field-independent basis, Debye-Ang):
   XX=            -67.9041   YY=            -79.9090   ZZ=            -79.4081
   XY=              2.7465   XZ=              4.8649   YZ=              0.9516
 Traceless Quadrupole moment (field-independent basis, Debye-Ang):
   XX=              7.8363   YY=             -4.1686   ZZ=             -3.6677
   XY=              2.7465   XZ=              4.8649   YZ=              0.9516
 Octapole moment (field-independent basis, Debye-Ang**2):
  XXX=            -20.3552  YYY=             -2.1969  ZZZ=              0.0658  XYY=             12.7862
  XXY=             -4.2037  XXZ=              8.3105  XZZ=            -11.4647  YZZ=             -1.9701
  YYZ=             -6.4640  XYZ=              4.9768
 Hexadecapole moment (field-independent basis, Debye-Ang**3):
 XXXX=          -2364.0952 YYYY=           -637.4130 ZZZZ=           -464.5549 XXXY=             -2.3308
 XXXZ=             -7.5681 YYYX=             21.1037 YYYZ=             -7.5234 ZZZX=             -0.3622
 ZZZY=             13.3450 XXYY=           -516.0186 XXZZ=           -484.2765 YYZZ=           -179.0093
 XXYZ=              1.1796 YYXZ=             -0.4442 ZZXY=            -10.4053
 N-N= 9.113404196755D+02 E-N=-3.265321070814D+03  KE= 6.153636436379D+02
 D1PCM: PCM CHGder 1st derivatives, ID1Alg=3 FixD1E=F DoIter=F DoCFld=F I1PDM=0.
 Calling FoFJK, ICntrl=      2127 FMM=F ISym2X=0 I1Cent= 0 IOpClX= 0 NMat=1 NMatS=1 NMatT=0.
 ***** Axes restored to original set *****
 -------------------------------------------------------------------
 Center     Atomic                   Forces (Hartrees/Bohr)
 Number     Number              X              Y              Z
 -------------------------------------------------------------------
      1        6          -0.001466782   -0.006444082   -0.000256837
      2        6           0.004091630   -0.002318201    0.005342873
      3        6          -0.003083658    0.001675273    0.000174043
      4        6          -0.003066218   -0.000926266    0.000483357
      5        6           0.001108596   -0.006917826   -0.001520909
      6        8           0.006531059    0.008092921    0.006951459
      7        6          -0.000200512    0.001228545   -0.004110077
      8        6           0.003747875   -0.004429896    0.004419130
      9        6          -0.001087618    0.002424212    0.001789667
     10        6          -0.000470015    0.001477920   -0.003036567
     11        8           0.001306144    0.004847587   -0.013350265
     12        8          -0.002806811   -0.001367904    0.014144126
     13        6           0.000479921    0.003120696    0.001712585
     14        1          -0.004159091    0.000078531   -0.004103342
     15        1           0.005845284    0.002930998   -0.001183284
     16        1          -0.000623443   -0.003351804   -0.006392663
     17        1           0.001155437   -0.001159829   -0.005734359
     18        1           0.002323274   -0.000753855   -0.002354216
     19        1           0.000403538    0.001732543    0.002089204
     20        1          -0.000935946    0.001410440    0.004166440
     21        1          -0.004318873    0.000031059   -0.003833096
     22        1          -0.003323800    0.000817608    0.001612158
     23        1           0.001937221   -0.001189830    0.001171921
     24        1           0.001456539    0.003735355   -0.001961105
     25        1          -0.005636651    0.001150097    0.004204971
     26        1           0.002511006   -0.000094941   -0.002201094
     27        1          -0.001638975   -0.002583887    0.001023483
     28        1          -0.002227463   -0.001389776    0.000618543
     29        1           0.003068063   -0.000006908    0.002247193
     30        1           0.001529088   -0.002725987    0.000134592
     31        1          -0.002448819    0.000907207   -0.002247932
 -------------------------------------------------------------------
 Cartesian Forces:  Max     0.014144126 RMS     0.003651882

 GradGradGradGradGradGradGradGradGradGradGradGradGradGradGradGradGradGrad
 Berny optimization.
 FormGI is forming the generalized inverse of G from B-inverse, IUseBI=4.
 Internal  Forces:  Max     0.011341472 RMS     0.002210866
 Search for a local minimum.
 Step number   1 out of a maximum of  186
 All quantities printed in internal units (Hartrees-Bohrs-Radians)
 Mixed Optimization -- RFO/linear search
 Second derivative matrix not updated -- first step.
 ITU=  0
     Eigenvalues ---    0.00617   0.00630   0.00728   0.00728   0.01405
     Eigenvalues ---    0.01437   0.01740   0.02698   0.02818   0.03080
     Eigenvalues ---    0.03110   0.04095   0.04357   0.04673   0.04753
     Eigenvalues ---    0.04888   0.04889   0.05041   0.05141   0.05152
     Eigenvalues ---    0.05271   0.05697   0.05739   0.06183   0.06186
     Eigenvalues ---    0.06284   0.06651   0.06939   0.07573   0.07837
     Eigenvalues ---    0.07937   0.07939   0.07963   0.08137   0.08263
     Eigenvalues ---    0.08833   0.09262   0.09332   0.10720   0.11617
     Eigenvalues ---    0.11701   0.11714   0.11763   0.12407   0.12527
     Eigenvalues ---    0.14590   0.14766   0.15660   0.16524   0.17510
     Eigenvalues ---    0.19208   0.21335   0.21975   0.25000   0.28471
     Eigenvalues ---    0.28670   0.28769   0.28884   0.28967   0.29022
     Eigenvalues ---    0.30212   0.30334   0.35034   0.35060   0.35094
     Eigenvalues ---    0.35119   0.35181   0.35201   0.35241   0.35256
     Eigenvalues ---    0.35277   0.35319   0.35397   0.35448   0.35469
     Eigenvalues ---    0.35494   0.35815   0.35832   0.35840   0.36160
     Eigenvalues ---    0.40804   0.41451   0.42187   0.42246   0.43432
     Eigenvalues ---    0.462331000.000001000.000001000.000001000.00000
     Eigenvalues --- 1000.000001000.000001000.000001000.000001000.00000
     Eigenvalues --- 1000.000001000.000001000.000001000.000001000.00000
     Eigenvalues --- 1000.000001000.000001000.000001000.000001000.00000
     Eigenvalues --- 1000.000001000.000001000.000001000.000001000.00000
     Eigenvalues --- 1000.000001000.000001000.000001000.000001000.00000
     Eigenvalues --- 1000.000001000.000001000.000001000.000001000.00000
     Eigenvalues --- 1000.000001000.000001000.000001000.000001000.00000
     Eigenvalues --- 1000.000001000.000001000.000001000.000001000.00000
     Eigenvalues --- 1000.000001000.000001000.000001000.000001000.00000
     Eigenvalues --- 1000.000001000.000001000.000001000.000001000.00000
     Eigenvalues --- 1000.000001000.000001000.000001000.000001000.00000
     Eigenvalues --- 1000.000001000.000001000.000001000.000001000.00000
     Eigenvalues --- 1000.000001000.000001000.000001000.000001000.00000
     Eigenvalues --- 1000.000001000.000001000.000001000.000001000.00000
     Eigenvalues --- 1000.000001000.000001000.000001000.000001000.00000
     Eigenvalues --- 1000.000001000.000001000.000001000.000001000.00000
     Eigenvalues --- 1000.000001000.000001000.000001000.000001000.00000
     Eigenvalues --- 1000.000001000.000001000.000001000.000001000.00000
     Eigenvalues --- 1000.000001000.000001000.000001000.000001000.00000
 RFO step:  Lambda=-4.04097158D-03 EMin= 6.17381739D-03
 Linear search not attempted -- first point.
 Iteration  1 RMS(Cart)=  0.08142748 RMS(Int)=  0.00147368
 Iteration  2 RMS(Cart)=  0.00337664 RMS(Int)=  0.00005087
 Iteration  3 RMS(Cart)=  0.00000338 RMS(Int)=  0.00005082
 Iteration  4 RMS(Cart)=  0.00000000 RMS(Int)=  0.00005082
 Iteration  1 RMS(Cart)=  0.00000706 RMS(Int)=  0.00000160
 Iteration  2 RMS(Cart)=  0.00000392 RMS(Int)=  0.00000179
 Iteration  3 RMS(Cart)=  0.00000218 RMS(Int)=  0.00000202
 Iteration  4 RMS(Cart)=  0.00000121 RMS(Int)=  0.00000218
 Iteration  5 RMS(Cart)=  0.00000067 RMS(Int)=  0.00000228
 Variable       Old X    -DE/DX   Delta X   Delta X   Delta X     New X
                                 (Linear)    (Quad)   (Total)
    R1        2.87763  -0.00080   0.00000  -0.00293  -0.00291   2.87472
    R2        2.66810   0.00588   0.00000   0.01407   0.01409   2.68219
    R3        2.05577   0.00577   0.00000   0.01628   0.01628   2.07205
    R4        2.03832   0.00650   0.00000   0.01778   0.01778   2.05611
    R5        2.87520  -0.00144   0.00000  -0.00467  -0.00468   2.87052
    R6        2.65341   0.00765   0.00000   0.01678   0.01678   2.67019
    R7        2.63869   0.00576   0.00000   0.01236   0.01236   2.65105
    R8        2.04345   0.00722   0.00000   0.01993   0.01993   2.06338
    R9        2.68612   0.00302   0.00000   0.00707   0.00707   2.69319
   R10        2.88516  -0.00168   0.00000  -0.00632  -0.00634   2.87882
   R11        2.04920   0.00596   0.00000   0.01662   0.01662   2.06582
   R12        2.88809  -0.00075   0.00000  -0.00236  -0.00237   2.88573
   R13        2.87096  -0.00053   0.00000  -0.00176  -0.00175   2.86921
   R14        2.05523   0.00328   0.00000   0.00925   0.00925   2.06448
   R15        2.05286   0.00274   0.00000   0.00769   0.00769   2.06055
   R16        2.67560   0.00656   0.00000   0.01558   0.01560   2.69120
   R17        2.87341  -0.00059   0.00000  -0.00152  -0.00153   2.87188
   R18        2.04372   0.00449   0.00000   0.01238   0.01238   2.05610
   R19        2.05619   0.00568   0.00000   0.01604   0.01604   2.07223
   R20        2.88948  -0.00106   0.00000  -0.00358  -0.00359   2.88589
   R21        2.05383   0.00367   0.00000   0.01032   0.01032   2.06415
   R22        2.05161   0.00255   0.00000   0.00714   0.00714   2.05874
   R23        2.68709   0.00531   0.00000   0.01248   0.01249   2.69958
   R24        2.04333   0.00446   0.00000   0.01231   0.01231   2.05564
   R25        2.04881   0.00709   0.00000   0.01975   0.01975   2.06855
   R26        2.05350   0.00324   0.00000   0.00911   0.00911   2.06261
   R27        2.04953   0.00320   0.00000   0.00893   0.00893   2.05846
   R28        2.89186  -0.00093   0.00000  -0.00417  -0.00419   2.88767
   R29        2.05262   0.00270   0.00000   0.00756   0.00756   2.06018
   R30        2.05228   0.00370   0.00000   0.01036   0.01036   2.06263
   R31        2.05036   0.00307   0.00000   0.00856   0.00856   2.05892
   R32        2.05483   0.00336   0.00000   0.00946   0.00946   2.06428
    A1        1.95124   0.00025   0.00000  -0.00217  -0.00216   1.94907
    A2        1.89853  -0.00091   0.00000  -0.00167  -0.00172   1.89681
    A3        1.94486  -0.00097   0.00000  -0.01186  -0.01187   1.93299
    A4        1.91083   0.00120   0.00000   0.01154   0.01154   1.92237
    A5        1.86365  -0.00029   0.00000  -0.00208  -0.00217   1.86147
    A6        1.89370   0.00080   0.00000   0.00695   0.00693   1.90063
    A7        1.94450   0.00299   0.00000   0.01013   0.00983   1.95433
    A8        1.89990  -0.00201   0.00000  -0.01234  -0.01230   1.88760
    A9        1.93166   0.00041   0.00000   0.01145   0.01149   1.94315
   A10        1.95313  -0.00125   0.00000  -0.01656  -0.01645   1.93668
   A11        1.82874  -0.00184   0.00000  -0.00726  -0.00728   1.82146
   A12        1.90511   0.00177   0.00000   0.01564   0.01564   1.92074
   A13        1.94277  -0.00248   0.00000  -0.01833  -0.01829   1.92448
   A14        1.91415   0.00135   0.00000   0.00660   0.00652   1.92067
   A15        1.89367  -0.00017   0.00000   0.00041   0.00042   1.89408
   A16        1.89152   0.00108   0.00000   0.00273   0.00278   1.89431
   A17        1.90179   0.00092   0.00000   0.00712   0.00707   1.90886
   A18        1.91999  -0.00070   0.00000   0.00155   0.00153   1.92152
   A19        1.92031  -0.00036   0.00000  -0.00242  -0.00263   1.91768
   A20        1.91699   0.00075   0.00000   0.00123   0.00132   1.91830
   A21        1.93959  -0.00057   0.00000  -0.00097  -0.00096   1.93864
   A22        1.90816  -0.00014   0.00000  -0.00280  -0.00275   1.90541
   A23        1.90199   0.00013   0.00000   0.00027   0.00035   1.90234
   A24        1.87605   0.00020   0.00000   0.00479   0.00476   1.88081
   A25        1.93648   0.00085   0.00000   0.00649   0.00639   1.94287
   A26        1.85660  -0.00086   0.00000  -0.00275  -0.00271   1.85389
   A27        1.90082   0.00089   0.00000   0.00469   0.00476   1.90558
   A28        1.94620  -0.00043   0.00000  -0.00380  -0.00379   1.94241
   A29        1.93026  -0.00098   0.00000  -0.00736  -0.00733   1.92293
   A30        1.89117   0.00056   0.00000   0.00307   0.00304   1.89421
   A31        1.97813  -0.00450   0.00000  -0.02599  -0.02589   1.95224
   A32        1.91180   0.00269   0.00000   0.00142   0.00143   1.91323
   A33        1.91387  -0.00130   0.00000  -0.00334  -0.00340   1.91047
   A34        1.93148  -0.00035   0.00000   0.00130   0.00135   1.93282
   A35        1.92273  -0.00094   0.00000  -0.00437  -0.00438   1.91835
   A36        1.91618  -0.00090   0.00000   0.00023   0.00024   1.91641
   A37        1.86746   0.00073   0.00000   0.00473   0.00474   1.87220
   A38        1.94627   0.00152   0.00000   0.00264   0.00255   1.94882
   A39        1.94698  -0.00009   0.00000  -0.00163  -0.00155   1.94543
   A40        1.92799  -0.00107   0.00000  -0.00334  -0.00338   1.92461
   A41        1.84170  -0.00102   0.00000  -0.00084  -0.00085   1.84085
   A42        1.91022   0.00024   0.00000   0.00108   0.00116   1.91138
   A43        1.88790   0.00043   0.00000   0.00228   0.00227   1.89017
   A44        1.95676  -0.00158   0.00000  -0.01417  -0.01431   1.94245
   A45        1.87192  -0.00021   0.00000   0.00159   0.00161   1.87353
   A46        1.89998   0.00076   0.00000  -0.00148  -0.00145   1.89853
   A47        1.90862   0.00140   0.00000   0.00888   0.00895   1.91757
   A48        1.94788  -0.00032   0.00000  -0.00092  -0.00101   1.94687
   A49        1.87539   0.00002   0.00000   0.00707   0.00704   1.88244
   A50        1.92402   0.00032   0.00000  -0.00475  -0.00481   1.91921
   A51        1.90730   0.00042   0.00000   0.00207   0.00212   1.90941
   A52        1.90636  -0.00077   0.00000  -0.00250  -0.00252   1.90384
   A53        1.92619  -0.00079   0.00000  -0.00042  -0.00042   1.92577
   A54        1.92623   0.00051   0.00000   0.00083   0.00084   1.92708
   A55        1.87291   0.00030   0.00000   0.00503   0.00502   1.87793
   A56        2.02630  -0.00596   0.00000  -0.03674  -0.03664   1.98965
   A57        2.05148  -0.01134   0.00000  -0.04464  -0.04464   2.00684
   A58        1.94228   0.00072   0.00000  -0.00976  -0.00981   1.93246
   A59        1.91427  -0.00025   0.00000  -0.00343  -0.00340   1.91087
   A60        1.88350  -0.00069   0.00000   0.00086   0.00085   1.88435
   A61        1.93973  -0.00028   0.00000   0.00185   0.00180   1.94152
   A62        1.90800   0.00005   0.00000   0.00401   0.00402   1.91202
   A63        1.87392   0.00043   0.00000   0.00711   0.00709   1.88101
    D1       -1.14211   0.00068   0.00000   0.02306   0.02306  -1.11905
    D2        0.95097   0.00133   0.00000   0.01912   0.01912   0.97009
    D3        3.04856   0.00117   0.00000   0.02518   0.02515   3.07371
[...]
 6,-0.00001985,0.00001487,0.01526375,-0.01861244,-0.02401565,-0.0013929
 1,0.00106141,0.00171237,-0.00008357,0.00006949,-0.00002360,0.00019997,
 0.00013953,-0.00008537,-0.00076224,0.00019343,-0.00085590,-0.00027212,
 -0.00030404,0.00011163,-0.00000220,0.00001237,0.00001524,-0.00343376,0
 .00232846,-0.00175883,0.00106593,-0.00048708,0.00080854,0.00001929,0.0
 0001221,-0.00001729,0.00002390,0.00001050,-0.00001396,0.00035288,-0.00
 031593,-0.00014554,0.00010961,-0.00017753,-0.00001519,0.01292547,-0.00
 175915,-0.00643770,-0.11847588,0.03058384,0.13682818,-0.00033091,-0.00
 012826,-0.00040223,-0.01738597,0.00214653,0.01509549,0.00060163,0.0002
 8850,0.00159245,0.00057735,0.00034228,-0.00022791,0.00008408,-0.000006
 07,-0.00001371,-0.00006022,0.00004841,0.00010551,0.00787122,-0.0024392
 6,-0.00521527,-0.00007570,-0.00000402,-0.00015530,-0.22323498,0.045942
 18,0.11528317,-0.00000406,-0.00003188,-0.00004298,0.00160638,-0.000620
 62,-0.00005370,-0.00613075,0.00246302,-0.00411229,-0.00021975,0.000190
 69,-0.00027635,-0.00008051,0.00019379,0.00001642,0.00001484,0.00000765
 ,0.00001504,0.00066919,-0.00049337,-0.00003937,-0.00004258,0.00000563,
 -0.00013893,-0.00018068,0.00035784,-0.00001513,0.00004816,0.00018085,-
 0.00004644,-0.00001182,0.00000910,0.00000966,-0.00001192,0.00000158,-0
 .00000834,0.00058648,-0.00169105,-0.00152067,0.00075569,0.00046551,0.0
 0052167,0.00002050,0.00002924,0.00001314,-0.00002200,-0.00003594,0.000
 02824,0.24361721,0.00000230,0.00006629,0.00004125,0.01046336,-0.004660
 10,-0.00864548,0.00010129,0.00037810,-0.00063556,0.00100905,0.00079386
 ,-0.00010020,-0.00002810,0.00000430,0.00000185,0.00002683,-0.00002774,
 -0.00003066,0.01643212,-0.00529658,-0.01152495,0.00002212,-0.00005056,
 -0.00008915,0.04326706,-0.06035512,-0.02719847,-0.00000313,0.00000691,
 0.00001774,-0.00019810,0.00062206,0.00009687,0.00229104,-0.00027717,0.
 00192954,0.00015259,-0.00011474,0.00019286,0.00001843,-0.00003462,-0.0
 0000057,-0.00000934,-0.00000162,-0.00000673,-0.00052436,0.00043243,0.0
 0013129,0.00000758,-0.00000053,0.00004369,-0.00023653,-0.00003967,0.00
 012769,-0.00019502,0.00015868,0.00004573,0.00000376,-0.00000379,-0.000
 00283,0.00000379,0.00000045,0.00000264,-0.00104647,-0.00187188,-0.0030
 0739,-0.00025614,0.00085398,0.00078314,0.00003294,-0.00003424,0.000031
 80,-0.00004287,0.00003258,0.00000241,-0.04909014,0.06218654,-0.0001694
 9,-0.00009421,-0.00022993,-0.01560093,0.00385528,0.01063102,-0.0002038
 6,0.00021245,0.00103232,0.00024016,0.00117978,0.00081990,0.00004715,-0
 .00000535,-0.00000662,-0.00003501,0.00002989,0.00004987,0.02052503,-0.
 00622558,-0.01627738,-0.00028867,-0.00017756,-0.00019256,0.11935587,-0
 .02834231,-0.12530018,0.00000038,-0.00001572,-0.00003524,0.00032419,-0
 .00077893,0.00037593,-0.00540313,0.00234681,-0.00199624,-0.00015985,0.
 00013517,-0.00020821,-0.00004588,0.00011784,0.00000389,0.00001633,0.00
 000657,0.00000097,0.00037330,-0.00053026,0.00088570,0.00002584,-0.0000
 2539,-0.00009059,-0.00026510,-0.00026848,0.00046136,-0.00033316,0.0001
 6219,0.00004018,-0.00000825,0.00000622,0.00000607,-0.00000533,-0.00000
 018,-0.00000330,-0.00182023,-0.00380358,-0.00294225,0.00007429,0.00086
 616,0.00099096,0.00007392,-0.00001748,0.00006700,0.00000809,-0.0000046
 4,-0.00003096,-0.12527541,0.03397289,0.13825284,0.00004531,0.00000709,
 -0.00002554,0.00758268,0.01879543,-0.00572603,0.00037604,-0.00006258,0
 .00005962,0.00053870,-0.00102487,-0.00206843,0.00000355,0.00000615,0.0
 0000242,-0.00001110,-0.00001046,0.00001113,-0.00345616,-0.00538016,0.0
 0358164,-0.00051658,-0.00076143,-0.00090341,-0.08604326,-0.08833016,0.
 03638158,-0.00000300,-0.00000217,0.00000269,-0.00199452,0.00518288,-0.
 00385017,0.00069816,0.00045616,-0.00026164,0.00001187,-0.00002382,0.00
 000946,0.00000098,-0.00000339,0.00000523,0.00000797,-0.00001628,0.0000
 0962,0.00048611,-0.00076005,0.00037486,0.00000943,-0.00000484,-0.00001
 659,0.00014725,0.00035629,-0.00021684,0.00016084,-0.00077036,0.0002618
 6,-0.00000144,-0.00000098,0.00000033,-0.00000011,-0.00000084,-0.000000
 06,0.00051021,0.00029465,-0.00029685,-0.00005085,0.00018581,0.00030236
 ,0.00011405,0.00005595,0.00017574,0.00001617,0.00005233,0.00010352,-0.
 00850970,-0.02227449,0.00865180,0.08986944,-0.00011027,-0.00001367,-0.
 00006391,-0.00658736,-0.01231023,0.00335463,0.00011950,0.00036157,-0.0
 0001672,-0.00062740,-0.00082557,-0.00442011,-0.00000244,-0.00000654,-0
 .00000143,0.00002158,-0.00000141,-0.00000465,-0.00640767,-0.01595201,0
 .00715046,-0.00027932,0.00116392,0.00029468,-0.08396377,-0.24643747,0.
 08287323,0.00000858,0.00000177,0.00000526,0.00195874,-0.00174698,0.002
 63471,-0.00074709,0.00102489,-0.00056142,0.00003447,-0.00003552,0.0000
 2809,0.00000192,0.00003823,0.00000115,-0.00000102,0.00002522,-0.000019
 86,0.00044633,0.00028396,0.00014240,-0.00002523,-0.00000055,-0.0000254
 5,-0.00011527,0.00006470,0.00011123,-0.00028412,-0.00108155,0.00064146
 ,0.00000147,0.00000102,-0.00000084,0.00000056,0.00000177,-0.00000053,0
 .00049106,0.00065195,0.00032488,-0.00004390,0.00074103,-0.00000789,0.0
 0002188,-0.00006438,0.00004015,0.00007393,-0.00007417,-0.00007002,0.00
 195306,0.00717772,-0.00253210,0.09404692,0.26700213,0.00010722,0.00001
 312,0.00005028,0.01093864,0.01517655,-0.00611407,-0.00001701,-0.000330
 67,-0.00001135,-0.00114037,-0.00290755,-0.00439788,0.00000073,0.000000
 73,0.00000163,-0.00002416,0.00000011,-0.00000016,-0.00954490,-0.023113
 34,0.01093626,-0.00056651,-0.00087828,-0.00132976,0.03372065,0.0835886
 0,-0.08244673,0.00000026,-0.00000732,0.00000320,-0.00324594,0.00528327
 ,-0.00281246,0.00089924,-0.00070718,0.00093137,-0.00002620,0.00002700,
 -0.00001751,-0.00000282,-0.00002820,-0.00000062,0.00000418,-0.00002324
 ,0.00001546,0.00023243,-0.00073138,0.00031332,0.00000947,0.00000218,-0
 .00000331,-0.00010744,0.00003484,0.00006672,-0.00037024,-0.00154004,0.
 00053258,-0.00000138,-0.00000052,0.00000104,-0.00000051,0.00000050,0.0
 0000030,0.00058244,0.00085799,0.00110361,0.00018365,0.00105432,0.00096
 958,0.00013842,0.00013544,0.00024826,0.00004355,0.00011110,0.00017579,
 0.00476613,0.01386551,-0.00635909,-0.03656510,-0.08987521,0.08814629,-
 0.00017828,0.00041148,-0.00008613,0.00039855,0.00008740,-0.00009569,0.
 00112798,0.00145642,0.00168776,0.00000283,-0.00000188,-0.00000325,0.00
 453143,0.00277708,-0.00228247,0.00168923,0.00178990,0.00002271,-0.0000
 0561,0.00001280,0.00000215,0.00002939,0.00002888,0.00002591,-0.0000281
 9,-0.00002031,0.00002655,-0.23853871,-0.10855913,0.05685653,-0.0001141
 8,-0.00010050,0.00002231,-0.00017777,-0.00007204,0.00022005,-0.0070598
 2,-0.00394186,0.00151874,0.00002863,-0.00002845,0.00000442,-0.00000679
 ,-0.00008557,-0.00009821,-0.00006375,0.00000365,0.00001642,-0.00051658
 ,-0.00047410,0.00004156,-0.00000370,0.00000115,0.00000101,-0.00000385,
 -0.00000212,-0.00000353,0.00019455,-0.00056324,0.00009130,0.00035137,-
 0.00065583,-0.00008689,0.00000433,-0.00000049,0.00000058,-0.00000650,-
 0.00000326,-0.00000769,-0.00000471,-0.00000789,-0.00000165,-0.00000599
 ,-0.00000121,0.00000079,-0.00002108,0.00000674,-0.00001101,0.00000008,
 0.00000024,-0.00000226,0.25525748,0.00078024,-0.00049365,-0.00203313,-
 0.00009245,-0.00002959,-0.00004543,0.00079976,-0.00024774,-0.00235053,
 -0.00000304,0.00000100,0.00000731,-0.02834029,-0.00988460,0.00790096,-
 0.00144374,-0.00989443,0.00203194,0.00000131,-0.00000412,0.00000028,0.
 00000981,-0.00001097,-0.00001414,0.00000067,0.00000735,0.00000279,-0.1
 0653299,-0.11015276,0.03328129,0.00001347,0.00003775,0.00000552,-0.000
 10694,0.00003217,-0.00015994,0.01012627,0.00594186,-0.00247770,-0.0000
 5631,0.00007687,0.00025104,-0.00010559,0.00015723,0.00027701,0.0000342
 9,-0.00000252,0.00000894,0.00046623,0.00041969,-0.00028019,-0.00000185
 ,0.00000143,-0.00000178,0.00000113,0.00000045,0.00000031,0.00017356,0.
 00104537,-0.00070892,0.00050092,0.00131478,0.00037104,-0.00000096,-0.0
 0000043,0.00000042,0.00000093,0.00000198,0.00000140,-0.00000069,0.0000
 0134,0.00000161,0.00000934,0.00000209,0.00001084,0.00000206,-0.0000003
 4,0.00000089,-0.00000105,0.00000039,0.00000079,0.11793325,0.11762274,0
 .00003044,-0.00081592,-0.00003211,-0.00032130,-0.00001732,0.00036136,-
 0.00014558,-0.00346475,-0.00610636,-0.00000315,0.00000398,0.00000644,-
 0.00039410,0.00069736,-0.00183974,-0.00014639,-0.00053276,0.00147859,0
 .00001347,-0.00001882,-0.00000510,-0.00002927,-0.00004948,-0.00004808,
 0.00007159,0.00003004,-0.00005052,0.05498928,0.03230633,-0.06246028,0.
 00013696,0.00011725,-0.00002380,0.00037174,-0.00009604,0.00038797,0.02
 587361,0.01609794,-0.00890507,-0.00008166,0.00005608,0.00002856,-0.000
 02161,0.00013146,0.00014440,0.00001092,0.00000966,0.00002286,0.0014219
 1,0.00107599,-0.00047294,0.00000371,-0.00000156,-0.00000020,0.00000564
 ,0.00000273,0.00000504,-0.00007910,0.00042533,0.00001318,-0.00001426,-
 0.00017631,0.00017198,0.00000432,0.00000054,-0.00000074,0.00000578,0.0
 0000583,0.00001271,0.00000592,0.00001010,0.00000426,0.00000320,0.00000
 034,-0.00000481,0.00003254,-0.00001274,0.00001926,-0.00000133,-0.00000
 250,0.00000141,-0.06313243,-0.03468162,0.06859138,-0.00008640,0.000151
 39,0.00039648,0.00030087,0.00005470,0.00014142,-0.00005189,-0.00043348
 ,-0.00081739,0.00000587,-0.00000406,-0.00000353,-0.00642429,0.00096523
 ,-0.00351151,0.00194816,-0.00012205,0.00004978,-0.00000987,0.00000794,
 0.00002186,-0.00000597,0.00000289,0.00000288,0.00002099,-0.00000077,-0
 .00000877,-0.17734312,0.03834958,-0.12620935,0.00001469,-0.00000271,-0
 .00002035,-0.00125856,-0.00011894,0.00087737,0.00841876,-0.00251151,0.
 00728911,-0.00009419,-0.00000569,-0.00004100,0.00001526,0.00000641,-0.
 00003964,-0.00003745,0.00001595,0.00005189,0.00008816,0.00015998,-0.00
 009691,0.00000167,0.00000256,-0.00000117,0.00000013,0.00000055,0.00000
 070,0.00017898,-0.00001873,0.00022049,0.00102661,0.00141233,0.00035183
 ,0.00005649,-0.00000344,-0.00002759,0.00000543,-0.00000079,-0.00000258
 ,0.00000162,-0.00000091,-0.00000015,0.00000971,-0.00000423,-0.00001100
 ,0.00000156,-0.00000252,0.00000103,0.00000373,0.00000128,-0.00000391,-
 0.01770668,0.00625121,-0.01748377,0.19019508,0.00002316,-0.00008545,-0
 .00015527,-0.00005037,0.00003162,0.00007805,0.00010791,-0.00006525,0.0
 0057456,0.00000071,-0.00000195,-0.00000076,0.02616693,-0.01003937,0.02
 360639,-0.00030397,0.00320771,-0.00108569,-0.00000877,-0.00000396,0.00
 000531,-0.00001106,0.00000418,0.00000664,0.00001586,0.00000353,-0.0000
 1415,0.03587734,-0.05913346,0.03782118,0.00000640,0.00000525,-0.000009
 48,0.00009451,0.00012223,0.00011634,-0.00823939,0.00140655,-0.00797752
 ,0.00008013,0.00000702,-0.00004166,-0.00002647,0.00003492,0.00003671,-
 0.00001355,0.00000203,-0.00001660,-0.00001209,-0.00008147,0.00002049,0
 .00000124,0.00000062,-0.00000178,-0.00000103,0.00000012,-0.00000006,-0
 .00056528,0.00171782,-0.00032167,0.00077898,-0.00636517,0.00037364,0.0
 0000425,-0.00000221,-0.00000563,0.00000290,0.00000041,-0.00000055,0.00
 000281,-0.00000018,-0.00000114,0.00000875,-0.00000442,-0.00000231,0.00
 000589,-0.00000529,0.00000181,-0.00000142,-0.00000200,0.00000208,-0.01
 033198,0.00342859,-0.01144630,-0.04434973,0.06508669,0.00019791,-0.000
 08629,-0.00019837,0.00016244,0.00001102,0.00020862,-0.00153693,0.00016
 208,0.00035908,0.00000283,-0.00000197,-0.00000461,0.00107421,-0.000126
 66,0.00038168,0.00021477,0.00022287,-0.00027585,-0.00000024,0.00000545
 ,0.00000907,0.00000538,0.00000740,0.00000993,0.00003386,-0.00000237,-0
 .00001614,-0.12521582,0.03844423,-0.17103114,-0.00006507,-0.00005922,0
 .00003172,0.00037671,0.00004360,0.00073584,-0.02088040,0.00549632,-0.0
 2154590,0.00000964,-0.00003697,0.00000143,-0.00001350,0.00011623,0.000
 01337,-0.00007187,0.00001941,0.00001090,0.00020388,-0.00007073,0.00004
 385,-0.00000070,-0.00000017,0.00000097,-0.00000016,0.00000020,0.000000
 28,0.00040240,0.00051917,0.00067223,-0.00020537,-0.00049354,0.00126237
 ,0.00003477,0.00000033,-0.00001377,0.00000005,-0.00000130,-0.00000103,
 -0.00000135,-0.00000180,-0.00000013,0.00000474,-0.00000148,-0.00000947
 ,0.00000100,-0.00000375,0.00000265,0.00000125,-0.00000357,-0.00000371,
 0.00543684,-0.00275048,0.00593587,0.13731023,-0.03970160,0.18686740,-0
 .00495712,-0.00187351,0.00223221,0.00018511,0.00003799,0.00020560,0.00
 471223,-0.02771605,-0.00030552,-0.00000822,-0.00000106,0.00000777,-0.0
 0037988,-0.00018619,0.00301671,0.00067049,0.00049239,-0.00076083,0.000
 00221,-0.00000571,-0.00000097,0.00003397,0.00000928,-0.00002585,0.0000
 1815,0.00001186,-0.00002936,-0.00317159,0.00925345,-0.00153343,-0.0000
 0903,0.00008824,-0.00006259,0.00270701,0.00000202,0.00045667,-0.066952
 01,0.07169108,-0.00091150,0.00012238,0.00003463,0.00005781,0.00039997,
 -0.00153816,-0.00019858,0.00002971,0.00003623,0.00001546,0.00102950,0.
 00103044,-0.00035557,-0.00000280,0.00000206,-0.00000196,0.00000003,0.0
 0000141,-0.00000138,0.00018358,0.00090426,0.00010000,0.00011141,-0.000
 40164,0.00002399,0.00000224,0.00000051,0.00000234,0.00000145,0.0000029
 7,0.00000259,0.00000168,0.00000041,0.00000202,0.00000889,0.00000659,0.
 00002065,0.00001075,-0.00000853,0.00000728,0.00000031,0.00000374,0.000
 00150,0.00000163,-0.00007535,-0.00047954,0.00047146,-0.00046386,0.0000
 4661,0.07039744,-0.00451144,0.00025701,0.00212645,-0.00009181,0.000170
 90,0.00000924,0.00528137,-0.01951689,0.00098721,-0.00000771,0.00000004
 ,0.00001190,0.00038733,0.00162803,-0.00222102,0.00034163,0.00014399,-0
 .00015908,-0.00001199,0.00001024,-0.00000111,0.00002313,0.00001615,-0.
 00001835,-0.00004694,-0.00004227,0.00003628,0.00202564,-0.00700779,-0.
 00004090,0.00002249,0.00003128,-0.00009243,0.00128366,0.00196408,-0.00
 008691,0.06807621,-0.29793324,0.00070206,0.00013917,0.00021894,0.00004
 679,0.00035803,-0.00119144,-0.00038054,-0.00004831,-0.00008284,-0.0000
 4245,-0.00004764,0.00078352,0.00008142,-0.00000672,0.00000386,-0.00000
 339,-0.00000172,-0.00000115,-0.00000238,-0.00002627,-0.00064636,0.0001
 4584,0.00002814,0.00006790,0.00010823,0.00000272,-0.00000119,-0.000000
 20,-0.00000292,-0.00000200,-0.00000891,-0.00000112,-0.00000626,-0.0000
 0148,-0.00000690,0.00000027,0.00002897,-0.00001791,0.00001004,-0.00001
 275,-0.00001070,0.00000364,-0.00000503,0.00018365,0.00034648,-0.000208
 44,-0.00019113,0.00037241,-0.00007720,-0.07397908,0.32239542,0.0026865
 4,0.00105979,-0.00084994,-0.00008689,-0.00007301,0.00010612,-0.0048243
 7,0.01058245,-0.00091934,0.00000282,-0.00000286,-0.00000631,0.00288718
 ,0.00045920,-0.00675222,-0.00093491,0.00021009,0.00107241,-0.00000020,
 -0.00000311,-0.00000475,-0.00001557,-0.00000852,0.00000872,0.00003996,
 -0.00000993,-0.00003557,0.00811452,-0.03120629,0.00077443,0.00001246,0
 .00001610,-0.00000333,-0.00042645,-0.00103902,0.00014913,-0.00019555,0
 .00216252,-0.04800725,0.00022099,-0.00028022,0.00011171,-0.00002750,0.
 00082204,0.00037675,-0.00002071,-0.00001976,-0.00003089,-0.00067609,-0
 .00020857,0.00021125,0.00000384,-0.00000141,0.00000164,0.00000084,0.00
 000128,0.00000138,0.00017845,-0.00202572,-0.00001681,0.00010072,-0.000
 08775,0.00009960,-0.00000016,-0.00000029,-0.00000125,0.00000076,-0.000
 00026,0.00000254,-0.00000100,0.00000276,0.00000099,0.00000568,0.000000
 22,-0.00000996,0.00001682,-0.00000221,0.00000754,-0.00000103,0.0000074
 1,-0.00000099,-0.00017721,0.00082305,0.00123475,-0.00077395,0.00052775
 ,0.00140354,-0.00213926,-0.00148049,0.05121108,0.00046026,0.00098786,-
 0.00051743,0.00141018,-0.00044359,-0.00230609,-0.01643329,0.00582334,-
 0.01735995,0.00002919,-0.00001167,-0.00003368,0.00056285,-0.00040639,-
 0.00011382,-0.00009501,-0.00031136,0.00004619,0.00000371,0.00005231,0.
 00004795,0.00010123,0.00017421,0.00021174,-0.00032249,0.00002114,0.000
 35131,0.00873451,-0.00132037,0.00838543,-0.00066559,-0.00067789,0.0004
 1677,-0.00798469,-0.00247888,0.00178028,-0.19412251,0.02180861,-0.1280
 4891,0.00048905,-0.00033113,0.00015796,0.00015208,0.00001420,0.0003409
 7,-0.00002785,0.00006578,0.00021913,0.00064637,0.00068851,0.00025214,-
 0.00000813,0.00000072,0.00000539,-0.00001802,-0.00000976,-0.00001332,-
 0.00000092,-0.00021242,-0.00001357,-0.00019543,-0.00025361,-0.00024754
 ,-0.00000142,-0.00000399,0.00000415,-0.00002018,-0.00001456,-0.0000329
 8,-0.00002058,-0.00003360,-0.00001299,-0.00000022,-0.00000009,-0.00001
 935,-0.00014241,0.00007475,-0.00009932,0.00000386,0.00000961,-0.000009
 72,0.00082471,-0.00034321,-0.00064753,0.00025320,0.00120120,0.00247189
 ,-0.00562095,0.00085717,-0.00397073,0.21200849,0.00038471,-0.00008000,
 -0.00008834,0.00013117,0.00001947,-0.00104647,-0.01119253,0.00174721,-
 0.01273109,0.00001193,-0.00000159,-0.00001166,-0.00112650,0.00052029,-
 0.00035366,0.00004869,-0.00021034,0.00001187,0.00000458,0.00002379,0.0
 0002352,0.00003645,0.00005672,0.00006542,-0.00019846,0.00000840,0.0002
 1153,-0.00699969,0.00034789,-0.00587564,-0.00014042,-0.00023511,0.0001
 0784,-0.00423316,-0.00040821,0.00113318,0.02478857,-0.05479398,0.02226
 374,-0.00025716,-0.00055755,-0.00003815,0.00001302,0.00027866,0.000090
 11,-0.00001630,-0.00000425,0.00007467,0.00037993,0.00069153,0.00010837
 ,-0.00000287,0.00000099,0.00000243,-0.00000651,-0.00000534,-0.00000354
 ,0.00005102,0.00010812,0.00006614,0.00015108,0.00005513,0.00006428,0.0
 0000131,-0.00000341,-0.00000071,-0.00000785,-0.00000700,-0.00001522,-0
 .00000644,-0.00001329,-0.00000465,0.00000174,0.00000061,-0.00001038,-0
 .00007530,0.00005008,-0.00005941,0.00000040,0.00000814,-0.00000619,0.0
 0015723,0.00028159,0.00055361,0.00038870,0.00035849,-0.00162919,0.0226
 3956,-0.00199277,0.01977474,-0.02492690,0.05375573,-0.00052360,0.00029
 987,-0.00018824,-0.00013259,0.00008152,0.00065583,0.00663307,-0.002081
 97,0.00547283,-0.00000770,0.00000017,0.00000641,-0.00066093,0.00135158
 ,0.00105665,0.00002626,-0.00040223,-0.00006719,0.00000137,-0.00001534,
 -0.00001704,-0.00002168,-0.00003697,-0.00004574,0.00011025,-0.00002276
 ,-0.00010091,-0.02221595,0.00348234,-0.02287264,0.00012128,0.00014186,
 -0.00010336,0.00374129,0.00139704,0.00080943,-0.12945610,0.02096718,-0
 .15849402,0.00023029,0.00013177,0.00012477,0.00005511,-0.00018435,0.00
 003811,-0.00002728,-0.00002140,-0.00008529,-0.00025653,-0.00060686,0.0
 0050671,0.00000114,-0.00000026,-0.00000083,0.00000415,0.00000297,0.000
 00257,0.00035663,0.00007916,0.00017015,0.00025252,-0.00055831,0.000383
 08,0.00000358,0.00000041,-0.00000102,0.00000517,0.00000281,0.00000723,
 0.00000480,0.00000603,0.00000059,-0.00000224,-0.00000378,0.00000567,0.
 00004676,-0.00002618,0.00002511,-0.00000208,-0.00000352,0.00000053,0.0
 0001277,0.00052646,0.00152971,0.00233749,-0.00238876,-0.00485069,0.000
 60714,0.00055866,-0.00013496,0.13875561,-0.02267715,0.17616657\\0.0000
 0519,-0.00000198,-0.00001463,-0.00014883,-0.00083901,-0.00011035,-0.00
 031900,0.00036823,0.00057676,-0.00000146,-0.00000138,0.00000505,-0.000
 00638,0.00000382,-0.00000089,-0.00000448,0.00000413,0.00000136,0.00000
 151,-0.00000025,0.00000607,-0.00000291,0.00000029,-0.00000749,-0.00001
 025,0.00000048,0.00000077,0.00000004,0.00000404,-0.00000521,0.00001822
 ,0.00002046,-0.00000444,0.00026667,0.00097051,0.00002499,0.00019913,-0
 .00053375,-0.00047672,0.00000001,0.00000231,0.00000004,0.00000433,-0.0
 0000049,-0.00000165,-0.00000204,-0.00000356,0.00000394,0.00000136,-0.0
 0000219,-0.00000211,0.00000091,-0.00000454,0.00000420,-0.00000009,0.00
 000076,0.00000105,-0.00000285,0.00000617,-0.00000337,0.00000300,0.0000
 0568,-0.00000808,-0.00000191,0.00000086,0.00000152,-0.00000239,-0.0000
 0356,0.00000677,0.00000362,0.00000134,0.00000027,-0.00000034,-0.000001
 59,-0.00000106,0.00000058,-0.00000262,0.00000446,-0.00000069,-0.000004
 18,0.00000524,-0.00000163,0.00000631,-0.00000160,-0.00000057,0.0000017
 8,-0.00000078,-0.00000026,-0.00000015,-0.00000144,0.00000152,0.0000021
 0,-0.00000267\\\@


 HE THAT RISETH LATE MUST TROT ALL DAY.

                  -- BENJAMIN FRANKLIN
 Job cpu time:       0 days 12 hours 26 minutes 20.5 seconds.
 Elapsed time:       0 days  1 hours  2 minutes 13.4 seconds.
 File lengths (MBytes):  RWF=    722 Int=      0 D2E=      0 Chk=     34 Scr=      1
 Normal termination of Gaussian 16 at Sat Mar  9 00:36:53 2019.
