 Entering Gaussian System, Link 0=g16
 Initial command:
 /sw/Projects/G16/g16/l1.exe "/nvme/pbs/tmpdir/pbs.74203[16].flm1/Gau-17212.inp" -scrdir="/nvme/pbs/tmpdir/pbs.74203[16].flm1/"
 Entering Link 1 = /sw/Projects/G16/g16/l1.exe PID=     17213.
  
 Copyright (c) 1988-2017, Gaussian, Inc.  All Rights Reserved.
  
 This is part of the Gaussian(R) 16 program.  It is based on
 the Gaussian(R) 09 system (copyright 2009, Gaussian, Inc.),
 the Gaussian(R) 03 system (copyright 2003, Gaussian, Inc.),
 the Gaussian(R) 98 system (copyright 1998, Gaussian, Inc.),
 the Gaussian(R) 94 system (copyright 1995, Gaussian, Inc.),
 the Gaussian 92(TM) system (copyright 1992, Gaussian, Inc.),
 the Gaussian 90(TM) system (copyright 1990, Gaussian, Inc.),
 the Gaussian 88(TM) system (copyright 1988, Gaussian, Inc.),
 the Gaussian 86(TM) system (copyright 1986, Carnegie Mellon
 University), and the Gaussian 82(TM) system (copyright 1983,
 Carnegie Mellon University). Gaussian is a federally registered
 trademark of Gaussian, Inc.
  
 This software contains proprietary and confidential information,
 including trade secrets, belonging to Gaussian, Inc.
  
 This software is provided under written license and may be
 used, copied, transmitted, or stored only in accord with that
 written license.
  
 The following legend is applicable only to US Government
 contracts under FAR:
  
                    RESTRICTED RIGHTS LEGEND
  
 Use, reproduction and disclosure by the US Government is
 subject to restrictions as set forth in subparagraphs (a)
 and (c) of the Commercial Computer Software - Restricted
 Rights clause in FAR 52.227-19.
  
 Gaussian, Inc.
 340 Quinnipiac St., Bldg. 40, Wallingford CT 06492
  
  
 ---------------------------------------------------------------
 Warning -- This program may not be used in any manner that
 competes with the business of Gaussian, Inc. or will provide
 assistance to any competitor of Gaussian, Inc.  The licensee
 of this program is prohibited from giving any competitor of
 Gaussian, Inc. access to this program.  By using this program,
 the user acknowledges that Gaussian, Inc. is engaged in the
 business of creating and licensing software in the field of
 computational chemistry and represents and warrants to the
 licensee that it is not a competitor of Gaussian, Inc. and that
 it will not use this program in any manner prohibited above.
 ---------------------------------------------------------------
  

 Cite this work as:
 Gaussian 16, Revision B.01,
 M. J. Frisch, G. W. Trucks, H. B. Schlegel, G. E. Scuseria, 
 M. A. Robb, J. R. Cheeseman, G. Scalmani, V. Barone, 
 G. A. Petersson, H. Nakatsuji, X. Li, M. Caricato, A. V. Marenich, 
 J. Bloino, B. G. Janesko, R. Gomperts, B. Mennucci, H. P. Hratchian, 
 J. V. Ortiz, A. F. Izmaylov, J. L. Sonnenberg, D. Williams-Young, 
 F. Ding, F. Lipparini, F. Egidi, J. Goings, B. Peng, A. Petrone, 
 T. Henderson, D. Ranasinghe, V. G. Zakrzewski, J. Gao, N. Rega, 
 G. Zheng, W. Liang, M. Hada, M. Ehara, K. Toyota, R. Fukuda, 
 J. Hasegawa, M. Ishida, T. Nakajima, Y. Honda, O. Kitao, H. Nakai, 
 T. Vreven, K. Throssell, J. A. Montgomery, Jr., J. E. Peralta, 
 F. Ogliaro, M. J. Bearpark, J. J. Heyd, E. N. Brothers, K. N. Kudin, 
 V. N. Staroverov, T. A. Keith, R. Kobayashi, J. Normand, 
 K. Raghavachari, A. P. Rendell, J. C. Burant, S. S. Iyengar, 
 J. Tomasi, M. Cossi, J. M. Millam, M. Klene, C. Adamo, R. Cammi, 
 J. W. Ochterski, R. L. Martin, K. Morokuma, O. Farkas, 
 J. B. Foresman, and D. J. Fox, Gaussian, Inc., Wallingford CT, 2016.
 
 ******************************************
 Gaussian 16:  ES64L-G16RevB.01 20-Dec-2017
                 9-Mar-2019 
 ******************************************
 %mem=20gb
 %nproc=12
 Will use up to   12 processors via shared memory.
 %chk=4c1_a1_a4_4c1_PSI.inp_extract_16.chk
 ----------------------------------------------------------------------
 #M062X/6-311++G(2d,2p) opt=ModRedundant freq=noraman SCRF=(SMD,solvent
 =water)
 ----------------------------------------------------------------------
 1/18=120,19=15,26=3,38=1/1,3;
 2/9=110,12=2,17=6,18=5,40=1/2;
 3/5=4,6=6,7=1212,11=2,25=1,30=1,70=32201,71=1,72=1,74=-55/1,2,3;
 4//1;
 5/5=2,38=5,53=1/2;
 6/7=2,8=2,9=2,10=2,28=1/1;
 7//1,2,3,16;
 1/18=20,19=15,26=3/3(2);
 2/9=110/2;
 99//99;
 2/9=110/2;
 3/5=4,6=6,7=1212,11=2,25=1,30=1,70=32205,71=1,72=1,74=-55/1,2,3;
 4/5=5,16=3,69=1/1;
 5/5=2,38=5,53=1/2;
 7//1,2,3,16;
 1/18=20,19=15,26=3/3(-5);
 2/9=110/2;
 6/7=2,8=2,9=2,10=2,19=2,28=1/1;
 99/9=1/99;
 --------------------------------
 4c1_a1_a4_4c1_PSI.inp_extract_16
 --------------------------------
 Symbolic Z-matrix:
 Charge =  0 Multiplicity = 1
 C                    -2.15302  -1.12976   0.91155 
 C                     0.74891  -0.1954   -0.55086 
 C                    -1.08821  -0.06883   1.14899 
 C                     3.52934   0.33819   0.0637 
 C                    -3.24306   0.05447  -0.80413 
 O                    -2.59566  -1.14757  -0.42883 
 C                     3.03002  -1.10684   0.05554 
 C                     2.38422   1.28853   0.37259 
 C                     1.82023  -1.2292   -0.87234 
 C                    -2.28754   1.23573  -0.72778 
 O                     1.29725   1.0968   -0.52173 
 O                     0.17034  -0.54684   0.67029 
 C                    -1.59299   1.2878    0.63842 
 H                    -2.99968  -0.94066   1.56776 
 H                    -1.76168  -2.11373   1.12836 
 H                     0.00814  -0.17188  -1.3315 
 H                    -0.93889   0.01037   2.21811 
 H                     3.94714   0.58833  -0.90884 
 H                     4.31501   0.47642   0.80117 
 H                    -3.60767  -0.09313  -1.8115 
 H                    -4.0985    0.21003  -0.15044 
 H                     2.75969  -1.40627   1.06448 
 H                     3.81579  -1.77972  -0.2742 
 H                     2.68295   2.32053   0.24986 
 H                     2.03985   1.15669   1.39295 
 H                     2.13395  -1.06023  -1.89902 
 H                     1.38039  -2.21949  -0.82476 
 H                    -2.8476    2.15334  -0.88362 
 H                    -1.56681   1.16874  -1.53404 
 H                    -0.80001   2.02328   0.64807 
 H                    -2.32497   1.61025   1.37521 
 
 The following ModRedundant input section has been read:
 D      13       3      12       2 F                                           
 

 GradGradGradGradGradGradGradGradGradGradGradGradGradGradGradGradGradGrad
 Berny optimization.
 Initialization pass.
                           ----------------------------
                           !    Initial Parameters    !
                           ! (Angstroms and Degrees)  !
 --------------------------                            --------------------------
 ! Name  Definition              Value          Derivative Info.                !
 --------------------------------------------------------------------------------
 ! R1    R(1,3)                  1.5218         estimate D2E/DX2                !
 ! R2    R(1,6)                  1.4117         estimate D2E/DX2                !
 ! R3    R(1,14)                 1.0878         estimate D2E/DX2                !
 ! R4    R(1,15)                 1.0809         estimate D2E/DX2                !
 ! R5    R(2,9)                  1.5231         estimate D2E/DX2                !
 ! R6    R(2,11)                 1.404          estimate D2E/DX2                !
 ! R7    R(2,12)                 1.3962         estimate D2E/DX2                !
 ! R8    R(2,16)                 1.0764         estimate D2E/DX2                !
 ! R9    R(3,12)                 1.4289         estimate D2E/DX2                !
 ! R10   R(3,13)                 1.5349         estimate D2E/DX2                !
 ! R11   R(3,17)                 1.0824         estimate D2E/DX2                !
 ! R12   R(4,7)                  1.5289         estimate D2E/DX2                !
 ! R13   R(4,8)                  1.5198         estimate D2E/DX2                !
 ! R14   R(4,18)                 1.0876         estimate D2E/DX2                !
 ! R15   R(4,19)                 1.0864         estimate D2E/DX2                !
 ! R16   R(5,6)                  1.4159         estimate D2E/DX2                !
 ! R17   R(5,10)                 1.5213         estimate D2E/DX2                !
 ! R18   R(5,20)                 1.0814         estimate D2E/DX2                !
 ! R19   R(5,21)                 1.0878         estimate D2E/DX2                !
 ! R20   R(7,9)                  1.5295         estimate D2E/DX2                !
 ! R21   R(7,22)                 1.0866         estimate D2E/DX2                !
 ! R22   R(7,23)                 1.0858         estimate D2E/DX2                !
 ! R23   R(8,11)                 1.4206         estimate D2E/DX2                !
 ! R24   R(8,24)                 1.0814         estimate D2E/DX2                !
 ! R25   R(8,25)                 1.0849         estimate D2E/DX2                !
 ! R26   R(9,26)                 1.0868         estimate D2E/DX2                !
 ! R27   R(9,27)                 1.0846         estimate D2E/DX2                !
 ! R28   R(10,13)                1.5335         estimate D2E/DX2                !
 ! R29   R(10,28)                1.0863         estimate D2E/DX2                !
 ! R30   R(10,29)                1.0835         estimate D2E/DX2                !
 ! R31   R(13,30)                1.0816         estimate D2E/DX2                !
 ! R32   R(13,31)                1.0875         estimate D2E/DX2                !
 ! A1    A(3,1,6)              112.1072         estimate D2E/DX2                !
 ! A2    A(3,1,14)             109.2264         estimate D2E/DX2                !
 ! A3    A(3,1,15)             110.489          estimate D2E/DX2                !
 ! A4    A(6,1,14)             109.3251         estimate D2E/DX2                !
 ! A5    A(6,1,15)             107.0069         estimate D2E/DX2                !
 ! A6    A(14,1,15)            108.606          estimate D2E/DX2                !
 ! A7    A(9,2,11)             110.7545         estimate D2E/DX2                !
 ! A8    A(9,2,12)             107.7713         estimate D2E/DX2                !
 ! A9    A(9,2,16)             110.2315         estimate D2E/DX2                !
 ! A10   A(11,2,12)            112.046          estimate D2E/DX2                !
 ! A11   A(11,2,16)            105.2902         estimate D2E/DX2                !
 ! A12   A(12,2,16)            110.769          estimate D2E/DX2                !
 ! A13   A(1,3,12)             109.3178         estimate D2E/DX2                !
 ! A14   A(1,3,13)             109.5229         estimate D2E/DX2                !
 ! A15   A(1,3,17)             107.5571         estimate D2E/DX2                !
 ! A16   A(12,3,13)            118.2885         estimate D2E/DX2                !
 ! A17   A(12,3,17)            103.5258         estimate D2E/DX2                !
 ! A18   A(13,3,17)            108.0151         estimate D2E/DX2                !
 ! A19   A(7,4,8)              110.2437         estimate D2E/DX2                !
 ! A20   A(7,4,18)             109.7581         estimate D2E/DX2                !
 ! A21   A(7,4,19)             111.1041         estimate D2E/DX2                !
 ! A22   A(8,4,18)             109.1087         estimate D2E/DX2                !
 ! A23   A(8,4,19)             109.1095         estimate D2E/DX2                !
 ! A24   A(18,4,19)            107.4524         estimate D2E/DX2                !
 ! A25   A(6,5,10)             111.021          estimate D2E/DX2                !
 ! A26   A(6,5,20)             106.5701         estimate D2E/DX2                !
 ! A27   A(6,5,21)             108.7653         estimate D2E/DX2                !
 ! A28   A(10,5,20)            111.3767         estimate D2E/DX2                !
 ! A29   A(10,5,21)            110.6552         estimate D2E/DX2                !
 ! A30   A(20,5,21)            108.3094         estimate D2E/DX2                !
 ! A31   A(1,6,5)              112.6017         estimate D2E/DX2                !
 ! A32   A(4,7,9)              109.7041         estimate D2E/DX2                !
 ! A33   A(4,7,22)             109.6786         estimate D2E/DX2                !
 ! A34   A(4,7,23)             110.5485         estimate D2E/DX2                !
 ! A35   A(9,7,22)             110.1489         estimate D2E/DX2                !
 ! A36   A(9,7,23)             109.7915         estimate D2E/DX2                !
 ! A37   A(22,7,23)            106.9326         estimate D2E/DX2                !
 ! A38   A(4,8,11)             111.3564         estimate D2E/DX2                !
 ! A39   A(4,8,24)             111.4415         estimate D2E/DX2                !
 ! A40   A(4,8,25)             110.7516         estimate D2E/DX2                !
 ! A41   A(11,8,24)            105.5882         estimate D2E/DX2                !
 ! A42   A(11,8,25)            109.439          estimate D2E/DX2                !
 ! A43   A(24,8,25)            108.0827         estimate D2E/DX2                !
 ! A44   A(2,9,7)              111.9623         estimate D2E/DX2                !
 ! A45   A(2,9,26)             107.2722         estimate D2E/DX2                !
 ! A46   A(2,9,27)             108.9793         estimate D2E/DX2                !
 ! A47   A(7,9,26)             109.4107         estimate D2E/DX2                !
 ! A48   A(7,9,27)             111.5417         estimate D2E/DX2                !
 ! A49   A(26,9,27)            107.4854         estimate D2E/DX2                !
 ! A50   A(5,10,13)            110.828          estimate D2E/DX2                !
 ! A51   A(5,10,28)            108.9595         estimate D2E/DX2                !
 ! A52   A(5,10,29)            109.4177         estimate D2E/DX2                !
 ! A53   A(13,10,28)           109.4299         estimate D2E/DX2                !
 ! A54   A(13,10,29)           111.3315         estimate D2E/DX2                !
 ! A55   A(28,10,29)           106.7638         estimate D2E/DX2                !
 ! A56   A(2,11,8)             115.8556         estimate D2E/DX2                !
 ! A57   A(2,12,3)             125.0158         estimate D2E/DX2                !
 ! A58   A(3,13,10)            114.538          estimate D2E/DX2                !
 ! A59   A(3,13,30)            110.9127         estimate D2E/DX2                !
 ! A60   A(3,13,31)            104.955          estimate D2E/DX2                !
 ! A61   A(10,13,30)           111.2909         estimate D2E/DX2                !
 ! A62   A(10,13,31)           107.9873         estimate D2E/DX2                !
 ! A63   A(30,13,31)           106.6067         estimate D2E/DX2                !
 ! D1    D(6,1,3,12)           -78.7454         estimate D2E/DX2                !
 ! D2    D(6,1,3,13)            52.3344         estimate D2E/DX2                !
 ! D3    D(6,1,3,17)           169.4862         estimate D2E/DX2                !
 ! D4    D(14,1,3,12)          159.9255         estimate D2E/DX2                !
 ! D5    D(14,1,3,13)          -68.9946         estimate D2E/DX2                !
 ! D6    D(14,1,3,17)           48.1571         estimate D2E/DX2                !
 ! D7    D(15,1,3,12)           40.5164         estimate D2E/DX2                !
 ! D8    D(15,1,3,13)          171.5963         estimate D2E/DX2                !
 ! D9    D(15,1,3,17)          -71.252          estimate D2E/DX2                !
 ! D10   D(3,1,6,5)            -63.9809         estimate D2E/DX2                !
 ! D11   D(14,1,6,5)            57.2914         estimate D2E/DX2                !
 ! D12   D(15,1,6,5)           174.7322         estimate D2E/DX2                !
 ! D13   D(11,2,9,7)            52.525          estimate D2E/DX2                !
 ! D14   D(11,2,9,26)          -67.5181         estimate D2E/DX2                !
 ! D15   D(11,2,9,27)          176.3985         estimate D2E/DX2                !
 ! D16   D(12,2,9,7)           -70.3612         estimate D2E/DX2                !
 ! D17   D(12,2,9,26)          169.5957         estimate D2E/DX2                !
 ! D18   D(12,2,9,27)           53.5123         estimate D2E/DX2                !
 ! D19   D(16,2,9,7)           168.6427         estimate D2E/DX2                !
 ! D20   D(16,2,9,26)           48.5996         estimate D2E/DX2                !
 ! D21   D(16,2,9,27)          -67.4838         estimate D2E/DX2                !
 ! D22   D(9,2,11,8)           -56.1893         estimate D2E/DX2                !
 ! D23   D(12,2,11,8)           64.1825         estimate D2E/DX2                !
 ! D24   D(16,2,11,8)         -175.3318         estimate D2E/DX2                !
 ! D25   D(9,2,12,3)          -162.1094         estimate D2E/DX2                !
 ! D26   D(11,2,12,3)           75.7992         estimate D2E/DX2                !
 ! D27   D(16,2,12,3)          -41.4501         estimate D2E/DX2                !
 ! D28   D(1,3,12,2)           100.3722         estimate D2E/DX2                !
 ! D29   D(13,3,12,2)          -25.8421         Frozen                          !
 ! D30   D(17,3,12,2)         -145.2283         estimate D2E/DX2                !
 ! D31   D(1,3,13,10)          -43.8428         estimate D2E/DX2                !
 ! D32   D(1,3,13,30)         -170.838          estimate D2E/DX2                !
 ! D33   D(1,3,13,31)           74.4064         estimate D2E/DX2                !
 ! D34   D(12,3,13,10)          82.2726         estimate D2E/DX2                !
 ! D35   D(12,3,13,30)         -44.7226         estimate D2E/DX2                !
 ! D36   D(12,3,13,31)        -159.4782         estimate D2E/DX2                !
 ! D37   D(17,3,13,10)        -160.7063         estimate D2E/DX2                !
 ! D38   D(17,3,13,30)          72.2985         estimate D2E/DX2                !
 ! D39   D(17,3,13,31)         -42.4571         estimate D2E/DX2                !
 ! D40   D(8,4,7,9)             52.3711         estimate D2E/DX2                !
 ! D41   D(8,4,7,22)           -68.7374         estimate D2E/DX2                !
 ! D42   D(8,4,7,23)           173.5921         estimate D2E/DX2                !
 ! D43   D(18,4,7,9)           -67.8415         estimate D2E/DX2                !
 ! D44   D(18,4,7,22)          171.05           estimate D2E/DX2                !
 ! D45   D(18,4,7,23)           53.3795         estimate D2E/DX2                !
 ! D46   D(19,4,7,9)           173.4589         estimate D2E/DX2                !
 ! D47   D(19,4,7,22)           52.3504         estimate D2E/DX2                !
 ! D48   D(19,4,7,23)          -65.3201         estimate D2E/DX2                !
 ! D49   D(7,4,8,11)           -54.5484         estimate D2E/DX2                !
 ! D50   D(7,4,8,24)          -172.165          estimate D2E/DX2                !
 ! D51   D(7,4,8,25)            67.4765         estimate D2E/DX2                !
 ! D52   D(18,4,8,11)           66.0546         estimate D2E/DX2                !
 ! D53   D(18,4,8,24)          -51.5621         estimate D2E/DX2                !
 ! D54   D(18,4,8,25)         -171.9205         estimate D2E/DX2                !
 ! D55   D(19,4,8,11)         -176.8195         estimate D2E/DX2                !
 ! D56   D(19,4,8,24)           65.5639         estimate D2E/DX2                !
 ! D57   D(19,4,8,25)          -54.7946         estimate D2E/DX2                !
 ! D58   D(10,5,6,1)            62.9236         estimate D2E/DX2                !
 ! D59   D(20,5,6,1)          -175.6269         estimate D2E/DX2                !
 ! D60   D(21,5,6,1)           -59.0594         estimate D2E/DX2                !
 ! D61   D(6,5,10,13)          -51.5978         estimate D2E/DX2                !
 ! D62   D(6,5,10,28)         -172.0632         estimate D2E/DX2                !
 ! D63   D(6,5,10,29)           71.5478         estimate D2E/DX2                !
 ! D64   D(20,5,10,13)        -170.1861         estimate D2E/DX2                !
 ! D65   D(20,5,10,28)          69.3485         estimate D2E/DX2                !
 ! D66   D(20,5,10,29)         -47.0404         estimate D2E/DX2                !
 ! D67   D(21,5,10,13)          69.2772         estimate D2E/DX2                !
 ! D68   D(21,5,10,28)         -51.1882         estimate D2E/DX2                !
 ! D69   D(21,5,10,29)        -167.5771         estimate D2E/DX2                !
 ! D70   D(4,7,9,2)            -51.8764         estimate D2E/DX2                !
 ! D71   D(4,7,9,26)            66.9091         estimate D2E/DX2                !
 ! D72   D(4,7,9,27)          -174.3016         estimate D2E/DX2                !
 ! D73   D(22,7,9,2)            68.9481         estimate D2E/DX2                !
 ! D74   D(22,7,9,26)         -172.2664         estimate D2E/DX2                !
 ! D75   D(22,7,9,27)          -53.4771         estimate D2E/DX2                !
 ! D76   D(23,7,9,2)          -173.5522         estimate D2E/DX2                !
 ! D77   D(23,7,9,26)          -54.7667         estimate D2E/DX2                !
 ! D78   D(23,7,9,27)           64.0227         estimate D2E/DX2                !
 ! D79   D(4,8,11,2)            57.989          estimate D2E/DX2                !
 ! D80   D(24,8,11,2)          179.0921         estimate D2E/DX2                !
 ! D81   D(25,8,11,2)          -64.7925         estimate D2E/DX2                !
 ! D82   D(5,10,13,3)           44.0863         estimate D2E/DX2                !
 ! D83   D(5,10,13,30)         170.8871         estimate D2E/DX2                !
 ! D84   D(5,10,13,31)         -72.4318         estimate D2E/DX2                !
 ! D85   D(28,10,13,3)         164.2718         estimate D2E/DX2                !
 ! D86   D(28,10,13,30)        -68.9275         estimate D2E/DX2                !
 ! D87   D(28,10,13,31)         47.7536         estimate D2E/DX2                !
 ! D88   D(29,10,13,3)         -77.9474         estimate D2E/DX2                !
 ! D89   D(29,10,13,30)         48.8533         estimate D2E/DX2                !
 ! D90   D(29,10,13,31)        165.5344         estimate D2E/DX2                !
 --------------------------------------------------------------------------------
 Trust Radius=3.00D-01 FncErr=1.00D-07 GrdErr=1.00D-06 EigMax=2.50D+02 EigMin=1.00D-04
 Number of steps in this run=    186 maximum allowed number of steps=    186.
 GradGradGradGradGradGradGradGradGradGradGradGradGradGradGradGradGradGrad

                          Input orientation:                          
 ---------------------------------------------------------------------
 Center     Atomic      Atomic             Coordinates (Angstroms)
 Number     Number       Type             X           Y           Z
 ---------------------------------------------------------------------
      1          6           0       -2.153016   -1.129764    0.911551
      2          6           0        0.748912   -0.195396   -0.550863
      3          6           0       -1.088213   -0.068828    1.148994
      4          6           0        3.529336    0.338192    0.063701
      5          6           0       -3.243059    0.054466   -0.804125
      6          8           0       -2.595656   -1.147569   -0.428827
      7          6           0        3.030018   -1.106841    0.055538
      8          6           0        2.384223    1.288525    0.372592
      9          6           0        1.820229   -1.229202   -0.872339
     10          6           0       -2.287542    1.235728   -0.727775
     11          8           0        1.297251    1.096798   -0.521731
     12          8           0        0.170340   -0.546843    0.670286
     13          6           0       -1.592987    1.287795    0.638416
     14          1           0       -2.999681   -0.940661    1.567757
     15          1           0       -1.761680   -2.113730    1.128356
     16          1           0        0.008138   -0.171880   -1.331496
     17          1           0       -0.938890    0.010365    2.218111
     18          1           0        3.947144    0.588329   -0.908838
     19          1           0        4.315014    0.476415    0.801171
     20          1           0       -3.607670   -0.093132   -1.811498
     21          1           0       -4.098500    0.210029   -0.150443
     22          1           0        2.759691   -1.406272    1.064482
     23          1           0        3.815790   -1.779723   -0.274197
     24          1           0        2.682945    2.320534    0.249858
     25          1           0        2.039854    1.156694    1.392952
     26          1           0        2.133946   -1.060229   -1.899023
     27          1           0        1.380393   -2.219488   -0.824764
     28          1           0       -2.847602    2.153336   -0.883615
     29          1           0       -1.566811    1.168741   -1.534042
     30          1           0       -0.800013    2.023283    0.648070
     31          1           0       -2.324968    1.610253    1.375205
 ---------------------------------------------------------------------
                    Distance matrix (angstroms):
                    1          2          3          4          5
     1  C    0.000000
     2  C    3.381255   0.000000
     3  C    1.521765   2.506105   0.000000
     4  C    5.929829   2.897096   4.760807   0.000000
     5  C    2.352475   4.007793   2.910882   6.833663   0.000000
     6  O    1.411687   3.479606   2.434253   6.321835   1.415933
     7  C    5.253297   2.530197   4.385538   1.528890   6.437325
     8  C    5.169636   2.393540   3.808283   1.519813   5.879955
     9  C    4.356470   1.523096   3.727102   2.500788   5.223920
    10  C    2.881152   3.361468   2.581185   5.938693   1.521257
    11  O    4.349278   1.404026   3.136948   2.429077   4.666971
    12  O    2.407486   1.396233   1.428851   3.526200   3.766531
    13  C    2.496563   3.016410   1.534898   5.241206   2.514908
    14  H    1.087754   4.369888   2.142234   6.820976   2.583667
    15  H    1.080897   3.578108   2.153046   5.927922   3.260374
    16  H    3.258740   1.076423   2.713934   3.821725   3.301459
    17  H    2.116860   3.249343   1.082396   4.971317   3.800664
    18  H    6.593756   3.312259   5.479174   1.087642   7.210755
    19  H    6.665389   3.872520   5.441795   1.086397   7.738183
    20  H    3.256627   4.536460   3.887514   7.391838   1.081447
    21  H    2.589939   4.880790   3.290612   7.631918   1.087786
    22  H    4.922858   2.849349   4.074588   2.153386   6.454336
    23  H    6.120056   3.463001   5.385339   2.163746   7.312484
    24  H    5.977367   3.272849   4.554023   2.163495   6.431444
    25  H    4.799979   2.696868   3.368415   2.157640   5.826768
    26  H    5.126617   2.117496   4.544842   2.784776   5.599422
    27  H    4.085005   2.137929   3.822967   3.456740   5.152436
    28  H    3.805761   4.308385   3.487831   6.697574   2.137279
    29  H    3.407006   2.861832   2.993212   5.404934   2.141073
    30  H    3.441184   2.959585   2.170464   4.682337   3.457396
    31  H    2.784284   4.052017   2.097629   6.132785   2.830697
                    6          7          8          9         10
     6  O    0.000000
     7  C    5.646634   0.000000
     8  C    5.601430   2.501070   0.000000
     9  C    4.438852   1.529548   2.864767   0.000000
    10  C    2.421654   5.863246   4.799894   4.792761   0.000000
    11  O    4.494501   2.862123   1.420592   2.409711   3.593396
    12  O    3.036388   2.978132   2.891103   2.359542   3.342651
    13  C    2.841716   5.238912   3.986084   4.501966   1.533491
    14  H    2.047534   6.218657   5.948455   5.410070   3.242419
    15  H    2.013406   5.012498   5.416182   4.197052   3.865310
    16  H    2.923444   3.453951   3.268406   2.147657   2.759708
    17  H    3.330460   4.655867   4.010326   4.324366   3.463903
    18  H    6.786161   2.155166   2.138939   2.797949   6.270823
    19  H    7.204691   2.171148   2.138026   3.454521   6.819676
    20  H    2.011912   6.969385   6.525489   5.624479   2.164038
    21  H    2.044287   7.252058   6.592603   6.133830   2.159847
    22  H    5.565666   1.086602   2.807422   2.159912   5.972178
    23  H    6.444391   1.085787   3.447008   2.154788   6.822708
    24  H    6.352321   3.450380   1.081361   3.821548   5.180571
    25  H    5.487847   2.809393   1.084944   3.297314   4.819760
    26  H    4.953609   2.150680   3.277120   1.086761   5.117890
    27  H    4.136997   2.175817   3.840246   1.084613   5.040007
    28  H    3.341599   6.786544   5.449582   5.764576   1.086259
    29  H    2.765016   5.369905   4.388653   4.202383   1.083516
    30  H    3.799782   4.981758   3.279499   4.444769   2.173922
    31  H    3.306567   6.148170   4.825476   5.504236   2.136398
                   11         12         13         14         15
    11  O    0.000000
    12  O    2.322152   0.000000
    13  C    3.120240   2.544845   0.000000
    14  H    5.194307   3.318069   2.794366   0.000000
    15  H    4.731526   2.529360   3.440766   1.761196   0.000000
    16  H    1.981685   2.043046   2.928277   4.247784   3.599154
    17  H    3.699648   1.984095   2.134270   2.360989   2.525139
    18  H    2.725862   4.248117   5.794506   7.531913   6.636411
    19  H    3.352885   4.271125   5.965677   7.490028   6.613782
    20  H    5.209384   4.542958   3.459478   3.536569   4.016620
    21  H    5.480725   4.412420   2.839273   2.341731   3.534956
    22  H    3.304567   2.756583   5.136666   5.800038   4.576830
    23  H    3.831277   3.962493   6.284696   7.109674   5.760806
    24  H    2.003254   3.835596   4.416007   6.683150   6.339491
    25  H    2.054521   2.630469   3.712687   5.461352   5.021687
    26  H    2.692537   3.274242   5.083487   6.195723   5.044878
    27  H    3.331140   2.548950   4.825238   5.152146   3.701146
    28  H    4.292673   4.337459   2.154019   3.950338   4.840982
    29  H    3.038552   3.289374   2.175875   4.015451   4.230952
    30  H    2.573971   2.747294   1.081593   3.803857   4.274384
    31  H    4.120980   3.372912   1.087489   2.645652   3.774424
                   16         17         18         19         20
    16  H    0.000000
    17  H    3.678286   0.000000
    18  H    4.033897   5.829681   0.000000
    19  H    4.849509   5.461541   1.752708   0.000000
    20  H    3.648379   4.834340   7.639005   8.361779   0.000000
    21  H    4.290130   3.953865   8.090158   8.471349   1.758387
    22  H    3.851685   4.125194   3.046715   2.456191   7.109071
    23  H    4.266293   5.658886   2.455136   2.548686   7.766315
    24  H    3.983391   4.725314   2.437480   2.523563   7.046049
    25  H    3.649054   3.296646   3.042866   2.447312   6.612495
    26  H    2.372828   5.247789   2.643085   3.795969   5.823151
    27  H    2.516458   4.428364   3.805143   4.303900   5.511425
    28  H    3.709781   4.225661   6.972694   7.546763   2.546623
    29  H    2.078161   3.976779   5.579557   6.366192   2.415452
    30  H    3.064397   2.556590   5.197938   5.346002   4.290877
    31  H    3.993196   2.278452   6.752819   6.760508   3.834308
                   21         22         23         24         25
    21  H    0.000000
    22  H    7.150053   0.000000
    23  H    8.161520   1.745529   0.000000
    24  H    7.113541   3.815571   4.286033   0.000000
    25  H    6.399815   2.682322   3.815217   1.753497   0.000000
    26  H    6.596550   3.048551   2.446698   4.043346   3.969975
    27  H    6.031213   2.476496   2.535286   4.843888   4.092891
    28  H    2.424609   6.921533   7.761516   5.647979   5.482999
    29  H    3.040218   5.665831   6.265225   4.750721   4.644940
    30  H    3.847795   4.960518   6.051369   3.518228   3.061155
    31  H    2.726471   5.920281   7.205649   5.181708   4.388360
                   26         27         28         29         30
    26  H    0.000000
    27  H    1.750930   0.000000
    28  H    6.014472   6.082844   0.000000
    29  H    4.335565   4.546337   1.741525   0.000000
    30  H    4.960226   4.992446   2.560389   2.465732   0.000000
    31  H    6.142797   5.765109   2.381250   3.038660   1.739197
                   31
    31  H    0.000000
 Stoichiometry    C10H18O3
 Framework group  C1[X(C10H18O3)]
 Deg. of freedom    87
 Full point group                 C1      NOp   1
 Largest Abelian subgroup         C1      NOp   1
 Largest concise Abelian subgroup C1      NOp   1
                         Standard orientation:                         
 ---------------------------------------------------------------------
 Center     Atomic      Atomic             Coordinates (Angstroms)
 Number     Number       Type             X           Y           Z
 ---------------------------------------------------------------------
      1          6           0       -2.153016   -1.129764    0.911551
      2          6           0        0.748912   -0.195396   -0.550863
      3          6           0       -1.088213   -0.068828    1.148994
      4          6           0        3.529336    0.338192    0.063701
      5          6           0       -3.243059    0.054466   -0.804125
      6          8           0       -2.595656   -1.147569   -0.428827
      7          6           0        3.030018   -1.106841    0.055538
      8          6           0        2.384223    1.288525    0.372592
      9          6           0        1.820229   -1.229202   -0.872339
     10          6           0       -2.287542    1.235728   -0.727775
     11          8           0        1.297251    1.096798   -0.521731
     12          8           0        0.170340   -0.546843    0.670286
     13          6           0       -1.592987    1.287795    0.638416
     14          1           0       -2.999681   -0.940661    1.567757
     15          1           0       -1.761680   -2.113730    1.128356
     16          1           0        0.008138   -0.171880   -1.331496
     17          1           0       -0.938890    0.010365    2.218111
     18          1           0        3.947144    0.588329   -0.908838
     19          1           0        4.315014    0.476415    0.801171
     20          1           0       -3.607670   -0.093132   -1.811498
     21          1           0       -4.098500    0.210029   -0.150443
     22          1           0        2.759691   -1.406272    1.064482
     23          1           0        3.815790   -1.779723   -0.274197
     24          1           0        2.682945    2.320534    0.249858
     25          1           0        2.039854    1.156694    1.392952
     26          1           0        2.133946   -1.060229   -1.899023
     27          1           0        1.380393   -2.219488   -0.824764
     28          1           0       -2.847602    2.153336   -0.883615
     29          1           0       -1.566811    1.168741   -1.534042
     30          1           0       -0.800013    2.023283    0.648070
     31          1           0       -2.324968    1.610253    1.375205
 ---------------------------------------------------------------------
 Rotational constants (GHZ):           1.7293769           0.4879532           0.4497789
 Standard basis: 6-311++G(2d,2p) (5D, 7F)
 There are   557 symmetry adapted cartesian basis functions of A   symmetry.
 There are   531 symmetry adapted basis functions of A   symmetry.
   531 basis functions,   762 primitive gaussians,   557 cartesian basis functions
    51 alpha electrons       51 beta electrons
       nuclear repulsion energy       913.5008205446 Hartrees.
 NAtoms=   31 NActive=   31 NUniq=   31 SFac= 1.00D+00 NAtFMM=   60 NAOKFM=F Big=F
 Integral buffers will be    131072 words long.
 Raffenetti 2 integral format.
 Two-electron integral symmetry is turned on.
 ------------------------------------------------------------------------------
 Polarizable Continuum Model (PCM)
 =================================
 Model                : PCM.
 Atomic radii         : SMD-Coulomb.
 Polarization charges : Total charges.
 Charge compensation  : None.
 Solution method      : On-the-fly selection.
 Cavity type          : VdW (van der Waals Surface) (Alpha=1.000).
 Cavity algorithm     : GePol (No added spheres)
                        Default sphere list used, NSphG=   31.
                        Lebedev-Laikov grids with approx.  5.0 points / Ang**2.
                        Smoothing algorithm: York/Karplus (Gamma=1.0000).
                        Polarization charges: spherical gaussians, with
                                              point-specific exponents (IZeta= 3).
                        Self-potential: point-specific (ISelfS= 7).
                        Self-field    : sphere-specific E.n sum rule (ISelfD= 2).
 1st derivatives      : Analytical E(r).r(x)/FMM algorithm (CHGder, D1EAlg=3).
                        Cavity 1st derivative terms included.
 Solvent              : Water, Eps=  78.355300 Eps(inf)=   1.777849
 ------------------------------------------------------------------------------
 ------------------------------------------------------------------------------
 Atomic radii for non-electrostatic terms: SMD-CDS.
 ------------------------------------------------------------------------------
 Nuclear repulsion after PCM non-electrostatic terms =      913.5071759398 Hartrees.
 One-electron integrals computed using PRISM.
 NBasis=   531 RedAO= T EigKep=  4.05D-06  NBF=   531
 NBsUse=   531 1.00D-06 EigRej= -1.00D+00 NBFU=   531
 ExpMin= 3.60D-02 ExpMax= 8.59D+03 ExpMxC= 1.30D+03 IAcc=3 IRadAn=         5 AccDes= 0.00D+00
 Harris functional with IExCor= 1009 and IRadAn=       5 diagonalized for initial guess.
 HarFok:  IExCor= 1009 AccDes= 0.00D+00 IRadAn=         5 IDoV= 1 UseB2=F ITyADJ=14
 ICtDFT=  3500011 ScaDFX=  1.000000  1.000000  1.000000  1.000000
 FoFCou: FMM=F IPFlag=           0 FMFlag=      100000 FMFlg1=           0
         NFxFlg=           0 DoJE=T BraDBF=F KetDBF=T FulRan=T
         wScrn=  0.000000 ICntrl=       500 IOpCl=  0 I1Cent=   200000004 NGrid=           0
         NMat0=    1 NMatS0=      1 NMatT0=    0 NMatD0=    1 NMtDS0=    0 NMtDT0=    0
 Petite list used in FoFCou.
 Requested convergence on RMS density matrix=1.00D-08 within 128 cycles.
 Requested convergence on MAX density matrix=1.00D-06.
 Requested convergence on             energy=1.00D-06.
 No special actions if energy rises.
 Inv3:  Mode=1 IEnd=    11892243.
 Iteration    1 A*A^-1 deviation from unit magnitude is 6.44D-15 for    221.
 Iteration    1 A*A^-1 deviation from orthogonality  is 2.90D-15 for   1397    219.
 Iteration    1 A^-1*A deviation from unit magnitude is 5.11D-15 for   1990.
 Iteration    1 A^-1*A deviation from orthogonality  is 1.72D-14 for   1989   1490.
 Error on total polarization charges =  0.06008
 SCF Done:  E(RM062X) =  -617.497574448     A.U. after   13 cycles
            NFock= 13  Conv=0.16D-08     -V/T= 2.0035
 SMD-CDS (non-electrostatic) energy       (kcal/mol) =       3.99
 (included in total energy above)

 **********************************************************************

            Population analysis using the SCF Density.

 **********************************************************************

 Orbital symmetries:
       Occupied  (A) (A) (A) (A) (A) (A) (A) (A) (A) (A) (A) (A)
                 (A) (A) (A) (A) (A) (A) (A) (A) (A) (A) (A) (A)
                 (A) (A) (A) (A) (A) (A) (A) (A) (A) (A) (A) (A)
                 (A) (A) (A) (A) (A) (A) (A) (A) (A) (A) (A) (A)
                 (A) (A) (A)
       Virtual   (A) (A) (A) (A) (A) (A) (A) (A) (A) (A) (A) (A)
                 (A) (A) (A) (A) (A) (A) (A) (A) (A) (A) (A) (A)
                 (A) (A) (A) (A) (A) (A) (A) (A) (A) (A) (A) (A)
                 (A) (A) (A) (A) (A) (A) (A) (A) (A) (A) (A) (A)
                 (A) (A) (A) (A) (A) (A) (A) (A) (A) (A) (A) (A)
                 (A) (A) (A) (A) (A) (A) (A) (A) (A) (A) (A) (A)
                 (A) (A) (A) (A) (A) (A) (A) (A) (A) (A) (A) (A)
                 (A) (A) (A) (A) (A) (A) (A) (A) (A) (A) (A) (A)
                 (A) (A) (A) (A) (A) (A) (A) (A) (A) (A) (A) (A)
                 (A) (A) (A) (A) (A) (A) (A) (A) (A) (A) (A) (A)
                 (A) (A) (A) (A) (A) (A) (A) (A) (A) (A) (A) (A)
                 (A) (A) (A) (A) (A) (A) (A) (A) (A) (A) (A) (A)
                 (A) (A) (A) (A) (A) (A) (A) (A) (A) (A) (A) (A)
                 (A) (A) (A) (A) (A) (A) (A) (A) (A) (A) (A) (A)
                 (A) (A) (A) (A) (A) (A) (A) (A) (A) (A) (A) (A)
                 (A) (A) (A) (A) (A) (A) (A) (A) (A) (A) (A) (A)
                 (A) (A) (A) (A) (A) (A) (A) (A) (A) (A) (A) (A)
                 (A) (A) (A) (A) (A) (A) (A) (A) (A) (A) (A) (A)
                 (A) (A) (A) (A) (A) (A) (A) (A) (A) (A) (A) (A)
                 (A) (A) (A) (A) (A) (A) (A) (A) (A) (A) (A) (A)
                 (A) (A) (A) (A) (A) (A) (A) (A) (A) (A) (A) (A)
                 (A) (A) (A) (A) (A) (A) (A) (A) (A) (A) (A) (A)
                 (A) (A) (A) (A) (A) (A) (A) (A) (A) (A) (A) (A)
                 (A) (A) (A) (A) (A) (A) (A) (A) (A) (A) (A) (A)
                 (A) (A) (A) (A) (A) (A) (A) (A) (A) (A) (A) (A)
                 (A) (A) (A) (A) (A) (A) (A) (A) (A) (A) (A) (A)
                 (A) (A) (A) (A) (A) (A) (A) (A) (A) (A) (A) (A)
                 (A) (A) (A) (A) (A) (A) (A) (A) (A) (A) (A) (A)
                 (A) (A) (A) (A) (A) (A) (A) (A) (A) (A) (A) (A)
                 (A) (A) (A) (A) (A) (A) (A) (A) (A) (A) (A) (A)
                 (A) (A) (A) (A) (A) (A) (A) (A) (A) (A) (A) (A)
                 (A) (A) (A) (A) (A) (A) (A) (A) (A) (A) (A) (A)
                 (A) (A) (A) (A) (A) (A) (A) (A) (A) (A) (A) (A)
                 (A) (A) (A) (A) (A) (A) (A) (A) (A) (A) (A) (A)
                 (A) (A) (A) (A) (A) (A) (A) (A) (A) (A) (A) (A)
                 (A) (A) (A) (A) (A) (A) (A) (A) (A) (A) (A) (A)
                 (A) (A) (A) (A) (A) (A) (A) (A) (A) (A) (A) (A)
                 (A) (A) (A) (A) (A) (A) (A) (A) (A) (A) (A) (A)
                 (A) (A) (A) (A) (A) (A) (A) (A) (A) (A) (A) (A)
                 (A) (A) (A) (A) (A) (A) (A) (A) (A) (A) (A) (A)
 The electronic state is 1-A.
 Alpha  occ. eigenvalues --  -19.62805 -19.62599 -19.62574 -10.62878 -10.58436
 Alpha  occ. eigenvalues --  -10.57154 -10.57125 -10.57037 -10.52685 -10.52241
 Alpha  occ. eigenvalues --  -10.52227 -10.52173 -10.52030  -1.19726  -1.16611
 Alpha  occ. eigenvalues --   -1.13119  -0.90283  -0.88873  -0.87267  -0.84265
 Alpha  occ. eigenvalues --   -0.74853  -0.73648  -0.72731  -0.70678  -0.66218
 Alpha  occ. eigenvalues --   -0.61836  -0.59473  -0.58401  -0.56570  -0.54635
 Alpha  occ. eigenvalues --   -0.54021  -0.52895  -0.52515  -0.50667  -0.49675
 Alpha  occ. eigenvalues --   -0.47853  -0.46159  -0.45705  -0.45048  -0.44781
 Alpha  occ. eigenvalues --   -0.43427  -0.42590  -0.40002  -0.39849  -0.38523
 Alpha  occ. eigenvalues --   -0.37941  -0.37137  -0.35798  -0.34829  -0.32911
 Alpha  occ. eigenvalues --   -0.31108
 Alpha virt. eigenvalues --    0.00273   0.01241   0.01361   0.01617   0.02726
 Alpha virt. eigenvalues --    0.03011   0.03102   0.03672   0.03908   0.05129
 Alpha virt. eigenvalues --    0.05167   0.05389   0.06043   0.06080   0.07555
 Alpha virt. eigenvalues --    0.08051   0.08195   0.08542   0.09643   0.09994
 Alpha virt. eigenvalues --    0.10441   0.11089   0.11435   0.11707   0.12619
 Alpha virt. eigenvalues --    0.12939   0.13315   0.13552   0.13629   0.14004
 Alpha virt. eigenvalues --    0.14165   0.14440   0.14864   0.15085   0.15363
 Alpha virt. eigenvalues --    0.15640   0.15772   0.16027   0.16588   0.16981
 Alpha virt. eigenvalues --    0.17119   0.17510   0.17690   0.18426   0.18443
 Alpha virt. eigenvalues --    0.18895   0.19081   0.19430   0.19666   0.20294
 Alpha virt. eigenvalues --    0.20450   0.21010   0.21118   0.21530   0.21652
 Alpha virt. eigenvalues --    0.22819   0.23144   0.23621   0.24336   0.24598
 Alpha virt. eigenvalues --    0.24904   0.25860   0.26984   0.27156   0.27903
 Alpha virt. eigenvalues --    0.28062   0.28813   0.29475   0.29937   0.30004
 Alpha virt. eigenvalues --    0.30597   0.30790   0.31144   0.31774   0.32676
 Alpha virt. eigenvalues --    0.33215   0.33816   0.34213   0.34344   0.35080
 Alpha virt. eigenvalues --    0.35741   0.35938   0.36363   0.36744   0.37020
 Alpha virt. eigenvalues --    0.37506   0.37652   0.38405   0.38531   0.38618
 Alpha virt. eigenvalues --    0.38963   0.39709   0.40455   0.40990   0.41432
 Alpha virt. eigenvalues --    0.42513   0.42850   0.43165   0.44383   0.45059
 Alpha virt. eigenvalues --    0.47421   0.48171   0.49668   0.50989   0.51594
 Alpha virt. eigenvalues --    0.52451   0.52646   0.53904   0.55461   0.56530
 Alpha virt. eigenvalues --    0.57221   0.58219   0.58850   0.60148   0.60429
 Alpha virt. eigenvalues --    0.60733   0.61081   0.61790   0.62106   0.62851
 Alpha virt. eigenvalues --    0.63077   0.63612   0.64544   0.65044   0.65204
 Alpha virt. eigenvalues --    0.65667   0.66473   0.67124   0.67881   0.68363
 Alpha virt. eigenvalues --    0.68499   0.69318   0.70227   0.70445   0.70941
 Alpha virt. eigenvalues --    0.71442   0.71884   0.72728   0.73354   0.73938
 Alpha virt. eigenvalues --    0.74374   0.74726   0.75325   0.75420   0.76855
 Alpha virt. eigenvalues --    0.76877   0.77453   0.78247   0.79353   0.79894
 Alpha virt. eigenvalues --    0.80891   0.83092   0.84061   0.86501   0.86649
 Alpha virt. eigenvalues --    0.87119   0.87800   0.89064   0.89784   0.90204
 Alpha virt. eigenvalues --    0.91742   0.93747   0.94411   0.95269   0.96402
 Alpha virt. eigenvalues --    0.97919   0.99342   1.00408   1.00912   1.02546
 Alpha virt. eigenvalues --    1.03771   1.04195   1.05768   1.07221   1.07748
 Alpha virt. eigenvalues --    1.08086   1.08898   1.10417   1.11422   1.12953
 Alpha virt. eigenvalues --    1.13774   1.14269   1.16055   1.16472   1.17534
 Alpha virt. eigenvalues --    1.18306   1.19181   1.19950   1.21142   1.21977
 Alpha virt. eigenvalues --    1.22646   1.23231   1.23490   1.24213   1.25022
 Alpha virt. eigenvalues --    1.25868   1.26018   1.26694   1.27588   1.28810
 Alpha virt. eigenvalues --    1.29404   1.30476   1.30873   1.31856   1.32828
 Alpha virt. eigenvalues --    1.32999   1.33404   1.34448   1.34886   1.36095
 Alpha virt. eigenvalues --    1.36687   1.37412   1.38940   1.39160   1.39980
 Alpha virt. eigenvalues --    1.40669   1.40761   1.41653   1.42508   1.42678
 Alpha virt. eigenvalues --    1.42970   1.43971   1.44629   1.45266   1.46229
 Alpha virt. eigenvalues --    1.46259   1.47465   1.47857   1.48964   1.49577
 Alpha virt. eigenvalues --    1.50024   1.50612   1.51299   1.52577   1.53435
 Alpha virt. eigenvalues --    1.54270   1.54797   1.55429   1.55957   1.56129
 Alpha virt. eigenvalues --    1.57765   1.58512   1.58598   1.59131   1.59759
 Alpha virt. eigenvalues --    1.60412   1.61366   1.62015   1.62504   1.63388
 Alpha virt. eigenvalues --    1.64688   1.65826   1.66452   1.67129   1.67932
 Alpha virt. eigenvalues --    1.68671   1.69451   1.70179   1.71574   1.73500
 Alpha virt. eigenvalues --    1.75356   1.75645   1.76545   1.77589   1.78666
 Alpha virt. eigenvalues --    1.80330   1.81119   1.81934   1.83838   1.86587
 Alpha virt. eigenvalues --    1.87023   1.88996   1.92171   1.95232   1.98440
 Alpha virt. eigenvalues --    2.04974   2.06782   2.12318   2.18530   2.23165
 Alpha virt. eigenvalues --    2.23862   2.25430   2.33954   2.34222   2.37701
 Alpha virt. eigenvalues --    2.42544   2.43822   2.44992   2.48599   2.54143
 Alpha virt. eigenvalues --    2.62402   2.77468   2.78746   2.79314   2.80167
 Alpha virt. eigenvalues --    2.86812   2.89202   2.92642   2.94038   2.94410
 Alpha virt. eigenvalues --    2.96034   2.98972   2.99730   3.02422   3.04259
 Alpha virt. eigenvalues --    3.07498   3.09056   3.09638   3.10093   3.12760
 Alpha virt. eigenvalues --    3.13832   3.15469   3.20484   3.20846   3.22357
 Alpha virt. eigenvalues --    3.26205   3.28797   3.32661   3.33411   3.34144
 Alpha virt. eigenvalues --    3.36728   3.37896   3.38415   3.40408   3.41606
 Alpha virt. eigenvalues --    3.43481   3.44761   3.45635   3.47104   3.47286
 Alpha virt. eigenvalues --    3.48131   3.49941   3.50691   3.52761   3.53595
 Alpha virt. eigenvalues --    3.53723   3.54293   3.55180   3.55902   3.56579
 Alpha virt. eigenvalues --    3.57132   3.58728   3.59301   3.59658   3.60430
 Alpha virt. eigenvalues --    3.60946   3.62199   3.63827   3.64886   3.66170
 Alpha virt. eigenvalues --    3.67514   3.68025   3.68843   3.69958   3.70748
 Alpha virt. eigenvalues --    3.71864   3.72761   3.73382   3.74709   3.74988
 Alpha virt. eigenvalues --    3.76323   3.77005   3.77693   3.78493   3.78712
 Alpha virt. eigenvalues --    3.79608   3.82450   3.82749   3.84792   3.85371
 Alpha virt. eigenvalues --    3.86237   3.87196   3.88749   3.90862   3.92651
 Alpha virt. eigenvalues --    3.92942   3.94354   3.95100   3.96379   3.98632
 Alpha virt. eigenvalues --    4.00142   4.01814   4.03250   4.04044   4.04881
 Alpha virt. eigenvalues --    4.05840   4.06583   4.08169   4.08277   4.08664
 Alpha virt. eigenvalues --    4.09256   4.10260   4.10780   4.11922   4.12078
 Alpha virt. eigenvalues --    4.12619   4.13202   4.15195   4.15947   4.17408
 Alpha virt. eigenvalues --    4.17774   4.18929   4.19791   4.20868   4.21598
 Alpha virt. eigenvalues --    4.23051   4.24252   4.26357   4.26878   4.28315
 Alpha virt. eigenvalues --    4.28786   4.30881   4.31315   4.31993   4.33121
 Alpha virt. eigenvalues --    4.33585   4.34309   4.35572   4.38026   4.38830
 Alpha virt. eigenvalues --    4.41741   4.43000   4.46375   4.47983   4.54123
 Alpha virt. eigenvalues --    4.58761   4.62430   4.73650   4.76495   4.81215
 Alpha virt. eigenvalues --    4.86273   4.94489   4.96298   5.02156   5.03395
 Alpha virt. eigenvalues --    5.07356   5.08119   5.08984   5.10381   5.12155
 Alpha virt. eigenvalues --    5.12803   5.14589   5.17117   5.33677   5.39244
 Alpha virt. eigenvalues --    5.42472   5.59447   5.59729   5.66024   5.85451
 Alpha virt. eigenvalues --    5.87654   6.02593   7.02858   7.05299   7.07415
 Alpha virt. eigenvalues --    7.07905   7.09583   7.12431   7.14205   7.18990
 Alpha virt. eigenvalues --    7.29847   7.36250   7.41016   7.48438   7.52258
 Alpha virt. eigenvalues --    7.53937   7.64074  23.97049  23.97803  24.07698
 Alpha virt. eigenvalues --   24.08423  24.10778  24.12403  24.14737  24.15812
 Alpha virt. eigenvalues --   24.16862  24.22016  50.16198  50.17326  50.29089
          Condensed to atoms (all electrons):
               1          2          3          4          5          6
     1  C    6.290178   0.190356  -1.032957   0.004689  -0.351150   0.099499
     2  C    0.190356   7.867325  -0.921776   0.422743   0.103038  -0.012681
     3  C   -1.032957  -0.921776   7.977754  -0.002460   0.218209  -0.006637
     4  C    0.004689   0.422743  -0.002460   5.690596   0.002796  -0.000538
     5  C   -0.351150   0.103038   0.218209   0.002796   5.677350   0.096846
     6  O    0.099499  -0.012681  -0.006637  -0.000538   0.096846   8.347577
     7  C    0.004148  -0.380903   0.160454   0.011933  -0.001105  -0.001149
     8  C   -0.003826  -0.506092   0.035736  -0.051972  -0.013049   0.002691
     9  C   -0.131988  -1.511960   0.176391  -0.287095   0.014999   0.003910
    10  C    0.110506  -0.115969   0.107200   0.002055  -0.212528   0.033825
    11  O   -0.016141   0.194414   0.023659  -0.087679  -0.000457   0.000165
    12  O   -0.069579   0.279826  -0.062996  -0.006106  -0.034893   0.031847
    13  C    0.432390   0.253267  -1.204917  -0.018886   0.064281  -0.008037
    14  H    0.437382  -0.006324   0.005882  -0.000901  -0.010067  -0.059246
    15  H    0.442819   0.006798  -0.059347   0.002371   0.007982  -0.065346
    16  H   -0.017108   0.548970   0.010552   0.018673   0.001269  -0.009854
    17  H   -0.003716  -0.038560   0.444975  -0.002624  -0.020670   0.007706
    18  H   -0.001000  -0.013616  -0.002183   0.487906   0.000040   0.000042
    19  H    0.001691   0.012430   0.001763   0.454579  -0.000294  -0.000026
    20  H   -0.009184   0.001370   0.012377  -0.000326   0.451995  -0.067712
    21  H   -0.023756  -0.006349   0.056221   0.000123   0.440548  -0.058420
    22  H    0.001825  -0.033756  -0.000810  -0.065709   0.000758  -0.000162
    23  H   -0.000942   0.004079   0.007240  -0.015535   0.000168   0.000009
    24  H    0.001512  -0.007027   0.004680  -0.018827  -0.000697   0.000030
    25  H    0.000378  -0.017286  -0.043144  -0.064592   0.002123  -0.000269
    26  H   -0.001752  -0.157960   0.004590  -0.014748   0.001887  -0.000878
    27  H   -0.003641  -0.044025   0.006291  -0.009034  -0.002217   0.000558
    28  H    0.000978   0.010330   0.003742  -0.000496  -0.021712   0.008908
    29  H    0.033344  -0.047221   0.012909   0.002960  -0.121536  -0.011084
    30  H   -0.005621   0.027271  -0.018677  -0.007922   0.000725  -0.002030
    31  H   -0.012845  -0.013908  -0.039099   0.000558  -0.017287   0.000134
               7          8          9         10         11         12
     1  C    0.004148  -0.003826  -0.131988   0.110506  -0.016141  -0.069579
     2  C   -0.380903  -0.506092  -1.511960  -0.115969   0.194414   0.279826
     3  C    0.160454   0.035736   0.176391   0.107200   0.023659  -0.062996
     4  C    0.011933  -0.051972  -0.287095   0.002055  -0.087679  -0.006106
     5  C   -0.001105  -0.013049   0.014999  -0.212528  -0.000457  -0.034893
     6  O   -0.001149   0.002691   0.003910   0.033825   0.000165   0.031847
     7  C    5.846426  -0.032884  -0.053978   0.021737   0.020813  -0.032721
     8  C   -0.032884   5.534172   0.223586   0.005415   0.090487  -0.013507
     9  C   -0.053978   0.223586   7.469290  -0.131913  -0.032744  -0.083404
    10  C    0.021737   0.005415  -0.131913   5.953329  -0.043199   0.020152
    11  O    0.020813   0.090487  -0.032744  -0.043199   8.318713  -0.047948
    12  O   -0.032721  -0.013507  -0.083404   0.020152  -0.047948   8.370029
    13  C   -0.066654   0.053881   0.043596  -0.468733   0.037983   0.037700
    14  H    0.001687   0.001232   0.005296   0.038001  -0.000978   0.000750
    15  H   -0.001182  -0.003137  -0.008783   0.000383   0.000911   0.007818
    16  H   -0.053762  -0.040493  -0.067145   0.014376  -0.084325  -0.026205
    17  H    0.011581   0.005905  -0.005017   0.016125   0.002766  -0.043675
    18  H   -0.021568  -0.084532   0.002984  -0.000265   0.002478   0.000310
    19  H   -0.049524  -0.044738  -0.011637   0.001241   0.009121   0.000148
    20  H    0.000378  -0.000193   0.004210  -0.063441  -0.000044  -0.000910
    21  H   -0.000245   0.000222   0.000068   0.016664   0.000354   0.000948
    22  H    0.529334   0.000668  -0.048210  -0.001171   0.001089  -0.000147
    23  H    0.424431   0.005080  -0.040598  -0.000518  -0.004677  -0.000213
    24  H    0.016061   0.428873  -0.009546  -0.000250  -0.068456   0.001018
    25  H   -0.024612   0.472718   0.047914  -0.008904  -0.028487   0.006704
    26  H    0.001315   0.014667   0.531502  -0.006622  -0.004958   0.008723
    27  H   -0.041635   0.010581   0.435219   0.004211   0.008917   0.000052
    28  H    0.000829  -0.000384  -0.001278   0.447281  -0.001659   0.000011
    29  H    0.005509   0.006183  -0.025027   0.554695   0.005756   0.000973
    30  H   -0.013761  -0.000675   0.010792  -0.019865  -0.013195  -0.004049
    31  H    0.001449   0.003375   0.000696  -0.041636   0.004358  -0.000332
              13         14         15         16         17         18
     1  C    0.432390   0.437382   0.442819  -0.017108  -0.003716  -0.001000
     2  C    0.253267  -0.006324   0.006798   0.548970  -0.038560  -0.013616
     3  C   -1.204917   0.005882  -0.059347   0.010552   0.444975  -0.002183
     4  C   -0.018886  -0.000901   0.002371   0.018673  -0.002624   0.487906
     5  C    0.064281  -0.010067   0.007982   0.001269  -0.020670   0.000040
     6  O   -0.008037  -0.059246  -0.065346  -0.009854   0.007706   0.000042
     7  C   -0.066654   0.001687  -0.001182  -0.053762   0.011581  -0.021568
     8  C    0.053881   0.001232  -0.003137  -0.040493   0.005905  -0.084532
     9  C    0.043596   0.005296  -0.008783  -0.067145  -0.005017   0.002984
    10  C   -0.468733   0.038001   0.000383   0.014376   0.016125  -0.000265
    11  O    0.037983  -0.000978   0.000911  -0.084325   0.002766   0.002478
    12  O    0.037700   0.000750   0.007818  -0.026205  -0.043675   0.000310
    13  C    6.788699  -0.066271   0.016061  -0.056954  -0.039386   0.000633
    14  H   -0.066271   0.467768  -0.002344   0.002358  -0.001220  -0.000013
    15  H    0.016061  -0.002344   0.457274   0.000317  -0.010762  -0.000014
    16  H   -0.056954   0.002358   0.000317   0.507144  -0.005830   0.000470
    17  H   -0.039386  -0.001220  -0.010762  -0.005830   0.442600  -0.000263
    18  H    0.000633  -0.000013  -0.000014   0.000470  -0.000263   0.477295
    19  H   -0.001176   0.000015  -0.000005   0.001279   0.000526  -0.011885
    20  H    0.017478   0.000502   0.001179   0.000587  -0.000328   0.000029
    21  H   -0.077611   0.005114  -0.002178  -0.001273   0.003565   0.000003
    22  H    0.000645  -0.000072  -0.000253  -0.003925  -0.000235   0.001634
    23  H   -0.002926   0.000089  -0.000080   0.001672   0.000548  -0.001227
    24  H    0.003253  -0.000052   0.000117  -0.002184   0.000471  -0.006100
    25  H    0.026142  -0.000101   0.000161   0.003115  -0.008100   0.005066
    26  H    0.007892  -0.000239   0.000445  -0.022230  -0.000083  -0.001613
    27  H   -0.001561   0.000330  -0.001408  -0.008723   0.000030  -0.001461
    28  H   -0.067086   0.002713   0.000810   0.004505  -0.000670  -0.000011
    29  H   -0.059383  -0.004359   0.000070  -0.038932   0.006189  -0.000287
    30  H    0.405810   0.001075  -0.000744   0.013214  -0.010089   0.000350
    31  H    0.480416  -0.006352  -0.000335  -0.006483  -0.004081  -0.000000
              19         20         21         22         23         24
     1  C    0.001691  -0.009184  -0.023756   0.001825  -0.000942   0.001512
     2  C    0.012430   0.001370  -0.006349  -0.033756   0.004079  -0.007027
     3  C    0.001763   0.012377   0.056221  -0.000810   0.007240   0.004680
     4  C    0.454579  -0.000326   0.000123  -0.065709  -0.015535  -0.018827
     5  C   -0.000294   0.451995   0.440548   0.000758   0.000168  -0.000697
     6  O   -0.000026  -0.067712  -0.058420  -0.000162   0.000009   0.000030
     7  C   -0.049524   0.000378  -0.000245   0.529334   0.424431   0.016061
     8  C   -0.044738  -0.000193   0.000222   0.000668   0.005080   0.428873
     9  C   -0.011637   0.004210   0.000068  -0.048210  -0.040598  -0.009546
    10  C    0.001241  -0.063441   0.016664  -0.001171  -0.000518  -0.000250
    11  O    0.009121  -0.000044   0.000354   0.001089  -0.004677  -0.068456
    12  O    0.000148  -0.000910   0.000948  -0.000147  -0.000213   0.001018
    13  C   -0.001176   0.017478  -0.077611   0.000645  -0.002926   0.003253
    14  H    0.000015   0.000502   0.005114  -0.000072   0.000089  -0.000052
    15  H   -0.000005   0.001179  -0.002178  -0.000253  -0.000080   0.000117
    16  H    0.001279   0.000587  -0.001273  -0.003925   0.001672  -0.002184
    17  H    0.000526  -0.000328   0.003565  -0.000235   0.000548   0.000471
    18  H   -0.011885   0.000029   0.000003   0.001634  -0.001227  -0.006100
    19  H    0.477809  -0.000021   0.000001  -0.004299  -0.007973  -0.008966
    20  H   -0.000021   0.469694  -0.006104   0.000033   0.000024  -0.000055
    21  H    0.000001  -0.006104   0.474117  -0.000030  -0.000006   0.000021
    22  H   -0.004299   0.000033  -0.000030   0.452477  -0.006723  -0.002009
    23  H   -0.007973   0.000024  -0.000006  -0.006723   0.460341   0.001242
    24  H   -0.008966  -0.000055   0.000021  -0.002009   0.001242   0.465610
    25  H   -0.001048   0.000108  -0.000136   0.000178  -0.001896  -0.013555
    26  H   -0.002508  -0.000178   0.000000   0.001608  -0.003527   0.000557
    27  H    0.000995   0.000166   0.000055  -0.001019  -0.009073   0.001039
    28  H    0.000033  -0.007260   0.005084  -0.000021  -0.000011  -0.000072
    29  H    0.000206  -0.006404   0.002774   0.000122  -0.000194   0.001048
    30  H   -0.000298   0.000615  -0.001403  -0.000538   0.000016  -0.003387
    31  H   -0.000050  -0.000869  -0.003740   0.000137  -0.000048   0.000554
              25         26         27         28         29         30
     1  C    0.000378  -0.001752  -0.003641   0.000978   0.033344  -0.005621
     2  C   -0.017286  -0.157960  -0.044025   0.010330  -0.047221   0.027271
     3  C   -0.043144   0.004590   0.006291   0.003742   0.012909  -0.018677
     4  C   -0.064592  -0.014748  -0.009034  -0.000496   0.002960  -0.007922
     5  C    0.002123   0.001887  -0.002217  -0.021712  -0.121536   0.000725
     6  O   -0.000269  -0.000878   0.000558   0.008908  -0.011084  -0.002030
     7  C   -0.024612   0.001315  -0.041635   0.000829   0.005509  -0.013761
     8  C    0.472718   0.014667   0.010581  -0.000384   0.006183  -0.000675
     9  C    0.047914   0.531502   0.435219  -0.001278  -0.025027   0.010792
    10  C   -0.008904  -0.006622   0.004211   0.447281   0.554695  -0.019865
    11  O   -0.028487  -0.004958   0.008917  -0.001659   0.005756  -0.013195
    12  O    0.006704   0.008723   0.000052   0.000011   0.000973  -0.004049
    13  C    0.026142   0.007892  -0.001561  -0.067086  -0.059383   0.405810
    14  H   -0.000101  -0.000239   0.000330   0.002713  -0.004359   0.001075
    15  H    0.000161   0.000445  -0.001408   0.000810   0.000070  -0.000744
    16  H    0.003115  -0.022230  -0.008723   0.004505  -0.038932   0.013214
    17  H   -0.008100  -0.000083   0.000030  -0.000670   0.006189  -0.010089
    18  H    0.005066  -0.001613  -0.001461  -0.000011  -0.000287   0.000350
    19  H   -0.001048  -0.002508   0.000995   0.000033   0.000206  -0.000298
    20  H    0.000108  -0.000178   0.000166  -0.007260  -0.006404   0.000615
    21  H   -0.000136   0.000000   0.000055   0.005084   0.002774  -0.001403
    22  H    0.000178   0.001608  -0.001019  -0.000021   0.000122  -0.000538
    23  H   -0.001896  -0.003527  -0.009073  -0.000011  -0.000194   0.000016
    24  H   -0.013555   0.000557   0.001039  -0.000072   0.001048  -0.003387
    25  H    0.493342  -0.000224  -0.000750   0.000131  -0.002319   0.001177
    26  H   -0.000224   0.443097  -0.001952  -0.000321   0.002231  -0.000773
    27  H   -0.000750  -0.001952   0.467052   0.000140  -0.000753   0.000047
    28  H    0.000131  -0.000321   0.000140   0.465064  -0.021540  -0.004369
    29  H   -0.002319   0.002231  -0.000753  -0.021540   0.509727  -0.014177
    30  H    0.001177  -0.000773   0.000047  -0.004369  -0.014177   0.471014
    31  H    0.000371   0.000434  -0.000027  -0.012463   0.007627  -0.008458
              31
     1  C   -0.012845
     2  C   -0.013908
     3  C   -0.039099
     4  C    0.000558
     5  C   -0.017287
     6  O    0.000134
     7  C    0.001449
     8  C    0.003375
     9  C    0.000696
    10  C   -0.041636
    11  O    0.004358
    12  O   -0.000332
    13  C    0.480416
    14  H   -0.006352
    15  H   -0.000335
    16  H   -0.006483
    17  H   -0.004081
    18  H   -0.000000
    19  H   -0.000050
    20  H   -0.000869
    21  H   -0.003740
    22  H    0.000137
    23  H   -0.000048
    24  H    0.000554
    25  H    0.000371
    26  H    0.000434
    27  H   -0.000027
    28  H   -0.012463
    29  H    0.007627
    30  H   -0.008458
    31  H    0.409422
 Mulliken charges:
               1
     1  C   -0.366488
     2  C   -0.086801
     3  C    0.124382
     4  C   -0.446532
     5  C   -0.277352
     6  O   -0.329677
     7  C   -0.282401
     8  C   -0.099989
     9  C   -0.520129
    10  C   -0.232186
    11  O   -0.287036
    12  O   -0.340322
    13  C   -0.530545
    14  H    0.188346
    15  H    0.210402
    16  H    0.316928
    17  H    0.252322
    18  H    0.166798
    19  H    0.182612
    20  H    0.202284
    21  H    0.175368
    22  H    0.178581
    23  H    0.191226
    24  H    0.215100
    25  H    0.155794
    26  H    0.201616
    27  H    0.191597
    28  H    0.188795
    29  H    0.200895
    30  H    0.197927
    31  H    0.258484
 Sum of Mulliken charges =  -0.00000
 Mulliken charges with hydrogens summed into heavy atoms:
               1
     1  C    0.032259
     2  C    0.230127
     3  C    0.376704
     4  C   -0.097122
     5  C    0.100301
     6  O   -0.329677
     7  C    0.087405
     8  C    0.270905
     9  C   -0.126915
    10  C    0.157505
    11  O   -0.287036
    12  O   -0.340322
    13  C   -0.074134
 Electronic spatial extent (au):  <R**2>=           2710.6963
 Charge=             -0.0000 electrons
 Dipole moment (field-independent basis, Debye):
    X=             -0.2784    Y=              1.5392    Z=              1.4597  Tot=              2.1395
 Quadrupole moment (field-independent basis, Debye-Ang):
   XX=            -69.6014   YY=            -82.5319   ZZ=            -77.1080
   XY=             -5.8334   XZ=             -2.3118   YZ=              0.9380
 Traceless Quadrupole moment (field-independent basis, Debye-Ang):
   XX=              6.8124   YY=             -6.1182   ZZ=             -0.6943
   XY=             -5.8334   XZ=             -2.3118   YZ=              0.9380
 Octapole moment (field-independent basis, Debye-Ang**2):
  XXX=              0.1105  YYY=              2.2171  ZZZ=              1.4753  XYY=              6.0162
  XXY=             19.0049  XXZ=              6.6799  XZZ=             -8.7372  YZZ=             -1.3485
  YYZ=              5.9285  XYZ=             10.9554
 Hexadecapole moment (field-independent basis, Debye-Ang**3):
 XXXX=          -2503.3853 YYYY=           -604.4092 ZZZZ=           -369.3057 XXXY=            -26.8118
 XXXZ=              2.7897 YYYX=              5.7732 YYYZ=             -3.9345 ZZZX=              1.5955
 ZZZY=              0.7846 XXYY=           -543.4968 XXZZ=           -476.8931 YYZZ=           -171.6100
 XXYZ=             -6.5723 YYXZ=             -7.3737 ZZXY=              2.7687
 N-N= 9.135071759398D+02 E-N=-3.269518332015D+03  KE= 6.153457304387D+02
 D1PCM: PCM CHGder 1st derivatives, ID1Alg=3 FixD1E=F DoIter=F DoCFld=F I1PDM=0.
 Calling FoFJK, ICntrl=      2127 FMM=F ISym2X=0 I1Cent= 0 IOpClX= 0 NMat=1 NMatS=1 NMatT=0.
 ***** Axes restored to original set *****
 -------------------------------------------------------------------
 Center     Atomic                   Forces (Hartrees/Bohr)
 Number     Number              X              Y              Z
 -------------------------------------------------------------------
      1        6           0.001561899    0.006017849    0.001189262
      2        6           0.002922588   -0.004673666    0.000158476
      3        6          -0.005157800    0.001579379   -0.006751841
      4        6          -0.002474613   -0.001120456    0.001539221
      5        6           0.004168299    0.005361928    0.002009913
      6        8           0.002759349   -0.009103925   -0.008001408
      7        6          -0.001938040    0.003338658   -0.001879098
      8        6           0.004155797   -0.005982036   -0.000756329
      9        6           0.000953113    0.000653676    0.002630837
     10        6          -0.000580975   -0.001663536    0.003306150
     11        8          -0.004707110    0.011522572   -0.007927783
     12        8           0.006603417   -0.006558995    0.009800349
     13        6          -0.000506967   -0.004011093   -0.001956232
     14        1          -0.004105093    0.001754345    0.003892821
     15        1           0.002629391   -0.004217162    0.000957841
     16        1          -0.005898533    0.000774499   -0.006282689
     17        1           0.000126352    0.000694036    0.005407262
     18        1           0.000501721    0.000763533   -0.003266794
     19        1           0.001874627    0.000270494    0.001961045
     20        1          -0.001322914   -0.000433666   -0.004244956
     21        1          -0.003967034    0.001550623    0.003895897
     22        1          -0.001639450   -0.000397891    0.003392290
     23        1           0.001758301   -0.001537100   -0.000941555
     24        1           0.001339684    0.004190321   -0.000457732
     25        1          -0.001634857   -0.001470686    0.005814620
     26        1           0.000873599    0.001266058   -0.002937736
     27        1          -0.001584498   -0.002805745    0.000397684
     28        1          -0.001473444    0.002432843   -0.000357810
     29        1           0.003436730   -0.001000414   -0.002930761
     30        1           0.003974975    0.002220200   -0.000037130
     31        1          -0.002648513    0.000585356    0.002376188
 -------------------------------------------------------------------
 Cartesian Forces:  Max     0.011522572 RMS     0.003703936

 GradGradGradGradGradGradGradGradGradGradGradGradGradGradGradGradGradGrad
 Berny optimization.
 FormGI is forming the generalized inverse of G from B-inverse, IUseBI=4.
 Internal  Forces:  Max     0.020008995 RMS     0.002562185
 Search for a local minimum.
 Step number   1 out of a maximum of  186
 All quantities printed in internal units (Hartrees-Bohrs-Radians)
 Mixed Optimization -- RFO/linear search
 Second derivative matrix not updated -- first step.
 ITU=  0
     Eigenvalues ---    0.00495   0.00618   0.00698   0.00717   0.01420
     Eigenvalues ---    0.01448   0.01742   0.02704   0.02780   0.02888
     Eigenvalues ---    0.03078   0.03994   0.04080   0.04362   0.04746
     Eigenvalues ---    0.04876   0.04892   0.04919   0.05074   0.05145
     Eigenvalues ---    0.05307   0.05472   0.05687   0.06131   0.06170
     Eigenvalues ---    0.06325   0.06670   0.07123   0.07632   0.07861
     Eigenvalues ---    0.07970   0.08047   0.08221   0.08231   0.08670
     Eigenvalues ---    0.08815   0.09116   0.09726   0.10757   0.11586
     Eigenvalues ---    0.11709   0.11730   0.11762   0.12395   0.12710
     Eigenvalues ---    0.14624   0.14952   0.16464   0.16507   0.17780
     Eigenvalues ---    0.19041   0.21577   0.21960   0.25000   0.28233
     Eigenvalues ---    0.28488   0.28593   0.28821   0.28849   0.28913
     Eigenvalues ---    0.30218   0.30238   0.35070   0.35074   0.35087
     Eigenvalues ---    0.35104   0.35190   0.35208   0.35232   0.35249
     Eigenvalues ---    0.35304   0.35403   0.35443   0.35573   0.35706
     Eigenvalues ---    0.35803   0.35820   0.35830   0.35886   0.36430
     Eigenvalues ---    0.40977   0.41155   0.41416   0.42109   0.43412
     Eigenvalues ---    0.462511000.000001000.000001000.000001000.00000
     Eigenvalues --- 1000.000001000.000001000.000001000.000001000.00000
     Eigenvalues --- 1000.000001000.000001000.000001000.000001000.00000
     Eigenvalues --- 1000.000001000.000001000.000001000.000001000.00000
     Eigenvalues --- 1000.000001000.000001000.000001000.000001000.00000
     Eigenvalues --- 1000.000001000.000001000.000001000.000001000.00000
     Eigenvalues --- 1000.000001000.000001000.000001000.000001000.00000
     Eigenvalues --- 1000.000001000.000001000.000001000.000001000.00000
     Eigenvalues --- 1000.000001000.000001000.000001000.000001000.00000
     Eigenvalues --- 1000.000001000.000001000.000001000.000001000.00000
     Eigenvalues --- 1000.000001000.000001000.000001000.000001000.00000
     Eigenvalues --- 1000.000001000.000001000.000001000.000001000.00000
     Eigenvalues --- 1000.000001000.000001000.000001000.000001000.00000
     Eigenvalues --- 1000.000001000.000001000.000001000.000001000.00000
     Eigenvalues --- 1000.000001000.000001000.000001000.000001000.00000
     Eigenvalues --- 1000.000001000.000001000.000001000.000001000.00000
     Eigenvalues --- 1000.000001000.000001000.000001000.000001000.00000
     Eigenvalues --- 1000.000001000.000001000.000001000.000001000.00000
     Eigenvalues --- 1000.000001000.000001000.000001000.000001000.00000
     Eigenvalues --- 1000.000001000.000001000.000001000.000001000.00000
 RFO step:  Lambda=-5.42012176D-03 EMin= 4.94745918D-03
 Linear search not attempted -- first point.
 Iteration  1 RMS(Cart)=  0.11231335 RMS(Int)=  0.00221645
 Iteration  2 RMS(Cart)=  0.00641072 RMS(Int)=  0.00009617
 Iteration  3 RMS(Cart)=  0.00001327 RMS(Int)=  0.00009590
 Iteration  4 RMS(Cart)=  0.00000000 RMS(Int)=  0.00009590
 Iteration  1 RMS(Cart)=  0.00011342 RMS(Int)=  0.00002375
 Iteration  2 RMS(Cart)=  0.00006270 RMS(Int)=  0.00002652
 Iteration  3 RMS(Cart)=  0.00003466 RMS(Int)=  0.00003000
 Iteration  4 RMS(Cart)=  0.00001916 RMS(Int)=  0.00003233
 Iteration  5 RMS(Cart)=  0.00001059 RMS(Int)=  0.00003372
 Iteration  6 RMS(Cart)=  0.00000585 RMS(Int)=  0.00003451
 Iteration  7 RMS(Cart)=  0.00000324 RMS(Int)=  0.00003495
 Iteration  8 RMS(Cart)=  0.00000179 RMS(Int)=  0.00003520
 Iteration  9 RMS(Cart)=  0.00000099 RMS(Int)=  0.00003534
 Variable       Old X    -DE/DX   Delta X   Delta X   Delta X     New X
                                 (Linear)    (Quad)   (Total)
    R1        2.87572  -0.00118   0.00000  -0.00258  -0.00248   2.87324
    R2        2.66770   0.00631   0.00000   0.01506   0.01512   2.68282
    R3        2.05556   0.00585   0.00000   0.01643   0.01643   2.07198
    R4        2.04260   0.00498   0.00000   0.01368   0.01368   2.05628
    R5        2.87823  -0.00101   0.00000  -0.00351  -0.00352   2.87471
    R6        2.65323   0.00773   0.00000   0.01725   0.01728   2.67050
    R7        2.63850   0.00642   0.00000   0.01373   0.01373   2.65223
    R8        2.03415   0.00863   0.00000   0.02335   0.02335   2.05749
    R9        2.70014   0.00115   0.00000   0.00275   0.00275   2.70289
   R10        2.90054  -0.00268   0.00000  -0.00932  -0.00923   2.89131
   R11        2.04543   0.00541   0.00000   0.01493   0.01493   2.06036
   R12        2.88918  -0.00065   0.00000  -0.00251  -0.00254   2.88664
   R13        2.87203  -0.00062   0.00000  -0.00178  -0.00176   2.87027
   R14        2.05534   0.00329   0.00000   0.00924   0.00924   2.06458
   R15        2.05299   0.00272   0.00000   0.00760   0.00760   2.06059
   R16        2.67573   0.00618   0.00000   0.01442   0.01433   2.69006
   R17        2.87476  -0.00050   0.00000  -0.00275  -0.00285   2.87191
   R18        2.04364   0.00446   0.00000   0.01226   0.01226   2.05590
   R19        2.05562   0.00568   0.00000   0.01596   0.01596   2.07158
   R20        2.89043  -0.00115   0.00000  -0.00435  -0.00438   2.88605
   R21        2.05338   0.00367   0.00000   0.01026   0.01026   2.06364
   R22        2.05184   0.00251   0.00000   0.00700   0.00700   2.05884
   R23        2.68453   0.00568   0.00000   0.01359   0.01362   2.69815
   R24        2.04348   0.00442   0.00000   0.01216   0.01216   2.05564
   R25        2.05025   0.00616   0.00000   0.01714   0.01714   2.06739
   R26        2.05368   0.00322   0.00000   0.00902   0.00902   2.06270
   R27        2.04962   0.00322   0.00000   0.00896   0.00896   2.05858
   R28        2.89788  -0.00150   0.00000  -0.00637  -0.00643   2.89145
   R29        2.05273   0.00286   0.00000   0.00800   0.00800   2.06073
   R30        2.04755   0.00453   0.00000   0.01254   0.01254   2.06009
   R31        2.04391   0.00442   0.00000   0.01217   0.01217   2.05609
   R32        2.05506   0.00357   0.00000   0.01000   0.01000   2.06506
    A1        1.95664  -0.00107   0.00000  -0.00334  -0.00322   1.95342
    A2        1.90636  -0.00100   0.00000  -0.00109  -0.00112   1.90524
    A3        1.92840   0.00003   0.00000  -0.00945  -0.00955   1.91884
    A4        1.90808   0.00203   0.00000   0.01461   0.01460   1.92268
    A5        1.86762  -0.00041   0.00000  -0.00574  -0.00590   1.86172
    A6        1.89553   0.00053   0.00000   0.00550   0.00551   1.90105
    A7        1.93303   0.00257   0.00000   0.01181   0.01171   1.94474
    A8        1.88096  -0.00202   0.00000  -0.00916  -0.00910   1.87187
    A9        1.92390   0.00045   0.00000   0.00665   0.00668   1.93058
   A10        1.95557   0.00005   0.00000  -0.00350  -0.00342   1.95215
   A11        1.83766  -0.00198   0.00000  -0.01126  -0.01129   1.82637
   A12        1.93328   0.00105   0.00000   0.00610   0.00609   1.93937
   A13        1.90796   0.00072   0.00000  -0.00808  -0.00889   1.89907
   A14        1.91154   0.00225   0.00000  -0.00174  -0.00229   1.90925
   A15        1.87723  -0.00025   0.00000   0.01174   0.01168   1.88891
   A16        2.06452  -0.00393   0.00000  -0.03691  -0.03708   2.02744
   A17        1.80687   0.00218   0.00000   0.03097   0.03124   1.83811
   A18        1.88522  -0.00081   0.00000   0.01041   0.01069   1.89591
   A19        1.92412  -0.00023   0.00000  -0.00288  -0.00302   1.92109
   A20        1.91564   0.00063   0.00000   0.00147   0.00152   1.91716
   A21        1.93913  -0.00055   0.00000  -0.00131  -0.00129   1.93785
   A22        1.90431  -0.00013   0.00000  -0.00145  -0.00140   1.90291
   A23        1.90432   0.00007   0.00000  -0.00043  -0.00040   1.90392
   A24        1.87540   0.00022   0.00000   0.00477   0.00475   1.88014
   A25        1.93768   0.00048   0.00000   0.00511   0.00503   1.94271
   A26        1.86000  -0.00075   0.00000  -0.00225  -0.00220   1.85780
   A27        1.89831   0.00097   0.00000   0.00411   0.00413   1.90244
   A28        1.94389  -0.00042   0.00000  -0.00283  -0.00281   1.94108
   A29        1.93130  -0.00077   0.00000  -0.00721  -0.00721   1.92408
   A30        1.89036   0.00053   0.00000   0.00344   0.00342   1.89378
   A31        1.96527  -0.00339   0.00000  -0.02185  -0.02180   1.94347
   A32        1.91470   0.00244   0.00000  -0.00005  -0.00009   1.91460
   A33        1.91425  -0.00105   0.00000  -0.00185  -0.00188   1.91237
   A34        1.92944  -0.00043   0.00000   0.00083   0.00088   1.93032
   A35        1.92246  -0.00088   0.00000  -0.00316  -0.00314   1.91932
   A36        1.91622  -0.00084   0.00000  -0.00068  -0.00067   1.91555
   A37        1.86633   0.00069   0.00000   0.00497   0.00496   1.87129
   A38        1.94354   0.00151   0.00000   0.00443   0.00444   1.94798
   A39        1.94502  -0.00007   0.00000  -0.00176  -0.00174   1.94329
   A40        1.93298  -0.00128   0.00000  -0.00551  -0.00555   1.92743
   A41        1.84286  -0.00101   0.00000  -0.00138  -0.00140   1.84146
   A42        1.91007   0.00038   0.00000   0.00235   0.00237   1.91244
   A43        1.88640   0.00047   0.00000   0.00214   0.00213   1.88853
   A44        1.95411  -0.00135   0.00000  -0.01312  -0.01321   1.94090
   A45        1.87225  -0.00009   0.00000   0.00135   0.00136   1.87361
   A46        1.90205   0.00049   0.00000  -0.00153  -0.00151   1.90054
   A47        1.90958   0.00111   0.00000   0.00706   0.00709   1.91667
   A48        1.94677  -0.00016   0.00000   0.00044   0.00037   1.94714
   A49        1.87597   0.00006   0.00000   0.00663   0.00661   1.88258
   A50        1.93431  -0.00004   0.00000  -0.00673  -0.00688   1.92744
   A51        1.90170   0.00043   0.00000   0.00128   0.00128   1.90298
   A52        1.90970  -0.00041   0.00000   0.00094   0.00101   1.91071
   A53        1.90991  -0.00062   0.00000   0.00006   0.00012   1.91003
   A54        1.94310   0.00040   0.00000  -0.00036  -0.00034   1.94276
   A55        1.86338   0.00026   0.00000   0.00530   0.00528   1.86865
   A56        2.02206  -0.00582   0.00000  -0.03285  -0.03274   1.98932
   A57        2.18194  -0.02001   0.00000  -0.07834  -0.07834   2.10360
   A58        1.99906   0.00074   0.00000  -0.00780  -0.00778   1.99128
   A59        1.93579  -0.00064   0.00000  -0.01135  -0.01153   1.92426
   A60        1.83181  -0.00045   0.00000   0.00732   0.00736   1.83917
   A61        1.94239  -0.00026   0.00000  -0.00415  -0.00433   1.93806
   A62        1.88473   0.00017   0.00000   0.01082   0.01078   1.89552
   A63        1.86064   0.00045   0.00000   0.00801   0.00807   1.86870
[...]
 617,0.00004292,0.00009978,0.00000095,0.00000109,0.00000263,-0.00000381
 ,-0.00000383,-0.00000162,-0.00022532,-0.00041309,0.00008015,-0.0002835
 7,-0.00008711,-0.00016739,0.00077700,-0.00026317,0.00113250,0.00056549
 ,-0.00024350,0.00032497,-0.00000010,0.00000312,-0.00000068,-0.00000914
 ,-0.00000981,0.00000211,-0.00004421,-0.00050474,-0.00018282,0.00001267
 ,-0.00008847,0.00012621,0.00255151,0.00157716,-0.00198912,-0.08679327,
 -0.03844277,0.29438139,-0.00001979,0.00021300,0.00026285,-0.00636390,-
 0.00703401,0.02269879,0.00143009,-0.00040937,0.00068439,0.00110101,0.0
 0086457,0.00022100,0.00006027,-0.00004136,0.00001430,-0.00008786,-0.00
 001569,-0.00014928,0.00691909,0.00428294,-0.02644806,-0.00029994,0.000
 03223,-0.00008303,-0.07057204,-0.01154627,0.07439185,0.00000760,0.0000
 3612,0.00003689,0.00107862,-0.00089535,-0.00107171,-0.00713155,0.00415
 605,0.00382188,-0.00019335,-0.00004796,0.00017500,-0.00013640,-0.00006
 678,-0.00004501,0.00000299,-0.00001899,-0.00000904,0.00064082,-0.00070
 254,-0.00034372,-0.00047868,0.00016646,0.00030604,-0.00010214,-0.00005
 886,0.00045209,-0.00008882,0.00021822,0.00024192,-0.00001581,0.0000005
 0,-0.00001091,-0.00000989,0.00000618,0.00000561,-0.00358084,-0.0015200
 0,-0.00365914,0.00133954,0.00034148,0.00090158,0.00008023,-0.00002004,
 -0.00000027,-0.00001889,-0.00002899,-0.00000299,0.08006078,0.00008848,
 -0.00016913,-0.00021339,0.00459610,0.00191080,-0.01928820,-0.00031490,
 0.00067142,-0.00051730,0.00038316,0.00040542,-0.00072357,-0.00003361,0
 .00002342,-0.00000648,0.00003017,-0.00000064,0.00007789,0.00193159,-0.
 00003623,-0.00426241,0.00013305,0.00002706,-0.00006361,-0.01456845,-0.
 05717047,0.04284500,-0.00000026,-0.00002177,-0.00001840,0.00008838,0.0
 0088764,0.00026647,0.00438993,-0.00199076,-0.00184250,-0.00000146,0.00
 006458,-0.00001998,0.00008954,0.00005727,0.00003254,-0.00000633,0.0000
 1234,0.00000251,-0.00054827,0.00066339,0.00041821,0.00024721,-0.000070
 20,-0.00015719,-0.00008984,0.00017473,0.00001730,0.00002741,0.00004954
 ,0.00003829,0.00000742,-0.00000057,0.00000469,0.00000418,-0.00000300,-
 0.00000378,-0.00045770,0.00081885,-0.00073623,0.00003079,0.00015893,0.
 00038193,-0.00001313,-0.00001440,-0.00000494,-0.00002121,0.00001058,0.
 00005000,0.01283439,0.05686793,0.00007046,-0.00010053,-0.00013582,0.00
 032118,0.00271333,-0.00698179,-0.00072152,0.00041413,0.00033467,0.0007
 6050,0.00044250,0.00066378,-0.00002819,0.00001240,-0.00000706,0.000032
 14,0.00000187,0.00004747,0.00486981,0.00357004,-0.02026843,-0.00024845
 ,-0.00010138,-0.00004578,0.07667111,0.03930135,-0.28062681,0.00000067,
 -0.00002966,-0.00000151,-0.00056517,-0.00000126,0.00090558,0.00220511,
 -0.00101323,-0.00000765,0.00007536,0.00001356,-0.00005054,0.00005890,0
 .00003425,0.00001793,-0.00000650,0.00000315,0.00000179,0.00012704,-0.0
 0027997,0.00069409,0.00008037,-0.00002295,-0.00006780,-0.00006017,-0.0
 0055945,0.00013245,-0.00020684,-0.00001465,0.00026484,0.00000640,0.000
 00072,0.00000631,0.00000480,-0.00000074,-0.00000202,-0.00346234,-0.000
 91605,-0.00148810,0.00012041,0.00018170,0.00105490,0.00006096,-0.00006
 267,-0.00001422,-0.00000481,0.00004713,-0.00000406,-0.08047419,-0.0443
 8999,0.30636363,0.00000711,-0.00000294,0.00000010,0.00950107,0.0210906
 3,-0.00168787,0.00008343,-0.00009462,-0.00022080,-0.00367432,0.0004801
 5,-0.00438893,0.00000339,0.00000893,-0.00000798,0.00000116,-0.00002477
 ,-0.00000210,-0.00731078,-0.02410218,0.00327716,-0.00157926,0.00001018
 ,-0.00081334,-0.07701278,-0.08384972,0.00689366,0.00001049,-0.00000773
 ,0.00001852,-0.00247396,0.00756709,0.00197446,0.00080362,0.00028758,-0
 .00047122,0.00001619,0.00001887,0.00003576,-0.00000261,-0.00000219,0.0
 0000550,0.00000002,-0.00001317,0.00000210,0.00060674,-0.00100465,-0.00
 046068,0.00001997,0.00000113,-0.00002512,0.00004360,0.00032251,0.00007
 004,-0.00021314,-0.00183086,-0.00025329,-0.00000268,-0.00000177,0.0000
 0009,-0.00000023,-0.00000400,0.00000012,0.00115625,0.00057791,0.000176
 26,0.00066853,0.00039022,0.00088877,0.00032020,-0.00004210,0.00014023,
 0.00015667,-0.00001100,0.00011521,-0.00355978,-0.00884306,0.00026793,0
 .08243568,0.00005241,-0.00005457,-0.00003798,-0.00995773,-0.01761925,0
 .00254202,0.00021891,0.00043121,0.00001846,-0.00063580,0.00149942,-0.0
 0082518,0.00000278,-0.00002055,-0.00000503,0.00003516,0.00000911,-0.00
 001833,-0.00074048,-0.00233223,0.00005147,0.00088729,0.00076932,0.0012
 7808,-0.08018544,-0.28916367,0.01637567,-0.00001231,-0.00001152,0.0000
 0328,0.00332038,-0.00518853,-0.00141870,-0.00099961,0.00153022,0.00077
 126,-0.00009296,-0.00001982,0.00006118,0.00001494,0.00001036,0.0000013
 5,0.00000447,-0.00000218,-0.00000771,0.00033052,0.00053512,0.00005336,
 -0.00000819,0.00000446,0.00001151,0.00000478,0.00001686,0.00008147,0.0
 0006450,-0.00031591,0.00013931,0.00000312,0.00000453,0.00000361,0.0000
 0582,0.00000556,0.00000067,-0.00002868,0.00030082,-0.00022998,-0.00035
 914,0.00033132,-0.00019966,-0.00011586,-0.00007124,-0.00008718,-0.0000
 7665,-0.00002268,-0.00018917,-0.00090239,-0.00327826,0.00080952,0.0891
 2370,0.31254777,0.00000348,-0.00000135,0.00001071,-0.00149765,-0.00606
 714,-0.00234824,-0.00015162,0.00002418,0.00015208,-0.00348715,0.000362
 71,-0.00237854,-0.00000102,-0.00000249,-0.00000059,-0.00000123,-0.0000
 0034,-0.00000850,-0.00621870,-0.02134368,0.00102912,-0.00018835,0.0004
 3454,0.00014787,0.00681894,0.02008196,-0.04874675,-0.00000001,-0.00000
 267,0.00000604,0.00063339,-0.00106492,0.00103553,0.00017864,-0.0006121
 4,0.00022463,-0.00000471,0.00000200,-0.00000960,-0.00000011,0.00000163
 ,-0.00000517,0.00000238,0.00000755,0.00000029,0.00007601,0.00009949,0.
 00002861,-0.00001982,-0.00000314,0.00001301,-0.00010086,-0.00028461,0.
 00018608,-0.00038618,-0.00116987,0.00011256,-0.00000039,0.00000095,0.0
 0000049,0.00000130,0.00000033,-0.00000047,0.00096924,0.00005157,0.0008
 3973,0.00057312,0.00056340,0.00063698,0.00007672,-0.00001518,0.0000502
 5,0.00006087,-0.00000191,-0.00000929,0.00820484,0.02806074,-0.00080821
 ,-0.00553720,-0.01912454,0.04984686,-0.00069454,-0.00013744,-0.0010879
 6,0.00036936,0.00025005,0.00054309,-0.00002062,-0.00169585,-0.00250461
 ,-0.00002632,0.00000680,-0.00004913,0.01168149,-0.01797121,0.00421622,
 -0.00206545,-0.00705748,0.00052156,-0.00005453,0.00007099,0.00006751,0
 .00012497,0.00008827,0.00016429,-0.00012324,-0.00015698,-0.00022035,-0
 .10255204,0.10697009,-0.01652725,-0.00038847,0.00001012,-0.00007443,-0
 .00001462,-0.00010818,0.00016258,-0.00623403,0.01248432,-0.00179681,0.
 00007699,0.00001862,0.00014038,0.00011290,0.00007791,0.00024810,-0.000
 39684,-0.00007508,-0.00033097,-0.00004267,0.00094713,-0.00033693,-0.00
 000313,-0.00000196,0.00000861,-0.00002529,0.00000356,-0.00000186,0.000
 45557,0.00088023,-0.00045149,0.00097427,0.00086397,0.00040626,-0.00000
 114,-0.00000054,-0.00000989,-0.00004275,-0.00000185,-0.00003033,-0.000
 02540,-0.00002369,-0.00001723,-0.00001496,0.00000172,-0.00002355,-0.00
 001796,0.00001044,0.00001573,-0.00000405,0.00001794,0.00000465,0.10758
 212,-0.00035274,0.00029299,-0.00169096,-0.00025963,-0.00003785,0.00003
 729,-0.00050161,0.00147092,-0.00023862,0.00000412,0.00000247,0.0000129
 1,0.01389813,-0.01817032,0.00350589,-0.00385182,-0.00615461,0.00092911
 ,0.00000135,-0.00001124,-0.00001627,-0.00004589,-0.00002846,-0.0000452
 4,0.00001378,0.00002440,0.00000517,0.10424792,-0.25622654,0.03407576,0
 .00013204,0.00001297,0.00004137,0.00019370,-0.00004256,-0.00010392,-0.
 00078255,0.00172738,-0.00030968,0.00002050,0.00000373,0.00020666,0.000
 09859,-0.00002052,0.00018773,0.00000371,0.00004794,0.00006937,0.000063
 86,-0.00009746,-0.00014963,0.00000213,0.00000066,-0.00000300,0.0000072
 3,-0.00000127,0.00000085,-0.00006252,0.00046673,-0.00046352,0.00004328
 ,0.00109995,0.00037021,0.00000007,0.00000041,0.00000021,0.00000826,-0.
 00000025,0.00000461,0.00000922,0.00000788,0.00000412,0.00000342,0.0000
 0084,0.00000377,0.00001228,-0.00000623,-0.00000585,0.00000155,-0.00000
 286,-0.00000192,-0.11433281,0.27741928,-0.00051929,-0.00066275,-0.0001
 9798,0.00030392,-0.00020892,-0.00093678,-0.00191142,-0.00250165,-0.005
 46679,0.00000299,-0.00000640,0.00000804,0.00226287,-0.00121364,-0.0013
 1128,-0.00050490,-0.00090221,0.00142424,0.00004627,-0.00004419,-0.0000
 2948,0.00004568,0.00000250,-0.00002555,0.00007931,0.00004376,0.0002387
 6,-0.01549068,0.03161047,-0.05096186,-0.00010130,-0.00018048,0.0001641
 8,-0.00063170,0.00068201,0.00056994,-0.01318439,0.02868806,-0.00686090
 ,0.00008758,0.00000758,0.00005127,0.00007586,0.00008943,0.00016639,0.0
 0017208,0.00008068,0.00037404,-0.00026902,0.00152232,-0.00065707,-0.00
 000174,0.00000117,0.00000074,0.00000099,0.00000064,-0.00000053,0.00022
 487,0.00044971,-0.00009841,-0.00012182,-0.00003417,0.00026296,-0.00000
 054,-0.00000109,0.00000818,0.00001401,0.00000375,0.00001599,-0.0000002
 5,0.00000030,0.00000545,-0.00000446,0.00000192,0.00000651,-0.00003651,
 0.00001896,0.00000820,-0.00000225,-0.00000823,-0.00000228,0.01973770,-
 0.03665689,0.05689127,-0.00015746,-0.00005260,-0.00043004,-0.00216390,
 0.00166548,-0.00026269,0.00020639,0.00011076,0.00046864,-0.00000161,0.
 00004576,0.00003156,-0.01941005,0.00362571,0.01578038,0.00209913,0.000
 27018,-0.00039074,-0.00009710,0.00004314,0.00002953,-0.00019036,-0.000
 02190,-0.00008071,-0.00016685,-0.00021447,-0.00015538,-0.17490325,0.02
 111621,0.13318341,-0.00072444,0.00044269,-0.00042628,0.00042057,-0.000
 11023,0.00034625,0.01115266,-0.00250906,-0.01052549,-0.00007702,0.0000
 4605,-0.00000227,0.00003933,-0.00000806,0.00004569,-0.00182142,0.00210
 347,-0.00079834,-0.00007234,-0.00007394,0.00007459,-0.00000396,-0.0000
 0097,-0.00000149,0.00001661,-0.00001468,-0.00000280,0.00098514,0.00059
 944,-0.00024652,-0.00212066,-0.00403515,-0.00041487,0.00000212,-0.0000
 0034,-0.00000596,-0.00002258,-0.00000750,-0.00002032,0.00001775,0.0000
 0944,0.00001218,0.00004590,0.00000710,0.00004772,0.00000045,-0.0000015
 9,0.00000589,0.00001876,-0.00001947,-0.00000081,-0.00950894,0.00140019
 ,0.00884842,0.19631956,0.00005767,0.00001678,0.00004549,0.00196834,-0.
 00093739,0.00068637,-0.00050670,-0.00011285,0.00014738,-0.00001736,-0.
 00002150,-0.00004344,-0.01941601,0.00186855,0.01810504,0.00119891,0.00
 238122,-0.00081317,0.00001971,0.00001656,0.00002101,0.00005009,0.00003
 688,0.00013223,0.00001421,-0.00001174,-0.00001031,0.02297377,-0.052820
 83,-0.02152967,-0.00059193,-0.00032373,-0.00026638,-0.00033703,0.00030
 638,-0.00045222,-0.00050458,-0.00083243,-0.00025475,-0.00001531,0.0000
 5117,-0.00004547,0.00001491,0.00001436,0.00000987,0.00252463,-0.002841
 20,0.00053541,-0.00000033,0.00001832,-0.00001917,-0.00000123,-0.000000
 84,0.00000434,-0.00002266,0.00000828,0.00000055,0.00112728,0.00097370,
 -0.00004417,-0.00346925,-0.00285657,0.00000516,-0.00000437,-0.00000157
 ,-0.00000301,-0.00000904,0.00000427,-0.00000705,-0.00002512,-0.0000187
 9,-0.00001805,-0.00000835,-0.00000019,-0.00002374,-0.00001568,0.000010
 68,0.00000483,-0.00000747,0.00001095,0.00000512,0.01949192,-0.00245982
 ,-0.02054505,-0.02431796,0.05621802,-0.00022705,-0.00000576,-0.0002283
 1,-0.00006329,0.00015073,-0.00137649,0.00102752,-0.00069037,0.00005495
 ,0.00007152,-0.00000401,0.00011511,-0.00372838,0.00063064,0.00278440,0
 .00014253,0.00050590,-0.00038247,0.00012996,-0.00011834,-0.00011206,-0
 .00010707,-0.00024576,-0.00037355,0.00020088,0.00021911,0.00050562,0.1
 3221820,-0.02074552,-0.18521338,0.00043650,-0.00037570,0.00047070,-0.0
 0087257,0.00067453,0.00066922,0.02040639,-0.00504044,-0.02151499,-0.00
 005241,0.00000281,-0.00000683,0.00006712,0.00008530,0.00002945,0.00046
 070,0.00035981,0.00091619,-0.00032542,0.00017794,0.00010646,0.00000218
 ,0.00000538,-0.00001143,0.00005099,-0.00001487,0.00000057,-0.00000598,
 0.00064873,0.00083997,-0.00074462,-0.00110743,0.00125313,-0.00000232,-
 0.00000160,0.00002004,0.00007046,0.00000205,0.00005242,0.00003593,0.00
 003399,0.00003092,0.00001337,-0.00000084,0.00005776,-0.00001079,0.0000
 0592,-0.00001038,0.00001033,-0.00004254,-0.00000852,-0.00361498,-0.000
 44160,0.00363041,-0.14280125,0.02475002,0.20105954,-0.00012962,0.00223
 167,-0.00102845,-0.00016660,-0.00002685,0.00031798,0.00886547,0.008136
 92,0.00118703,-0.00010436,0.00004050,-0.00004976,0.00026038,0.00173097
 ,-0.00309314,0.00005895,-0.00053839,0.00058320,0.00004742,-0.00001900,
 -0.00000086,-0.00005153,0.00015548,0.00077501,0.00002199,0.00011763,-0
 .00000325,-0.00920856,-0.00701368,-0.00002044,-0.00397848,0.00133204,0
 .00247236,0.00119107,-0.00176619,-0.00033030,-0.20975104,-0.13779483,-
 0.01456634,0.00011963,0.00007455,-0.00002989,0.00046444,0.00047256,0.0
 0002374,0.00001958,0.00002198,0.00001571,0.00009788,-0.00073248,0.0003
 5449,0.00000901,-0.00000967,-0.00002697,0.00000346,0.00001902,-0.00000
 337,-0.00041847,-0.00087279,-0.00003855,0.00017372,0.00019693,0.000100
 28,-0.00000366,-0.00000082,-0.00000161,0.00000216,-0.00001462,0.000007
 70,0.00002582,-0.00011941,-0.00003245,0.00017667,0.00002005,-0.0002236
 7,0.00001741,-0.00001518,-0.00000509,-0.00001104,0.00002274,-0.0000046
 6,0.00002495,0.00022540,0.00021829,0.00053324,0.00023724,0.00011498,0.
 22762310,0.00446940,-0.00462034,0.00377980,0.00007405,-0.00154776,-0.0
 0013150,-0.02588382,-0.02059421,-0.00086649,-0.00007486,-0.00005101,0.
 00000427,0.00065501,0.00066299,0.00053242,-0.00024162,0.00088436,-0.00
 065834,0.00000881,-0.00001690,0.00002755,0.00092340,0.00018072,0.00027
 032,0.00007533,0.00012886,-0.00012745,0.00149654,0.00120941,-0.0008741
 7,-0.00112052,0.00142864,0.00074572,0.00000626,0.00290100,-0.00104568,
 -0.13393352,-0.15928992,-0.00975770,-0.00011323,0.00022197,0.00008214,
 -0.00141510,-0.00126811,-0.00060256,0.00000349,0.00003280,0.00002157,0
 .00034256,0.00112543,-0.00008268,-0.00002655,0.00001883,0.00000860,-0.
 00003969,0.00002407,-0.00000970,0.00002380,0.00016077,0.00017317,-0.00
 015018,-0.00010492,0.00005196,0.00000119,-0.00000021,-0.00000650,-0.00
 001106,0.00001100,-0.00000054,-0.00001281,-0.00010763,-0.00003146,0.00
 002294,-0.00007610,0.00000333,0.00002427,-0.00000874,-0.00000386,-0.00
 002823,0.00005380,0.00000100,-0.00005620,0.00020655,-0.00050252,-0.000
 14917,0.00015035,-0.00005595,0.14697439,0.17088593,-0.00140101,0.00233
 419,-0.00087099,-0.00004350,-0.00044122,-0.00036376,0.00944948,0.00408
 597,-0.00016720,-0.00002355,0.00000556,-0.00001898,-0.00196702,0.00275
 743,-0.00666035,0.00084952,-0.00040259,0.00111721,0.00000342,-0.000010
 49,0.00001471,0.00030901,0.00008542,0.00022170,0.00003021,0.00000755,0
 .00005354,-0.02434573,-0.02089207,-0.00121354,0.00064490,-0.00021197,-
 0.00036371,-0.00041028,-0.00050720,0.00044663,-0.01281698,-0.00707569,
 -0.04776233,-0.00032999,-0.00011518,0.00004838,0.00044349,0.00059470,0
 .00043196,0.00004891,0.00003051,0.00003408,0.00038289,-0.00056455,0.00
 015888,-0.00000831,0.00000323,0.00000436,-0.00001872,0.00000666,-0.000
 00203,-0.00126023,-0.00160626,-0.00016606,-0.00014632,-0.00004758,0.00
 009390,-0.00000327,0.00000351,-0.00000205,-0.00000710,0.00000651,-0.00
 000122,0.00000206,-0.00000723,-0.00002430,-0.00000552,0.00001917,-0.00
 005656,-0.00001868,0.00001408,0.00000480,-0.00001319,0.00001202,0.0000
 0535,0.00054355,0.00045711,0.00111664,0.00096421,-0.00011907,0.0014540
 9,0.01426941,0.00764469,0.05155668,-0.00029369,-0.00097241,0.00028919,
 0.00052178,-0.00046857,-0.00112979,-0.00879312,0.00246627,0.00625176,-
 0.00005403,-0.00002196,-0.00007568,0.00107045,-0.00012046,0.00008590,-
 0.00002091,0.00026648,-0.00002766,0.00002365,-0.00000270,0.00004234,0.
 00056333,0.00019137,0.00040998,0.00001514,-0.00004255,0.00010642,0.009
 50074,-0.00435362,-0.01066404,-0.00171451,0.00029962,0.00098061,-0.000
 23723,0.00278695,-0.00032168,-0.17234997,0.05371960,0.11845856,0.00039
 439,-0.00036856,-0.00010222,0.00018033,0.00007102,-0.00025654,-0.00001
 565,0.00001587,0.00007935,0.00015156,-0.00023726,-0.00012413,-0.000007
 30,-0.00000076,0.00000147,-0.00004441,0.00002114,-0.00000735,0.0000837
 4,0.00023151,0.00008699,-0.00006456,0.00033522,0.00029883,-0.00000057,
 -0.00000019,0.00000098,-0.00002747,0.00000842,-0.00000973,-0.00003226,
 -0.00004707,-0.00001499,0.00001169,-0.00001304,-0.00003244,-0.00006125
 ,0.00002274,0.00002850,-0.00000823,0.00002525,-0.00000309,0.00085438,-
 0.00020116,0.00065943,-0.00041568,-0.00040826,-0.00290344,-0.01591299,
 0.00815510,0.01487834,0.18668262,-0.00052299,0.00057655,-0.00049477,-0
 .00127471,-0.00105535,0.00199679,0.02229981,-0.00960349,-0.02003584,-0
 .00002502,-0.00002711,-0.00000719,0.00045420,-0.00020051,-0.00026230,-
 0.00018000,-0.00035603,0.00009986,-0.00001565,-0.00003843,-0.00003477,
 0.00009120,0.00004940,0.00012073,0.00008974,0.00022388,-0.00027366,-0.
 00057914,-0.00021062,0.00093974,-0.00087187,0.00103291,0.00052328,0.00
 347313,-0.00670850,0.00086462,0.05185714,-0.07175226,-0.05155748,-0.00
 041861,-0.00049773,-0.00004393,0.00011291,0.00032725,0.00028621,0.0000
 1859,0.00008620,-0.00014947,0.00028868,0.00125128,-0.00001608,0.000000
 54,0.00000708,-0.00000725,0.00000231,0.00001611,-0.00000035,-0.0000361
 2,-0.00000993,0.00003899,-0.00002164,-0.00003387,-0.00008379,-0.000001
 78,0.00000512,-0.00001711,0.00003098,0.00000288,0.00000978,0.00002243,
 0.00000263,-0.00000337,0.00004776,-0.00001777,-0.00002852,0.00013558,-
 0.00004419,-0.00004825,-0.00001000,0.00004244,-0.00000129,-0.00057480,
 0.00047487,0.00026494,0.00005149,0.00115301,0.00063787,-0.01308617,0.0
 0739837,0.01393278,-0.06135799,0.07790576,0.00067266,0.00009058,-0.000
 23723,0.00000823,0.00068577,-0.00075380,-0.00637449,0.00229499,0.00396
 382,0.00001507,0.00000722,0.00001976,0.00104215,0.00048110,0.00103352,
 -0.00029869,-0.00038948,-0.00018254,0.00002102,-0.00000583,0.00000118,
 0.00002115,-0.00003294,-0.00004562,-0.00001960,-0.00004991,0.00019729,
 0.02035630,-0.00802261,-0.02487334,-0.00000452,-0.00021846,0.00013745,
 -0.00189990,0.00307163,0.00130157,0.11921308,-0.05265362,-0.15676807,-
 0.00014604,0.00020139,0.00011235,-0.00014558,-0.00012705,0.00008292,-0
 .00005084,0.00010333,0.00016741,-0.00071519,-0.00002775,0.00095416,-0.
 00000364,-0.00000052,-0.00000168,0.00000522,-0.00000575,-0.00000111,-0
 .00027317,0.00021997,0.00016078,-0.00045353,-0.00032905,0.00030557,0.0
 0000424,-0.00000088,0.00000326,-0.00000046,-0.00000038,0.00000217,0.00
 000047,0.00000038,0.00000542,0.00001617,-0.00000276,0.00001677,-0.0000
 5569,0.00001343,0.00001973,0.00000773,-0.00002003,-0.00000002,0.000297
 57,0.00021494,0.00160570,-0.00327250,-0.00025812,-0.00481255,-0.000981
 37,0.00141058,0.00091018,-0.12698586,0.05334982,0.17667495\\0.00002508
 ,0.00000157,0.00003504,0.00156453,0.00209527,0.00129211,0.00276082,0.0
 0268193,0.00357074,0.00000102,0.00000342,0.00000876,-0.00001128,0.0000
 1084,-0.00001217,0.00000143,-0.00001030,-0.00003228,0.00000893,-0.0000
 0401,0.00000629,-0.00001576,0.00000457,0.00000990,-0.00000985,-0.00001
 544,-0.00000011,-0.00000219,0.00000178,-0.00001413,0.00000678,0.000019
 69,-0.00003064,-0.00303201,-0.00374869,-0.00290742,-0.00130481,-0.0010
 5352,-0.00192236,0.00001049,0.00000423,0.00000325,0.00000050,0.0000092
 5,0.00000550,-0.00001304,-0.00000343,0.00000029,-0.00000147,0.00000745
 ,0.00001005,-0.00000029,-0.00000283,0.00000227,0.00000616,0.00000733,-
 0.00000047,0.00000437,0.00000379,-0.00000569,0.00000757,-0.00000037,-0
 .00000378,0.00000371,0.00000266,-0.00000404,-0.00000144,-0.00000291,0.
 00000649,-0.00000002,0.00000290,-0.00000474,0.00000207,0.00000354,-0.0
 0000321,0.00000670,-0.00000440,0.00000235,0.00000647,-0.00001378,-0.00
 000637,-0.00000509,0.00000448,-0.00001119,0.00000351,-0.00000770,0.000
 00517,-0.00001162,0.00000007,-0.00000730,-0.00001126,0.00000260,0.0000
 0768\\\@


 Life may have no meaning.  Or even worse, it may have a
 meaning of which I disapprove.
                                 -- Ashleigh Brilliant
 Job cpu time:       0 days 13 hours 32 minutes 20.7 seconds.
 Elapsed time:       0 days  1 hours  7 minutes 58.7 seconds.
 File lengths (MBytes):  RWF=    720 Int=      0 D2E=      0 Chk=     34 Scr=      1
 Normal termination of Gaussian 16 at Sat Mar  9 03:29:55 2019.
