 Entering Gaussian System, Link 0=g16
 Initial command:
 /sw/Projects/G16/g16/l1.exe "/nvme/pbs/tmpdir/pbs.74203[1].flm1/Gau-17505.inp" -scrdir="/nvme/pbs/tmpdir/pbs.74203[1].flm1/"
 Entering Link 1 = /sw/Projects/G16/g16/l1.exe PID=     17506.
  
 Copyright (c) 1988-2017, Gaussian, Inc.  All Rights Reserved.
  
 This is part of the Gaussian(R) 16 program.  It is based on
 the Gaussian(R) 09 system (copyright 2009, Gaussian, Inc.),
 the Gaussian(R) 03 system (copyright 2003, Gaussian, Inc.),
 the Gaussian(R) 98 system (copyright 1998, Gaussian, Inc.),
 the Gaussian(R) 94 system (copyright 1995, Gaussian, Inc.),
 the Gaussian 92(TM) system (copyright 1992, Gaussian, Inc.),
 the Gaussian 90(TM) system (copyright 1990, Gaussian, Inc.),
 the Gaussian 88(TM) system (copyright 1988, Gaussian, Inc.),
 the Gaussian 86(TM) system (copyright 1986, Carnegie Mellon
 University), and the Gaussian 82(TM) system (copyright 1983,
 Carnegie Mellon University). Gaussian is a federally registered
 trademark of Gaussian, Inc.
  
 This software contains proprietary and confidential information,
 including trade secrets, belonging to Gaussian, Inc.
  
 This software is provided under written license and may be
 used, copied, transmitted, or stored only in accord with that
 written license.
  
 The following legend is applicable only to US Government
 contracts under FAR:
  
                    RESTRICTED RIGHTS LEGEND
  
 Use, reproduction and disclosure by the US Government is
 subject to restrictions as set forth in subparagraphs (a)
 and (c) of the Commercial Computer Software - Restricted
 Rights clause in FAR 52.227-19.
  
 Gaussian, Inc.
 340 Quinnipiac St., Bldg. 40, Wallingford CT 06492
  
  
 ---------------------------------------------------------------
 Warning -- This program may not be used in any manner that
 competes with the business of Gaussian, Inc. or will provide
 assistance to any competitor of Gaussian, Inc.  The licensee
 of this program is prohibited from giving any competitor of
 Gaussian, Inc. access to this program.  By using this program,
 the user acknowledges that Gaussian, Inc. is engaged in the
 business of creating and licensing software in the field of
 computational chemistry and represents and warrants to the
 licensee that it is not a competitor of Gaussian, Inc. and that
 it will not use this program in any manner prohibited above.
 ---------------------------------------------------------------
  

 Cite this work as:
 Gaussian 16, Revision B.01,
 M. J. Frisch, G. W. Trucks, H. B. Schlegel, G. E. Scuseria, 
 M. A. Robb, J. R. Cheeseman, G. Scalmani, V. Barone, 
 G. A. Petersson, H. Nakatsuji, X. Li, M. Caricato, A. V. Marenich, 
 J. Bloino, B. G. Janesko, R. Gomperts, B. Mennucci, H. P. Hratchian, 
 J. V. Ortiz, A. F. Izmaylov, J. L. Sonnenberg, D. Williams-Young, 
 F. Ding, F. Lipparini, F. Egidi, J. Goings, B. Peng, A. Petrone, 
 T. Henderson, D. Ranasinghe, V. G. Zakrzewski, J. Gao, N. Rega, 
 G. Zheng, W. Liang, M. Hada, M. Ehara, K. Toyota, R. Fukuda, 
 J. Hasegawa, M. Ishida, T. Nakajima, Y. Honda, O. Kitao, H. Nakai, 
 T. Vreven, K. Throssell, J. A. Montgomery, Jr., J. E. Peralta, 
 F. Ogliaro, M. J. Bearpark, J. J. Heyd, E. N. Brothers, K. N. Kudin, 
 V. N. Staroverov, T. A. Keith, R. Kobayashi, J. Normand, 
 K. Raghavachari, A. P. Rendell, J. C. Burant, S. S. Iyengar, 
 J. Tomasi, M. Cossi, J. M. Millam, M. Klene, C. Adamo, R. Cammi, 
 J. W. Ochterski, R. L. Martin, K. Morokuma, O. Farkas, 
 J. B. Foresman, and D. J. Fox, Gaussian, Inc., Wallingford CT, 2016.
 
 ******************************************
 Gaussian 16:  ES64L-G16RevB.01 20-Dec-2017
                 8-Mar-2019 
 ******************************************
 %mem=20gb
 %nproc=12
 Will use up to   12 processors via shared memory.
 %chk=4c1_a1_a4_4c1_PSI.inp_extract_1.chk
 ----------------------------------------------------------------------
 #M062X/6-311++G(2d,2p) opt=ModRedundant freq=noraman SCRF=(SMD,solvent
 =water)
 ----------------------------------------------------------------------
 1/18=120,19=15,26=3,38=1/1,3;
 2/9=110,12=2,17=6,18=5,40=1/2;
 3/5=4,6=6,7=1212,11=2,25=1,30=1,70=32201,71=1,72=1,74=-55/1,2,3;
 4//1;
 5/5=2,38=5,53=1/2;
 6/7=2,8=2,9=2,10=2,28=1/1;
 7//1,2,3,16;
 1/18=20,19=15,26=3/3(2);
 2/9=110/2;
 99//99;
 2/9=110/2;
 3/5=4,6=6,7=1212,11=2,25=1,30=1,70=32205,71=1,72=1,74=-55/1,2,3;
 4/5=5,16=3,69=1/1;
 5/5=2,38=5,53=1/2;
 7//1,2,3,16;
 1/18=20,19=15,26=3/3(-5);
 2/9=110/2;
 6/7=2,8=2,9=2,10=2,19=2,28=1/1;
 99/9=1/99;
 -------------------------------
 4c1_a1_a4_4c1_PSI.inp_extract_1
 -------------------------------
 Symbolic Z-matrix:
 Charge =  0 Multiplicity = 1
 C                    -1.64501   1.36042  -0.38793 
 C                     1.17399  -0.71896  -0.72933 
 C                    -1.09117   0.04183  -0.90181 
 C                     3.34102   0.61031   0.65478 
 C                    -3.33203   0.31157   0.88936 
 O                    -2.24477   1.21912   0.88236 
 C                     2.66112  -0.59026   1.3124 
 C                     2.37202   1.31014  -0.28305 
 C                     2.06083  -1.49283   0.23385 
 C                    -2.88141  -1.08046   0.47442 
 O                     1.83381   0.40968  -1.24359 
 O                    -0.0056   -0.36035  -0.07446 
 C                    -2.17949  -1.02954  -0.88463 
 H                    -2.3787    1.73898  -1.09581 
 H                    -0.85712   2.09202  -0.28177 
 H                     0.93623  -1.31957  -1.59657 
 H                    -0.73253   0.19669  -1.91185 
 H                     4.20997   0.27876   0.09099 
 H                     3.68729   1.32088   1.39995 
 H                    -3.72653   0.3164    1.89628 
 H                    -4.10384   0.68067   0.2171 
 H                     1.88276  -0.2453    1.98783 
 H                     3.37218  -1.15351   1.90891 
 H                     2.86354   2.0842   -0.85606 
 H                     1.56284   1.76602   0.27641 
 H                     2.86146  -1.93796  -0.3506 
 H                     1.48437  -2.30317   0.66674 
 H                    -3.74447  -1.73847   0.4306 
 H                    -2.21061  -1.47791   1.23042 
 H                    -1.74888  -1.99328  -1.13762 
 H                    -2.90471  -0.78639  -1.65778 
 
 The following ModRedundant input section has been read:
 D      13       3      12       2 F                                           
 

 GradGradGradGradGradGradGradGradGradGradGradGradGradGradGradGradGradGrad
 Berny optimization.
 Initialization pass.
                           ----------------------------
                           !    Initial Parameters    !
                           ! (Angstroms and Degrees)  !
 --------------------------                            --------------------------
 ! Name  Definition              Value          Derivative Info.                !
 --------------------------------------------------------------------------------
 ! R1    R(1,3)                  1.5197         estimate D2E/DX2                !
 ! R2    R(1,6)                  1.4119         estimate D2E/DX2                !
 ! R3    R(1,14)                 1.0875         estimate D2E/DX2                !
 ! R4    R(1,15)                 1.0804         estimate D2E/DX2                !
 ! R5    R(2,9)                  1.5209         estimate D2E/DX2                !
 ! R6    R(2,11)                 1.4049         estimate D2E/DX2                !
 ! R7    R(2,12)                 1.396          estimate D2E/DX2                !
 ! R8    R(2,16)                 1.0814         estimate D2E/DX2                !
 ! R9    R(3,12)                 1.4229         estimate D2E/DX2                !
 ! R10   R(3,13)                 1.5273         estimate D2E/DX2                !
 ! R11   R(3,17)                 1.083          estimate D2E/DX2                !
 ! R12   R(4,7)                  1.5284         estimate D2E/DX2                !
 ! R13   R(4,8)                  1.5193         estimate D2E/DX2                !
 ! R14   R(4,18)                 1.0876         estimate D2E/DX2                !
 ! R15   R(4,19)                 1.0863         estimate D2E/DX2                !
 ! R16   R(5,6)                  1.4163         estimate D2E/DX2                !
 ! R17   R(5,10)                 1.5208         estimate D2E/DX2                !
 ! R18   R(5,20)                 1.0815         estimate D2E/DX2                !
 ! R19   R(5,21)                 1.088          estimate D2E/DX2                !
 ! R20   R(7,9)                  1.5291         estimate D2E/DX2                !
 ! R21   R(7,22)                 1.0868         estimate D2E/DX2                !
 ! R22   R(7,23)                 1.0857         estimate D2E/DX2                !
 ! R23   R(8,11)                 1.4224         estimate D2E/DX2                !
 ! R24   R(8,24)                 1.0813         estimate D2E/DX2                !
 ! R25   R(8,25)                 1.0842         estimate D2E/DX2                !
 ! R26   R(9,26)                 1.0866         estimate D2E/DX2                !
 ! R27   R(9,27)                 1.0846         estimate D2E/DX2                !
 ! R28   R(10,13)                1.5305         estimate D2E/DX2                !
 ! R29   R(10,28)                1.0862         estimate D2E/DX2                !
 ! R30   R(10,29)                1.086          estimate D2E/DX2                !
 ! R31   R(13,30)                1.0855         estimate D2E/DX2                !
 ! R32   R(13,31)                1.0876         estimate D2E/DX2                !
 ! A1    A(3,1,6)              111.8524         estimate D2E/DX2                !
 ! A2    A(3,1,14)             109.1351         estimate D2E/DX2                !
 ! A3    A(3,1,15)             110.7937         estimate D2E/DX2                !
 ! A4    A(6,1,14)             109.5053         estimate D2E/DX2                !
 ! A5    A(6,1,15)             106.8071         estimate D2E/DX2                !
 ! A6    A(14,1,15)            108.6767         estimate D2E/DX2                !
 ! A7    A(9,2,11)             111.515          estimate D2E/DX2                !
 ! A8    A(9,2,12)             109.0467         estimate D2E/DX2                !
 ! A9    A(9,2,16)             110.7013         estimate D2E/DX2                !
 ! A10   A(11,2,12)            111.2351         estimate D2E/DX2                !
 ! A11   A(11,2,16)            104.8267         estimate D2E/DX2                !
 ! A12   A(12,2,16)            109.4566         estimate D2E/DX2                !
 ! A13   A(1,3,12)             109.0665         estimate D2E/DX2                !
 ! A14   A(1,3,13)             110.1917         estimate D2E/DX2                !
 ! A15   A(1,3,17)             108.1794         estimate D2E/DX2                !
 ! A16   A(12,3,13)            109.806          estimate D2E/DX2                !
 ! A17   A(12,3,17)            109.2721         estimate D2E/DX2                !
 ! A18   A(13,3,17)            110.2909         estimate D2E/DX2                !
 ! A19   A(7,4,8)              110.1019         estimate D2E/DX2                !
 ! A20   A(7,4,18)             109.8152         estimate D2E/DX2                !
 ! A21   A(7,4,19)             111.1277         estimate D2E/DX2                !
 ! A22   A(8,4,18)             109.2698         estimate D2E/DX2                !
 ! A23   A(8,4,19)             108.9918         estimate D2E/DX2                !
 ! A24   A(18,4,19)            107.4769         estimate D2E/DX2                !
 ! A25   A(6,5,10)             110.9593         estimate D2E/DX2                !
 ! A26   A(6,5,20)             106.3668         estimate D2E/DX2                !
 ! A27   A(6,5,21)             108.9129         estimate D2E/DX2                !
 ! A28   A(10,5,20)            111.4814         estimate D2E/DX2                !
 ! A29   A(10,5,21)            110.616          estimate D2E/DX2                !
 ! A30   A(20,5,21)            108.361          estimate D2E/DX2                !
 ! A31   A(1,6,5)              113.2471         estimate D2E/DX2                !
 ! A32   A(4,7,9)              109.5599         estimate D2E/DX2                !
 ! A33   A(4,7,22)             109.6744         estimate D2E/DX2                !
 ! A34   A(4,7,23)             110.6445         estimate D2E/DX2                !
 ! A35   A(9,7,22)             110.1553         estimate D2E/DX2                !
 ! A36   A(9,7,23)             109.7812         estimate D2E/DX2                !
 ! A37   A(22,7,23)            106.995          estimate D2E/DX2                !
 ! A38   A(4,8,11)             111.5053         estimate D2E/DX2                !
 ! A39   A(4,8,24)             111.528          estimate D2E/DX2                !
 ! A40   A(4,8,25)             110.5584         estimate D2E/DX2                !
 ! A41   A(11,8,24)            105.5055         estimate D2E/DX2                !
 ! A42   A(11,8,25)            109.4049         estimate D2E/DX2                !
 ! A43   A(24,8,25)            108.1615         estimate D2E/DX2                !
 ! A44   A(2,9,7)              112.0404         estimate D2E/DX2                !
 ! A45   A(2,9,26)             107.3049         estimate D2E/DX2                !
 ! A46   A(2,9,27)             108.8455         estimate D2E/DX2                !
 ! A47   A(7,9,26)             109.385          estimate D2E/DX2                !
 ! A48   A(7,9,27)             111.6            estimate D2E/DX2                !
 ! A49   A(26,9,27)            107.4714         estimate D2E/DX2                !
 ! A50   A(5,10,13)            110.3476         estimate D2E/DX2                !
 ! A51   A(5,10,28)            109.2728         estimate D2E/DX2                !
 ! A52   A(5,10,29)            109.151          estimate D2E/DX2                !
 ! A53   A(13,10,28)           110.4107         estimate D2E/DX2                !
 ! A54   A(13,10,29)           110.307          estimate D2E/DX2                !
 ! A55   A(28,10,29)           107.2872         estimate D2E/DX2                !
 ! A56   A(2,11,8)             116.0467         estimate D2E/DX2                !
 ! A57   A(2,12,3)             116.3909         estimate D2E/DX2                !
 ! A58   A(3,13,10)            111.1087         estimate D2E/DX2                !
 ! A59   A(3,13,30)            109.7256         estimate D2E/DX2                !
 ! A60   A(3,13,31)            108.0799         estimate D2E/DX2                !
 ! A61   A(10,13,30)           111.0616         estimate D2E/DX2                !
 ! A62   A(10,13,31)           109.4445         estimate D2E/DX2                !
 ! A63   A(30,13,31)           107.298          estimate D2E/DX2                !
 ! D1    D(6,1,3,12)           -66.5616         estimate D2E/DX2                !
 ! D2    D(6,1,3,13)            54.0416         estimate D2E/DX2                !
 ! D3    D(6,1,3,17)           174.6839         estimate D2E/DX2                !
 ! D4    D(14,1,3,12)          172.111          estimate D2E/DX2                !
 ! D5    D(14,1,3,13)          -67.2858         estimate D2E/DX2                !
 ! D6    D(14,1,3,17)           53.3565         estimate D2E/DX2                !
 ! D7    D(15,1,3,12)           52.4856         estimate D2E/DX2                !
 ! D8    D(15,1,3,13)          173.0887         estimate D2E/DX2                !
 ! D9    D(15,1,3,17)          -66.269          estimate D2E/DX2                !
 ! D10   D(3,1,6,5)            -60.3819         estimate D2E/DX2                !
 ! D11   D(14,1,6,5)            60.7314         estimate D2E/DX2                !
 ! D12   D(15,1,6,5)           178.2397         estimate D2E/DX2                !
 ! D13   D(11,2,9,7)            51.3993         estimate D2E/DX2                !
 ! D14   D(11,2,9,26)          -68.6797         estimate D2E/DX2                !
 ! D15   D(11,2,9,27)          175.3047         estimate D2E/DX2                !
 ! D16   D(12,2,9,7)           -71.8286         estimate D2E/DX2                !
 ! D17   D(12,2,9,26)          168.0924         estimate D2E/DX2                !
 ! D18   D(12,2,9,27)           52.0768         estimate D2E/DX2                !
 ! D19   D(16,2,9,7)           167.6959         estimate D2E/DX2                !
 ! D20   D(16,2,9,26)           47.6169         estimate D2E/DX2                !
 ! D21   D(16,2,9,27)          -68.3987         estimate D2E/DX2                !
 ! D22   D(9,2,11,8)           -54.3431         estimate D2E/DX2                !
 ! D23   D(12,2,11,8)           67.6297         estimate D2E/DX2                !
 ! D24   D(16,2,11,8)         -174.1719         estimate D2E/DX2                !
 ! D25   D(9,2,12,3)          -163.4957         estimate D2E/DX2                !
 ! D26   D(11,2,12,3)           73.1097         estimate D2E/DX2                !
 ! D27   D(16,2,12,3)          -42.2587         estimate D2E/DX2                !
 ! D28   D(1,3,12,2)          -130.0028         estimate D2E/DX2                !
 ! D29   D(13,3,12,2)          109.1578         Frozen                          !
 ! D30   D(17,3,12,2)          -11.933          estimate D2E/DX2                !
 ! D31   D(1,3,13,10)          -49.9956         estimate D2E/DX2                !
 ! D32   D(1,3,13,30)         -173.2017         estimate D2E/DX2                !
 ! D33   D(1,3,13,31)           70.097          estimate D2E/DX2                !
 ! D34   D(12,3,13,10)          70.1624         estimate D2E/DX2                !
 ! D35   D(12,3,13,30)         -53.0437         estimate D2E/DX2                !
 ! D36   D(12,3,13,31)        -169.7449         estimate D2E/DX2                !
 ! D37   D(17,3,13,10)        -169.362          estimate D2E/DX2                !
 ! D38   D(17,3,13,30)          67.432          estimate D2E/DX2                !
 ! D39   D(17,3,13,31)         -49.2693         estimate D2E/DX2                !
 ! D40   D(8,4,7,9)             53.2908         estimate D2E/DX2                !
 ! D41   D(8,4,7,22)           -67.7316         estimate D2E/DX2                !
 ! D42   D(8,4,7,23)           174.4662         estimate D2E/DX2                !
 ! D43   D(18,4,7,9)           -67.0681         estimate D2E/DX2                !
 ! D44   D(18,4,7,22)          171.9095         estimate D2E/DX2                !
 ! D45   D(18,4,7,23)           54.1074         estimate D2E/DX2                !
 ! D46   D(19,4,7,9)           174.1508         estimate D2E/DX2                !
 ! D47   D(19,4,7,22)           53.1284         estimate D2E/DX2                !
 ! D48   D(19,4,7,23)          -64.6737         estimate D2E/DX2                !
 ! D49   D(7,4,8,11)           -55.009          estimate D2E/DX2                !
 ! D50   D(7,4,8,24)          -172.6748         estimate D2E/DX2                !
 ! D51   D(7,4,8,25)            66.9401         estimate D2E/DX2                !
 ! D52   D(18,4,8,11)           65.6782         estimate D2E/DX2                !
 ! D53   D(18,4,8,24)          -51.9875         estimate D2E/DX2                !
 ! D54   D(18,4,8,25)         -172.3726         estimate D2E/DX2                !
 ! D55   D(19,4,8,11)         -177.1421         estimate D2E/DX2                !
 ! D56   D(19,4,8,24)           65.1922         estimate D2E/DX2                !
 ! D57   D(19,4,8,25)          -55.1929         estimate D2E/DX2                !
 ! D58   D(10,5,6,1)            60.6212         estimate D2E/DX2                !
 ! D59   D(20,5,6,1)          -177.9657         estimate D2E/DX2                !
 ! D60   D(21,5,6,1)           -61.3715         estimate D2E/DX2                !
 ! D61   D(6,5,10,13)          -55.0022         estimate D2E/DX2                !
 ! D62   D(6,5,10,28)         -176.5841         estimate D2E/DX2                !
 ! D63   D(6,5,10,29)           66.3718         estimate D2E/DX2                !
 ! D64   D(20,5,10,13)        -173.3629         estimate D2E/DX2                !
 ! D65   D(20,5,10,28)          65.0553         estimate D2E/DX2                !
 ! D66   D(20,5,10,29)         -51.9888         estimate D2E/DX2                !
 ! D67   D(21,5,10,13)          65.9916         estimate D2E/DX2                !
 ! D68   D(21,5,10,28)         -55.5902         estimate D2E/DX2                !
 ! D69   D(21,5,10,29)        -172.6343         estimate D2E/DX2                !
 ! D70   D(4,7,9,2)            -51.9437         estimate D2E/DX2                !
 ! D71   D(4,7,9,26)            66.9145         estimate D2E/DX2                !
 ! D72   D(4,7,9,27)          -174.294          estimate D2E/DX2                !
 ! D73   D(22,7,9,2)            68.7873         estimate D2E/DX2                !
 ! D74   D(22,7,9,26)         -172.3545         estimate D2E/DX2                !
 ! D75   D(22,7,9,27)          -53.563          estimate D2E/DX2                !
 ! D76   D(23,7,9,2)          -173.6392         estimate D2E/DX2                !
 ! D77   D(23,7,9,26)          -54.781          estimate D2E/DX2                !
 ! D78   D(23,7,9,27)           64.0105         estimate D2E/DX2                !
 ! D79   D(4,8,11,2)            56.8219         estimate D2E/DX2                !
 ! D80   D(24,8,11,2)          178.0618         estimate D2E/DX2                !
 ! D81   D(25,8,11,2)          -65.7912         estimate D2E/DX2                !
 ! D82   D(5,10,13,3)           50.7777         estimate D2E/DX2                !
 ! D83   D(5,10,13,30)         173.2136         estimate D2E/DX2                !
 ! D84   D(5,10,13,31)         -68.5018         estimate D2E/DX2                !
 ! D85   D(28,10,13,3)         171.6826         estimate D2E/DX2                !
 ! D86   D(28,10,13,30)        -65.8814         estimate D2E/DX2                !
 ! D87   D(28,10,13,31)         52.4031         estimate D2E/DX2                !
 ! D88   D(29,10,13,3)         -69.9072         estimate D2E/DX2                !
 ! D89   D(29,10,13,30)         52.5287         estimate D2E/DX2                !
 ! D90   D(29,10,13,31)        170.8133         estimate D2E/DX2                !
 --------------------------------------------------------------------------------
 Trust Radius=3.00D-01 FncErr=1.00D-07 GrdErr=1.00D-06 EigMax=2.50D+02 EigMin=1.00D-04
 Number of steps in this run=    186 maximum allowed number of steps=    186.
 GradGradGradGradGradGradGradGradGradGradGradGradGradGradGradGradGradGrad

                          Input orientation:                          
 ---------------------------------------------------------------------
 Center     Atomic      Atomic             Coordinates (Angstroms)
 Number     Number       Type             X           Y           Z
 ---------------------------------------------------------------------
      1          6           0       -1.645005    1.360418   -0.387930
      2          6           0        1.173990   -0.718958   -0.729325
      3          6           0       -1.091172    0.041831   -0.901805
      4          6           0        3.341019    0.610309    0.654778
      5          6           0       -3.332032    0.311574    0.889359
      6          8           0       -2.244766    1.219117    0.882362
      7          6           0        2.661118   -0.590262    1.312395
      8          6           0        2.372017    1.310135   -0.283046
      9          6           0        2.060829   -1.492832    0.233847
     10          6           0       -2.881407   -1.080456    0.474421
     11          8           0        1.833807    0.409683   -1.243590
     12          8           0       -0.005599   -0.360351   -0.074460
     13          6           0       -2.179492   -1.029536   -0.884633
     14          1           0       -2.378696    1.738984   -1.095812
     15          1           0       -0.857118    2.092018   -0.281767
     16          1           0        0.936225   -1.319565   -1.596573
     17          1           0       -0.732528    0.196692   -1.911850
     18          1           0        4.209969    0.278755    0.090988
     19          1           0        3.687288    1.320875    1.399951
     20          1           0       -3.726531    0.316400    1.896277
     21          1           0       -4.103836    0.680674    0.217097
     22          1           0        1.882758   -0.245297    1.987828
     23          1           0        3.372185   -1.153513    1.908908
     24          1           0        2.863538    2.084198   -0.856063
     25          1           0        1.562844    1.766024    0.276409
     26          1           0        2.861461   -1.937956   -0.350602
     27          1           0        1.484370   -2.303175    0.666743
     28          1           0       -3.744465   -1.738465    0.430595
     29          1           0       -2.210612   -1.477913    1.230423
     30          1           0       -1.748880   -1.993277   -1.137624
     31          1           0       -2.904706   -0.786387   -1.657784
 ---------------------------------------------------------------------
                    Distance matrix (angstroms):
                    1          2          3          4          5
     1  C    0.000000
     2  C    3.519530   0.000000
     3  C    1.519694   2.395727   0.000000
     4  C    5.148819   2.894600   4.731853   0.000000
     5  C    2.361695   4.897588   2.881403   6.683852   0.000000
     6  O    1.411850   4.247536   2.428998   5.623472   1.416273
     7  C    5.023838   2.529176   4.402488   1.528429   6.075369
     8  C    4.018706   2.398260   3.739671   1.519288   5.908285
     9  C    4.718140   1.520876   3.685106   2.497853   5.724380
    10  C    2.868833   4.245695   2.521600   6.450566   1.520850
    11  O    3.706506   1.404869   2.967766   2.432229   5.589722
    12  O    2.397282   1.396022   1.422926   3.560031   3.527830
    13  C    2.498854   3.371412   1.527273   5.961117   2.504790
    14  H    1.087525   4.335593   2.139085   6.087168   2.624358
    15  H    1.080405   3.496755   2.154645   4.549388   3.265994
    16  H    3.912272   1.081379   2.538984   3.817857   5.201778
    17  H    2.123489   2.423137   1.082958   4.832437   3.823270
    18  H    5.973280   3.299320   5.398506   1.087594   7.584211
    19  H    5.624183   3.874455   5.455980   1.086319   7.109870
    20  H    3.261951   5.655162   3.853540   7.181780   1.081451
    21  H    2.621824   5.541672   3.276615   7.458041   1.088050
    22  H    4.546170   2.847741   4.156523   2.153046   5.358244
    23  H    6.063622   3.461383   5.408374   2.164459   6.937758
    24  H    4.590203   3.275411   4.451189   2.164019   6.676360
    25  H    3.300933   2.708845   3.377104   2.154239   5.143048
    26  H    5.584702   2.115879   4.454962   2.781082   6.705016
    27  H    4.932265   2.134265   3.820054   3.454805   5.484906
    28  H    3.831552   5.155192   3.461894   7.468004   2.140847
    29  H    3.315886   3.983987   2.847659   5.959249   2.139199
    30  H    3.438037   3.214618   2.151710   5.991530   3.453602
    31  H    2.794306   4.183580   2.132218   6.804982   2.806432
                    6          7          8          9         10
     6  O    0.000000
     7  C    5.246568   0.000000
     8  C    4.762473   2.498103   0.000000
     9  C    5.129658   1.529132   2.867166   0.000000
    10  C    2.420695   5.626906   5.821267   4.965242   0.000000
    11  O    4.670076   2.866600   1.422367   2.419488   5.235009
    12  O    2.902429   3.014566   2.913261   2.376487   3.014978
    13  C    2.860590   5.333985   5.152883   4.409758   1.530459
    14  H    2.049725   6.051824   4.838778   5.649957   3.266128
    15  H    2.010652   4.702549   3.322447   4.650959   3.838510
    16  H    4.765368   3.459658   3.271418   2.155271   4.349770
    17  H    3.337639   4.746776   3.678445   3.906578   3.455876
    18  H    6.570704   2.155450   2.140494   2.788859   7.230635
    19  H    5.955461   2.170976   2.136008   3.452842   7.054839
    20  H    2.009614   6.478041   6.552041   6.287331   2.164975
    21  H    2.046617   6.969904   6.525568   6.536628   2.159196
    22  H    4.516970   1.086763   2.795642   2.159746   5.068053
    23  H    6.183309   1.085678   3.445948   2.154210   6.416424
    24  H    5.464911   3.449046   1.081256   3.824577   6.692504
    25  H    3.894121   2.798492   1.084244   3.296960   5.281385
    26  H    6.128692   2.149878   3.285455   1.086613   5.864853
    27  H    5.134149   2.176160   3.840055   1.084601   4.537845
    28  H    3.346712   6.567148   6.871288   5.813818   1.086170
    29  H    2.719611   4.952615   5.573535   4.386182   1.086037
    30  H    3.826973   5.236328   5.350199   4.079860   2.171301
    31  H    3.303015   6.311800   5.842013   5.360398   2.152514
                   11         12         13         14         15
    11  O    0.000000
    12  O    2.311543   0.000000
    13  C    4.278641   2.414539   0.000000
    14  H    4.419735   3.328957   2.783699   0.000000
    15  H    3.316087   2.604261   3.443286   1.761392   0.000000
    16  H    1.980038   2.030752   3.209154   4.538082   4.072308
    17  H    2.660453   2.052979   2.156969   2.398844   2.502989
    18  H    2.728440   4.266948   6.594594   6.852100   5.394649
    19  H    3.354694   4.317155   6.720332   6.572656   4.906573
    20  H    6.386300   4.264637   3.455189   3.576730   4.016245
    21  H    6.120674   4.238430   2.800308   2.412438   3.575183
    22  H    3.297493   2.798600   5.036659   5.621939   4.256880
    23  H    3.840369   3.996533   6.216137   7.104049   5.763639
    24  H    2.003628   3.849503   5.926914   5.259056   3.764726
    25  H    2.055110   2.665444   4.813341   4.173663   2.504805
    26  H    2.713837   3.284071   5.149915   6.444724   5.483909
    27  H    3.336327   2.558115   4.177656   5.862502   5.069513
    28  H    6.207621   4.016640   2.163688   4.035826   4.849416
    29  H    5.103047   2.795308   2.162284   3.973418   4.106467
    30  H    4.315216   2.614535   1.085462   3.785259   4.268181
    31  H    4.904655   3.330652   1.087575   2.640075   3.790944
                   16         17         18         19         20
    16  H    0.000000
    17  H    2.276658   0.000000
    18  H    4.014958   5.333514   0.000000
    19  H    4.849683   5.636185   1.752882   0.000000
    20  H    6.051254   4.845639   8.139319   7.498001   0.000000
    21  H    5.717742   4.016512   8.324470   7.906365   1.759176
    22  H    3.859781   4.716202   3.047711   2.460655   5.638086
    23  H    4.271987   5.768008   2.461322   2.545766   7.249315
    24  H    3.981017   4.196315   2.443237   2.520084   7.357275
    25  H    3.663546   3.538363   3.041976   2.444129   5.718642
    26  H    2.375160   4.462171   2.631973   3.790304   7.316572
    27  H    2.527954   4.220558   3.798256   4.303973   5.960488
    28  H    5.117983   4.278276   8.213253   8.095070   2.524087
    29  H    4.233151   3.855245   6.753374   6.530481   2.441502
    30  H    2.806120   2.535421   6.494575   6.853817   4.295377
    31  H    3.878244   2.397780   7.403468   7.566022   3.810890
                   21         22         23         24         25
    21  H    0.000000
    22  H    6.311277   0.000000
    23  H    7.881456   1.746275   0.000000
    24  H    7.187896   3.804759   4.287955   0.000000
    25  H    5.769988   2.660209   3.802955   1.753720   0.000000
    26  H    7.462899   3.048148   2.445726   4.053791   3.974798
    27  H    6.350873   2.477668   2.535457   4.844593   4.088630
    28  H    2.454987   6.026621   7.292070   7.741702   6.361819
    29  H    3.044770   4.341507   5.633223   6.541334   5.066778
    30  H    3.811968   5.100263   6.017630   6.162749   5.205704
    31  H    2.665588   6.041778   7.228792   6.492739   5.496809
                   26         27         28         29         30
    26  H    0.000000
    27  H    1.750644   0.000000
    28  H    6.654947   5.264540   0.000000
    29  H    5.332655   3.827752   1.749376   0.000000
    30  H    4.677361   3.715600   2.550804   2.467072   0.000000
    31  H    6.023580   5.193078   2.443967   3.049871   1.750167
                   31
    31  H    0.000000
 Stoichiometry    C10H18O3
 Framework group  C1[X(C10H18O3)]
 Deg. of freedom    87
 Full point group                 C1      NOp   1
 Largest Abelian subgroup         C1      NOp   1
 Largest concise Abelian subgroup C1      NOp   1
                         Standard orientation:                         
 ---------------------------------------------------------------------
 Center     Atomic      Atomic             Coordinates (Angstroms)
 Number     Number       Type             X           Y           Z
 ---------------------------------------------------------------------
      1          6           0        1.645005   -1.360418   -0.387930
      2          6           0       -1.173990    0.718958   -0.729325
      3          6           0        1.091172   -0.041831   -0.901805
      4          6           0       -3.341019   -0.610309    0.654778
      5          6           0        3.332032   -0.311574    0.889359
      6          8           0        2.244766   -1.219117    0.882362
      7          6           0       -2.661118    0.590262    1.312395
      8          6           0       -2.372017   -1.310135   -0.283046
      9          6           0       -2.060829    1.492832    0.233847
     10          6           0        2.881407    1.080456    0.474421
     11          8           0       -1.833807   -0.409683   -1.243590
     12          8           0        0.005599    0.360351   -0.074460
     13          6           0        2.179492    1.029536   -0.884633
     14          1           0        2.378696   -1.738984   -1.095812
     15          1           0        0.857118   -2.092018   -0.281767
     16          1           0       -0.936225    1.319565   -1.596573
     17          1           0        0.732528   -0.196692   -1.911850
     18          1           0       -4.209969   -0.278755    0.090988
     19          1           0       -3.687288   -1.320875    1.399951
     20          1           0        3.726531   -0.316400    1.896277
     21          1           0        4.103836   -0.680674    0.217097
     22          1           0       -1.882758    0.245297    1.987828
     23          1           0       -3.372185    1.153513    1.908908
     24          1           0       -2.863538   -2.084198   -0.856063
     25          1           0       -1.562844   -1.766024    0.276409
     26          1           0       -2.861461    1.937956   -0.350602
     27          1           0       -1.484370    2.303175    0.666743
     28          1           0        3.744465    1.738465    0.430595
     29          1           0        2.210612    1.477913    1.230423
     30          1           0        1.748880    1.993277   -1.137624
     31          1           0        2.904706    0.786387   -1.657784
 ---------------------------------------------------------------------
 Rotational constants (GHZ):           1.6173187           0.4617627           0.4422093
 Standard basis: 6-311++G(2d,2p) (5D, 7F)
 There are   557 symmetry adapted cartesian basis functions of A   symmetry.
 There are   531 symmetry adapted basis functions of A   symmetry.
   531 basis functions,   762 primitive gaussians,   557 cartesian basis functions
    51 alpha electrons       51 beta electrons
       nuclear repulsion energy       905.2968045227 Hartrees.
 NAtoms=   31 NActive=   31 NUniq=   31 SFac= 1.00D+00 NAtFMM=   60 NAOKFM=F Big=F
 Integral buffers will be    131072 words long.
 Raffenetti 2 integral format.
 Two-electron integral symmetry is turned on.
 ------------------------------------------------------------------------------
 Polarizable Continuum Model (PCM)
 =================================
 Model                : PCM.
 Atomic radii         : SMD-Coulomb.
 Polarization charges : Total charges.
 Charge compensation  : None.
 Solution method      : On-the-fly selection.
 Cavity type          : VdW (van der Waals Surface) (Alpha=1.000).
 Cavity algorithm     : GePol (No added spheres)
                        Default sphere list used, NSphG=   31.
                        Lebedev-Laikov grids with approx.  5.0 points / Ang**2.
                        Smoothing algorithm: York/Karplus (Gamma=1.0000).
                        Polarization charges: spherical gaussians, with
                                              point-specific exponents (IZeta= 3).
                        Self-potential: point-specific (ISelfS= 7).
                        Self-field    : sphere-specific E.n sum rule (ISelfD= 2).
 1st derivatives      : Analytical E(r).r(x)/FMM algorithm (CHGder, D1EAlg=3).
                        Cavity 1st derivative terms included.
 Solvent              : Water, Eps=  78.355300 Eps(inf)=   1.777849
 ------------------------------------------------------------------------------
 ------------------------------------------------------------------------------
 Atomic radii for non-electrostatic terms: SMD-CDS.
 ------------------------------------------------------------------------------
 Nuclear repulsion after PCM non-electrostatic terms =      905.3032233353 Hartrees.
 One-electron integrals computed using PRISM.
 NBasis=   531 RedAO= T EigKep=  4.33D-06  NBF=   531
 NBsUse=   531 1.00D-06 EigRej= -1.00D+00 NBFU=   531
 ExpMin= 3.60D-02 ExpMax= 8.59D+03 ExpMxC= 1.30D+03 IAcc=3 IRadAn=         5 AccDes= 0.00D+00
 Harris functional with IExCor= 1009 and IRadAn=       5 diagonalized for initial guess.
 HarFok:  IExCor= 1009 AccDes= 0.00D+00 IRadAn=         5 IDoV= 1 UseB2=F ITyADJ=14
 ICtDFT=  3500011 ScaDFX=  1.000000  1.000000  1.000000  1.000000
 FoFCou: FMM=F IPFlag=           0 FMFlag=      100000 FMFlg1=           0
         NFxFlg=           0 DoJE=T BraDBF=F KetDBF=T FulRan=T
         wScrn=  0.000000 ICntrl=       500 IOpCl=  0 I1Cent=   200000004 NGrid=           0
         NMat0=    1 NMatS0=      1 NMatT0=    0 NMatD0=    1 NMtDS0=    0 NMtDT0=    0
 Petite list used in FoFCou.
 Requested convergence on RMS density matrix=1.00D-08 within 128 cycles.
 Requested convergence on MAX density matrix=1.00D-06.
 Requested convergence on             energy=1.00D-06.
 No special actions if energy rises.
 Inv3:  Mode=1 IEnd=    12399267.
 Iteration    1 A*A^-1 deviation from unit magnitude is 9.77D-15 for    166.
 Iteration    1 A*A^-1 deviation from orthogonality  is 4.66D-15 for   2033    612.
 Iteration    1 A^-1*A deviation from unit magnitude is 9.99D-15 for    166.
 Iteration    1 A^-1*A deviation from orthogonality  is 4.76D-15 for   1420   1385.
 Error on total polarization charges =  0.06068
 SCF Done:  E(RM062X) =  -617.506570865     A.U. after   12 cycles
            NFock= 12  Conv=0.48D-08     -V/T= 2.0035
 SMD-CDS (non-electrostatic) energy       (kcal/mol) =       4.03
 (included in total energy above)

 **********************************************************************

            Population analysis using the SCF Density.

 **********************************************************************

 Orbital symmetries:
       Occupied  (A) (A) (A) (A) (A) (A) (A) (A) (A) (A) (A) (A)
                 (A) (A) (A) (A) (A) (A) (A) (A) (A) (A) (A) (A)
                 (A) (A) (A) (A) (A) (A) (A) (A) (A) (A) (A) (A)
                 (A) (A) (A) (A) (A) (A) (A) (A) (A) (A) (A) (A)
                 (A) (A) (A)
       Virtual   (A) (A) (A) (A) (A) (A) (A) (A) (A) (A) (A) (A)
                 (A) (A) (A) (A) (A) (A) (A) (A) (A) (A) (A) (A)
                 (A) (A) (A) (A) (A) (A) (A) (A) (A) (A) (A) (A)
                 (A) (A) (A) (A) (A) (A) (A) (A) (A) (A) (A) (A)
                 (A) (A) (A) (A) (A) (A) (A) (A) (A) (A) (A) (A)
                 (A) (A) (A) (A) (A) (A) (A) (A) (A) (A) (A) (A)
                 (A) (A) (A) (A) (A) (A) (A) (A) (A) (A) (A) (A)
                 (A) (A) (A) (A) (A) (A) (A) (A) (A) (A) (A) (A)
                 (A) (A) (A) (A) (A) (A) (A) (A) (A) (A) (A) (A)
                 (A) (A) (A) (A) (A) (A) (A) (A) (A) (A) (A) (A)
                 (A) (A) (A) (A) (A) (A) (A) (A) (A) (A) (A) (A)
                 (A) (A) (A) (A) (A) (A) (A) (A) (A) (A) (A) (A)
                 (A) (A) (A) (A) (A) (A) (A) (A) (A) (A) (A) (A)
                 (A) (A) (A) (A) (A) (A) (A) (A) (A) (A) (A) (A)
                 (A) (A) (A) (A) (A) (A) (A) (A) (A) (A) (A) (A)
                 (A) (A) (A) (A) (A) (A) (A) (A) (A) (A) (A) (A)
                 (A) (A) (A) (A) (A) (A) (A) (A) (A) (A) (A) (A)
                 (A) (A) (A) (A) (A) (A) (A) (A) (A) (A) (A) (A)
                 (A) (A) (A) (A) (A) (A) (A) (A) (A) (A) (A) (A)
                 (A) (A) (A) (A) (A) (A) (A) (A) (A) (A) (A) (A)
                 (A) (A) (A) (A) (A) (A) (A) (A) (A) (A) (A) (A)
                 (A) (A) (A) (A) (A) (A) (A) (A) (A) (A) (A) (A)
                 (A) (A) (A) (A) (A) (A) (A) (A) (A) (A) (A) (A)
                 (A) (A) (A) (A) (A) (A) (A) (A) (A) (A) (A) (A)
                 (A) (A) (A) (A) (A) (A) (A) (A) (A) (A) (A) (A)
                 (A) (A) (A) (A) (A) (A) (A) (A) (A) (A) (A) (A)
                 (A) (A) (A) (A) (A) (A) (A) (A) (A) (A) (A) (A)
                 (A) (A) (A) (A) (A) (A) (A) (A) (A) (A) (A) (A)
                 (A) (A) (A) (A) (A) (A) (A) (A) (A) (A) (A) (A)
                 (A) (A) (A) (A) (A) (A) (A) (A) (A) (A) (A) (A)
                 (A) (A) (A) (A) (A) (A) (A) (A) (A) (A) (A) (A)
                 (A) (A) (A) (A) (A) (A) (A) (A) (A) (A) (A) (A)
                 (A) (A) (A) (A) (A) (A) (A) (A) (A) (A) (A) (A)
                 (A) (A) (A) (A) (A) (A) (A) (A) (A) (A) (A) (A)
                 (A) (A) (A) (A) (A) (A) (A) (A) (A) (A) (A) (A)
                 (A) (A) (A) (A) (A) (A) (A) (A) (A) (A) (A) (A)
                 (A) (A) (A) (A) (A) (A) (A) (A) (A) (A) (A) (A)
                 (A) (A) (A) (A) (A) (A) (A) (A) (A) (A) (A) (A)
                 (A) (A) (A) (A) (A) (A) (A) (A) (A) (A) (A) (A)
                 (A) (A) (A) (A) (A) (A) (A) (A) (A) (A) (A) (A)
 The electronic state is 1-A.
 Alpha  occ. eigenvalues --  -19.62826 -19.62806 -19.62727 -10.62999 -10.58136
 Alpha  occ. eigenvalues --  -10.57268 -10.57112 -10.57070 -10.52399 -10.52317
 Alpha  occ. eigenvalues --  -10.52266 -10.52158 -10.52063  -1.20192  -1.16573
 Alpha  occ. eigenvalues --   -1.13398  -0.90382  -0.89097  -0.86956  -0.84260
 Alpha  occ. eigenvalues --   -0.74097  -0.73460  -0.72739  -0.71422  -0.65939
 Alpha  occ. eigenvalues --   -0.62348  -0.59599  -0.57798  -0.57486  -0.54932
 Alpha  occ. eigenvalues --   -0.54349  -0.53072  -0.51729  -0.50733  -0.49484
 Alpha  occ. eigenvalues --   -0.47776  -0.46690  -0.45501  -0.45266  -0.44448
 Alpha  occ. eigenvalues --   -0.42979  -0.42700  -0.41470  -0.39341  -0.38584
 Alpha  occ. eigenvalues --   -0.37823  -0.37104  -0.35536  -0.35148  -0.33195
 Alpha  occ. eigenvalues --   -0.31604
 Alpha virt. eigenvalues --    0.00334   0.01300   0.01370   0.01516   0.02680
 Alpha virt. eigenvalues --    0.02988   0.03145   0.03737   0.03813   0.05127
 Alpha virt. eigenvalues --    0.05226   0.05285   0.05824   0.06213   0.07571
 Alpha virt. eigenvalues --    0.07986   0.08682   0.08779   0.09001   0.09708
 Alpha virt. eigenvalues --    0.09978   0.11414   0.11776   0.11967   0.12474
 Alpha virt. eigenvalues --    0.12966   0.13172   0.13528   0.13792   0.13829
 Alpha virt. eigenvalues --    0.14411   0.14604   0.14786   0.14961   0.15259
 Alpha virt. eigenvalues --    0.15584   0.15779   0.15935   0.16375   0.16685
 Alpha virt. eigenvalues --    0.17130   0.17458   0.17753   0.17939   0.18243
 Alpha virt. eigenvalues --    0.18949   0.19061   0.19423   0.19894   0.19999
 Alpha virt. eigenvalues --    0.20447   0.20637   0.21084   0.21300   0.21517
 Alpha virt. eigenvalues --    0.22626   0.22739   0.23061   0.23727   0.24013
 Alpha virt. eigenvalues --    0.24798   0.26105   0.26493   0.27494   0.27660
 Alpha virt. eigenvalues --    0.28043   0.28774   0.29099   0.29256   0.29990
 Alpha virt. eigenvalues --    0.30306   0.30853   0.31102   0.31685   0.32424
 Alpha virt. eigenvalues --    0.32859   0.33987   0.34313   0.34742   0.34910
 Alpha virt. eigenvalues --    0.35085   0.35710   0.36210   0.36786   0.36848
 Alpha virt. eigenvalues --    0.37102   0.37644   0.37989   0.38195   0.38856
 Alpha virt. eigenvalues --    0.39316   0.39464   0.39917   0.40105   0.41018
 Alpha virt. eigenvalues --    0.41489   0.43058   0.43553   0.44989   0.46354
 Alpha virt. eigenvalues --    0.46753   0.47924   0.49595   0.50745   0.52024
 Alpha virt. eigenvalues --    0.52139   0.53086   0.53497   0.54395   0.56135
 Alpha virt. eigenvalues --    0.56964   0.58243   0.58582   0.59495   0.60294
 Alpha virt. eigenvalues --    0.60703   0.61071   0.61868   0.62316   0.62809
 Alpha virt. eigenvalues --    0.63529   0.63725   0.63972   0.64361   0.65174
 Alpha virt. eigenvalues --    0.65553   0.65997   0.66500   0.66992   0.67871
 Alpha virt. eigenvalues --    0.68249   0.68864   0.69140   0.70130   0.70280
 Alpha virt. eigenvalues --    0.71161   0.71999   0.72272   0.72912   0.74016
 Alpha virt. eigenvalues --    0.74335   0.74506   0.74989   0.75715   0.76822
 Alpha virt. eigenvalues --    0.77225   0.78315   0.78551   0.79363   0.79711
 Alpha virt. eigenvalues --    0.80682   0.81995   0.84409   0.85383   0.86654
 Alpha virt. eigenvalues --    0.87253   0.87962   0.88777   0.89309   0.90589
 Alpha virt. eigenvalues --    0.91628   0.92211   0.93602   0.94959   0.97087
 Alpha virt. eigenvalues --    0.98001   1.00027   1.00385   1.01421   1.02295
 Alpha virt. eigenvalues --    1.03093   1.03647   1.05097   1.06068   1.06999
 Alpha virt. eigenvalues --    1.07967   1.09426   1.10561   1.11465   1.12861
 Alpha virt. eigenvalues --    1.14037   1.14865   1.15292   1.16575   1.17791
 Alpha virt. eigenvalues --    1.18098   1.18906   1.19967   1.20165   1.21746
 Alpha virt. eigenvalues --    1.21984   1.23378   1.23706   1.25082   1.25272
 Alpha virt. eigenvalues --    1.25923   1.26257   1.26782   1.27344   1.28138
 Alpha virt. eigenvalues --    1.29717   1.30600   1.31115   1.31367   1.32634
 Alpha virt. eigenvalues --    1.33002   1.33618   1.34194   1.34673   1.34896
 Alpha virt. eigenvalues --    1.36245   1.36556   1.37069   1.38127   1.38531
 Alpha virt. eigenvalues --    1.39059   1.39960   1.41100   1.41562   1.41835
 Alpha virt. eigenvalues --    1.42323   1.42845   1.44085   1.45041   1.45344
 Alpha virt. eigenvalues --    1.46860   1.47233   1.47903   1.48244   1.48672
 Alpha virt. eigenvalues --    1.49629   1.49862   1.50706   1.51658   1.52386
 Alpha virt. eigenvalues --    1.54316   1.54900   1.54969   1.55226   1.55985
 Alpha virt. eigenvalues --    1.56815   1.57147   1.58164   1.58740   1.59073
 Alpha virt. eigenvalues --    1.60162   1.60956   1.61003   1.61807   1.62382
 Alpha virt. eigenvalues --    1.63196   1.64622   1.65139   1.66530   1.67491
 Alpha virt. eigenvalues --    1.67951   1.69122   1.70244   1.71420   1.72188
 Alpha virt. eigenvalues --    1.73802   1.74723   1.76294   1.76928   1.78271
 Alpha virt. eigenvalues --    1.79693   1.80282   1.81279   1.82917   1.84738
 Alpha virt. eigenvalues --    1.85726   1.89015   1.92829   1.98838   2.00213
 Alpha virt. eigenvalues --    2.04104   2.07151   2.12649   2.19563   2.21844
 Alpha virt. eigenvalues --    2.24688   2.27538   2.32264   2.32530   2.40780
 Alpha virt. eigenvalues --    2.41771   2.42890   2.45100   2.46539   2.50671
 Alpha virt. eigenvalues --    2.60254   2.77124   2.78242   2.79662   2.81326
 Alpha virt. eigenvalues --    2.82248   2.87512   2.92208   2.93745   2.93923
 Alpha virt. eigenvalues --    2.94960   2.98144   3.00093   3.01314   3.04014
 Alpha virt. eigenvalues --    3.06522   3.07622   3.09558   3.11130   3.11586
 Alpha virt. eigenvalues --    3.12983   3.14274   3.18153   3.20777   3.23016
 Alpha virt. eigenvalues --    3.27583   3.30469   3.32122   3.33877   3.35168
 Alpha virt. eigenvalues --    3.35698   3.36926   3.38998   3.40700   3.41077
 Alpha virt. eigenvalues --    3.44214   3.44704   3.45424   3.45825   3.47540
 Alpha virt. eigenvalues --    3.48204   3.49661   3.50662   3.52279   3.53082
 Alpha virt. eigenvalues --    3.53399   3.53529   3.55150   3.56497   3.57007
 Alpha virt. eigenvalues --    3.57712   3.58220   3.59105   3.59652   3.60374
 Alpha virt. eigenvalues --    3.61213   3.62050   3.63104   3.65331   3.66028
 Alpha virt. eigenvalues --    3.66677   3.67876   3.68467   3.69076   3.70141
 Alpha virt. eigenvalues --    3.70863   3.71118   3.72310   3.73270   3.74709
 Alpha virt. eigenvalues --    3.75279   3.75879   3.76047   3.77684   3.78122
 Alpha virt. eigenvalues --    3.79238   3.79980   3.82532   3.83933   3.85915
 Alpha virt. eigenvalues --    3.86694   3.89106   3.89545   3.92214   3.93005
 Alpha virt. eigenvalues --    3.93624   3.94491   3.95585   3.97517   3.98110
 Alpha virt. eigenvalues --    3.99753   4.00899   4.03356   4.04193   4.04349
 Alpha virt. eigenvalues --    4.05112   4.06530   4.07401   4.08120   4.08420
 Alpha virt. eigenvalues --    4.08993   4.09317   4.09810   4.10209   4.11720
 Alpha virt. eigenvalues --    4.12283   4.12807   4.14403   4.15284   4.15545
 Alpha virt. eigenvalues --    4.16813   4.17806   4.19291   4.20229   4.21213
 Alpha virt. eigenvalues --    4.22868   4.23451   4.25695   4.27456   4.27955
 Alpha virt. eigenvalues --    4.28826   4.29557   4.30974   4.32210   4.32793
 Alpha virt. eigenvalues --    4.33053   4.34534   4.34793   4.36310   4.37493
 Alpha virt. eigenvalues --    4.40285   4.42784   4.44977   4.46233   4.47705
 Alpha virt. eigenvalues --    4.58318   4.62880   4.74695   4.76970   4.82555
 Alpha virt. eigenvalues --    4.85864   4.95115   4.96373   5.01112   5.04849
 Alpha virt. eigenvalues --    5.07231   5.07800   5.08537   5.09009   5.12295
 Alpha virt. eigenvalues --    5.13129   5.14292   5.14904   5.32105   5.38218
 Alpha virt. eigenvalues --    5.44928   5.57754   5.59384   5.65687   5.86373
 Alpha virt. eigenvalues --    5.87389   6.07510   7.03608   7.04310   7.06547
 Alpha virt. eigenvalues --    7.09218   7.10252   7.12892   7.15326   7.19382
 Alpha virt. eigenvalues --    7.26863   7.36618   7.37643   7.43928   7.53674
 Alpha virt. eigenvalues --    7.54651   7.67393  23.96006  23.99242  24.06777
 Alpha virt. eigenvalues --   24.08987  24.11736  24.12373  24.14969  24.15888
 Alpha virt. eigenvalues --   24.17784  24.21098  50.15593  50.17827  50.27460
          Condensed to atoms (all electrons):
               1          2          3          4          5          6
     1  C    6.919360   0.257589  -1.196624   0.032067  -0.341944   0.112962
     2  C    0.257589   7.152179  -1.052109   0.214160  -0.030289   0.014909
     3  C   -1.196624  -1.052109   8.206178   0.025483   0.334641  -0.014001
     4  C    0.032067   0.214160   0.025483   5.865135  -0.003548  -0.000470
     5  C   -0.341944  -0.030289   0.334641  -0.003548   5.462754   0.076870
     6  O    0.112962   0.014909  -0.014001  -0.000470   0.076870   8.353147
     7  C   -0.012186  -0.055824  -0.000119  -0.088994  -0.001997   0.002959
     8  C   -0.049941  -0.482543   0.124424  -0.141298   0.006779  -0.000255
     9  C   -0.217036  -0.924269   0.220446  -0.100128   0.016441  -0.004094
    10  C    0.103194   0.203853  -0.568654   0.000527  -0.002127   0.008691
    11  O   -0.077953   0.294958   0.057128  -0.085453   0.002218  -0.001618
    12  O   -0.085102   0.177393  -0.117876  -0.020545  -0.012578   0.025972
    13  C    0.148082   0.012409  -0.439026  -0.010928  -0.085454   0.001875
    14  H    0.436221   0.017736  -0.057973   0.003713  -0.000797  -0.046597
    15  H    0.458682   0.004154  -0.062108  -0.011033   0.004585  -0.079004
    16  H    0.014539   0.491129   0.000214   0.006045   0.001677   0.000062
    17  H    0.039006  -0.058366   0.447751   0.005132  -0.009938   0.007801
    18  H    0.000821   0.021516  -0.007957   0.481729  -0.000049  -0.000031
    19  H    0.004303  -0.002940  -0.000109   0.444548  -0.000173   0.000104
    20  H   -0.005756   0.000149   0.008583  -0.000105   0.444018  -0.064192
    21  H   -0.022455   0.001411   0.023108  -0.000100   0.471740  -0.057714
    22  H   -0.000109  -0.015078  -0.009759  -0.070992   0.000245  -0.000480
    23  H   -0.003042   0.013274   0.006059  -0.027646   0.000067   0.000012
    24  H   -0.001314  -0.001814   0.003000  -0.018691   0.000205   0.000194
    25  H   -0.033484  -0.010445  -0.009230  -0.092940   0.001515  -0.001502
    26  H   -0.004652  -0.162541   0.004623  -0.013181   0.000148  -0.000158
    27  H    0.004583  -0.016005  -0.005678  -0.011223   0.002342   0.001068
    28  H   -0.007416   0.008165  -0.018542  -0.000112  -0.029171   0.009889
    29  H    0.020884  -0.005183  -0.028617   0.001589  -0.091109  -0.011842
    30  H   -0.009524  -0.000379   0.023596   0.000879  -0.002216  -0.002466
    31  H   -0.004846  -0.008003  -0.073214  -0.000701  -0.008555   0.000229
               7          8          9         10         11         12
     1  C   -0.012186  -0.049941  -0.217036   0.103194  -0.077953  -0.085102
     2  C   -0.055824  -0.482543  -0.924269   0.203853   0.294958   0.177393
     3  C   -0.000119   0.124424   0.220446  -0.568654   0.057128  -0.117876
     4  C   -0.088994  -0.141298  -0.100128   0.000527  -0.085453  -0.020545
     5  C   -0.001997   0.006779   0.016441  -0.002127   0.002218  -0.012578
     6  O    0.002959  -0.000255  -0.004094   0.008691  -0.001618   0.025972
     7  C    5.720332   0.056842  -0.155208   0.005721   0.002504  -0.006976
     8  C    0.056842   5.514980   0.183500  -0.005372   0.117541   0.010789
     9  C   -0.155208   0.183500   6.654574  -0.016848  -0.059816  -0.025959
    10  C    0.005721  -0.005372  -0.016848   5.745142  -0.007060   0.017654
    11  O    0.002504   0.117541  -0.059816  -0.007060   8.263597  -0.034600
    12  O   -0.006976   0.010789  -0.025959   0.017654  -0.034600   8.398977
    13  C    0.007332   0.003263   0.020892   0.023822   0.016772  -0.041319
    14  H   -0.001905  -0.003847   0.004752   0.032091   0.000237   0.015253
    15  H    0.008287   0.004623  -0.014672   0.005784   0.000921  -0.003537
    16  H    0.005088  -0.022373  -0.085311  -0.003982  -0.042588  -0.022932
    17  H   -0.006682   0.003498  -0.008566  -0.041343  -0.007817  -0.019972
    18  H   -0.019393  -0.082149  -0.024280   0.000231  -0.000160  -0.001009
    19  H   -0.039792  -0.040055  -0.001882  -0.000193   0.009998   0.000864
    20  H   -0.000056  -0.000211   0.001228  -0.062213  -0.000011   0.001913
    21  H   -0.000024   0.000498  -0.000909  -0.014945  -0.000075   0.001349
    22  H    0.512778   0.001660  -0.040766   0.000195   0.002190  -0.000631
    23  H    0.430246   0.013312  -0.055272  -0.000731  -0.004248   0.001504
    24  H    0.008742   0.427837   0.000186   0.000522  -0.068678   0.000824
    25  H    0.004413   0.488337   0.028641   0.003744  -0.036081   0.017026
    26  H   -0.024167   0.013822   0.564348   0.000291  -0.007975   0.010909
    27  H   -0.029626   0.009518   0.416872  -0.002307   0.008039  -0.004993
    28  H    0.000010   0.000025   0.000284   0.452921  -0.000217   0.002732
    29  H    0.000067  -0.001467  -0.001338   0.513077   0.000423   0.001858
    30  H   -0.000349   0.001631   0.003399  -0.013622  -0.000821   0.000223
    31  H    0.000927   0.000517   0.002225  -0.038895   0.000591   0.004800
              13         14         15         16         17         18
     1  C    0.148082   0.436221   0.458682   0.014539   0.039006   0.000821
     2  C    0.012409   0.017736   0.004154   0.491129  -0.058366   0.021516
     3  C   -0.439026  -0.057973  -0.062108   0.000214   0.447751  -0.007957
     4  C   -0.010928   0.003713  -0.011033   0.006045   0.005132   0.481729
     5  C   -0.085454  -0.000797   0.004585   0.001677  -0.009938  -0.000049
     6  O    0.001875  -0.046597  -0.079004   0.000062   0.007801  -0.000031
     7  C    0.007332  -0.001905   0.008287   0.005088  -0.006682  -0.019393
     8  C    0.003263  -0.003847   0.004623  -0.022373   0.003498  -0.082149
     9  C    0.020892   0.004752  -0.014672  -0.085311  -0.008566  -0.024280
    10  C    0.023822   0.032091   0.005784  -0.003982  -0.041343   0.000231
    11  O    0.016772   0.000237   0.000921  -0.042588  -0.007817  -0.000160
    12  O   -0.041319   0.015253  -0.003537  -0.022932  -0.019972  -0.001009
    13  C    6.000635  -0.038910   0.012049   0.000540  -0.015910   0.000284
    14  H   -0.038910   0.461710  -0.008998  -0.000354  -0.009646   0.000057
    15  H    0.012049  -0.008998   0.482262   0.001918  -0.006594   0.000363
    16  H    0.000540  -0.000354   0.001918   0.416437   0.000139   0.001901
    17  H   -0.015910  -0.009646  -0.006594   0.000139   0.420496  -0.000717
    18  H    0.000284   0.000057   0.000363   0.001901  -0.000717   0.478374
    19  H   -0.000102  -0.000089   0.000338   0.000629   0.000312  -0.011199
    20  H    0.018971  -0.000443   0.000314   0.000151  -0.000294  -0.000006
    21  H   -0.048503   0.004643  -0.001904  -0.000209   0.000767   0.000001
    22  H    0.001351   0.000054   0.000290  -0.001431  -0.000563   0.001706
    23  H    0.000561  -0.000051   0.000220   0.001339   0.000074  -0.002590
    24  H    0.000226   0.000153   0.000380  -0.000436  -0.000520  -0.006934
    25  H    0.002193   0.000649  -0.003997   0.000110  -0.002985   0.003270
    26  H    0.002875   0.000108  -0.000351  -0.013109   0.000456  -0.002980
    27  H   -0.001536   0.000120  -0.000301  -0.005695  -0.001007  -0.001751
    28  H   -0.045132   0.000820   0.001257   0.000574  -0.001927   0.000001
    29  H   -0.023697  -0.001404  -0.001135  -0.000517   0.001279  -0.000001
    30  H    0.377628  -0.001326  -0.000556  -0.008281  -0.003526  -0.000180
    31  H    0.503508  -0.004108  -0.000967   0.000471  -0.003349  -0.000011
              19         20         21         22         23         24
     1  C    0.004303  -0.005756  -0.022455  -0.000109  -0.003042  -0.001314
     2  C   -0.002940   0.000149   0.001411  -0.015078   0.013274  -0.001814
     3  C   -0.000109   0.008583   0.023108  -0.009759   0.006059   0.003000
     4  C    0.444548  -0.000105  -0.000100  -0.070992  -0.027646  -0.018691
     5  C   -0.000173   0.444018   0.471740   0.000245   0.000067   0.000205
     6  O    0.000104  -0.064192  -0.057714  -0.000480   0.000012   0.000194
     7  C   -0.039792  -0.000056  -0.000024   0.512778   0.430246   0.008742
     8  C   -0.040055  -0.000211   0.000498   0.001660   0.013312   0.427837
     9  C   -0.001882   0.001228  -0.000909  -0.040766  -0.055272   0.000186
    10  C   -0.000193  -0.062213  -0.014945   0.000195  -0.000731   0.000522
    11  O    0.009998  -0.000011  -0.000075   0.002190  -0.004248  -0.068678
    12  O    0.000864   0.001913   0.001349  -0.000631   0.001504   0.000824
    13  C   -0.000102   0.018971  -0.048503   0.001351   0.000561   0.000226
    14  H   -0.000089  -0.000443   0.004643   0.000054  -0.000051   0.000153
    15  H    0.000338   0.000314  -0.001904   0.000290   0.000220   0.000380
    16  H    0.000629   0.000151  -0.000209  -0.001431   0.001339  -0.000436
    17  H    0.000312  -0.000294   0.000767  -0.000563   0.000074  -0.000520
    18  H   -0.011199  -0.000006   0.000001   0.001706  -0.002590  -0.006934
    19  H    0.478414  -0.000032   0.000019  -0.004521  -0.006170  -0.009149
    20  H   -0.000032   0.467554  -0.003936   0.000123   0.000034   0.000012
    21  H    0.000019  -0.003936   0.480054  -0.000079  -0.000021   0.000043
    22  H   -0.004521   0.000123  -0.000079   0.452156  -0.006258  -0.002313
    23  H   -0.006170   0.000034  -0.000021  -0.006258   0.459949   0.001940
    24  H   -0.009149   0.000012   0.000043  -0.002313   0.001940   0.465963
    25  H   -0.000887   0.000488  -0.000272  -0.000612  -0.001902  -0.017975
    26  H   -0.002310   0.000008  -0.000032   0.001494  -0.001945   0.000445
    27  H    0.001247   0.000076   0.000098  -0.001419  -0.008417   0.000846
    28  H   -0.000005  -0.008441   0.003661   0.000169  -0.000038   0.000019
    29  H    0.000075  -0.003070  -0.000124  -0.001081   0.000269   0.000008
    30  H    0.000058   0.000488  -0.000283  -0.000517   0.000046   0.000111
    31  H    0.000011  -0.001484  -0.003336   0.000028   0.000085  -0.000007
              25         26         27         28         29         30
     1  C   -0.033484  -0.004652   0.004583  -0.007416   0.020884  -0.009524
     2  C   -0.010445  -0.162541  -0.016005   0.008165  -0.005183  -0.000379
     3  C   -0.009230   0.004623  -0.005678  -0.018542  -0.028617   0.023596
     4  C   -0.092940  -0.013181  -0.011223  -0.000112   0.001589   0.000879
     5  C    0.001515   0.000148   0.002342  -0.029171  -0.091109  -0.002216
     6  O   -0.001502  -0.000158   0.001068   0.009889  -0.011842  -0.002466
     7  C    0.004413  -0.024167  -0.029626   0.000010   0.000067  -0.000349
     8  C    0.488337   0.013822   0.009518   0.000025  -0.001467   0.001631
     9  C    0.028641   0.564348   0.416872   0.000284  -0.001338   0.003399
    10  C    0.003744   0.000291  -0.002307   0.452921   0.513077  -0.013622
    11  O   -0.036081  -0.007975   0.008039  -0.000217   0.000423  -0.000821
    12  O    0.017026   0.010909  -0.004993   0.002732   0.001858   0.000223
    13  C    0.002193   0.002875  -0.001536  -0.045132  -0.023697   0.377628
    14  H    0.000649   0.000108   0.000120   0.000820  -0.001404  -0.001326
    15  H   -0.003997  -0.000351  -0.000301   0.001257  -0.001135  -0.000556
    16  H    0.000110  -0.013109  -0.005695   0.000574  -0.000517  -0.008281
    17  H   -0.002985   0.000456  -0.001007  -0.001927   0.001279  -0.003526
    18  H    0.003270  -0.002980  -0.001751   0.000001  -0.000001  -0.000180
    19  H   -0.000887  -0.002310   0.001247  -0.000005   0.000075   0.000058
    20  H    0.000488   0.000008   0.000076  -0.008441  -0.003070   0.000488
    21  H   -0.000272  -0.000032   0.000098   0.003661  -0.000124  -0.000283
    22  H   -0.000612   0.001494  -0.001419   0.000169  -0.001081  -0.000517
    23  H   -0.001902  -0.001945  -0.008417  -0.000038   0.000269   0.000046
    24  H   -0.017975   0.000445   0.000846   0.000019   0.000008   0.000111
    25  H    0.515117  -0.000356  -0.000179   0.000209  -0.000478  -0.000556
    26  H   -0.000356   0.443731  -0.006031   0.000047   0.000071   0.000147
    27  H   -0.000179  -0.006031   0.470396  -0.000073  -0.002195  -0.000904
    28  H    0.000209   0.000047  -0.000073   0.480633  -0.013622  -0.010520
    29  H   -0.000478   0.000071  -0.002195  -0.013622   0.469721  -0.000424
    30  H   -0.000556   0.000147  -0.000904  -0.010520  -0.000424   0.477983
    31  H   -0.000168  -0.000026  -0.000005  -0.005596   0.002152  -0.000552
              31
     1  C   -0.004846
     2  C   -0.008003
     3  C   -0.073214
     4  C   -0.000701
     5  C   -0.008555
     6  O    0.000229
     7  C    0.000927
     8  C    0.000517
     9  C    0.002225
    10  C   -0.038895
    11  O    0.000591
    12  O    0.004800
    13  C    0.503508
    14  H   -0.004108
    15  H   -0.000967
    16  H    0.000471
    17  H   -0.003349
    18  H   -0.000011
    19  H    0.000011
    20  H   -0.001484
    21  H   -0.003336
    22  H    0.000028
    23  H    0.000085
    24  H   -0.000007
    25  H   -0.000168
    26  H   -0.000026
    27  H   -0.000005
    28  H   -0.005596
    29  H    0.002152
    30  H   -0.000552
    31  H    0.428962
 Mulliken charges:
               1
     1  C   -0.478908
     2  C   -0.059196
     3  C    0.176360
     4  C   -0.382919
     5  C   -0.206301
     6  O   -0.332320
     7  C   -0.322949
     8  C   -0.153883
     9  C   -0.381436
    10  C   -0.339166
    11  O   -0.341946
    12  O   -0.292010
    13  C   -0.404754
    14  H    0.198129
    15  H    0.208728
    16  H    0.264256
    17  H    0.273012
    18  H    0.171144
    19  H    0.178690
    20  H    0.206138
    21  H    0.167526
    22  H    0.182168
    23  H    0.189339
    24  H    0.216175
    25  H    0.148338
    26  H    0.196289
    27  H    0.184139
    28  H    0.179397
    29  H    0.175831
    30  H    0.170812
    31  H    0.209315
 Sum of Mulliken charges =  -0.00000
 Mulliken charges with hydrogens summed into heavy atoms:
               1
     1  C   -0.072051
     2  C    0.205060
     3  C    0.449372
     4  C   -0.033085
     5  C    0.167363
     6  O   -0.332320
     7  C    0.048558
     8  C    0.210630
     9  C   -0.001008
    10  C    0.016063
    11  O   -0.341946
    12  O   -0.292010
    13  C   -0.024626
 Electronic spatial extent (au):  <R**2>=           2806.5806
 Charge=             -0.0000 electrons
 Dipole moment (field-independent basis, Debye):
    X=              0.5670    Y=              1.5754    Z=             -1.3588  Tot=              2.1564
 Quadrupole moment (field-independent basis, Debye-Ang):
   XX=            -68.7601   YY=            -77.4688   ZZ=            -82.2652
   XY=              3.1640   XZ=             -7.3567   YZ=              1.2966
 Traceless Quadrupole moment (field-independent basis, Debye-Ang):
   XX=              7.4046   YY=             -1.3041   ZZ=             -6.1005
   XY=              3.1640   XZ=             -7.3567   YZ=              1.2966
 Octapole moment (field-independent basis, Debye-Ang**2):
  XXX=             18.6741  YYY=             -2.2715  ZZZ=              0.5708  XYY=            -11.3797
  XXY=              5.0134  XXZ=              5.6813  XZZ=              8.0944  YZZ=              4.4038
  YYZ=             -7.5430  XYZ=              8.5268
 Hexadecapole moment (field-independent basis, Debye-Ang**3):
 XXXX=          -2536.9794 YYYY=           -592.5213 ZZZZ=           -458.7291 XXXY=             19.3268
 XXXZ=              1.8463 YYYX=             12.7746 YYYZ=              6.9122 ZZZX=              0.3632
 ZZZY=             -3.6892 XXYY=           -538.2262 XXZZ=           -523.5668 YYZZ=           -176.8095
 XXYZ=             13.9419 YYXZ=             -5.9134 ZZXY=             -0.6673
 N-N= 9.053032233353D+02 E-N=-3.253153387338D+03  KE= 6.153647018324D+02
 D1PCM: PCM CHGder 1st derivatives, ID1Alg=3 FixD1E=F DoIter=F DoCFld=F I1PDM=0.
 Calling FoFJK, ICntrl=      2127 FMM=F ISym2X=0 I1Cent= 0 IOpClX= 0 NMat=1 NMatS=1 NMatT=0.
 ***** Axes restored to original set *****
 -------------------------------------------------------------------
 Center     Atomic                   Forces (Hartrees/Bohr)
 Number     Number              X              Y              Z
 -------------------------------------------------------------------
      1        6          -0.000600997   -0.005960511   -0.003028004
      2        6           0.003809655   -0.002996562    0.005429683
      3        6          -0.003853164    0.000182101    0.000069946
      4        6          -0.003161179   -0.000400217    0.000525380
      5        6           0.002085576   -0.005759049   -0.003766595
      6        8           0.004535505    0.005329980    0.010150380
      7        6          -0.000108237    0.000988569   -0.004236515
      8        6           0.003026226   -0.004637617    0.005109248
      9        6          -0.000532434    0.002704751    0.001586231
     10        6          -0.000238751    0.002382525   -0.002406067
     11        8           0.001832044    0.003311535   -0.013539366
     12        8          -0.002664889    0.000494125    0.014399417
     13        6          -0.000257755    0.002381619    0.002622270
     14        1          -0.003628228    0.001240326   -0.004354337
     15        1           0.004865930    0.003068606    0.000483151
     16        1          -0.001331047   -0.003847155   -0.006147268
     17        1           0.001917417    0.001032505   -0.005686769
     18        1           0.002149219   -0.001331300   -0.002273193
     19        1           0.000722730    0.001796565    0.001941494
     20        1          -0.001535223   -0.000183524    0.004209056
     21        1          -0.003849144    0.001142715   -0.004173904
     22        1          -0.003086469    0.001499132    0.001562827
     23        1           0.001706116   -0.001399157    0.001243401
     24        1           0.002088930    0.003215675   -0.002230851
     25        1          -0.004722894    0.002231690    0.004034147
     26        1           0.002419473   -0.000698838   -0.002175623
     27        1          -0.002079445   -0.002206172    0.001234289
     28        1          -0.002116544   -0.001649782   -0.000208005
     29        1           0.002780953   -0.000607038    0.002487568
     30        1           0.002113584   -0.002651593   -0.000680111
     31        1          -0.002286959    0.001326096   -0.002181881
 -------------------------------------------------------------------
 Cartesian Forces:  Max     0.014399417 RMS     0.003638819

 GradGradGradGradGradGradGradGradGradGradGradGradGradGradGradGradGradGrad
 Berny optimization.
 FormGI is forming the generalized inverse of G from B-inverse, IUseBI=4.
 Internal  Forces:  Max     0.010010329 RMS     0.002132415
 Search for a local minimum.
 Step number   1 out of a maximum of  186
 All quantities printed in internal units (Hartrees-Bohrs-Radians)
 Mixed Optimization -- RFO/linear search
 Second derivative matrix not updated -- first step.
 ITU=  0
     Eigenvalues ---    0.00612   0.00630   0.00729   0.00739   0.01403
     Eigenvalues ---    0.01448   0.01744   0.02698   0.02812   0.03077
     Eigenvalues ---    0.03116   0.04097   0.04343   0.04657   0.04751
     Eigenvalues ---    0.04881   0.04889   0.05051   0.05139   0.05151
     Eigenvalues ---    0.05256   0.05693   0.05718   0.06179   0.06187
     Eigenvalues ---    0.06338   0.06725   0.06942   0.07580   0.07840
     Eigenvalues ---    0.07947   0.07949   0.07981   0.08111   0.08254
     Eigenvalues ---    0.08837   0.09301   0.09359   0.10701   0.11615
     Eigenvalues ---    0.11696   0.11714   0.11764   0.12406   0.12531
     Eigenvalues ---    0.14649   0.14778   0.15700   0.16509   0.17503
     Eigenvalues ---    0.19214   0.21311   0.21961   0.25000   0.28523
     Eigenvalues ---    0.28676   0.28780   0.28890   0.28964   0.29031
     Eigenvalues ---    0.30341   0.30359   0.35039   0.35092   0.35094
     Eigenvalues ---    0.35100   0.35189   0.35207   0.35242   0.35259
     Eigenvalues ---    0.35275   0.35317   0.35342   0.35444   0.35486
     Eigenvalues ---    0.35639   0.35820   0.35828   0.35843   0.35945
     Eigenvalues ---    0.40748   0.41391   0.42023   0.42201   0.43318
     Eigenvalues ---    0.462861000.000001000.000001000.000001000.00000
     Eigenvalues --- 1000.000001000.000001000.000001000.000001000.00000
     Eigenvalues --- 1000.000001000.000001000.000001000.000001000.00000
     Eigenvalues --- 1000.000001000.000001000.000001000.000001000.00000
     Eigenvalues --- 1000.000001000.000001000.000001000.000001000.00000
     Eigenvalues --- 1000.000001000.000001000.000001000.000001000.00000
     Eigenvalues --- 1000.000001000.000001000.000001000.000001000.00000
     Eigenvalues --- 1000.000001000.000001000.000001000.000001000.00000
     Eigenvalues --- 1000.000001000.000001000.000001000.000001000.00000
     Eigenvalues --- 1000.000001000.000001000.000001000.000001000.00000
     Eigenvalues --- 1000.000001000.000001000.000001000.000001000.00000
     Eigenvalues --- 1000.000001000.000001000.000001000.000001000.00000
     Eigenvalues --- 1000.000001000.000001000.000001000.000001000.00000
     Eigenvalues --- 1000.000001000.000001000.000001000.000001000.00000
     Eigenvalues --- 1000.000001000.000001000.000001000.000001000.00000
     Eigenvalues --- 1000.000001000.000001000.000001000.000001000.00000
     Eigenvalues --- 1000.000001000.000001000.000001000.000001000.00000
     Eigenvalues --- 1000.000001000.000001000.000001000.000001000.00000
     Eigenvalues --- 1000.000001000.000001000.000001000.000001000.00000
     Eigenvalues --- 1000.000001000.000001000.000001000.000001000.00000
 RFO step:  Lambda=-3.24109881D-03 EMin= 6.11924495D-03
 Linear search not attempted -- first point.
 Iteration  1 RMS(Cart)=  0.04047319 RMS(Int)=  0.00039001
 Iteration  2 RMS(Cart)=  0.00124579 RMS(Int)=  0.00003893
 Iteration  3 RMS(Cart)=  0.00000050 RMS(Int)=  0.00003893
 Iteration  1 RMS(Cart)=  0.00000585 RMS(Int)=  0.00000135
 Iteration  2 RMS(Cart)=  0.00000325 RMS(Int)=  0.00000150
 Iteration  3 RMS(Cart)=  0.00000180 RMS(Int)=  0.00000170
 Iteration  4 RMS(Cart)=  0.00000100 RMS(Int)=  0.00000183
 Variable       Old X    -DE/DX   Delta X   Delta X   Delta X     New X
                                 (Linear)    (Quad)   (Total)
    R1        2.87181  -0.00110   0.00000  -0.00349  -0.00348   2.86832
    R2        2.66801   0.00597   0.00000   0.01427   0.01430   2.68231
    R3        2.05513   0.00571   0.00000   0.01612   0.01612   2.07125
    R4        2.04167   0.00567   0.00000   0.01565   0.01565   2.05731
    R5        2.87404  -0.00126   0.00000  -0.00406  -0.00407   2.86997
    R6        2.65482   0.00754   0.00000   0.01692   0.01695   2.67176
    R7        2.63810   0.00651   0.00000   0.01396   0.01396   2.65206
    R8        2.04351   0.00736   0.00000   0.02036   0.02036   2.06387
    R9        2.68894   0.00415   0.00000   0.00980   0.00980   2.69874
   R10        2.88613  -0.00152   0.00000  -0.00572  -0.00575   2.88038
   R11        2.04649   0.00609   0.00000   0.01692   0.01692   2.06341
   R12        2.88831  -0.00092   0.00000  -0.00340  -0.00342   2.88489
   R13        2.87104  -0.00072   0.00000  -0.00237  -0.00236   2.86867
   R14        2.05526   0.00330   0.00000   0.00933   0.00933   2.06458
   R15        2.05285   0.00274   0.00000   0.00769   0.00769   2.06054
   R16        2.67637   0.00636   0.00000   0.01511   0.01514   2.69151
   R17        2.87399  -0.00062   0.00000  -0.00201  -0.00202   2.87197
   R18        2.04365   0.00448   0.00000   0.01240   0.01240   2.05605
   R19        2.05612   0.00569   0.00000   0.01610   0.01610   2.07221
   R20        2.88964  -0.00123   0.00000  -0.00446  -0.00449   2.88515
   R21        2.05369   0.00365   0.00000   0.01029   0.01029   2.06397
   R22        2.05163   0.00253   0.00000   0.00709   0.00709   2.05872
   R23        2.68788   0.00570   0.00000   0.01370   0.01372   2.70161
   R24        2.04328   0.00443   0.00000   0.01226   0.01226   2.05554
   R25        2.04892   0.00655   0.00000   0.01828   0.01828   2.06720
   R26        2.05340   0.00324   0.00000   0.00913   0.00913   2.06253
   R27        2.04960   0.00324   0.00000   0.00907   0.00907   2.05867
   R28        2.89215  -0.00112   0.00000  -0.00480  -0.00482   2.88733
   R29        2.05256   0.00269   0.00000   0.00756   0.00756   2.06012
   R30        2.05231   0.00367   0.00000   0.01032   0.01032   2.06263
   R31        2.05123   0.00335   0.00000   0.00939   0.00939   2.06062
   R32        2.05522   0.00337   0.00000   0.00952   0.00952   2.06474
    A1        1.95219   0.00024   0.00000  -0.00074  -0.00074   1.95146
    A2        1.90477  -0.00105   0.00000  -0.00375  -0.00379   1.90098
    A3        1.93371  -0.00073   0.00000  -0.00983  -0.00983   1.92389
    A4        1.91123   0.00123   0.00000   0.01029   0.01029   1.92152
    A5        1.86414  -0.00032   0.00000  -0.00102  -0.00106   1.86307
    A6        1.89677   0.00070   0.00000   0.00556   0.00553   1.90229
    A7        1.94630   0.00254   0.00000   0.00950   0.00933   1.95564
    A8        1.90322  -0.00210   0.00000  -0.01172  -0.01167   1.89156
    A9        1.93210   0.00018   0.00000   0.00593   0.00596   1.93806
   A10        1.94142  -0.00044   0.00000  -0.00916  -0.00907   1.93234
   A11        1.82957  -0.00156   0.00000  -0.00532  -0.00533   1.82424
   A12        1.91038   0.00147   0.00000   0.01152   0.01152   1.92190
   A13        1.90357  -0.00098   0.00000  -0.00779  -0.00775   1.89582
   A14        1.92321   0.00116   0.00000   0.00249   0.00238   1.92559
   A15        1.88809  -0.00024   0.00000   0.00000   0.00003   1.88811
   A16        1.91648   0.00013   0.00000  -0.00279  -0.00276   1.91372
   A17        1.90716   0.00068   0.00000   0.00687   0.00686   1.91401
   A18        1.92494  -0.00076   0.00000   0.00122   0.00123   1.92617
   A19        1.92164  -0.00037   0.00000  -0.00430  -0.00446   1.91718
   A20        1.91664   0.00072   0.00000   0.00168   0.00174   1.91838
   A21        1.93955  -0.00054   0.00000  -0.00079  -0.00078   1.93877
   A22        1.90712  -0.00012   0.00000  -0.00163  -0.00159   1.90553
   A23        1.90227   0.00014   0.00000   0.00013   0.00019   1.90245
   A24        1.87583   0.00019   0.00000   0.00509   0.00506   1.88089
   A25        1.93661   0.00092   0.00000   0.00584   0.00575   1.94236
   A26        1.85645  -0.00090   0.00000  -0.00272  -0.00270   1.85375
   A27        1.90089   0.00087   0.00000   0.00482   0.00488   1.90577
   A28        1.94572  -0.00039   0.00000  -0.00340  -0.00339   1.94233
   A29        1.93061  -0.00102   0.00000  -0.00731  -0.00729   1.92332
   A30        1.89126   0.00056   0.00000   0.00314   0.00311   1.89437
   A31        1.97654  -0.00435   0.00000  -0.02597  -0.02590   1.95064
   A32        1.91218   0.00247   0.00000  -0.00068  -0.00071   1.91147
   A33        1.91418  -0.00111   0.00000  -0.00228  -0.00232   1.91186
   A34        1.93111  -0.00041   0.00000   0.00117   0.00122   1.93233
   A35        1.92257  -0.00089   0.00000  -0.00321  -0.00321   1.91936
   A36        1.91604  -0.00082   0.00000  -0.00005  -0.00003   1.91601
   A37        1.86741   0.00069   0.00000   0.00511   0.00511   1.87253
   A38        1.94613   0.00162   0.00000   0.00427   0.00423   1.95036
   A39        1.94653  -0.00016   0.00000  -0.00202  -0.00198   1.94455
   A40        1.92961  -0.00129   0.00000  -0.00576  -0.00580   1.92381
   A41        1.84142  -0.00105   0.00000  -0.00102  -0.00103   1.84039
   A42        1.90948   0.00040   0.00000   0.00254   0.00259   1.91207
   A43        1.88777   0.00050   0.00000   0.00230   0.00229   1.89006
   A44        1.95547  -0.00114   0.00000  -0.01195  -0.01207   1.94340
   A45        1.87282  -0.00020   0.00000   0.00105   0.00107   1.87390
   A46        1.89971   0.00046   0.00000  -0.00218  -0.00215   1.89756
   A47        1.90913   0.00115   0.00000   0.00731   0.00736   1.91649
   A48        1.94779  -0.00030   0.00000  -0.00022  -0.00029   1.94750
   A49        1.87573   0.00009   0.00000   0.00679   0.00676   1.88249
   A50        1.92593   0.00004   0.00000  -0.00610  -0.00617   1.91976
   A51        1.90717   0.00043   0.00000   0.00223   0.00228   1.90945
   A52        1.90504  -0.00058   0.00000  -0.00192  -0.00195   1.90310
   A53        1.92703  -0.00069   0.00000  -0.00004  -0.00004   1.92700
   A54        1.92522   0.00056   0.00000   0.00083   0.00085   1.92607
   A55        1.87251   0.00026   0.00000   0.00532   0.00531   1.87782
   A56        2.02540  -0.00585   0.00000  -0.03469  -0.03459   1.99081
   A57        2.03140  -0.01001   0.00000  -0.03953  -0.03953   1.99188
   A58        1.93921   0.00089   0.00000  -0.00897  -0.00905   1.93016
   A59        1.91507  -0.00059   0.00000  -0.00644  -0.00640   1.90867
   A60        1.88635  -0.00054   0.00000   0.00244   0.00245   1.88880
   A61        1.93839  -0.00009   0.00000   0.00214   0.00208   1.94047
   A62        1.91017  -0.00013   0.00000   0.00454   0.00456   1.91473
   A63        1.87270   0.00044   0.00000   0.00692   0.00690   1.87961
    D1       -1.16172   0.00101   0.00000   0.02819   0.02818  -1.13353
    D2        0.94320   0.00128   0.00000   0.02137   0.02138   0.96459
    D3        3.04881   0.00089   0.00000   0.02435   0.02433   3.07314
    D4        3.00390   0.00003   0.00000   0.01828   0.01829   3.02220
    D5       -1.17436   0.00029   0.00000   0.01146   0.01149  -1.16287
[...]
 .00000107,-0.00000762,-0.00000379,0.01039025,-0.02198427,-0.02112646,-
 0.00105595,0.00134213,0.00154453,-0.00001534,0.00002388,-0.00001511,0.
 00003986,0.00007614,0.00001325,-0.00026414,0.00022323,-0.00003133,-0.0
 0029977,-0.00026244,0.00011544,0.00002712,-0.00000601,0.00000884,-0.00
 307954,0.00275000,-0.00192362,0.00098505,-0.00064198,0.00082772,0.0000
 0568,0.00000878,-0.00000099,-0.00000546,-0.00000180,-0.00000152,0.0003
 2524,-0.00040944,-0.00008301,0.00008319,-0.00020939,-0.00000445,0.0137
 7020,-0.00547094,-0.00726576,-0.10814364,0.05711590,0.13189059,-0.0003
 4374,0.00000815,-0.00053031,-0.01491412,0.00494726,0.01352883,0.000654
 32,0.00047293,0.00148739,0.00083103,0.00035649,-0.00026493,0.00008332,
 0.00001211,0.00000115,-0.00007664,-0.00000827,0.00011385,0.01010184,-0
 .00580387,-0.00731498,-0.00006648,-0.00000936,-0.00016359,-0.19836041,
 0.07746714,0.10528600,-0.00000605,-0.00002110,-0.00004527,0.00140887,-
 0.00077166,-0.00001150,-0.00518286,0.00308999,-0.00392994,-0.00009804,
 0.00014519,-0.00013320,-0.00011063,0.00018601,0.00008026,0.00001704,-0
 .00000200,0.00001211,0.00049240,-0.00051381,0.00002109,-0.00006268,0.0
 0004554,-0.00012301,-0.00018160,0.00036381,-0.00000198,0.00004439,0.00
 020759,-0.00005401,-0.00001363,0.00000255,0.00000904,-0.00001049,0.000
 00255,-0.00000953,-0.00006836,-0.00223778,-0.00195132,0.00080932,0.000
 53244,0.00062813,0.00003041,0.00001715,0.00001698,-0.00003396,-0.00002
 019,0.00003357,0.21641454,0.00012190,0.00002988,0.00020056,0.01108921,
 -0.00751328,-0.01026062,0.00001888,0.00020142,-0.00087387,0.00106616,0
 .00059325,-0.00005774,-0.00004254,-0.00000295,-0.00000043,0.00004435,-
 0.00000281,-0.00005575,0.01468824,-0.00861910,-0.01117592,0.00000006,-
 0.00007474,-0.00007342,0.07516263,-0.08726725,-0.05111802,0.00000392,0
 .00000289,0.00002610,-0.00032091,0.00075006,0.00006270,0.00289107,-0.0
 0080886,0.00251619,0.00011856,-0.00016008,0.00013789,0.00004217,-0.000
 07921,-0.00002836,-0.00000583,-0.00000161,-0.00001106,-0.00050261,0.00
 058193,0.00017351,-0.00002106,0.00000562,0.00004869,-0.00025551,-0.000
 08149,0.00016226,-0.00018808,0.00018180,0.00004462,0.00000668,-0.00000
 200,-0.00000498,0.00000526,-0.00000118,0.00000525,-0.00159917,-0.00171
 710,-0.00273149,-0.00021579,0.00090071,0.00068107,0.00002454,-0.000042
 70,0.00003591,-0.00003207,0.00004492,-0.00000574,-0.08413258,0.0922034
 4,-0.00023895,0.00002580,-0.00035815,-0.01494318,0.00764734,0.01089123
 ,-0.00019262,0.00035687,0.00100717,0.00036997,0.00115071,0.00076663,0.
 00004786,0.00000392,-0.00000082,-0.00003472,-0.00000600,0.00005955,0.0
 1765681,-0.01017914,-0.01519012,-0.00030866,-0.00013025,-0.00018825,0.
 10933118,-0.05307247,-0.12276136,-0.00000311,-0.00000772,-0.00003360,0
 .00013039,-0.00082145,0.00043126,-0.00493800,0.00300798,-0.00220800,-0
 .00007748,0.00013523,-0.00010300,-0.00008283,0.00013194,0.00004844,0.0
 0000961,-0.00000195,0.00000124,0.00033507,-0.00055259,0.00091166,0.000
 01245,-0.00000430,-0.00006712,-0.00028090,-0.00018961,0.00045984,-0.00
 027981,0.00021429,0.00002337,-0.00000927,0.00000201,0.00000623,-0.0000
 0503,0.00000079,-0.00000492,-0.00243270,-0.00345349,-0.00246366,0.0002
 4475,0.00081762,0.00086399,0.00006822,-0.00002232,0.00006554,0.0000122
 3,-0.00000847,-0.00002672,-0.11362238,0.06028168,0.13495818,0.00004676
 ,-0.00000285,0.00000285,0.00925821,0.01483374,-0.00632583,0.00035458,-
 0.00015659,0.00005389,0.00011454,-0.00146403,-0.00281618,0.00000298,0.
 00000140,0.00000649,0.00000031,-0.00000027,-0.00000526,-0.00605237,-0.
 00721220,0.00559739,-0.00066673,-0.00047197,-0.00081088,-0.11901818,-0
 .10573120,0.05829105,-0.00000254,-0.00000131,-0.00001229,-0.00085866,0
 .00481323,-0.00363840,0.00069600,0.00052346,-0.00039039,0.00000275,-0.
 00000357,0.00000893,0.00000464,-0.00001230,0.00000243,-0.00000136,-0.0
 0000277,-0.00000029,0.00043506,-0.00076039,0.00044174,0.00001179,0.000
 03375,-0.00004028,0.00017806,0.00031644,-0.00022136,-0.00006886,-0.000
 95843,0.00044939,0.00000029,0.00000067,-0.00000042,0.00000037,-0.00000
 282,-0.00000001,0.00066446,0.00029938,-0.00023610,0.00000862,0.0003578
 9,0.00028389,0.00012895,0.00003619,0.00018201,0.00004415,0.00003885,0.
 00009181,-0.01123060,-0.01804442,0.00932065,0.12589841,-0.00006099,0.0
 0001872,-0.00005620,-0.00950362,-0.01278717,0.00499099,0.00011683,0.00
 034503,-0.00001541,-0.00101159,-0.00095173,-0.00422055,0.00000393,0.00
 000010,0.00000064,0.00000344,-0.00000217,0.00000058,-0.00890083,-0.014
 32865,0.00822690,-0.00001846,0.00124919,0.00026344,-0.10159880,-0.2009
 0298,0.08463674,0.00000652,-0.00000649,0.00000410,0.00172076,-0.002390
 93,0.00317446,-0.00064853,0.00105126,-0.00053585,0.00003429,-0.0000387
 3,0.00002224,-0.00001372,0.00002071,0.00000982,0.00000158,0.00000141,-
 0.00000069,0.00042625,0.00028721,0.00007169,-0.00004517,0.00001584,-0.
 00003984,-0.00013991,0.00004250,0.00015108,-0.00049877,-0.00091543,0.0
 0069650,0.00000057,-0.00000090,-0.00000060,-0.00000045,0.00000139,-0.0
 0000046,0.00054989,0.00061693,0.00042691,0.00011358,0.00076461,-0.0000
 4931,-0.00000240,-0.00005992,0.00002610,0.00005567,-0.00009237,-0.0000
 7346,0.00575706,0.01080764,-0.00525582,0.11362176,0.21726975,0.0000598
 0,-0.00002336,0.00005253,0.01372566,0.01317772,-0.00750648,-0.00009660
 ,-0.00032855,-0.00005139,-0.00165406,-0.00288240,-0.00390651,0.0000007
 2,-0.00000081,-0.00000311,-0.00000557,0.00000981,-0.00000970,-0.012633
 24,-0.01922721,0.01191585,-0.00070536,-0.00089805,-0.00125530,0.055602
 47,0.08587698,-0.09459389,-0.00000045,-0.00000538,0.00000555,-0.002424
 84,0.00563045,-0.00321722,0.00079947,-0.00093655,0.00104027,-0.0000350
 9,0.00003954,-0.00000594,0.00000681,-0.00001700,-0.00001006,0.00000009
 ,-0.00000069,0.00000107,0.00007930,-0.00072729,0.00034618,0.00002051,-
 0.00001142,0.00003020,-0.00009049,0.00005302,0.00006053,-0.00060191,-0
 .00134488,0.00059202,-0.00000031,0.00000001,0.00000023,-0.00000051,0.0
 0000040,0.00000079,0.00071073,0.00078625,0.00104133,0.00037723,0.00101
 148,0.00088659,0.00015779,0.00012890,0.00023075,0.00007586,0.00011458,
 0.00018052,0.00690302,0.01204055,-0.00710784,-0.06025350,-0.09246154,0
 .10129403,-0.00033570,0.00046714,0.00029287,0.00044068,-0.00011711,-0.
 00018489,0.00038808,0.00092684,0.00327643,0.00000382,-0.00000807,-0.00
 000970,0.00782797,0.00519287,-0.00019410,0.00149798,0.00312701,0.00088
 182,-0.00000086,0.00001177,0.00000340,0.00003059,0.00004780,0.00004457
 ,-0.00004180,-0.00000360,0.00003978,-0.22053027,-0.12865295,-0.0122265
 9,-0.00023115,-0.00008367,0.00003200,-0.00016268,0.00003960,0.00023340
 ,-0.01085090,-0.00807330,-0.00133285,0.00005303,-0.00002854,-0.0000360
 1,0.00005285,-0.00006347,-0.00017358,-0.00001262,0.00001260,0.00002885
 ,-0.00065649,-0.00072394,-0.00020694,-0.00000246,0.00000096,0.00000210
 ,-0.00000558,-0.00000075,-0.00000487,0.00025168,-0.00073473,-0.0000413
 8,0.00036719,-0.00068181,-0.00036296,0.00000063,0.00000003,0.00000239,
 -0.00000659,-0.00000252,-0.00000793,-0.00000745,-0.00000790,-0.0000032
 4,-0.00000286,-0.00000148,-0.00000470,-0.00002351,0.00001093,-0.000013
 00,0.00000155,0.,-0.00000283,0.23613606,0.00098874,0.00054708,-0.00174
 636,0.00008668,0.00003575,-0.00012877,0.00079077,0.00106542,0.00046732
 ,0.00000034,0.00000034,0.00000120,-0.02562417,-0.01327870,0.00008629,-
 0.00028597,-0.00906032,-0.00172353,-0.00000178,0.00000375,-0.00000036,
 0.00000678,0.00000318,0.00000080,-0.00002404,-0.00000268,0.00001890,-0
 .12638180,-0.14425108,-0.00857506,-0.00000259,-0.00002183,0.00000559,-
 0.00021823,0.00011832,-0.00032954,0.00023406,-0.00029571,0.00079615,-0
 .00006301,-0.00003795,0.00022911,-0.00014848,0.00001116,0.00020460,0.0
 0000088,-0.00000501,0.00000429,-0.00005274,0.00002590,-0.00012296,-0.0
 0000183,0.00000113,-0.00000021,-0.00000102,-0.00000060,-0.00000084,0.0
 0017632,0.00100055,-0.00032536,0.00031816,0.00112552,0.00075238,-0.000
 00105,-0.00000008,0.00000116,-0.00000257,-0.00000070,-0.00000260,-0.00
 000194,-0.00000193,0.00000065,-0.00000479,0.00000189,0.00000214,-0.000
 00923,0.00000586,-0.00000598,-0.00000007,0.00000092,0.00000061,0.14026
 540,0.15453877,0.00043592,-0.00057953,-0.00089848,-0.00037150,0.000092
 84,0.00027481,0.00132123,-0.00080573,-0.00675605,-0.00000324,0.0000088
 2,0.00001166,-0.00829948,-0.00268518,-0.00169514,-0.00021604,-0.003932
 17,0.00075913,0.00000390,-0.00001544,-0.00000557,-0.00002513,-0.000053
 33,-0.00005195,0.00005504,0.00000475,-0.00004912,-0.01318006,-0.009955
 59,-0.04664840,0.00020679,0.00006096,0.00000996,0.00031630,-0.00029103
 ,0.00050158,0.02507194,0.02023820,0.00110930,-0.00010295,0.00002906,0.
 00011478,-0.00009748,0.00007294,0.00024239,-0.00001175,-0.00000624,-0.
 00001977,0.00127239,0.00132902,0.00008130,0.00000137,-0.00000076,-0.00
 000130,0.00000607,0.00000077,0.00000506,-0.00004505,0.00064881,0.00001
 356,0.00014528,0.00006154,0.00032274,0.00000166,0.00000007,-0.00000032
 ,0.00000557,0.00000354,0.00000836,0.00000710,0.00000746,0.00000300,0.0
 0000077,0.00000372,0.00000184,0.00002356,-0.00001435,0.00001630,0.0000
 0038,-0.00000201,0.00000036,0.01125214,0.01007684,0.05114065,-0.000188
 38,-0.00000805,0.00042182,0.00017895,-0.00016883,0.00005174,0.00021412
 ,-0.00008744,-0.00094383,0.00000136,-0.00000102,0.00000023,-0.00891809
 ,0.00352267,-0.00687395,0.00195224,-0.00050834,0.00038223,0.00000198,0
 .00000440,0.00000162,0.00000227,0.00000218,0.00000305,0.00000828,-0.00
 001526,0.00000069,-0.15144028,0.06096062,-0.11344272,-0.00003591,-0.00
 001322,0.00002659,-0.00123747,-0.00030221,0.00067895,0.01081911,-0.005
 84831,0.01097681,-0.00009112,0.00000341,-0.00004063,0.00003462,0.00000
 281,-0.00003962,-0.00000770,0.00000445,0.00000659,0.00005026,0.0002010
 7,-0.00004205,0.00000054,0.00000045,0.00000014,0.00000043,0.00000092,-
 0.00000014,0.00020110,-0.00032611,0.00009172,0.00063873,0.00209432,0.0
 0100465,0.00000603,-0.00000433,-0.00000545,0.00000158,-0.00000020,0.00
 000020,0.00000069,-0.00000110,-0.00000132,0.00000229,-0.00000104,-0.00
 000275,0.00000226,0.00000227,-0.00000183,0.00002034,0.00001883,-0.0000
 1429,-0.01521506,0.01000929,-0.01629733,0.16302971,-0.00004662,-0.0000
 0333,-0.00005386,-0.00009559,0.00007165,0.00006142,0.00057229,-0.00023
 369,0.00034801,-0.00000276,-0.00000004,0.00000032,0.02170370,-0.014403
 02,0.02125914,-0.00041580,0.00316863,0.00006669,-0.00000923,0.00000036
 ,0.00000286,-0.00001047,-0.00000701,-0.00000526,0.00000831,0.00000491,
 -0.00000867,0.05836725,-0.08477984,0.06697875,0.00005514,0.00002508,-0
 .00003482,-0.00011560,0.00006883,-0.00010777,-0.00007705,-0.00073773,-
 0.00008805,0.00007580,0.00003379,-0.00002352,-0.00002783,-0.00001637,0
 .00002084,0.00000981,-0.00000035,-0.00001168,-0.00006188,-0.00005006,-
 0.00002542,0.00000189,0.00000070,-0.00000126,0.00000056,-0.00000032,0.
 00000068,-0.00073897,0.00148049,-0.00012228,0.00154895,-0.00531806,-0.
 00174997,-0.00000148,-0.00000364,-0.00000607,0.00000234,0.00000088,0.0
 0000055,0.00000262,0.00000185,-0.00000034,0.00000109,-0.00000257,0.000
 00160,0.00000483,-0.00000485,0.00000183,-0.00001452,-0.00000695,0.0000
 0900,-0.01142975,0.00810101,-0.01376117,-0.06911032,0.09123939,0.00021
 591,-0.00004592,-0.00016388,0.00009459,-0.00013724,0.00008829,-0.00148
 764,-0.00015854,0.00003815,0.00000129,-0.00000310,-0.00000222,0.007603
 49,-0.00481669,0.00724424,0.00034254,0.00134902,-0.00007363,0.00000421
 ,-0.00000074,0.00000298,0.00000484,0.00001025,0.00001321,0.00002416,-0
 .00000061,-0.00001743,-0.11335083,0.06795699,-0.17176584,-0.00011103,-
 0.00003798,0.00005806,0.00016392,-0.00017064,0.00107440,-0.01828772,0.
 01040373,-0.02184014,0.00002469,-0.00001475,-0.00002493,-0.00002727,0.
 00010590,0.00005461,-0.00001596,0.00001787,0.00000620,0.00018819,-0.00
 004741,0.00005702,-0.00000039,0.00000053,0.00000024,-0.00000042,-0.000
 00011,-0.00000039,0.00002147,0.00080912,0.00088089,0.00030699,-0.00256
 954,0.00055612,0.00000815,0.00000107,-0.00000279,0.00000133,0.00000006
 ,-0.00000006,-0.00000146,-0.00000233,-0.00000233,0.00000255,0.00000054
 ,-0.00000536,0.00000209,-0.00000386,0.00000334,0.00001568,0.00000005,-
 0.00000700,-0.00090620,-0.00017394,-0.00122452,0.12189765,-0.07265394,
 0.18831685,-0.00474598,-0.00300987,0.00067378,0.00010781,0.00001428,0.
 00015032,0.00835962,-0.02418565,-0.00759293,-0.00000476,0.00000173,0.0
 0000528,-0.00125610,-0.00188532,0.00356743,0.00078081,0.00082862,-0.00
 053209,0.00001082,-0.00001032,-0.00000092,-0.00000047,-0.00001106,-0.0
 0000882,-0.00000496,0.00006156,0.00001676,-0.00590127,0.01332187,0.002
 20731,0.00000867,-0.00001537,-0.00006043,0.00273358,0.00050487,0.00086
 223,-0.08813512,0.09397483,0.02636868,0.00006232,0.00002984,0.00005879
 ,0.00053084,-0.00131736,-0.00065423,-0.00000241,0.00002915,0.00010199,
 0.00097821,0.00121888,0.00015315,-0.00000056,0.00000009,-0.00000083,0.
 00000213,0.00000175,-0.00000061,-0.00000549,0.00113301,0.00049347,0.00
 013649,-0.00036298,-0.00011180,0.00000284,-0.00000154,0.00000097,0.000
 00365,0.00000281,0.00000670,0.00000259,-0.00000046,-0.00000336,0.00000
 732,-0.00000195,0.00000114,-0.00000016,-0.00001156,0.00000135,0.000025
 21,0.00000556,0.00000589,0.00007701,-0.00000431,-0.00062037,0.00068686
 ,-0.00045116,-0.00021017,0.09338390,-0.00567585,-0.00128271,0.00140310
 ,-0.00034233,0.00009770,-0.00011920,0.00985058,-0.02284896,-0.00549545
 ,-0.00000595,0.00000089,-0.00000138,-0.00081217,0.00115330,0.00063089,
 0.00072855,0.00031928,-0.00036847,0.00000226,-0.00000469,0.00001120,0.
 00000784,0.00000798,-0.00001330,-0.00008156,-0.00000072,0.00005127,-0.
 00149634,0.00413334,0.00088478,-0.00003350,0.00003642,0.00000132,0.001
 21814,0.00236716,0.00094943,0.09154722,-0.25720518,-0.06072777,0.00004
 727,0.00024944,0.00012970,0.00056174,-0.00124083,-0.00090299,-0.000203
 35,-0.00010986,-0.00001736,0.00014729,0.00086179,0.00022396,-0.0000024
 4,0.00000118,-0.00000080,-0.00000097,-0.00000120,-0.00000031,-0.000105
 80,0.00005073,0.00016203,-0.00001740,0.00003807,0.00009188,0.00000061,
 -0.00000149,0.00000049,-0.00000002,-0.00000035,-0.00000368,0.00000290,
 -0.00000166,0.00000081,-0.00000147,0.00000234,0.00000512,-0.00002178,0
 .00001211,-0.00001532,-0.00002804,-0.00001612,-0.00000391,0.00030226,0
 .00027233,-0.00054481,0.00017376,0.00033699,-0.00042623,-0.09820193,0.
 27897813,0.00021384,0.00056107,0.00053065,-0.00013106,0.00001765,0.000
 16491,-0.00214751,-0.00079263,-0.00122761,-0.00000158,-0.00000080,0.00
 000120,0.00346608,0.00319825,-0.00527415,-0.00080369,-0.00002015,0.000
 75471,-0.00000360,0.00000120,-0.00000627,-0.00000805,-0.00000014,-0.00
 001375,0.00001663,-0.00004775,-0.00003417,0.01142307,-0.02755383,-0.00
 779603,0.00002248,0.00005905,-0.00001638,0.00061283,-0.00040965,0.0000
 6171,0.02618178,-0.05850430,-0.06435171,0.00023911,-0.00022256,0.00006
 966,0.00009256,0.00007888,0.00025459,-0.00003363,-0.00002782,-0.000044
 64,-0.00050184,0.00008920,0.00012964,0.00000084,-0.00000043,-0.0000004
 2,0.00000143,0.00000115,-0.00000016,0.00040520,-0.00182545,-0.00055426
 ,0.00011181,-0.00013803,0.00010246,-0.00000084,-0.00000031,-0.00000029
 ,0.00000091,-0.00000133,-0.00000017,0.00000052,0.00000320,0.00000333,0
 .00000167,-0.00000043,0.00000213,0.00001128,-0.00000428,0.00000739,0.0
 0000732,0.00000876,-0.00000134,-0.00032040,0.00047125,0.00115140,-0.00
 092686,0.00001240,0.00130197,-0.03074750,0.06524989,0.06873577,0.00041
 704,0.00097794,0.00000710,0.00193493,-0.00080086,-0.00204453,-0.013739
 84,0.00946492,-0.01540267,0.00002853,-0.00001305,-0.00002836,0.0008163
 4,-0.00048492,-0.00024274,-0.00007542,-0.00021261,-0.00006827,0.000011
 17,0.00005644,0.00003084,0.00012082,0.00014298,0.00017709,-0.00020761,
 0.00006298,0.00025292,0.01077307,-0.00452224,0.01267165,-0.00067667,-0
 .00046771,0.00041526,-0.00775332,-0.00314280,-0.00148566,-0.16372919,0
 .04477115,-0.12227473,0.00043540,-0.00028834,0.00008005,0.00005999,-0.
 00009614,0.00029129,0.00006569,0.00012767,0.00026839,0.00057391,0.0006
 2456,0.00049836,-0.00000886,0.00000233,0.00000456,-0.00001851,-0.00000
 677,-0.00001151,-0.00002381,-0.00020724,-0.00012887,-0.00018875,-0.000
 09247,-0.00038559,-0.00001083,0.00000465,0.00001335,-0.00002949,-0.000
 01026,-0.00002652,-0.00002909,-0.00002406,-0.00000349,-0.00001752,0.00
 000385,-0.00001511,-0.00010576,0.00007532,-0.00007607,0.00000126,0.000
 00672,-0.00000634,0.00095687,-0.00004780,-0.00085703,-0.00071973,0.000
 25444,0.00347534,-0.00784341,0.00244050,-0.00718281,0.17898278,0.00077
 835,-0.00000078,0.00009798,0.00063272,-0.00041820,-0.00122171,-0.01221
 151,0.00648367,-0.01538523,0.00001499,-0.00000932,-0.00001597,-0.00067
 137,0.00012172,-0.00068997,0.00002328,-0.00010447,-0.00000880,0.000009
 09,0.00002968,0.00002277,0.00005796,0.00008502,0.00008490,-0.00015480,
 0.00005292,0.00018413,0.00123498,-0.00162323,0.00253347,-0.00036829,-0
 .00028021,0.00022309,-0.00610122,-0.00115733,-0.00103163,0.04743940,-0
 .06839887,0.04813979,-0.00017523,-0.00050732,-0.00029689,-0.00003984,0
 .00026641,0.00021467,-0.00004741,-0.00003016,0.00016844,0.00044637,0.0
 0099909,0.00037347,-0.00000380,0.00000107,0.00000324,-0.00001060,-0.00
 000357,-0.00000621,-0.00007506,0.00005207,0.00001552,-0.00000842,0.000
 23152,0.00001988,-0.00000772,0.00000312,0.00000730,-0.00001564,-0.0000
 0532,-0.00001422,-0.00001275,-0.00001363,-0.00000373,-0.00000276,0.000
 00266,-0.00001393,-0.00006719,0.00005765,-0.00005112,-0.00000900,0.000
 00731,-0.00001024,0.00020840,0.00009770,0.00000798,-0.00060567,0.00103
 328,0.00060843,0.01834197,-0.00620539,0.01979795,-0.04859920,0.0692329
 0,-0.00025262,0.00041069,-0.00014934,0.00003893,-0.00015160,-0.0001157
 5,0.00039320,0.00002666,-0.00167596,-0.00000016,-0.00000513,-0.0000045
 6,-0.00105412,0.00086287,0.00111671,0.00007848,-0.00042290,-0.00020163
 ,0.00000719,-0.00000162,0.00000680,0.00000748,0.00002607,0.00002432,-0
 .00000901,0.00000176,0.00001734,-0.01878496,0.00833357,-0.02278001,-0.
 00012692,-0.00005747,0.00004012,0.00053431,0.00056582,0.00166061,-0.12
 243986,0.04666343,-0.17370485,0.00017613,-0.00012243,0.00008488,0.0000
 4955,-0.00010299,0.00008412,-0.00005076,-0.00002799,0.00001025,-0.0000
 9495,-0.00042136,0.00040896,-0.00000103,0.00000040,0.00000097,-0.00000
 161,-0.00000005,-0.00000193,0.00031652,0.00002108,0.00024311,0.0002643
 6,-0.00059291,0.00019633,0.00000328,-0.00000091,-0.00000066,0.00000083
 ,-0.00000164,-0.00000269,-0.00000079,-0.00000410,-0.00000225,0.0000002
 3,-0.00000089,-0.00000288,-0.00000241,0.00000291,-0.00000782,-0.000004
 71,0.00000076,-0.00000300,-0.00005758,0.00001626,0.00158242,0.00308808
 ,-0.00011002,-0.00456604,0.00586883,-0.00115491,0.00604982,0.13205408,
 -0.05375338,0.19169262\\0.00000810,0.00001877,-0.00002166,0.00018624,0
 .00048920,0.00008408,0.00038645,-0.00009937,-0.00051419,0.00000190,0.0
 0000171,0.00000505,0.00000203,0.00000600,0.00001419,-0.00000984,-0.000
 00293,-0.00000083,0.00000827,-0.00000164,0.00000470,-0.00001159,-0.000
 00496,-0.00002232,0.00000539,0.00000519,-0.00000619,0.00000056,-0.0000
 0627,-0.00000617,0.00001574,0.00003189,-0.00000542,-0.00035369,-0.0006
 6267,0.00006125,-0.00023828,0.00020997,0.00039424,0.00000005,-0.000005
 34,0.00000471,-0.00000733,-0.00000544,-0.00000385,0.00000923,0.0000155
 0,0.00000789,-0.00000536,0.00000390,0.00001280,-0.00000591,0.00000263,
 0.00000255,0.00000083,0.00000697,-0.00000613,-0.00000457,-0.00000236,-
 0.00000530,0.00000296,-0.00000495,0.00000166,0.00000308,0.00000078,-0.
 00000261,-0.00000778,0.00000170,-0.00000130,-0.00000341,0.00000344,-0.
 00000050,0.00000385,-0.00000295,-0.00000637,0.00000758,0.00000017,0.00
 000459,0.00000639,0.00000153,-0.00000358,0.00000259,0.00000066,0.00000
 786,-0.00000006,0.00000114,-0.00000390,-0.00000137,0.00000435,0.000001
 23,-0.00000206,-0.00000662,0.00000352\\\@


 MICRO CREDO - NEVER TRUST A COMPUTER BIGGER
               BIGGER THAN YOU CAN LIFT.
 Job cpu time:       0 days 13 hours  4 minutes 19.2 seconds.
 Elapsed time:       0 days  1 hours  5 minutes 37.8 seconds.
 File lengths (MBytes):  RWF=    723 Int=      0 D2E=      0 Chk=     34 Scr=      1
 Normal termination of Gaussian 16 at Fri Mar  8 23:39:42 2019.
