 Entering Gaussian System, Link 0=g16
 Initial command:
 /sw/Projects/G16/g16/l1.exe "/nvme/pbs/tmpdir/pbs.74203[15].flm1/Gau-30383.inp" -scrdir="/nvme/pbs/tmpdir/pbs.74203[15].flm1/"
 Entering Link 1 = /sw/Projects/G16/g16/l1.exe PID=     30384.
  
 Copyright (c) 1988-2017, Gaussian, Inc.  All Rights Reserved.
  
 This is part of the Gaussian(R) 16 program.  It is based on
 the Gaussian(R) 09 system (copyright 2009, Gaussian, Inc.),
 the Gaussian(R) 03 system (copyright 2003, Gaussian, Inc.),
 the Gaussian(R) 98 system (copyright 1998, Gaussian, Inc.),
 the Gaussian(R) 94 system (copyright 1995, Gaussian, Inc.),
 the Gaussian 92(TM) system (copyright 1992, Gaussian, Inc.),
 the Gaussian 90(TM) system (copyright 1990, Gaussian, Inc.),
 the Gaussian 88(TM) system (copyright 1988, Gaussian, Inc.),
 the Gaussian 86(TM) system (copyright 1986, Carnegie Mellon
 University), and the Gaussian 82(TM) system (copyright 1983,
 Carnegie Mellon University). Gaussian is a federally registered
 trademark of Gaussian, Inc.
  
 This software contains proprietary and confidential information,
 including trade secrets, belonging to Gaussian, Inc.
  
 This software is provided under written license and may be
 used, copied, transmitted, or stored only in accord with that
 written license.
  
 The following legend is applicable only to US Government
 contracts under FAR:
  
                    RESTRICTED RIGHTS LEGEND
  
 Use, reproduction and disclosure by the US Government is
 subject to restrictions as set forth in subparagraphs (a)
 and (c) of the Commercial Computer Software - Restricted
 Rights clause in FAR 52.227-19.
  
 Gaussian, Inc.
 340 Quinnipiac St., Bldg. 40, Wallingford CT 06492
  
  
 ---------------------------------------------------------------
 Warning -- This program may not be used in any manner that
 competes with the business of Gaussian, Inc. or will provide
 assistance to any competitor of Gaussian, Inc.  The licensee
 of this program is prohibited from giving any competitor of
 Gaussian, Inc. access to this program.  By using this program,
 the user acknowledges that Gaussian, Inc. is engaged in the
 business of creating and licensing software in the field of
 computational chemistry and represents and warrants to the
 licensee that it is not a competitor of Gaussian, Inc. and that
 it will not use this program in any manner prohibited above.
 ---------------------------------------------------------------
  

 Cite this work as:
 Gaussian 16, Revision B.01,
 M. J. Frisch, G. W. Trucks, H. B. Schlegel, G. E. Scuseria, 
 M. A. Robb, J. R. Cheeseman, G. Scalmani, V. Barone, 
 G. A. Petersson, H. Nakatsuji, X. Li, M. Caricato, A. V. Marenich, 
 J. Bloino, B. G. Janesko, R. Gomperts, B. Mennucci, H. P. Hratchian, 
 J. V. Ortiz, A. F. Izmaylov, J. L. Sonnenberg, D. Williams-Young, 
 F. Ding, F. Lipparini, F. Egidi, J. Goings, B. Peng, A. Petrone, 
 T. Henderson, D. Ranasinghe, V. G. Zakrzewski, J. Gao, N. Rega, 
 G. Zheng, W. Liang, M. Hada, M. Ehara, K. Toyota, R. Fukuda, 
 J. Hasegawa, M. Ishida, T. Nakajima, Y. Honda, O. Kitao, H. Nakai, 
 T. Vreven, K. Throssell, J. A. Montgomery, Jr., J. E. Peralta, 
 F. Ogliaro, M. J. Bearpark, J. J. Heyd, E. N. Brothers, K. N. Kudin, 
 V. N. Staroverov, T. A. Keith, R. Kobayashi, J. Normand, 
 K. Raghavachari, A. P. Rendell, J. C. Burant, S. S. Iyengar, 
 J. Tomasi, M. Cossi, J. M. Millam, M. Klene, C. Adamo, R. Cammi, 
 J. W. Ochterski, R. L. Martin, K. Morokuma, O. Farkas, 
 J. B. Foresman, and D. J. Fox, Gaussian, Inc., Wallingford CT, 2016.
 
 ******************************************
 Gaussian 16:  ES64L-G16RevB.01 20-Dec-2017
                 9-Mar-2019 
 ******************************************
 %mem=20gb
 %nproc=12
 Will use up to   12 processors via shared memory.
 %chk=4c1_a1_a4_4c1_PSI.inp_extract_15.chk
 ----------------------------------------------------------------------
 #M062X/6-311++G(2d,2p) opt=ModRedundant freq=noraman SCRF=(SMD,solvent
 =water)
 ----------------------------------------------------------------------
 1/18=120,19=15,26=3,38=1/1,3;
 2/9=110,12=2,17=6,18=5,40=1/2;
 3/5=4,6=6,7=1212,11=2,25=1,30=1,70=32201,71=1,72=1,74=-55/1,2,3;
 4//1;
 5/5=2,38=5,53=1/2;
 6/7=2,8=2,9=2,10=2,28=1/1;
 7//1,2,3,16;
 1/18=20,19=15,26=3/3(2);
 2/9=110/2;
 99//99;
 2/9=110/2;
 3/5=4,6=6,7=1212,11=2,25=1,30=1,70=32205,71=1,72=1,74=-55/1,2,3;
 4/5=5,16=3,69=1/1;
 5/5=2,38=5,53=1/2;
 7//1,2,3,16;
 1/18=20,19=15,26=3/3(-5);
 2/9=110/2;
 6/7=2,8=2,9=2,10=2,19=2,28=1/1;
 99/9=1/99;
 --------------------------------
 4c1_a1_a4_4c1_PSI.inp_extract_15
 --------------------------------
 Symbolic Z-matrix:
 Charge =  0 Multiplicity = 1
 C                    -2.152    -1.22274   0.75325 
 C                     0.72198  -0.27086  -0.50159 
 C                    -1.11797  -0.18863   1.17959 
 C                     3.48927   0.4263   -0.00016 
 C                    -3.16937   0.16655  -0.8535 
 O                    -2.54657  -1.07811  -0.59444 
 C                     3.0595   -1.03812   0.08975 
 C                     2.30856   1.33861   0.28873 
 C                     1.8334   -1.26989  -0.79468 
 C                    -2.20837   1.31876  -0.60344 
 O                     1.20745   1.04529  -0.55963 
 O                     0.18957  -0.57162   0.75528 
 C                    -1.5974    1.21838   0.79896 
 H                    -3.02642  -1.12885   1.39356 
 H                    -1.75354  -2.22196   0.85952 
 H                    -0.03946  -0.32625  -1.2604 
 H                    -1.04363  -0.23844   2.25782 
 H                     3.86781   0.63789  -0.9976 
 H                     4.28726   0.64383   0.70421 
 H                    -3.49333   0.13954  -1.88493 
 H                    -4.04991   0.257    -0.22097 
 H                     2.82973  -1.28938   1.12169 
 H                     3.86749  -1.69264  -0.22278 
 H                     2.55351   2.37464   0.09909 
 H                     2.00011   1.24978   1.325 
 H                     2.11232  -1.14577  -1.8377 
 H                     1.44301  -2.27522  -0.67914 
 H                    -2.74844   2.25651  -0.69785 
 H                    -1.44069   1.3192   -1.36813 
 H                    -0.80297   1.94106   0.93583 
 H                    -2.37205   1.46441   1.52163 
 
 The following ModRedundant input section has been read:
 D      13       3      12       2 F                                           
 

 GradGradGradGradGradGradGradGradGradGradGradGradGradGradGradGradGradGrad
 Berny optimization.
 Initialization pass.
                           ----------------------------
                           !    Initial Parameters    !
                           ! (Angstroms and Degrees)  !
 --------------------------                            --------------------------
 ! Name  Definition              Value          Derivative Info.                !
 --------------------------------------------------------------------------------
 ! R1    R(1,3)                  1.5233         estimate D2E/DX2                !
 ! R2    R(1,6)                  1.4117         estimate D2E/DX2                !
 ! R3    R(1,14)                 1.0878         estimate D2E/DX2                !
 ! R4    R(1,15)                 1.081          estimate D2E/DX2                !
 ! R5    R(2,9)                  1.5229         estimate D2E/DX2                !
 ! R6    R(2,11)                 1.404          estimate D2E/DX2                !
 ! R7    R(2,12)                 1.3977         estimate D2E/DX2                !
 ! R8    R(2,16)                 1.0764         estimate D2E/DX2                !
 ! R9    R(3,12)                 1.427          estimate D2E/DX2                !
 ! R10   R(3,13)                 1.5344         estimate D2E/DX2                !
 ! R11   R(3,17)                 1.0819         estimate D2E/DX2                !
 ! R12   R(4,7)                  1.5288         estimate D2E/DX2                !
 ! R13   R(4,8)                  1.5198         estimate D2E/DX2                !
 ! R14   R(4,18)                 1.0876         estimate D2E/DX2                !
 ! R15   R(4,19)                 1.0864         estimate D2E/DX2                !
 ! R16   R(5,6)                  1.4157         estimate D2E/DX2                !
 ! R17   R(5,10)                 1.5211         estimate D2E/DX2                !
 ! R18   R(5,20)                 1.0814         estimate D2E/DX2                !
 ! R19   R(5,21)                 1.088          estimate D2E/DX2                !
 ! R20   R(7,9)                  1.5295         estimate D2E/DX2                !
 ! R21   R(7,22)                 1.0867         estimate D2E/DX2                !
 ! R22   R(7,23)                 1.0858         estimate D2E/DX2                !
 ! R23   R(8,11)                 1.4206         estimate D2E/DX2                !
 ! R24   R(8,24)                 1.0814         estimate D2E/DX2                !
 ! R25   R(8,25)                 1.0848         estimate D2E/DX2                !
 ! R26   R(9,26)                 1.0868         estimate D2E/DX2                !
 ! R27   R(9,27)                 1.0846         estimate D2E/DX2                !
 ! R28   R(10,13)                1.533          estimate D2E/DX2                !
 ! R29   R(10,28)                1.0863         estimate D2E/DX2                !
 ! R30   R(10,29)                1.0835         estimate D2E/DX2                !
 ! R31   R(13,30)                1.0826         estimate D2E/DX2                !
 ! R32   R(13,31)                1.0876         estimate D2E/DX2                !
 ! A1    A(3,1,6)              112.7912         estimate D2E/DX2                !
 ! A2    A(3,1,14)             108.8026         estimate D2E/DX2                !
 ! A3    A(3,1,15)             110.4742         estimate D2E/DX2                !
 ! A4    A(6,1,14)             109.1726         estimate D2E/DX2                !
 ! A5    A(6,1,15)             106.953          estimate D2E/DX2                !
 ! A6    A(14,1,15)            108.5544         estimate D2E/DX2                !
 ! A7    A(9,2,11)             110.7714         estimate D2E/DX2                !
 ! A8    A(9,2,12)             108.0529         estimate D2E/DX2                !
 ! A9    A(9,2,16)             110.2929         estimate D2E/DX2                !
 ! A10   A(11,2,12)            111.7524         estimate D2E/DX2                !
 ! A11   A(11,2,16)            105.2895         estimate D2E/DX2                !
 ! A12   A(12,2,16)            110.6944         estimate D2E/DX2                !
 ! A13   A(1,3,12)             110.8897         estimate D2E/DX2                !
 ! A14   A(1,3,13)             109.9363         estimate D2E/DX2                !
 ! A15   A(1,3,17)             107.1163         estimate D2E/DX2                !
 ! A16   A(12,3,13)            117.2993         estimate D2E/DX2                !
 ! A17   A(12,3,17)            102.7684         estimate D2E/DX2                !
 ! A18   A(13,3,17)            108.113          estimate D2E/DX2                !
 ! A19   A(7,4,8)              110.2078         estimate D2E/DX2                !
 ! A20   A(7,4,18)             109.7625         estimate D2E/DX2                !
 ! A21   A(7,4,19)             111.1093         estimate D2E/DX2                !
 ! A22   A(8,4,18)             109.1428         estimate D2E/DX2                !
 ! A23   A(8,4,19)             109.0995         estimate D2E/DX2                !
 ! A24   A(18,4,19)            107.4565         estimate D2E/DX2                !
 ! A25   A(6,5,10)             110.9751         estimate D2E/DX2                !
 ! A26   A(6,5,20)             106.5202         estimate D2E/DX2                !
 ! A27   A(6,5,21)             108.8304         estimate D2E/DX2                !
 ! A28   A(10,5,20)            111.4061         estimate D2E/DX2                !
 ! A29   A(10,5,21)            110.6582         estimate D2E/DX2                !
 ! A30   A(20,5,21)            108.3082         estimate D2E/DX2                !
 ! A31   A(1,6,5)              112.8133         estimate D2E/DX2                !
 ! A32   A(4,7,9)              109.6635         estimate D2E/DX2                !
 ! A33   A(4,7,22)             109.6806         estimate D2E/DX2                !
 ! A34   A(4,7,23)             110.5668         estimate D2E/DX2                !
 ! A35   A(9,7,22)             110.157          estimate D2E/DX2                !
 ! A36   A(9,7,23)             109.8008         estimate D2E/DX2                !
 ! A37   A(22,7,23)            106.937          estimate D2E/DX2                !
 ! A38   A(4,8,11)             111.3886         estimate D2E/DX2                !
 ! A39   A(4,8,24)             111.4572         estimate D2E/DX2                !
 ! A40   A(4,8,25)             110.6897         estimate D2E/DX2                !
 ! A41   A(11,8,24)            105.5847         estimate D2E/DX2                !
 ! A42   A(11,8,25)            109.4595         estimate D2E/DX2                !
 ! A43   A(24,8,25)            108.0824         estimate D2E/DX2                !
 ! A44   A(2,9,7)              111.9841         estimate D2E/DX2                !
 ! A45   A(2,9,26)             107.283          estimate D2E/DX2                !
 ! A46   A(2,9,27)             108.957          estimate D2E/DX2                !
 ! A47   A(7,9,26)             109.3862         estimate D2E/DX2                !
 ! A48   A(7,9,27)             111.5549         estimate D2E/DX2                !
 ! A49   A(26,9,27)            107.4855         estimate D2E/DX2                !
 ! A50   A(5,10,13)            110.6459         estimate D2E/DX2                !
 ! A51   A(5,10,28)            108.9978         estimate D2E/DX2                !
 ! A52   A(5,10,29)            109.3849         estimate D2E/DX2                !
 ! A53   A(13,10,28)           109.5224         estimate D2E/DX2                !
 ! A54   A(13,10,29)           111.3009         estimate D2E/DX2                !
 ! A55   A(28,10,29)           106.8916         estimate D2E/DX2                !
 ! A56   A(2,11,8)             115.9039         estimate D2E/DX2                !
 ! A57   A(2,12,3)             123.9619         estimate D2E/DX2                !
 ! A58   A(3,13,10)            114.2986         estimate D2E/DX2                !
 ! A59   A(3,13,30)            110.576          estimate D2E/DX2                !
 ! A60   A(3,13,31)            105.3761         estimate D2E/DX2                !
 ! A61   A(10,13,30)           111.3703         estimate D2E/DX2                !
 ! A62   A(10,13,31)           108.01           estimate D2E/DX2                !
 ! A63   A(30,13,31)           106.7172         estimate D2E/DX2                !
 ! D1    D(6,1,3,12)           -80.7541         estimate D2E/DX2                !
 ! D2    D(6,1,3,13)            50.594          estimate D2E/DX2                !
 ! D3    D(6,1,3,17)           167.835          estimate D2E/DX2                !
 ! D4    D(14,1,3,12)          157.9558         estimate D2E/DX2                !
 ! D5    D(14,1,3,13)          -70.6961         estimate D2E/DX2                !
 ! D6    D(14,1,3,17)           46.5448         estimate D2E/DX2                !
 ! D7    D(15,1,3,12)           38.8821         estimate D2E/DX2                !
 ! D8    D(15,1,3,13)          170.2302         estimate D2E/DX2                !
 ! D9    D(15,1,3,17)          -72.5288         estimate D2E/DX2                !
 ! D10   D(3,1,6,5)            -62.1339         estimate D2E/DX2                !
 ! D11   D(14,1,6,5)            58.9458         estimate D2E/DX2                !
 ! D12   D(15,1,6,5)           176.216          estimate D2E/DX2                !
 ! D13   D(11,2,9,7)            52.476          estimate D2E/DX2                !
 ! D14   D(11,2,9,26)          -67.5569         estimate D2E/DX2                !
 ! D15   D(11,2,9,27)          176.3653         estimate D2E/DX2                !
 ! D16   D(12,2,9,7)           -70.2422         estimate D2E/DX2                !
 ! D17   D(12,2,9,26)          169.7249         estimate D2E/DX2                !
 ! D18   D(12,2,9,27)           53.6471         estimate D2E/DX2                !
 ! D19   D(16,2,9,7)           168.64           estimate D2E/DX2                !
 ! D20   D(16,2,9,26)           48.6071         estimate D2E/DX2                !
 ! D21   D(16,2,9,27)          -67.4707         estimate D2E/DX2                !
 ! D22   D(9,2,11,8)           -56.0083         estimate D2E/DX2                !
 ! D23   D(12,2,11,8)           64.5349         estimate D2E/DX2                !
 ! D24   D(16,2,11,8)         -175.2324         estimate D2E/DX2                !
 ! D25   D(9,2,12,3)          -157.5608         estimate D2E/DX2                !
 ! D26   D(11,2,12,3)           80.322          estimate D2E/DX2                !
 ! D27   D(16,2,12,3)          -36.6928         estimate D2E/DX2                !
 ! D28   D(1,3,12,2)            86.5805         estimate D2E/DX2                !
 ! D29   D(13,3,12,2)          -40.8421         Frozen                          !
 ! D30   D(17,3,12,2)         -159.2464         estimate D2E/DX2                !
 ! D31   D(1,3,13,10)          -43.4083         estimate D2E/DX2                !
 ! D32   D(1,3,13,30)         -170.031          estimate D2E/DX2                !
 ! D33   D(1,3,13,31)           75.0153         estimate D2E/DX2                !
 ! D34   D(12,3,13,10)          84.4741         estimate D2E/DX2                !
 ! D35   D(12,3,13,30)         -42.1485         estimate D2E/DX2                !
 ! D36   D(12,3,13,31)        -157.1023         estimate D2E/DX2                !
 ! D37   D(17,3,13,10)        -160.0263         estimate D2E/DX2                !
 ! D38   D(17,3,13,30)          73.351          estimate D2E/DX2                !
 ! D39   D(17,3,13,31)         -41.6027         estimate D2E/DX2                !
 ! D40   D(8,4,7,9)             52.4869         estimate D2E/DX2                !
 ! D41   D(8,4,7,22)           -68.607          estimate D2E/DX2                !
 ! D42   D(8,4,7,23)           173.7049         estimate D2E/DX2                !
 ! D43   D(18,4,7,9)           -67.748          estimate D2E/DX2                !
 ! D44   D(18,4,7,22)          171.1581         estimate D2E/DX2                !
 ! D45   D(18,4,7,23)           53.47           estimate D2E/DX2                !
 ! D46   D(19,4,7,9)           173.5414         estimate D2E/DX2                !
 ! D47   D(19,4,7,22)           52.4475         estimate D2E/DX2                !
 ! D48   D(19,4,7,23)          -65.2407         estimate D2E/DX2                !
 ! D49   D(7,4,8,11)           -54.5738         estimate D2E/DX2                !
 ! D50   D(7,4,8,24)          -172.217          estimate D2E/DX2                !
 ! D51   D(7,4,8,25)            67.4564         estimate D2E/DX2                !
 ! D52   D(18,4,8,11)           66.0339         estimate D2E/DX2                !
 ! D53   D(18,4,8,24)          -51.6094         estimate D2E/DX2                !
 ! D54   D(18,4,8,25)         -171.936          estimate D2E/DX2                !
 ! D55   D(19,4,8,11)         -176.8217         estimate D2E/DX2                !
 ! D56   D(19,4,8,24)           65.5351         estimate D2E/DX2                !
 ! D57   D(19,4,8,25)          -54.7916         estimate D2E/DX2                !
 ! D58   D(10,5,6,1)            62.7031         estimate D2E/DX2                !
 ! D59   D(20,5,6,1)          -175.8699         estimate D2E/DX2                !
 ! D60   D(21,5,6,1)           -59.2976         estimate D2E/DX2                !
 ! D61   D(6,5,10,13)          -52.9454         estimate D2E/DX2                !
 ! D62   D(6,5,10,28)         -173.4366         estimate D2E/DX2                !
 ! D63   D(6,5,10,29)           70.018          estimate D2E/DX2                !
 ! D64   D(20,5,10,13)        -171.4601         estimate D2E/DX2                !
 ! D65   D(20,5,10,28)          68.0488         estimate D2E/DX2                !
 ! D66   D(20,5,10,29)         -48.4967         estimate D2E/DX2                !
 ! D67   D(21,5,10,13)          67.9831         estimate D2E/DX2                !
 ! D68   D(21,5,10,28)         -52.508          estimate D2E/DX2                !
 ! D69   D(21,5,10,29)        -169.0535         estimate D2E/DX2                !
 ! D70   D(4,7,9,2)            -51.9785         estimate D2E/DX2                !
 ! D71   D(4,7,9,26)            66.8181         estimate D2E/DX2                !
 ! D72   D(4,7,9,27)          -174.4001         estimate D2E/DX2                !
 ! D73   D(22,7,9,2)            68.8275         estimate D2E/DX2                !
 ! D74   D(22,7,9,26)         -172.3758         estimate D2E/DX2                !
 ! D75   D(22,7,9,27)          -53.594          estimate D2E/DX2                !
 ! D76   D(23,7,9,2)          -173.6569         estimate D2E/DX2                !
 ! D77   D(23,7,9,26)          -54.8603         estimate D2E/DX2                !
 ! D78   D(23,7,9,27)           63.9215         estimate D2E/DX2                !
 ! D79   D(4,8,11,2)            57.8628         estimate D2E/DX2                !
 ! D80   D(24,8,11,2)          179.0008         estimate D2E/DX2                !
 ! D81   D(25,8,11,2)          -64.8761         estimate D2E/DX2                !
 ! D82   D(5,10,13,3)           45.1488         estimate D2E/DX2                !
 ! D83   D(5,10,13,30)         171.3587         estimate D2E/DX2                !
 ! D84   D(5,10,13,31)         -71.7682         estimate D2E/DX2                !
 ! D85   D(28,10,13,3)         165.3267         estimate D2E/DX2                !
 ! D86   D(28,10,13,30)        -68.4634         estimate D2E/DX2                !
 ! D87   D(28,10,13,31)         48.4097         estimate D2E/DX2                !
 ! D88   D(29,10,13,3)         -76.6953         estimate D2E/DX2                !
 ! D89   D(29,10,13,30)         49.5146         estimate D2E/DX2                !
 ! D90   D(29,10,13,31)        166.3877         estimate D2E/DX2                !
 --------------------------------------------------------------------------------
 Trust Radius=3.00D-01 FncErr=1.00D-07 GrdErr=1.00D-06 EigMax=2.50D+02 EigMin=1.00D-04
 Number of steps in this run=    186 maximum allowed number of steps=    186.
 GradGradGradGradGradGradGradGradGradGradGradGradGradGradGradGradGradGrad

                          Input orientation:                          
 ---------------------------------------------------------------------
 Center     Atomic      Atomic             Coordinates (Angstroms)
 Number     Number       Type             X           Y           Z
 ---------------------------------------------------------------------
      1          6           0       -2.152005   -1.222738    0.753248
      2          6           0        0.721976   -0.270856   -0.501585
      3          6           0       -1.117968   -0.188632    1.179588
      4          6           0        3.489268    0.426298   -0.000157
      5          6           0       -3.169367    0.166549   -0.853501
      6          8           0       -2.546571   -1.078107   -0.594443
      7          6           0        3.059504   -1.038117    0.089754
      8          6           0        2.308562    1.338611    0.288733
      9          6           0        1.833403   -1.269888   -0.794684
     10          6           0       -2.208369    1.318755   -0.603443
     11          8           0        1.207449    1.045291   -0.559628
     12          8           0        0.189570   -0.571623    0.755279
     13          6           0       -1.597403    1.218382    0.798963
     14          1           0       -3.026418   -1.128849    1.393559
     15          1           0       -1.753543   -2.221957    0.859522
     16          1           0       -0.039462   -0.326254   -1.260400
     17          1           0       -1.043631   -0.238441    2.257824
     18          1           0        3.867814    0.637894   -0.997600
     19          1           0        4.287263    0.643825    0.704209
     20          1           0       -3.493327    0.139537   -1.884933
     21          1           0       -4.049914    0.257003   -0.220973
     22          1           0        2.829725   -1.289382    1.121693
     23          1           0        3.867489   -1.692636   -0.222784
     24          1           0        2.553510    2.374640    0.099092
     25          1           0        2.000107    1.249776    1.324996
     26          1           0        2.112320   -1.145770   -1.837704
     27          1           0        1.443011   -2.275224   -0.679143
     28          1           0       -2.748441    2.256506   -0.697847
     29          1           0       -1.440686    1.319200   -1.368128
     30          1           0       -0.802968    1.941055    0.935833
     31          1           0       -2.372047    1.464409    1.521628
 ---------------------------------------------------------------------
                    Distance matrix (angstroms):
                    1          2          3          4          5
     1  C    0.000000
     2  C    3.277263   0.000000
     3  C    1.523277   2.493692   0.000000
     4  C    5.925445   2.897475   4.795473   0.000000
     5  C    2.355162   3.931630   2.909956   6.718116   0.000000
     6  O    1.411691   3.368037   2.445252   6.248821   1.415682
     7  C    5.256818   2.530298   4.400072   1.528821   6.414030
     8  C    5.164585   2.394210   3.855801   1.519815   5.717179
     9  C    4.275721   1.522906   3.711799   2.500042   5.205240
    10  C    2.881488   3.335290   2.576895   5.798577   1.521060
    11  O    4.260696   1.404028   3.155155   2.429580   4.473820
    12  O    2.430417   1.397721   1.427016   3.529099   3.796779
    13  C    2.503745   3.047749   1.534412   5.209627   2.511585
    14  H    1.087847   4.286978   2.138217   6.842155   2.597647
    15  H    1.080974   3.433308   2.154254   5.936276   3.262509
    16  H    3.053080   1.076409   2.671265   3.821843   3.194484
    17  H    2.112127   3.276089   1.081943   5.107595   3.789870
    18  H    6.539544   3.311820   5.502846   1.087641   7.054420
    19  H    6.704523   3.873222   5.489580   1.086391   7.632535
    20  H    3.258057   4.455430   3.891184   7.238180   1.081449
    21  H    2.596305   4.809190   3.279706   7.544315   1.087951
    22  H    4.995781   2.848690   4.098693   2.153393   6.481530
    23  H    6.116188   3.463155   5.392908   2.163907   7.305595
    24  H    5.959104   3.273221   4.606255   2.163684   6.207610
    25  H    4.866236   2.698581   3.436939   2.156791   5.713378
    26  H    4.990333   2.117486   4.522712   2.782798   5.530556
    27  H    4.010438   2.137501   3.790430   3.456358   5.221751
    28  H    3.816615   4.297659   3.487392   6.538000   2.137598
    29  H    3.386393   2.820688   2.978013   5.193560   2.140510
    30  H    3.444245   3.046994   2.166612   4.646919   3.456940
    31  H    2.803495   4.083811   2.102915   6.143982   2.821595
                    6          7          8          9         10
     6  O    0.000000
     7  C    5.647814   0.000000
     8  C    5.494801   2.500468   0.000000
     9  C    4.388741   1.529468   2.864234   0.000000
    10  C    2.420622   5.812560   4.604241   4.803495   0.000000
    11  O    4.313084   2.862236   1.420635   2.409797   3.427027
    12  O    3.092692   2.982794   2.890811   2.364772   3.342120
    13  C    2.848923   5.223174   3.940984   4.527872   1.533003
    14  H    2.045722   6.224676   5.980887   5.331619   3.263125
    15  H    2.012784   5.015919   5.431771   4.063129   3.857950
    16  H    2.700810   3.454454   3.268762   2.148246   2.800322
    17  H    3.331560   4.709111   4.195427   4.319608   3.459526
    18  H    6.652182   2.155160   2.139375   2.796361   6.126902
    19  H    7.166089   2.171146   2.137897   3.454042   6.660234
    20  H    2.011061   6.944484   6.310667   5.616865   2.164229
    21  H    2.045003   7.233098   6.469922   6.105240   2.159835
    22  H    5.647506   1.086660   2.805669   2.159986   5.929660
    23  H    6.454141   1.085778   3.446790   2.154830   6.791865
    24  H    6.197845   3.450076   1.081351   3.820991   4.927874
    25  H    5.456699   2.807597   1.084840   3.296899   4.629785
    26  H    4.822400   2.150312   3.276033   1.086780   5.125001
    27  H    4.166177   2.175933   3.840022   1.084646   5.123962
    28  H    3.342318   6.723621   5.233464   5.782571   1.086263
    29  H    2.751118   5.285269   4.099076   4.213297   1.083550
    30  H    3.807524   4.950758   3.234702   4.500588   2.175265
    31  H    3.312492   6.149361   4.841896   5.525169   2.136336
                   11         12         13         14         15
    11  O    0.000000
    12  O    2.319368   0.000000
    13  C    3.121366   2.529684   0.000000
    14  H    5.144653   3.325730   2.811605   0.000000
    15  H    4.632102   2.551501   3.444413   1.760764   0.000000
    16  H    1.981667   2.043434   3.008996   4.075483   3.320517
    17  H    3.827971   1.972165   2.134777   2.339065   2.528549
    18  H    2.726781   4.250294   5.782145   7.507960   6.574747
    19  H    3.353165   4.274460   5.913407   7.556951   6.687912
    20  H    4.967305   4.586960   3.458574   3.546169   4.016906
    21  H    5.326908   4.428647   2.824771   2.361111   3.547680
    22  H    3.302926   2.760409   5.098284   5.864648   4.684525
    23  H    3.832169   3.967413   6.275591   7.103265   5.748701
    24  H    2.003238   3.833961   4.365413   6.714587   6.344893
    25  H    2.054733   2.630611   3.635901   5.561341   5.134149
    26  H    2.693143   3.278746   5.128672   6.070253   4.835091
    27  H    3.331005   2.555570   4.861502   5.058267   3.547997
    28  H    4.139470   4.329180   2.154769   3.988970   4.844776
    29  H    2.782322   3.277469   2.175088   4.016765   4.195247
    30  H    2.660935   2.707634   1.082643   3.818056   4.270841
    31  H    4.161740   3.360744   1.087588   2.677609   3.796080
                   16         17         18         19         20
    16  H    0.000000
    17  H    3.659777   0.000000
    18  H    4.033045   5.957184   0.000000
    19  H    4.849875   5.622325   1.752748   0.000000
    20  H    3.540648   4.827661   7.431158   8.215567   0.000000
    21  H    4.183817   3.927803   7.964838   8.397268   1.758508
    22  H    3.851521   4.171110   3.046871   2.456827   7.145810
    23  H    4.267073   5.690975   2.455954   2.548446   7.765385
    24  H    3.983284   4.942443   2.438527   2.523447   6.745093
    25  H    3.650751   3.514157   3.042562   2.446147   6.458645
    26  H    2.373826   5.249440   2.639885   3.793989   5.751306
    27  H    2.516758   4.354038   3.803596   4.303984   5.626050
    28  H    3.784928   4.226953   6.817961   7.353070   2.538816
    29  H    2.163921   3.966286   5.364852   6.128630   2.423227
    30  H    3.247625   2.560426   5.220402   5.258033   4.294208
    31  H    4.048099   2.281748   6.779786   6.759286   3.823246
                   21         22         23         24         25
    21  H    0.000000
    22  H    7.177987   0.000000
    23  H    8.153917   1.745619   0.000000
    24  H    6.942048   3.814061   4.286360   0.000000
    25  H    6.322845   2.678978   3.813204   1.753401   0.000000
    26  H    6.523398   3.048496   2.446967   4.042167   3.969119
    27  H    6.065832   2.477473   2.534909   4.843562   4.092988
    28  H    2.432952   6.855653   7.719581   5.362812   5.258717
    29  H    3.041759   5.589304   6.209645   4.384095   4.369988
    30  H    3.836260   4.864846   6.029865   3.486270   2.913167
    31  H    2.703650   5.899300   7.207060   5.207038   4.381833
                   26         27         28         29         30
    26  H    0.000000
    27  H    1.750972   0.000000
    28  H    6.041668   6.172941   0.000000
    29  H    4.349762   4.659431   1.742998   0.000000
    30  H    5.071479   5.042775   2.559938   2.470147   0.000000
    31  H    6.181237   5.777795   2.386453   3.039607   1.741366
                   31
    31  H    0.000000
 Stoichiometry    C10H18O3
 Framework group  C1[X(C10H18O3)]
 Deg. of freedom    87
 Full point group                 C1      NOp   1
 Largest Abelian subgroup         C1      NOp   1
 Largest concise Abelian subgroup C1      NOp   1
                         Standard orientation:                         
 ---------------------------------------------------------------------
 Center     Atomic      Atomic             Coordinates (Angstroms)
 Number     Number       Type             X           Y           Z
 ---------------------------------------------------------------------
      1          6           0       -2.152005   -1.222738    0.753248
      2          6           0        0.721976   -0.270856   -0.501585
      3          6           0       -1.117968   -0.188632    1.179588
      4          6           0        3.489268    0.426298   -0.000157
      5          6           0       -3.169367    0.166549   -0.853501
      6          8           0       -2.546571   -1.078107   -0.594443
      7          6           0        3.059504   -1.038117    0.089754
      8          6           0        2.308562    1.338611    0.288733
      9          6           0        1.833403   -1.269888   -0.794684
     10          6           0       -2.208369    1.318755   -0.603443
     11          8           0        1.207449    1.045291   -0.559628
     12          8           0        0.189570   -0.571623    0.755279
     13          6           0       -1.597403    1.218382    0.798963
     14          1           0       -3.026418   -1.128849    1.393559
     15          1           0       -1.753543   -2.221957    0.859522
     16          1           0       -0.039462   -0.326254   -1.260400
     17          1           0       -1.043631   -0.238441    2.257824
     18          1           0        3.867814    0.637894   -0.997600
     19          1           0        4.287263    0.643825    0.704209
     20          1           0       -3.493327    0.139537   -1.884933
     21          1           0       -4.049914    0.257003   -0.220973
     22          1           0        2.829725   -1.289382    1.121693
     23          1           0        3.867489   -1.692636   -0.222784
     24          1           0        2.553510    2.374640    0.099092
     25          1           0        2.000107    1.249776    1.324996
     26          1           0        2.112320   -1.145770   -1.837704
     27          1           0        1.443011   -2.275224   -0.679143
     28          1           0       -2.748441    2.256506   -0.697847
     29          1           0       -1.440686    1.319200   -1.368128
     30          1           0       -0.802968    1.941055    0.935833
     31          1           0       -2.372047    1.464409    1.521628
 ---------------------------------------------------------------------
 Rotational constants (GHZ):           1.7026829           0.4993684           0.4581394
 Standard basis: 6-311++G(2d,2p) (5D, 7F)
 There are   557 symmetry adapted cartesian basis functions of A   symmetry.
 There are   531 symmetry adapted basis functions of A   symmetry.
   531 basis functions,   762 primitive gaussians,   557 cartesian basis functions
    51 alpha electrons       51 beta electrons
       nuclear repulsion energy       916.0535249953 Hartrees.
 NAtoms=   31 NActive=   31 NUniq=   31 SFac= 1.00D+00 NAtFMM=   60 NAOKFM=F Big=F
 Integral buffers will be    131072 words long.
 Raffenetti 2 integral format.
 Two-electron integral symmetry is turned on.
 ------------------------------------------------------------------------------
 Polarizable Continuum Model (PCM)
 =================================
 Model                : PCM.
 Atomic radii         : SMD-Coulomb.
 Polarization charges : Total charges.
 Charge compensation  : None.
 Solution method      : On-the-fly selection.
 Cavity type          : VdW (van der Waals Surface) (Alpha=1.000).
 Cavity algorithm     : GePol (No added spheres)
                        Default sphere list used, NSphG=   31.
                        Lebedev-Laikov grids with approx.  5.0 points / Ang**2.
                        Smoothing algorithm: York/Karplus (Gamma=1.0000).
                        Polarization charges: spherical gaussians, with
                                              point-specific exponents (IZeta= 3).
                        Self-potential: point-specific (ISelfS= 7).
                        Self-field    : sphere-specific E.n sum rule (ISelfD= 2).
 1st derivatives      : Analytical E(r).r(x)/FMM algorithm (CHGder, D1EAlg=3).
                        Cavity 1st derivative terms included.
 Solvent              : Water, Eps=  78.355300 Eps(inf)=   1.777849
 ------------------------------------------------------------------------------
 ------------------------------------------------------------------------------
 Atomic radii for non-electrostatic terms: SMD-CDS.
 ------------------------------------------------------------------------------
 Nuclear repulsion after PCM non-electrostatic terms =      916.0598287795 Hartrees.
 One-electron integrals computed using PRISM.
 NBasis=   531 RedAO= T EigKep=  4.10D-06  NBF=   531
 NBsUse=   531 1.00D-06 EigRej= -1.00D+00 NBFU=   531
 ExpMin= 3.60D-02 ExpMax= 8.59D+03 ExpMxC= 1.30D+03 IAcc=3 IRadAn=         5 AccDes= 0.00D+00
 Harris functional with IExCor= 1009 and IRadAn=       5 diagonalized for initial guess.
 HarFok:  IExCor= 1009 AccDes= 0.00D+00 IRadAn=         5 IDoV= 1 UseB2=F ITyADJ=14
 ICtDFT=  3500011 ScaDFX=  1.000000  1.000000  1.000000  1.000000
 FoFCou: FMM=F IPFlag=           0 FMFlag=      100000 FMFlg1=           0
         NFxFlg=           0 DoJE=T BraDBF=F KetDBF=T FulRan=T
         wScrn=  0.000000 ICntrl=       500 IOpCl=  0 I1Cent=   200000004 NGrid=           0
         NMat0=    1 NMatS0=      1 NMatT0=    0 NMatD0=    1 NMtDS0=    0 NMtDT0=    0
 Petite list used in FoFCou.
 Requested convergence on RMS density matrix=1.00D-08 within 128 cycles.
 Requested convergence on MAX density matrix=1.00D-06.
 Requested convergence on             energy=1.00D-06.
 No special actions if energy rises.
 Inv3:  Mode=1 IEnd=    11952048.
 Iteration    1 A*A^-1 deviation from unit magnitude is 6.44D-15 for   1971.
 Iteration    1 A*A^-1 deviation from orthogonality  is 4.65D-15 for   1971   1246.
 Iteration    1 A^-1*A deviation from unit magnitude is 6.00D-15 for   1971.
 Iteration    1 A^-1*A deviation from orthogonality  is 1.92D-15 for   1655   1633.
 Error on total polarization charges =  0.06002
 SCF Done:  E(RM062X) =  -617.499304864     A.U. after   13 cycles
            NFock= 13  Conv=0.17D-08     -V/T= 2.0035
 SMD-CDS (non-electrostatic) energy       (kcal/mol) =       3.96
 (included in total energy above)

 **********************************************************************

            Population analysis using the SCF Density.

 **********************************************************************

 Orbital symmetries:
       Occupied  (A) (A) (A) (A) (A) (A) (A) (A) (A) (A) (A) (A)
                 (A) (A) (A) (A) (A) (A) (A) (A) (A) (A) (A) (A)
                 (A) (A) (A) (A) (A) (A) (A) (A) (A) (A) (A) (A)
                 (A) (A) (A) (A) (A) (A) (A) (A) (A) (A) (A) (A)
                 (A) (A) (A)
       Virtual   (A) (A) (A) (A) (A) (A) (A) (A) (A) (A) (A) (A)
                 (A) (A) (A) (A) (A) (A) (A) (A) (A) (A) (A) (A)
                 (A) (A) (A) (A) (A) (A) (A) (A) (A) (A) (A) (A)
                 (A) (A) (A) (A) (A) (A) (A) (A) (A) (A) (A) (A)
                 (A) (A) (A) (A) (A) (A) (A) (A) (A) (A) (A) (A)
                 (A) (A) (A) (A) (A) (A) (A) (A) (A) (A) (A) (A)
                 (A) (A) (A) (A) (A) (A) (A) (A) (A) (A) (A) (A)
                 (A) (A) (A) (A) (A) (A) (A) (A) (A) (A) (A) (A)
                 (A) (A) (A) (A) (A) (A) (A) (A) (A) (A) (A) (A)
                 (A) (A) (A) (A) (A) (A) (A) (A) (A) (A) (A) (A)
                 (A) (A) (A) (A) (A) (A) (A) (A) (A) (A) (A) (A)
                 (A) (A) (A) (A) (A) (A) (A) (A) (A) (A) (A) (A)
                 (A) (A) (A) (A) (A) (A) (A) (A) (A) (A) (A) (A)
                 (A) (A) (A) (A) (A) (A) (A) (A) (A) (A) (A) (A)
                 (A) (A) (A) (A) (A) (A) (A) (A) (A) (A) (A) (A)
                 (A) (A) (A) (A) (A) (A) (A) (A) (A) (A) (A) (A)
                 (A) (A) (A) (A) (A) (A) (A) (A) (A) (A) (A) (A)
                 (A) (A) (A) (A) (A) (A) (A) (A) (A) (A) (A) (A)
                 (A) (A) (A) (A) (A) (A) (A) (A) (A) (A) (A) (A)
                 (A) (A) (A) (A) (A) (A) (A) (A) (A) (A) (A) (A)
                 (A) (A) (A) (A) (A) (A) (A) (A) (A) (A) (A) (A)
                 (A) (A) (A) (A) (A) (A) (A) (A) (A) (A) (A) (A)
                 (A) (A) (A) (A) (A) (A) (A) (A) (A) (A) (A) (A)
                 (A) (A) (A) (A) (A) (A) (A) (A) (A) (A) (A) (A)
                 (A) (A) (A) (A) (A) (A) (A) (A) (A) (A) (A) (A)
                 (A) (A) (A) (A) (A) (A) (A) (A) (A) (A) (A) (A)
                 (A) (A) (A) (A) (A) (A) (A) (A) (A) (A) (A) (A)
                 (A) (A) (A) (A) (A) (A) (A) (A) (A) (A) (A) (A)
                 (A) (A) (A) (A) (A) (A) (A) (A) (A) (A) (A) (A)
                 (A) (A) (A) (A) (A) (A) (A) (A) (A) (A) (A) (A)
                 (A) (A) (A) (A) (A) (A) (A) (A) (A) (A) (A) (A)
                 (A) (A) (A) (A) (A) (A) (A) (A) (A) (A) (A) (A)
                 (A) (A) (A) (A) (A) (A) (A) (A) (A) (A) (A) (A)
                 (A) (A) (A) (A) (A) (A) (A) (A) (A) (A) (A) (A)
                 (A) (A) (A) (A) (A) (A) (A) (A) (A) (A) (A) (A)
                 (A) (A) (A) (A) (A) (A) (A) (A) (A) (A) (A) (A)
                 (A) (A) (A) (A) (A) (A) (A) (A) (A) (A) (A) (A)
                 (A) (A) (A) (A) (A) (A) (A) (A) (A) (A) (A) (A)
                 (A) (A) (A) (A) (A) (A) (A) (A) (A) (A) (A) (A)
                 (A) (A) (A) (A) (A) (A) (A) (A) (A) (A) (A) (A)
 The electronic state is 1-A.
 Alpha  occ. eigenvalues --  -19.62752 -19.62623 -19.62616 -10.62821 -10.58417
 Alpha  occ. eigenvalues --  -10.57169 -10.57138 -10.57030 -10.52632 -10.52229
 Alpha  occ. eigenvalues --  -10.52201 -10.52169 -10.52030  -1.19748  -1.16571
 Alpha  occ. eigenvalues --   -1.13168  -0.90259  -0.88870  -0.87189  -0.84291
 Alpha  occ. eigenvalues --   -0.74819  -0.73640  -0.72787  -0.70685  -0.66193
 Alpha  occ. eigenvalues --   -0.61961  -0.59343  -0.58340  -0.56596  -0.54659
 Alpha  occ. eigenvalues --   -0.54233  -0.52713  -0.52171  -0.50625  -0.49770
 Alpha  occ. eigenvalues --   -0.48077  -0.46176  -0.45616  -0.45035  -0.44802
 Alpha  occ. eigenvalues --   -0.43390  -0.42553  -0.40123  -0.39731  -0.38669
 Alpha  occ. eigenvalues --   -0.37767  -0.37084  -0.36206  -0.34668  -0.32877
 Alpha  occ. eigenvalues --   -0.31054
 Alpha virt. eigenvalues --    0.00275   0.01223   0.01368   0.01616   0.02742
 Alpha virt. eigenvalues --    0.03033   0.03106   0.03654   0.03902   0.05142
 Alpha virt. eigenvalues --    0.05194   0.05427   0.06025   0.06105   0.07668
 Alpha virt. eigenvalues --    0.08059   0.08139   0.08604   0.09388   0.10107
 Alpha virt. eigenvalues --    0.10405   0.11174   0.11433   0.11645   0.12528
 Alpha virt. eigenvalues --    0.13001   0.13341   0.13651   0.13750   0.14040
 Alpha virt. eigenvalues --    0.14110   0.14430   0.14886   0.15196   0.15323
 Alpha virt. eigenvalues --    0.15576   0.15704   0.16089   0.16420   0.16936
 Alpha virt. eigenvalues --    0.17028   0.17707   0.17938   0.18403   0.18513
 Alpha virt. eigenvalues --    0.18972   0.19081   0.19302   0.19870   0.20206
 Alpha virt. eigenvalues --    0.20324   0.20734   0.20983   0.21403   0.21590
 Alpha virt. eigenvalues --    0.22837   0.23226   0.23930   0.24245   0.24810
 Alpha virt. eigenvalues --    0.25190   0.25678   0.26917   0.27377   0.28032
 Alpha virt. eigenvalues --    0.28296   0.28873   0.29385   0.29861   0.30092
 Alpha virt. eigenvalues --    0.30700   0.30804   0.31033   0.31845   0.32858
 Alpha virt. eigenvalues --    0.33062   0.33925   0.34488   0.34885   0.35080
 Alpha virt. eigenvalues --    0.35698   0.35873   0.36614   0.36720   0.37095
 Alpha virt. eigenvalues --    0.37248   0.37945   0.38196   0.38536   0.38667
 Alpha virt. eigenvalues --    0.38889   0.39661   0.40389   0.40836   0.41397
 Alpha virt. eigenvalues --    0.42786   0.43176   0.43575   0.44287   0.45112
 Alpha virt. eigenvalues --    0.46861   0.48044   0.49755   0.50961   0.51462
 Alpha virt. eigenvalues --    0.52489   0.53097   0.54065   0.55050   0.56722
 Alpha virt. eigenvalues --    0.57770   0.58004   0.58842   0.59579   0.60542
 Alpha virt. eigenvalues --    0.60907   0.61090   0.61468   0.62113   0.62801
 Alpha virt. eigenvalues --    0.62986   0.63473   0.64355   0.65077   0.65255
 Alpha virt. eigenvalues --    0.65825   0.66803   0.67384   0.67731   0.68357
 Alpha virt. eigenvalues --    0.68694   0.69099   0.69835   0.70698   0.71035
 Alpha virt. eigenvalues --    0.71966   0.72007   0.72924   0.73457   0.74122
 Alpha virt. eigenvalues --    0.74568   0.74982   0.75375   0.76307   0.76564
 Alpha virt. eigenvalues --    0.76883   0.77614   0.78665   0.78958   0.79544
 Alpha virt. eigenvalues --    0.80672   0.83137   0.83714   0.86115   0.86800
 Alpha virt. eigenvalues --    0.87253   0.87685   0.88719   0.89367   0.90772
 Alpha virt. eigenvalues --    0.91675   0.94201   0.95061   0.96073   0.96863
 Alpha virt. eigenvalues --    0.97782   0.99197   1.00175   1.01047   1.03490
 Alpha virt. eigenvalues --    1.03815   1.04299   1.05562   1.07142   1.07906
 Alpha virt. eigenvalues --    1.08301   1.08857   1.10966   1.11679   1.13171
 Alpha virt. eigenvalues --    1.13604   1.15067   1.15393   1.16412   1.17494
 Alpha virt. eigenvalues --    1.18642   1.18876   1.19751   1.21106   1.21376
 Alpha virt. eigenvalues --    1.22085   1.22837   1.23388   1.23767   1.24974
 Alpha virt. eigenvalues --    1.25403   1.26353   1.27235   1.27812   1.28540
 Alpha virt. eigenvalues --    1.29680   1.30597   1.31677   1.32249   1.33078
 Alpha virt. eigenvalues --    1.33242   1.33832   1.34806   1.34967   1.36020
 Alpha virt. eigenvalues --    1.36682   1.37717   1.38494   1.39339   1.40029
 Alpha virt. eigenvalues --    1.40615   1.40961   1.41755   1.42109   1.42536
 Alpha virt. eigenvalues --    1.43455   1.43798   1.44267   1.45263   1.46139
 Alpha virt. eigenvalues --    1.46936   1.47785   1.48096   1.49233   1.49320
 Alpha virt. eigenvalues --    1.50394   1.50891   1.51769   1.52608   1.53508
 Alpha virt. eigenvalues --    1.53663   1.54721   1.55223   1.56160   1.56807
 Alpha virt. eigenvalues --    1.57991   1.58317   1.58910   1.59486   1.59983
 Alpha virt. eigenvalues --    1.60442   1.61053   1.62325   1.63122   1.63616
 Alpha virt. eigenvalues --    1.64514   1.64958   1.66445   1.67112   1.67791
 Alpha virt. eigenvalues --    1.69241   1.69665   1.70576   1.72285   1.73396
 Alpha virt. eigenvalues --    1.75397   1.76655   1.77182   1.78181   1.79224
 Alpha virt. eigenvalues --    1.80212   1.80799   1.81974   1.83650   1.87014
 Alpha virt. eigenvalues --    1.87224   1.88323   1.92953   1.96266   1.98978
 Alpha virt. eigenvalues --    2.02750   2.07013   2.12760   2.17803   2.23439
 Alpha virt. eigenvalues --    2.23633   2.25037   2.32747   2.35034   2.37648
 Alpha virt. eigenvalues --    2.42454   2.43751   2.46055   2.48301   2.54254
 Alpha virt. eigenvalues --    2.62182   2.77203   2.78586   2.79057   2.80884
 Alpha virt. eigenvalues --    2.88022   2.90206   2.92445   2.94023   2.94537
 Alpha virt. eigenvalues --    2.95548   2.98560   2.99654   3.01766   3.04247
 Alpha virt. eigenvalues --    3.07768   3.09577   3.09674   3.10862   3.13061
 Alpha virt. eigenvalues --    3.14540   3.15431   3.18579   3.21260   3.24058
 Alpha virt. eigenvalues --    3.26373   3.28912   3.32369   3.33788   3.34425
 Alpha virt. eigenvalues --    3.36257   3.37379   3.38636   3.40805   3.41534
 Alpha virt. eigenvalues --    3.44132   3.44927   3.45468   3.47123   3.47793
 Alpha virt. eigenvalues --    3.48161   3.49442   3.50594   3.52491   3.53296
 Alpha virt. eigenvalues --    3.54098   3.54585   3.55006   3.55987   3.56783
 Alpha virt. eigenvalues --    3.57163   3.58804   3.59068   3.59608   3.60257
 Alpha virt. eigenvalues --    3.61261   3.62328   3.64377   3.65719   3.66212
 Alpha virt. eigenvalues --    3.67615   3.68205   3.68906   3.70606   3.71576
 Alpha virt. eigenvalues --    3.72151   3.73062   3.73443   3.73862   3.75243
 Alpha virt. eigenvalues --    3.76284   3.77046   3.77429   3.77632   3.79497
 Alpha virt. eigenvalues --    3.79980   3.82346   3.82494   3.85438   3.85866
 Alpha virt. eigenvalues --    3.86477   3.86722   3.89349   3.90976   3.92584
 Alpha virt. eigenvalues --    3.93204   3.94151   3.95751   3.96201   3.99152
 Alpha virt. eigenvalues --    4.00500   4.01730   4.02825   4.03931   4.04818
 Alpha virt. eigenvalues --    4.05857   4.06933   4.07934   4.08419   4.08933
 Alpha virt. eigenvalues --    4.09608   4.10203   4.11337   4.12056   4.12217
 Alpha virt. eigenvalues --    4.12762   4.13539   4.16030   4.16492   4.17441
 Alpha virt. eigenvalues --    4.17882   4.18509   4.19241   4.20400   4.22337
 Alpha virt. eigenvalues --    4.22528   4.24229   4.25825   4.27051   4.28212
 Alpha virt. eigenvalues --    4.30368   4.30929   4.31717   4.32320   4.33579
 Alpha virt. eigenvalues --    4.33889   4.34119   4.36124   4.38328   4.39583
 Alpha virt. eigenvalues --    4.41632   4.42938   4.46365   4.47655   4.52005
 Alpha virt. eigenvalues --    4.58852   4.61927   4.73654   4.76250   4.81410
 Alpha virt. eigenvalues --    4.86339   4.94595   4.96199   5.02219   5.04300
 Alpha virt. eigenvalues --    5.07487   5.08171   5.08615   5.10077   5.12107
 Alpha virt. eigenvalues --    5.13082   5.14660   5.16793   5.33583   5.40077
 Alpha virt. eigenvalues --    5.41467   5.59773   5.60433   5.67377   5.85349
 Alpha virt. eigenvalues --    5.87730   6.01947   7.02309   7.05309   7.07826
 Alpha virt. eigenvalues --    7.08283   7.09606   7.12407   7.13976   7.19258
 Alpha virt. eigenvalues --    7.29161   7.36936   7.41376   7.49841   7.52913
 Alpha virt. eigenvalues --    7.53617   7.63352  23.97587  23.97763  24.07533
 Alpha virt. eigenvalues --   24.08750  24.10348  24.12420  24.14640  24.15921
 Alpha virt. eigenvalues --   24.16759  24.22029  50.16445  50.17811  50.28726
          Condensed to atoms (all electrons):
               1          2          3          4          5          6
     1  C    6.212079   0.134551  -0.986223   0.001321  -0.305955   0.105747
     2  C    0.134551   7.768842  -0.831566   0.461339   0.092838   0.003617
     3  C   -0.986223  -0.831566   7.938793   0.005403   0.181276   0.003404
     4  C    0.001321   0.461339   0.005403   5.708808   0.003108   0.000204
     5  C   -0.305955   0.092838   0.181276   0.003108   5.657374   0.090472
     6  O    0.105747   0.003617   0.003404   0.000204   0.090472   8.355732
     7  C   -0.001320  -0.300641   0.135187   0.041934   0.002071  -0.000982
     8  C   -0.001003  -0.520038   0.029962  -0.086301  -0.016737   0.003326
     9  C   -0.089820  -1.603150   0.028777  -0.354694   0.026564  -0.001480
    10  C    0.043208  -0.128517   0.252703   0.014137  -0.199510   0.036382
    11  O   -0.014102   0.210810   0.010278  -0.085478  -0.002682   0.000877
    12  O   -0.043183   0.308165  -0.073108  -0.007187  -0.025604   0.015775
    13  C    0.472240   0.267966  -1.314102  -0.033533   0.071742  -0.012010
    14  H    0.441270  -0.001370   0.003082  -0.000789  -0.011632  -0.058445
    15  H    0.439754   0.010730  -0.056329   0.002447   0.006538  -0.069344
    16  H   -0.023033   0.530189   0.014957   0.021446   0.003035  -0.018467
    17  H   -0.009903  -0.025745   0.459038  -0.001901  -0.014960   0.007500
    18  H   -0.001350  -0.018088  -0.002233   0.484986   0.000034   0.000013
    19  H    0.001486   0.014835   0.002475   0.454721  -0.000349   0.000002
    20  H   -0.011920   0.004297   0.011231  -0.000453   0.452921  -0.068394
    21  H   -0.022687  -0.006761   0.061883   0.000177   0.445894  -0.058800
    22  H    0.000970  -0.042049   0.001013  -0.067827   0.000854  -0.000252
    23  H   -0.000555   0.007634   0.005299  -0.014671   0.000213  -0.000012
    24  H    0.002010  -0.001019   0.001935  -0.021010  -0.000829  -0.000014
    25  H   -0.002067  -0.032231  -0.038255  -0.064790   0.002183  -0.000356
    26  H   -0.000675  -0.150079   0.001966  -0.017843   0.002637  -0.000627
    27  H   -0.005171  -0.046959   0.010453  -0.007927  -0.002567   0.000524
    28  H   -0.001241   0.011022   0.012493  -0.000107  -0.021671   0.008992
    29  H    0.031303  -0.054956   0.020854   0.002891  -0.111097  -0.009060
    30  H   -0.008351   0.021505  -0.021831  -0.007969  -0.001905  -0.002562
    31  H   -0.008353  -0.013546  -0.045176   0.000265  -0.016219   0.001225
               7          8          9         10         11         12
     1  C   -0.001320  -0.001003  -0.089820   0.043208  -0.014102  -0.043183
     2  C   -0.300641  -0.520038  -1.603150  -0.128517   0.210810   0.308165
     3  C    0.135187   0.029962   0.028777   0.252703   0.010278  -0.073108
     4  C    0.041934  -0.086301  -0.354694   0.014137  -0.085478  -0.007187
     5  C    0.002071  -0.016737   0.026564  -0.199510  -0.002682  -0.025604
     6  O   -0.000982   0.003326  -0.001480   0.036382   0.000877   0.015775
     7  C    5.770885  -0.056301  -0.042793   0.012895   0.013838  -0.036292
     8  C   -0.056301   5.575605   0.255552   0.012082   0.082400  -0.009341
     9  C   -0.042793   0.255552   7.747544  -0.194504  -0.027019  -0.083782
    10  C    0.012895   0.012082  -0.194504   5.937415  -0.021481  -0.009215
    11  O    0.013838   0.082400  -0.027019  -0.021481   8.314005  -0.062569
    12  O   -0.036292  -0.009341  -0.083782  -0.009215  -0.062569   8.352324
    13  C   -0.049641   0.050995   0.119313  -0.500424   0.019621   0.075656
    14  H    0.001091   0.001281   0.004709   0.031390  -0.000869  -0.003498
    15  H   -0.000506  -0.003327  -0.014320   0.005611   0.000886   0.009550
    16  H   -0.045626  -0.037697  -0.068663  -0.007855  -0.086394  -0.024157
    17  H    0.010311   0.004016  -0.010047   0.017297   0.003295  -0.047717
    18  H   -0.018621  -0.083906   0.006349  -0.000318   0.002993   0.000487
    19  H   -0.054252  -0.042115  -0.012124   0.001222   0.008573  -0.000151
    20  H    0.000438   0.000006   0.005024  -0.065082   0.000137  -0.000830
    21  H   -0.000122   0.000263  -0.001139   0.016759   0.000451   0.000154
    22  H    0.529602   0.000334  -0.039523  -0.001103   0.001034   0.000861
    23  H    0.420025   0.006043  -0.040871  -0.000944  -0.004583  -0.000414
    24  H    0.013193   0.429726  -0.009442   0.000004  -0.068873   0.001522
    25  H   -0.019962   0.482288   0.051304  -0.012569  -0.028631   0.007694
    26  H    0.001071   0.013688   0.528011  -0.005427  -0.004389   0.008320
    27  H   -0.042921   0.010976   0.438441   0.003969   0.009341   0.000132
    28  H    0.000163  -0.000004  -0.004356   0.439087  -0.002053  -0.000512
    29  H    0.003701   0.007602  -0.033849   0.566226   0.003325  -0.001033
    30  H   -0.011764  -0.001146   0.025000  -0.044686  -0.005954  -0.003044
    31  H    0.001202   0.003236  -0.001567  -0.027616   0.003064   0.001588
              13         14         15         16         17         18
     1  C    0.472240   0.441270   0.439754  -0.023033  -0.009903  -0.001350
     2  C    0.267966  -0.001370   0.010730   0.530189  -0.025745  -0.018088
     3  C   -1.314102   0.003082  -0.056329   0.014957   0.459038  -0.002233
     4  C   -0.033533  -0.000789   0.002447   0.021446  -0.001901   0.484986
     5  C    0.071742  -0.011632   0.006538   0.003035  -0.014960   0.000034
     6  O   -0.012010  -0.058445  -0.069344  -0.018467   0.007500   0.000013
     7  C   -0.049641   0.001091  -0.000506  -0.045626   0.010311  -0.018621
     8  C    0.050995   0.001281  -0.003327  -0.037697   0.004016  -0.083906
     9  C    0.119313   0.004709  -0.014320  -0.068663  -0.010047   0.006349
    10  C   -0.500424   0.031390   0.005611  -0.007855   0.017297  -0.000318
    11  O    0.019621  -0.000869   0.000886  -0.086394   0.003295   0.002993
    12  O    0.075656  -0.003498   0.009550  -0.024157  -0.047717   0.000487
    13  C    6.834783  -0.060548   0.009889  -0.026031  -0.053737   0.000983
    14  H   -0.060548   0.467933  -0.001889   0.000841  -0.002684  -0.000024
    15  H    0.009889  -0.001889   0.462255   0.001109  -0.010502  -0.000005
    16  H   -0.026031   0.000841   0.001109   0.493111  -0.007459   0.000408
    17  H   -0.053737  -0.002684  -0.010502  -0.007459   0.437525  -0.000178
    18  H    0.000983  -0.000024  -0.000005   0.000408  -0.000178   0.476476
    19  H   -0.001442   0.000023   0.000008   0.001549   0.000328  -0.011630
    20  H    0.020334   0.000197   0.001318  -0.002094  -0.000237   0.000043
    21  H   -0.085734   0.005595  -0.002327  -0.001452   0.003806  -0.000002
    22  H    0.000488  -0.000083  -0.000187  -0.003601  -0.000176   0.001669
    23  H   -0.001988   0.000075  -0.000113   0.001062   0.000412  -0.001107
    24  H    0.003666  -0.000052   0.000096  -0.001135   0.000241  -0.005773
    25  H    0.031432  -0.000155   0.000128   0.002694  -0.005898   0.004280
    26  H    0.005489  -0.000229   0.000461  -0.020378  -0.000132  -0.001375
    27  H   -0.002160   0.000361  -0.001847  -0.009105   0.000402  -0.001514
    28  H   -0.067410   0.001846   0.001148   0.002029  -0.000464  -0.000010
    29  H   -0.079229  -0.002943  -0.000829  -0.024607   0.005758  -0.000302
    30  H    0.431219   0.000906  -0.000649   0.009973  -0.010537   0.000408
    31  H    0.468029  -0.004879  -0.000883  -0.003296  -0.004266   0.000007
              19         20         21         22         23         24
     1  C    0.001486  -0.011920  -0.022687   0.000970  -0.000555   0.002010
     2  C    0.014835   0.004297  -0.006761  -0.042049   0.007634  -0.001019
     3  C    0.002475   0.011231   0.061883   0.001013   0.005299   0.001935
     4  C    0.454721  -0.000453   0.000177  -0.067827  -0.014671  -0.021010
     5  C   -0.000349   0.452921   0.445894   0.000854   0.000213  -0.000829
     6  O    0.000002  -0.068394  -0.058800  -0.000252  -0.000012  -0.000014
     7  C   -0.054252   0.000438  -0.000122   0.529602   0.420025   0.013193
     8  C   -0.042115   0.000006   0.000263   0.000334   0.006043   0.429726
     9  C   -0.012124   0.005024  -0.001139  -0.039523  -0.040871  -0.009442
    10  C    0.001222  -0.065082   0.016759  -0.001103  -0.000944   0.000004
    11  O    0.008573   0.000137   0.000451   0.001034  -0.004583  -0.068873
    12  O   -0.000151  -0.000830   0.000154   0.000861  -0.000414   0.001522
    13  C   -0.001442   0.020334  -0.085734   0.000488  -0.001988   0.003666
    14  H    0.000023   0.000197   0.005595  -0.000083   0.000075  -0.000052
    15  H    0.000008   0.001318  -0.002327  -0.000187  -0.000113   0.000096
    16  H    0.001549  -0.002094  -0.001452  -0.003601   0.001062  -0.001135
    17  H    0.000328  -0.000237   0.003806  -0.000176   0.000412   0.000241
    18  H   -0.011630   0.000043  -0.000002   0.001669  -0.001107  -0.005773
    19  H    0.477497  -0.000028   0.000008  -0.004360  -0.008242  -0.009148
    20  H   -0.000028   0.470400  -0.007304   0.000027   0.000022  -0.000056
    21  H    0.000008  -0.007304   0.474922  -0.000028  -0.000006   0.000007
    22  H   -0.004360   0.000027  -0.000028   0.451755  -0.005820  -0.002005
    23  H   -0.008242   0.000022  -0.000006  -0.005820   0.458930   0.001103
    24  H   -0.009148  -0.000056   0.000007  -0.002005   0.001103   0.465007
    25  H   -0.000364   0.000122  -0.000167  -0.000110  -0.001552  -0.010390
    26  H   -0.002653  -0.000181  -0.000005   0.001671  -0.002963   0.000206
    27  H    0.001162   0.000267   0.000024  -0.001360  -0.009112   0.001105
    28  H    0.000038  -0.007235   0.005617  -0.000027  -0.000039   0.000010
    29  H    0.000286  -0.006592   0.002570   0.000118  -0.000211   0.000541
    30  H   -0.000271   0.000485  -0.001521  -0.000459   0.000142  -0.003361
    31  H   -0.000049  -0.000763  -0.004024   0.000146  -0.000048   0.000480
              25         26         27         28         29         30
     1  C   -0.002067  -0.000675  -0.005171  -0.001241   0.031303  -0.008351
     2  C   -0.032231  -0.150079  -0.046959   0.011022  -0.054956   0.021505
     3  C   -0.038255   0.001966   0.010453   0.012493   0.020854  -0.021831
     4  C   -0.064790  -0.017843  -0.007927  -0.000107   0.002891  -0.007969
     5  C    0.002183   0.002637  -0.002567  -0.021671  -0.111097  -0.001905
     6  O   -0.000356  -0.000627   0.000524   0.008992  -0.009060  -0.002562
     7  C   -0.019962   0.001071  -0.042921   0.000163   0.003701  -0.011764
     8  C    0.482288   0.013688   0.010976  -0.000004   0.007602  -0.001146
     9  C    0.051304   0.528011   0.438441  -0.004356  -0.033849   0.025000
    10  C   -0.012569  -0.005427   0.003969   0.439087   0.566226  -0.044686
    11  O   -0.028631  -0.004389   0.009341  -0.002053   0.003325  -0.005954
    12  O    0.007694   0.008320   0.000132  -0.000512  -0.001033  -0.003044
    13  C    0.031432   0.005489  -0.002160  -0.067410  -0.079229   0.431219
    14  H   -0.000155  -0.000229   0.000361   0.001846  -0.002943   0.000906
    15  H    0.000128   0.000461  -0.001847   0.001148  -0.000829  -0.000649
    16  H    0.002694  -0.020378  -0.009105   0.002029  -0.024607   0.009973
    17  H   -0.005898  -0.000132   0.000402  -0.000464   0.005758  -0.010537
    18  H    0.004280  -0.001375  -0.001514  -0.000010  -0.000302   0.000408
    19  H   -0.000364  -0.002653   0.001162   0.000038   0.000286  -0.000271
    20  H    0.000122  -0.000181   0.000267  -0.007235  -0.006592   0.000485
    21  H   -0.000167  -0.000005   0.000024   0.005617   0.002570  -0.001521
    22  H   -0.000110   0.001671  -0.001360  -0.000027   0.000118  -0.000459
    23  H   -0.001552  -0.002963  -0.009112  -0.000039  -0.000211   0.000142
    24  H   -0.010390   0.000206   0.001105   0.000010   0.000541  -0.003361
    25  H    0.481723   0.000131  -0.000841  -0.000066  -0.002042   0.000818
    26  H    0.000131   0.443154  -0.002130  -0.000251   0.001488  -0.000447
    27  H   -0.000841  -0.002130   0.468339   0.000147  -0.000722  -0.000155
    28  H   -0.000066  -0.000251   0.000147   0.457624  -0.017541  -0.005950
    29  H   -0.002042   0.001488  -0.000722  -0.017541   0.494448  -0.011434
    30  H    0.000818  -0.000447  -0.000155  -0.005950  -0.011434   0.478418
    31  H    0.000585   0.000300  -0.000029  -0.012496   0.005490  -0.005214
              31
     1  C   -0.008353
     2  C   -0.013546
     3  C   -0.045176
     4  C    0.000265
     5  C   -0.016219
     6  O    0.001225
     7  C    0.001202
     8  C    0.003236
     9  C   -0.001567
    10  C   -0.027616
    11  O    0.003064
    12  O    0.001588
    13  C    0.468029
    14  H   -0.004879
    15  H   -0.000883
    16  H   -0.003296
    17  H   -0.004266
    18  H    0.000007
    19  H   -0.000049
    20  H   -0.000763
    21  H   -0.004024
    22  H    0.000146
    23  H   -0.000048
    24  H    0.000480
    25  H    0.000585
    26  H    0.000300
    27  H   -0.000029
    28  H   -0.012496
    29  H    0.005490
    30  H   -0.005214
    31  H    0.402097
 Mulliken charges:
               1
     1  C   -0.349028
     2  C   -0.071627
     3  C    0.176361
     4  C   -0.430707
     5  C   -0.308036
     6  O   -0.332988
     7  C   -0.275861
     8  C   -0.111462
     9  C   -0.603442
    10  C   -0.171137
    11  O   -0.269851
    12  O   -0.350592
    13  C   -0.595855
    14  H    0.189491
    15  H    0.211129
    16  H    0.328648
    17  H    0.256615
    18  H    0.167303
    19  H    0.182965
    20  H    0.203902
    21  H    0.173951
    22  H    0.178427
    23  H    0.192290
    24  H    0.212255
    25  H    0.155063
    26  H    0.201191
    27  H    0.188879
    28  H    0.201220
    29  H    0.209847
    30  H    0.180336
    31  H    0.260712
 Sum of Mulliken charges =  -0.00000
 Mulliken charges with hydrogens summed into heavy atoms:
               1
     1  C    0.051592
     2  C    0.257021
     3  C    0.432976
     4  C   -0.080439
     5  C    0.069818
     6  O   -0.332988
     7  C    0.094856
     8  C    0.255856
     9  C   -0.213372
    10  C    0.239929
    11  O   -0.269851
    12  O   -0.350592
    13  C   -0.154806
 Electronic spatial extent (au):  <R**2>=           2671.7734
 Charge=             -0.0000 electrons
 Dipole moment (field-independent basis, Debye):
    X=             -0.3159    Y=              1.2601    Z=              1.5987  Tot=              2.0600
 Quadrupole moment (field-independent basis, Debye-Ang):
   XX=            -69.5773   YY=            -81.2692   ZZ=            -78.3220
   XY=             -4.7781   XZ=             -3.3049   YZ=              0.5143
 Traceless Quadrupole moment (field-independent basis, Debye-Ang):
   XX=              6.8122   YY=             -4.8797   ZZ=             -1.9325
   XY=             -4.7781   XZ=             -3.3049   YZ=              0.5143
 Octapole moment (field-independent basis, Debye-Ang**2):
  XXX=             -0.0438  YYY=              1.0836  ZZZ=              1.3894  XYY=              4.8982
  XXY=             17.9488  XXZ=              7.7362  XZZ=             -7.8371  YZZ=             -0.4014
  YYZ=              5.5732  XYZ=             11.9160
 Hexadecapole moment (field-independent basis, Debye-Ang**3):
 XXXX=          -2448.4705 YYYY=           -612.5422 ZZZZ=           -366.5784 XXXY=            -23.5695
 XXXZ=             -4.3881 YYYX=              9.9450 YYYZ=             -4.3317 ZZZX=              1.6280
 ZZZY=             -0.7411 XXYY=           -529.8799 XXZZ=           -471.0374 YYZZ=           -175.3456
 XXYZ=            -11.6561 YYXZ=             -8.8938 ZZXY=              0.0752
 N-N= 9.160598287795D+02 E-N=-3.274627547685D+03  KE= 6.153453080119D+02
 D1PCM: PCM CHGder 1st derivatives, ID1Alg=3 FixD1E=F DoIter=F DoCFld=F I1PDM=0.
 Calling FoFJK, ICntrl=      2127 FMM=F ISym2X=0 I1Cent= 0 IOpClX= 0 NMat=1 NMatS=1 NMatT=0.
 ***** Axes restored to original set *****
 -------------------------------------------------------------------
 Center     Atomic                   Forces (Hartrees/Bohr)
 Number     Number              X              Y              Z
 -------------------------------------------------------------------
      1        6           0.001782650    0.006169144    0.001896280
      2        6           0.003319674   -0.004887136    0.000057114
      3        6          -0.004837622    0.001434972   -0.007367382
      4        6          -0.002419655   -0.001213302    0.001625189
      5        6           0.004182195    0.004999035    0.002787929
      6        8           0.002881339   -0.008213436   -0.009044158
      7        6          -0.002165279    0.003149025   -0.002007212
      8        6           0.004492036   -0.005739036   -0.000475663
      9        6           0.001067242    0.000917881    0.002591146
     10        6          -0.000815177   -0.001974994    0.003280952
     11        8          -0.005898696    0.010969254   -0.008350465
     12        8           0.007222637   -0.004865204    0.010620997
     13        6          -0.000656895   -0.003572593   -0.002282496
     14        1          -0.004318283    0.001141759    0.003972539
     15        1           0.002664058   -0.004306238    0.000546655
     16        1          -0.006360761    0.000092339   -0.006104039
     17        1          -0.000232732    0.000001206    0.005417069
     18        1           0.000382130    0.000585735   -0.003322387
     19        1           0.001905812    0.000502416    0.001881360
     20        1          -0.001148246    0.000057023   -0.004303948
     21        1          -0.004109271    0.001142893    0.003891649
     22        1          -0.001522720   -0.000248661    0.003459999
     23        1           0.001809572   -0.001511408   -0.000899020
     24        1           0.001111547    0.004223083   -0.000758623
     25        1          -0.001368471   -0.001201096    0.005933345
     26        1           0.000770828    0.001107306   -0.003043208
     27        1          -0.001451055   -0.002838266    0.000624306
     28        1          -0.001395401    0.002454871   -0.000247014
     29        1           0.003955240   -0.000872559   -0.002953966
     30        1           0.003925754    0.002113341    0.000360892
     31        1          -0.002772449    0.000382646    0.002212162
 -------------------------------------------------------------------
 Cartesian Forces:  Max     0.010969254 RMS     0.003756725

 GradGradGradGradGradGradGradGradGradGradGradGradGradGradGradGradGradGrad
 Berny optimization.
 FormGI is forming the generalized inverse of G from B-inverse, IUseBI=4.
 Internal  Forces:  Max     0.021949843 RMS     0.002667028
 Search for a local minimum.
 Step number   1 out of a maximum of  186
 All quantities printed in internal units (Hartrees-Bohrs-Radians)
 Mixed Optimization -- RFO/linear search
 Second derivative matrix not updated -- first step.
 ITU=  0
     Eigenvalues ---    0.00501   0.00620   0.00691   0.00718   0.01419
     Eigenvalues ---    0.01432   0.01722   0.02704   0.02776   0.02897
     Eigenvalues ---    0.03079   0.03966   0.04082   0.04408   0.04745
     Eigenvalues ---    0.04828   0.04892   0.04917   0.05070   0.05144
     Eigenvalues ---    0.05297   0.05485   0.05688   0.06141   0.06172
     Eigenvalues ---    0.06316   0.06601   0.07101   0.07626   0.07855
     Eigenvalues ---    0.07964   0.08018   0.08187   0.08235   0.08627
     Eigenvalues ---    0.08819   0.09143   0.09801   0.10822   0.11590
     Eigenvalues ---    0.11715   0.11762   0.11776   0.12395   0.12701
     Eigenvalues ---    0.14636   0.15070   0.16464   0.16505   0.17939
     Eigenvalues ---    0.19054   0.21588   0.21957   0.25000   0.28262
     Eigenvalues ---    0.28524   0.28601   0.28821   0.28827   0.28919
     Eigenvalues ---    0.30159   0.30246   0.35051   0.35063   0.35087
     Eigenvalues ---    0.35093   0.35187   0.35201   0.35233   0.35248
     Eigenvalues ---    0.35305   0.35416   0.35439   0.35569   0.35677
     Eigenvalues ---    0.35761   0.35820   0.35832   0.35877   0.36432
     Eigenvalues ---    0.40972   0.41421   0.41454   0.42157   0.43416
     Eigenvalues ---    0.460001000.000001000.000001000.000001000.00000
     Eigenvalues --- 1000.000001000.000001000.000001000.000001000.00000
     Eigenvalues --- 1000.000001000.000001000.000001000.000001000.00000
     Eigenvalues --- 1000.000001000.000001000.000001000.000001000.00000
     Eigenvalues --- 1000.000001000.000001000.000001000.000001000.00000
     Eigenvalues --- 1000.000001000.000001000.000001000.000001000.00000
     Eigenvalues --- 1000.000001000.000001000.000001000.000001000.00000
     Eigenvalues --- 1000.000001000.000001000.000001000.000001000.00000
     Eigenvalues --- 1000.000001000.000001000.000001000.000001000.00000
     Eigenvalues --- 1000.000001000.000001000.000001000.000001000.00000
     Eigenvalues --- 1000.000001000.000001000.000001000.000001000.00000
     Eigenvalues --- 1000.000001000.000001000.000001000.000001000.00000
     Eigenvalues --- 1000.000001000.000001000.000001000.000001000.00000
     Eigenvalues --- 1000.000001000.000001000.000001000.000001000.00000
     Eigenvalues --- 1000.000001000.000001000.000001000.000001000.00000
     Eigenvalues --- 1000.000001000.000001000.000001000.000001000.00000
     Eigenvalues --- 1000.000001000.000001000.000001000.000001000.00000
     Eigenvalues --- 1000.000001000.000001000.000001000.000001000.00000
     Eigenvalues --- 1000.000001000.000001000.000001000.000001000.00000
     Eigenvalues --- 1000.000001000.000001000.000001000.000001000.00000
 RFO step:  Lambda=-6.17680756D-03 EMin= 5.00912333D-03
 Linear search not attempted -- first point.
 Iteration  1 RMS(Cart)=  0.13363819 RMS(Int)=  0.00309390
 Iteration  2 RMS(Cart)=  0.00892674 RMS(Int)=  0.00011944
 Iteration  3 RMS(Cart)=  0.00002453 RMS(Int)=  0.00011870
 Iteration  4 RMS(Cart)=  0.00000000 RMS(Int)=  0.00011870
 Iteration  1 RMS(Cart)=  0.00014665 RMS(Int)=  0.00003084
 Iteration  2 RMS(Cart)=  0.00008126 RMS(Int)=  0.00003444
 Iteration  3 RMS(Cart)=  0.00004502 RMS(Int)=  0.00003897
 Iteration  4 RMS(Cart)=  0.00002495 RMS(Int)=  0.00004201
 Iteration  5 RMS(Cart)=  0.00001382 RMS(Int)=  0.00004382
 Iteration  6 RMS(Cart)=  0.00000766 RMS(Int)=  0.00004486
 Iteration  7 RMS(Cart)=  0.00000424 RMS(Int)=  0.00004545
 Iteration  8 RMS(Cart)=  0.00000235 RMS(Int)=  0.00004577
 Iteration  9 RMS(Cart)=  0.00000130 RMS(Int)=  0.00004596
 Iteration 10 RMS(Cart)=  0.00000072 RMS(Int)=  0.00004606
 Variable       Old X    -DE/DX   Delta X   Delta X   Delta X     New X
                                 (Linear)    (Quad)   (Total)
    R1        2.87858  -0.00137   0.00000  -0.00307  -0.00295   2.87563
    R2        2.66771   0.00636   0.00000   0.01533   0.01539   2.68310
    R3        2.05573   0.00591   0.00000   0.01655   0.01655   2.07229
    R4        2.04274   0.00502   0.00000   0.01374   0.01374   2.05649
    R5        2.87787  -0.00105   0.00000  -0.00358  -0.00359   2.87429
    R6        2.65323   0.00776   0.00000   0.01729   0.01732   2.67055
    R7        2.64131   0.00632   0.00000   0.01355   0.01355   2.65486
    R8        2.03412   0.00880   0.00000   0.02375   0.02375   2.05787
    R9        2.69667   0.00053   0.00000   0.00127   0.00127   2.69794
   R10        2.89962  -0.00267   0.00000  -0.00932  -0.00921   2.89041
   R11        2.04458   0.00538   0.00000   0.01479   0.01479   2.05937
   R12        2.88905  -0.00065   0.00000  -0.00253  -0.00256   2.88649
   R13        2.87204  -0.00058   0.00000  -0.00166  -0.00165   2.87039
   R14        2.05534   0.00329   0.00000   0.00922   0.00922   2.06456
   R15        2.05298   0.00272   0.00000   0.00759   0.00759   2.06057
   R16        2.67525   0.00610   0.00000   0.01422   0.01410   2.68935
   R17        2.87439  -0.00044   0.00000  -0.00265  -0.00278   2.87161
   R18        2.04364   0.00445   0.00000   0.01221   0.01221   2.05585
   R19        2.05593   0.00568   0.00000   0.01593   0.01593   2.07186
   R20        2.89028  -0.00117   0.00000  -0.00444  -0.00447   2.88581
   R21        2.05349   0.00366   0.00000   0.01023   0.01023   2.06372
   R22        2.05182   0.00252   0.00000   0.00701   0.00701   2.05883
   R23        2.68461   0.00576   0.00000   0.01379   0.01381   2.69843
   R24        2.04346   0.00443   0.00000   0.01215   0.01215   2.05560
   R25        2.05005   0.00616   0.00000   0.01710   0.01710   2.06715
   R26        2.05372   0.00325   0.00000   0.00907   0.00907   2.06279
   R27        2.04968   0.00322   0.00000   0.00893   0.00893   2.05861
   R28        2.89695  -0.00156   0.00000  -0.00684  -0.00691   2.89004
   R29        2.05274   0.00284   0.00000   0.00791   0.00791   2.06065
   R30        2.04761   0.00489   0.00000   0.01350   0.01350   2.06111
   R31        2.04590   0.00434   0.00000   0.01195   0.01195   2.05785
   R32        2.05524   0.00353   0.00000   0.00989   0.00989   2.06513
    A1        1.96858  -0.00114   0.00000  -0.00295  -0.00278   1.96580
    A2        1.89896  -0.00100   0.00000  -0.00059  -0.00063   1.89834
    A3        1.92814   0.00009   0.00000  -0.00978  -0.00992   1.91822
    A4        1.90542   0.00214   0.00000   0.01566   0.01564   1.92106
    A5        1.86668  -0.00047   0.00000  -0.00689  -0.00708   1.85960
    A6        1.89463   0.00049   0.00000   0.00512   0.00514   1.89977
    A7        1.93333   0.00268   0.00000   0.01309   0.01302   1.94634
    A8        1.88588  -0.00179   0.00000  -0.00781  -0.00775   1.87813
    A9        1.92497   0.00058   0.00000   0.00816   0.00818   1.93316
   A10        1.95045  -0.00017   0.00000  -0.00472  -0.00466   1.94579
   A11        1.83765  -0.00205   0.00000  -0.01214  -0.01219   1.82546
   A12        1.93198   0.00085   0.00000   0.00395   0.00393   1.93591
   A13        1.93539   0.00059   0.00000  -0.01018  -0.01117   1.92422
   A14        1.91875   0.00251   0.00000  -0.00116  -0.00184   1.91691
   A15        1.86953  -0.00032   0.00000   0.01337   0.01329   1.88282
   A16        2.04726  -0.00427   0.00000  -0.04005  -0.04032   2.00694
   A17        1.79365   0.00241   0.00000   0.03406   0.03443   1.82807
   A18        1.88693  -0.00076   0.00000   0.01189   0.01224   1.89916
   A19        1.92349  -0.00021   0.00000  -0.00255  -0.00269   1.92080
   A20        1.91572   0.00062   0.00000   0.00159   0.00163   1.91735
   A21        1.93922  -0.00055   0.00000  -0.00145  -0.00143   1.93779
   A22        1.90490  -0.00011   0.00000  -0.00116  -0.00111   1.90379
   A23        1.90415   0.00003   0.00000  -0.00089  -0.00087   1.90328
   A24        1.87547   0.00022   0.00000   0.00463   0.00461   1.88008
   A25        1.93688   0.00041   0.00000   0.00518   0.00509   1.94197
   A26        1.85913  -0.00080   0.00000  -0.00269  -0.00263   1.85650
   A27        1.89945   0.00107   0.00000   0.00452   0.00454   1.90398
   A28        1.94440  -0.00037   0.00000  -0.00279  -0.00276   1.94164
   A29        1.93135  -0.00080   0.00000  -0.00730  -0.00730   1.92405
   A30        1.89033   0.00053   0.00000   0.00344   0.00341   1.89375
   A31        1.96896  -0.00331   0.00000  -0.02113  -0.02107   1.94790
   A32        1.91399   0.00246   0.00000   0.00013   0.00008   1.91407
   A33        1.91429  -0.00109   0.00000  -0.00197  -0.00200   1.91229
   A34        1.92976  -0.00041   0.00000   0.00082   0.00087   1.93063
   A35        1.92260  -0.00086   0.00000  -0.00298  -0.00295   1.91965
   A36        1.91639  -0.00087   0.00000  -0.00085  -0.00085   1.91554
   A37        1.86640   0.00070   0.00000   0.00490   0.00490   1.87130
   A38        1.94410   0.00147   0.00000   0.00437   0.00440   1.94850
   A39        1.94530  -0.00003   0.00000  -0.00164  -0.00162   1.94368
   A40        1.93190  -0.00132   0.00000  -0.00570  -0.00574   1.92616
   A41        1.84280  -0.00101   0.00000  -0.00157  -0.00159   1.84121
   A42        1.91043   0.00043   0.00000   0.00265   0.00266   1.91309
   A43        1.88639   0.00047   0.00000   0.00216   0.00215   1.88854
   A44        1.95449  -0.00139   0.00000  -0.01318  -0.01325   1.94124
   A45        1.87244  -0.00006   0.00000   0.00170   0.00171   1.87415
   A46        1.90166   0.00050   0.00000  -0.00165  -0.00163   1.90003
   A47        1.90915   0.00111   0.00000   0.00692   0.00695   1.91610
   A48        1.94700  -0.00014   0.00000   0.00049   0.00041   1.94741
   A49        1.87598   0.00005   0.00000   0.00656   0.00653   1.88251
   A50        1.93114   0.00009   0.00000  -0.00661  -0.00679   1.92434
   A51        1.90237   0.00039   0.00000   0.00130   0.00130   1.90367
   A52        1.90913  -0.00042   0.00000   0.00121   0.00130   1.91043
   A53        1.91153  -0.00066   0.00000   0.00030   0.00037   1.91190
   A54        1.94257   0.00030   0.00000  -0.00138  -0.00136   1.94121
   A55        1.86561   0.00031   0.00000   0.00566   0.00563   1.87124
   A56        2.02290  -0.00585   0.00000  -0.03250  -0.03237   1.99053
   A57        2.16354  -0.02195   0.00000  -0.08568  -0.08568   2.07786
   A58        1.99489   0.00045   0.00000  -0.00995  -0.00992   1.98497
   A59        1.92991  -0.00054   0.00000  -0.01200  -0.01227   1.91765
   A60        1.83916  -0.00032   0.00000   0.00954   0.00960   1.84876
   A61        1.94378  -0.00030   0.00000  -0.00575  -0.00600   1.93778
   A62        1.88513   0.00033   0.00000   0.01292   0.01288   1.89801
[...]
 00018981,-0.00040274,0.00010230,-0.00016131,-0.00004695,-0.00011332,0.
 00090523,-0.00034774,0.00110925,0.00055694,-0.00022896,0.00032541,-0.0
 0000110,0.00000272,-0.00000107,-0.00001221,-0.00001080,0.00000081,-0.0
 0005403,-0.00051648,-0.00015874,0.00002108,-0.00008459,0.00013784,0.00
 283914,0.00163887,-0.00344591,-0.07724602,-0.03137786,0.30536179,0.000
 01250,0.00014748,0.00020162,-0.00546766,-0.00626896,0.02317025,0.00156
 149,-0.00002827,0.00089143,0.00116008,0.00091496,0.00017759,0.00006190
 ,-0.00004160,0.00001293,-0.00008610,-0.00000716,-0.00014812,0.00594973
 ,0.00353619,-0.02760582,-0.00031341,0.00002567,-0.00007972,-0.06490863
 ,-0.00801968,0.06621770,0.00000032,0.00003541,0.00003870,0.00104275,-0
 .00086372,-0.00106190,-0.00713672,0.00382098,0.00375059,-0.00024672,-0
 .00004559,0.00016963,-0.00011261,-0.00005360,-0.00005040,0.00000030,-0
 .00001840,-0.00001110,0.00065380,-0.00072440,-0.00030743,-0.00052704,0
 .00012208,0.00026495,-0.00006882,-0.00004930,0.00046159,-0.00008117,0.
 00023780,0.00024301,-0.00001521,0.00000107,-0.00001138,-0.00001008,0.0
 0000551,0.00000506,-0.00387400,-0.00173367,-0.00352500,0.00137420,0.00
 039469,0.00086877,0.00008407,-0.00002171,-0.00000443,-0.00001749,-0.00
 002240,0.00000013,0.07411627,0.00005902,-0.00012552,-0.00016731,0.0036
 9898,0.00141181,-0.01947645,-0.00047793,0.00044098,-0.00067212,0.00038
 982,0.00040272,-0.00078216,-0.00003324,0.00002079,-0.00000532,0.000022
 02,-0.00000405,0.00007145,0.00191232,-0.00000597,-0.00526861,0.0001202
 4,0.00002293,-0.00005754,-0.01082141,-0.05523156,0.03692058,0.00000310
 ,-0.00002175,-0.00001848,0.00008274,0.00083367,0.00030137,0.00449146,-
 0.00160222,-0.00171847,0.00001760,0.00005173,-0.00001741,0.00006972,0.
 00004675,0.00003645,-0.00000613,0.00001362,0.00000303,-0.00052256,0.00
 064642,0.00042868,0.00030743,-0.00005971,-0.00015302,-0.00010884,0.000
 15328,0.00002650,0.00002563,0.00005576,0.00004259,0.00000716,-0.000000
 64,0.00000474,0.00000435,-0.00000209,-0.00000342,-0.00067419,0.0007394
 4,-0.00082125,0.00005963,0.00017639,0.00042007,-0.00001160,-0.00001729
 ,-0.00000514,-0.00001497,0.00001723,0.00004652,0.00909751,0.05452412,0
 .00005100,-0.00007575,-0.00011161,0.00013615,0.00266924,-0.00732163,-0
 .00087425,0.00020110,0.00010678,0.00078368,0.00046783,0.00068676,-0.00
 003167,0.00001477,-0.00000765,0.00003406,0.00000215,0.00004627,0.00373
 568,0.00280151,-0.01957141,-0.00022315,-0.00010588,-0.00002621,0.06849
 895,0.03329164,-0.28821412,0.00000315,-0.00003057,-0.00000789,-0.00055
 384,-0.00000134,0.00094009,0.00245085,-0.00084443,0.00012985,0.0000991
 9,0.00001837,-0.00004802,0.00005159,0.00002968,0.00002235,-0.00000562,
 0.00000385,0.00000325,0.00014700,-0.00025336,0.00069573,0.00012887,-0.
 00002965,-0.00007534,-0.00005070,-0.00056343,0.00014638,-0.00019383,-0
 .00000276,0.00026994,0.00000714,0.00000005,0.00000703,0.00000517,-0.00
 000107,-0.00000153,-0.00341084,-0.00095183,-0.00117126,0.00010838,0.00
 020047,0.00100184,0.00005803,-0.00006150,-0.00001359,-0.00001123,0.000
 04265,-0.00000513,-0.07159592,-0.03765318,0.31452616,0.00000827,0.0000
 1660,-0.00000265,0.00902499,0.02113383,-0.00268429,0.00002726,-0.00015
 331,-0.00023841,-0.00404027,0.00024413,-0.00438232,0.00000489,0.000007
 16,-0.00000080,-0.00001400,-0.00002554,-0.00000670,-0.00713639,-0.0248
 0135,0.00444417,-0.00163400,-0.00002308,-0.00074928,-0.07484098,-0.080
 57089,0.01019564,0.00000576,-0.00001151,0.00001064,-0.00246549,0.00761
 082,0.00186918,0.00094017,0.00037841,-0.00054577,0.00001788,0.00000283
 ,0.00002666,-0.00000322,-0.00001357,0.00000382,0.00002577,-0.00003449,
 -0.00001548,0.00061729,-0.00099545,-0.00045369,0.00003078,0.00000084,-
 0.00002104,0.00003983,0.00031696,0.00005577,-0.00022245,-0.00189518,-0
 .00017436,-0.00000245,-0.00000123,-0.00000030,-0.00000160,-0.00000468,
 0.00000040,0.00120695,0.00059832,0.00016450,0.00073828,0.00044467,0.00
 087724,0.00033158,-0.00003568,0.00013200,0.00016713,-0.00000721,0.0001
 1113,-0.00308571,-0.00771776,0.00060547,0.08027100,0.00005618,-0.00006
 450,-0.00002755,-0.00952812,-0.01770290,0.00335790,0.00020724,0.000432
 96,0.00000959,-0.00085241,0.00147034,-0.00097142,-0.00000059,-0.000013
 54,-0.00001278,0.00007402,0.00001280,-0.00002467,-0.00095735,-0.003220
 85,0.00024650,0.00089502,0.00083783,0.00120343,-0.07703913,-0.28890366
 ,0.02705625,-0.00001088,-0.00000250,0.00000950,0.00331783,-0.00514351,
 -0.00132525,-0.00096757,0.00160111,0.00077471,-0.00009989,-0.00001198,
 0.00005845,0.00001265,0.00001111,0.00000238,0.00001288,-0.00001208,-0.
 00001370,0.00030657,0.00052344,0.00000947,0.00001056,-0.00000237,-0.00
 000029,0.00000627,0.00001871,0.00008658,0.00006288,-0.00036655,0.00015
 042,0.00000240,0.00000281,0.00000380,0.00000737,0.00000556,0.00000129,
 0.00000602,0.00028644,-0.00020961,-0.00033929,0.00035884,-0.00016612,-
 0.00011366,-0.00007376,-0.00007676,-0.00008314,-0.00003179,-0.00018542
 ,-0.00060250,-0.00243219,0.00089288,0.08556944,0.31233770,0.00000667,-
 0.00000717,0.00000433,-0.00148827,-0.00642803,-0.00211061,-0.00011510,
 0.00003752,0.00015575,-0.00341990,0.00019528,-0.00208185,-0.00000342,0
 .00000040,-0.00000204,0.00000149,-0.00000164,-0.00000804,-0.00560148,-
 0.02026553,0.00181604,-0.00015140,0.00040663,0.00013120,0.00992140,0.0
 3091431,-0.05125319,0.00000116,-0.00000270,0.00000436,0.00066226,-0.00
 117025,0.00101247,0.00011278,-0.00075402,0.00027102,-0.00000154,0.0000
 0772,-0.00000995,0.00000140,0.00000558,-0.00000422,-0.00000499,0.00001
 385,0.00000455,0.00004150,0.00012173,0.00003828,-0.00002616,-0.0000042
 6,0.00001046,-0.00008664,-0.00028438,0.00020450,-0.00036624,-0.0010909
 5,0.00017995,-0.00000005,0.00000090,0.00000042,0.00000153,0.00000002,-
 0.00000062,0.00099469,0.00007138,0.00080877,0.00058878,0.00056653,0.00
 058093,0.00006801,-0.00000961,0.00004369,0.00005615,-0.00000175,-0.000
 01071,0.00804043,0.02846849,-0.00203441,-0.00923268,-0.03079037,0.0522
 5441,-0.00062572,-0.00004740,-0.00104011,0.00035826,0.00015669,0.00039
 189,0.00027282,-0.00143000,-0.00231335,-0.00004050,0.00000041,-0.00006
 011,0.01152408,-0.01768321,0.00328414,-0.00181591,-0.00694520,-0.00030
 350,-0.00005118,0.00006428,0.00006563,0.00012452,0.00012828,0.00018886
 ,-0.00012200,-0.00014809,-0.00019657,-0.10412768,0.10884994,-0.0108808
 6,-0.00058442,0.00000831,-0.00008592,-0.00002219,-0.00007612,0.0001685
 2,-0.00556482,0.01099313,-0.00079528,0.00006179,0.00000047,0.00014043,
 0.00009049,0.00005322,0.00024492,-0.00029268,-0.00008743,-0.00028416,-
 0.00005504,0.00087275,-0.00021011,-0.00000193,-0.00000177,0.00000878,-
 0.00002934,0.00000715,-0.00000051,0.00049397,0.00088204,-0.00031176,0.
 00089352,0.00090138,0.00049647,-0.00000084,-0.00000053,-0.00000931,-0.
 00004178,-0.00000229,-0.00002707,-0.00002675,-0.00002524,-0.00001439,-
 0.00001746,0.00000056,-0.00002832,-0.00001613,0.00001055,0.00001532,-0
 .00000590,0.00001837,0.00000492,0.10869978,-0.00025746,0.00052680,-0.0
 0170600,-0.00029694,-0.00000872,0.00012452,-0.00042630,0.00162489,0.00
 028396,0.00000550,0.00000460,0.00001443,0.01403540,-0.01825296,0.00281
 514,-0.00368592,-0.00634513,0.00010092,-0.00000201,-0.00000964,-0.0000
 1474,-0.00004759,-0.00003485,-0.00004822,0.00000787,0.00002036,-0.0000
 1025,0.10588050,-0.25764140,0.02259486,0.00017252,0.00003598,0.0000324
 3,0.00027742,-0.00011505,-0.00015304,0.00022171,-0.00048304,0.00019531
 ,-0.00000277,-0.00002004,0.00020992,0.00009179,-0.00004332,0.00017234,
 -0.00007902,0.00004013,0.00005689,0.00010503,-0.00019496,-0.00010281,0
 .00000191,0.00000074,-0.00000319,0.00000808,-0.00000156,0.00000031,-0.
 00002998,0.00052350,-0.00042097,-0.00000577,0.00103992,0.00044797,-0.0
 0000012,0.00000090,-0.00000040,0.00000810,-0.00000031,0.00000342,0.000
 01022,0.00000893,0.00000393,0.00000401,0.00000138,0.00000571,0.0000151
 2,-0.00000746,-0.00000703,0.00000185,-0.00000227,-0.00000210,-0.116529
 53,0.27913878,-0.00055815,-0.00060534,-0.00052261,0.00023971,-0.000152
 94,-0.00088711,-0.00142214,-0.00213435,-0.00583411,0.00000800,-0.00000
 280,0.00001204,0.00408726,-0.00349028,-0.00093177,-0.00098235,-0.00201
 823,0.00134967,0.00004019,-0.00003305,-0.00002350,0.00004205,-0.000016
 00,-0.00002324,0.00007016,0.00002838,0.00020444,-0.01007837,0.02034330
 ,-0.04774560,-0.00005232,-0.00020992,0.00022088,-0.00077896,0.00076859
 ,0.00062679,-0.01355142,0.02968866,-0.00534968,0.00008381,0.00001059,0
 .00008912,0.00007224,0.00007390,0.00020714,0.00011747,0.00007557,0.000
 29348,-0.00025568,0.00155512,-0.00054714,-0.00000126,0.00000056,0.0000
 0070,0.00000259,-0.00000150,-0.00000092,0.00026915,0.00052204,-0.00007
 674,-0.00009425,0.00005379,0.00029767,0.00000021,-0.00000118,0.0000077
 5,0.00001019,0.00000324,0.00001182,-0.00000068,0.00000011,0.00000301,-
 0.00000201,0.00000228,0.00000618,-0.00003676,0.00001850,0.00001087,-0.
 00000126,-0.00000892,-0.00000161,0.01362606,-0.02432171,0.05349528,-0.
 00013173,-0.00002047,-0.00038351,-0.00155287,0.00134204,-0.00019244,0.
 00007289,0.00013532,0.00055498,-0.00002229,0.00004111,0.00002379,-0.01
 959357,0.00176956,0.01458130,0.00217342,0.00051891,-0.00029478,-0.0000
 8973,0.00003402,0.00002561,-0.00025439,0.00001111,-0.00009060,-0.00015
 746,-0.00020239,-0.00009966,-0.18915636,0.01006339,0.13552585,0.000071
 34,0.00085727,-0.00056233,0.00037663,-0.00011246,0.00018663,0.01071970
 ,-0.00143875,-0.00892064,-0.00007488,0.00004235,-0.00001060,0.00003151
 ,-0.00000944,0.00004000,-0.00093816,0.00111977,-0.00076671,-0.00006339
 ,-0.00007643,0.00005070,-0.00000474,-0.00000116,-0.00000094,0.00001211
 ,-0.00001065,-0.00000156,0.00095529,0.00060552,-0.00020215,-0.00185981
 ,-0.00380406,-0.00093026,0.00000060,-0.00000060,-0.00000591,-0.0000189
 3,-0.00000711,-0.00001679,0.00001850,0.00000436,0.00001467,0.00005468,
 0.00000957,0.00004848,-0.00000237,-0.00000137,0.00000486,0.00001794,-0
 .00002118,-0.00000086,-0.00990268,0.00059285,0.00839149,0.20896564,0.0
 0007171,-0.00002556,0.00013114,0.00160774,-0.00091749,0.00046021,-0.00
 051863,-0.00014518,0.00008028,-0.00003638,-0.00003097,-0.00006016,-0.0
 2038646,-0.00002168,0.01715973,0.00116088,0.00265066,-0.00049415,0.000
 01887,0.00000846,0.00002098,0.00007438,0.00011096,0.00017277,0.0000214
 9,0.00000681,-0.00001610,0.01202673,-0.04987353,-0.00881202,-0.0002921
 1,-0.00009346,-0.00016313,-0.00029128,0.00022814,-0.00028587,-0.002178
 57,-0.00051403,0.00116424,-0.00001633,0.00005509,-0.00004383,0.0000073
 1,0.00000643,0.00001001,0.00178181,-0.00147720,0.00050348,0.00001103,0
 .00001073,-0.00002193,0.00000034,-0.00000053,0.00000569,-0.00003078,0.
 00001385,0.00000172,0.00113502,0.00093978,-0.00000546,-0.00341164,-0.0
 0291935,-0.00052954,-0.00000303,-0.00000087,-0.00000304,-0.00000997,0.
 00000491,-0.00000538,-0.00002770,-0.00002321,-0.00001665,-0.00001757,-
 0.00000408,-0.00003589,-0.00001264,0.00000906,0.00000371,-0.00001078,0
 .00001614,0.00000576,0.02070651,-0.00047401,-0.01974202,-0.01144410,0.
 05118781,-0.00023614,0.00005940,-0.00031776,-0.00017088,0.00041165,-0.
 00100560,0.00102579,-0.00056381,0.00009898,0.00009882,0.00001503,0.000
 13298,-0.00642434,0.00055506,0.00480577,0.00034824,0.00072720,-0.00032
 310,0.00011059,-0.00009443,-0.00010154,-0.00015741,-0.00033170,-0.0004
 0812,0.00018094,0.00015477,0.00041864,0.13383701,-0.00808037,-0.174425
 36,0.00136454,-0.00035787,0.00066051,-0.00087779,0.00059333,0.00061007
 ,0.02191920,-0.00330635,-0.02114656,-0.00004363,0.00000625,-0.00001371
 ,0.00007125,0.00008368,0.00004387,0.00020077,0.00027364,0.00072564,-0.
 00030299,0.00017652,0.00008470,0.00000106,0.00000443,-0.00001202,0.000
 05963,-0.00002202,-0.00000245,0.00009537,0.00068920,0.00085796,-0.0011
 3787,-0.00169107,0.00102714,-0.00000209,-0.00000201,0.00001896,0.00006
 314,0.00000032,0.00004275,0.00003509,0.00003963,0.00002590,0.00001766,
 0.00000192,0.00006872,-0.00001182,0.00000432,-0.00000814,0.00001585,-0
 .00004505,-0.00000790,-0.00274489,-0.00079095,0.00229203,-0.14474553,0
 .01058145,0.18939156,-0.00012599,0.00225022,-0.00077508,-0.00024546,-0
 .00043381,0.00026064,0.00768189,0.00806146,0.00225288,-0.00009399,0.00
 002144,-0.00001506,0.00042639,0.00183893,-0.00260770,0.00002270,-0.000
 60074,0.00045571,0.00003254,-0.00002585,0.00001025,0.00060945,0.000096
 89,0.00059713,0.00004670,0.00010438,-0.00003623,-0.00791638,-0.0060481
 6,-0.00079709,-0.00264291,0.00098730,0.00192880,0.00168564,-0.00137230
 ,-0.00047168,-0.20570380,-0.13373524,-0.03169837,0.00009514,0.00008057
 ,-0.00000545,0.00043324,0.00044344,0.00011081,0.00002861,0.00005234,0.
 00001389,0.00005884,-0.00071367,0.00023110,-0.00001108,0.00000391,-0.0
 0001280,-0.00001202,0.00002054,-0.00000800,-0.00033596,-0.00079989,-0.
 00013098,0.00018204,0.00019610,0.00011616,-0.00000215,0.00000136,-0.00
 000518,-0.00000170,-0.00000133,0.00000407,0.00002784,-0.00010224,-0.00
 003865,0.00013071,-0.00001493,-0.00014938,0.00001591,-0.00001138,-0.00
 000356,-0.00001646,0.00003458,-0.00000330,-0.00001189,0.00018790,0.000
 16356,0.00049441,0.00025823,0.00007240,0.22162687,0.00456046,-0.004847
 93,0.00361850,0.00017706,-0.00109559,-0.00015913,-0.02599429,-0.021514
 59,-0.00402376,-0.00006565,-0.00003238,0.00000053,0.00077236,0.0003924
 5,0.00102495,-0.00034166,0.00097142,-0.00066128,0.00001191,-0.00001405
 ,0.00001342,0.00046815,0.00012370,0.00017010,0.00005102,0.00006537,-0.
 00009393,0.00330898,0.00279361,-0.00038748,-0.00084096,0.00101441,0.00
 067182,-0.00031069,0.00336310,-0.00068124,-0.13008336,-0.15538582,-0.0
 2421001,-0.00011087,0.00021726,0.00010038,-0.00133450,-0.00127422,-0.0
 0084595,-0.00000952,0.00001387,0.00003901,0.00026116,0.00098518,0.0000
 8099,-0.00001564,0.00000915,0.00000301,-0.00002510,0.00001669,-0.00000
 571,0.00009469,0.00023870,0.00020804,-0.00012892,-0.00009652,0.0000430
 5,0.00000197,-0.00000240,-0.00000362,-0.00000574,0.00000506,0.00000234
 ,-0.00000310,-0.00008564,-0.00001851,0.00002428,-0.00004252,-0.0000314
 8,0.00001696,-0.00000876,-0.00000334,-0.00001620,0.00003069,-0.0000006
 3,-0.00006973,0.00019973,-0.00057216,-0.00023136,0.00018468,-0.0001532
 5,0.14298457,0.16762822,-0.00104642,0.00192358,-0.00052426,-0.00004072
 ,-0.00040968,-0.00035646,0.00764414,0.00293219,0.00051390,-0.00002598,
 -0.00000118,-0.00002191,-0.00163690,0.00337491,-0.00648163,0.00075924,
 -0.00045792,0.00105021,0.00000694,-0.00001008,0.00001059,0.00014670,0.
 00009586,0.00021247,0.00003110,0.00001691,0.00005179,-0.02413870,-0.02
 085970,-0.00407963,0.00005975,-0.00005800,-0.00029391,-0.00028859,-0.0
 0051422,0.00030021,-0.02969729,-0.02184483,-0.05191069,-0.00030431,-0.
 00012073,0.00001462,0.00031010,0.00043607,0.00043971,0.00004196,0.0000
 2606,0.00003401,0.00033529,-0.00049280,0.00010450,-0.00000574,0.000002
 38,0.00000256,-0.00001697,0.00000726,-0.00000076,-0.00121407,-0.001619
 73,-0.00036476,-0.00013856,-0.00004064,0.00009591,-0.00000220,0.000002
 45,-0.00000181,-0.00000460,0.00000490,0.00000063,0.00000659,-0.0000098
 0,-0.00001782,-0.00002062,0.00000667,-0.00005468,-0.00001274,0.0000119
 3,0.00000384,-0.00001040,0.00001047,0.00000395,0.00045289,0.00039736,0
 .00111615,0.00081846,-0.00021171,0.00150772,0.03351563,0.02372964,0.05
 591546,-0.00036122,-0.00066785,0.00021912,0.00057663,-0.00030074,-0.00
 116144,-0.00857519,0.00161207,0.00558906,-0.00004879,-0.00001805,-0.00
 006554,0.00100049,-0.00003703,0.00003923,-0.00000298,0.00024255,-0.000
 00831,0.00002806,0.00000255,0.00003749,0.00041451,0.00017653,0.0003426
 1,0.00000573,-0.00006193,0.00011446,0.00888477,-0.00321325,-0.00930038
 ,-0.00133048,0.00011816,0.00084565,-0.00052692,0.00307024,-0.00004093,
 -0.18498712,0.04692536,0.12170978,0.00036824,-0.00027139,-0.00008501,0
 .00017748,0.00014565,-0.00017754,-0.00001624,0.00000321,0.00006903,0.0
 0022471,-0.00022900,-0.00017129,-0.00000459,-0.00000279,0.00000124,-0.
 00003816,0.00001617,-0.00000515,0.00008231,0.00020913,0.00010324,-0.00
 007602,0.00029590,0.00029146,0.,-0.00000135,0.00000106,-0.00002668,0.0
 0000585,-0.00000907,-0.00002929,-0.00003993,-0.00001007,0.00001104,-0.
 00001079,-0.00003972,-0.00006344,0.00002208,0.00003007,-0.00000685,0.0
 0001543,-0.00000115,0.00083764,-0.00026436,0.00059145,-0.00014133,-0.0
 0019406,-0.00266194,-0.01647913,0.00685373,0.01447601,0.20010282,-0.00
 079249,0.00057228,-0.00015856,-0.00113737,-0.00112092,0.00199001,0.023
 25285,-0.00747264,-0.01942428,-0.00002229,-0.00002300,-0.00000269,0.00
 042535,-0.00019784,-0.00029403,-0.00007668,-0.00024586,0.00008271,-0.0
 0002286,-0.00003953,-0.00003628,0.00003920,0.00005123,0.00010189,0.000
 08562,0.00020486,-0.00030971,-0.00213077,0.00016155,0.00277669,-0.0006
 8426,0.00090293,0.00048277,0.00398746,-0.00674756,0.00026189,0.0452418
 2,-0.06486746,-0.04304566,-0.00037089,-0.00050046,-0.00013635,0.000076
 60,0.00025280,0.00031791,0.00000525,0.00008021,-0.00013683,0.00044110,
 0.00131029,-0.00003274,0.00000102,0.00000567,-0.00000869,0.00000516,0.
 00001458,-0.00000053,-0.00001978,-0.00003268,0.00001881,0.,0.00000211,
 -0.00011242,-0.00000585,0.00000564,-0.00001437,0.00003211,0.00000276,0
 .00000976,0.00002260,0.00000601,0.00000016,0.00005273,-0.00001173,-0.0
 0003107,0.00014216,-0.00004750,-0.00005479,-0.00000795,0.00003798,-0.0
 0000272,-0.00060751,0.00046808,0.00016581,0.00023439,0.00108763,0.0010
 6107,-0.01376464,0.00614712,0.01367236,-0.05440208,0.06999345,0.000601
 35,0.00000549,-0.00027141,-0.00010112,0.00065363,-0.00060460,-0.005384
 47,0.00169095,0.00264724,0.00001244,0.00000611,0.00001728,0.00111274,0
 .00044910,0.00106161,-0.00024568,-0.00036586,-0.00015806,0.00002331,-0
 .00000653,-0.00000085,0.00002172,-0.00003257,-0.00002723,-0.00001060,-
 0.00003589,0.00019321,0.02192170,-0.00625316,-0.02477409,-0.00003251,-
 0.00016024,0.00017614,-0.00196350,0.00255778,0.00134186,0.12245460,-0.
 04380145,-0.15218689,-0.00010345,0.00010805,0.00009992,-0.00010513,-0.
 00012472,0.00003356,-0.00006837,0.00009768,0.00014586,-0.00082345,0.00
 008935,0.00102085,-0.00000306,-0.00000071,-0.00000200,0.00000517,-0.00
 000450,-0.00000122,-0.00030293,0.00019925,0.00017754,-0.00046627,-0.00
 033891,0.00029209,0.00000359,-0.00000106,0.00000224,0.00000066,-0.0000
 0027,0.00000189,0.00000198,0.00000010,0.00000476,0.00001826,-0.0000038
 5,0.00001265,-0.00005185,0.00001467,0.00002080,0.00000695,-0.00001571,
 0.00000009,0.00021740,0.00012200,0.00169901,-0.00304154,0.00014573,-0.
 00504166,-0.00297451,0.00214567,0.00273010,-0.13072341,0.04285987,0.17
 138932\\0.00001087,-0.00001251,0.00001512,0.00075522,0.00155540,0.0006
 6443,0.00137388,0.00163605,0.00244577,-0.00000023,-0.00000119,0.000001
 94,-0.00001145,0.00000363,-0.00000699,-0.00000456,0.00000368,-0.000006
 98,0.00000748,-0.00000498,-0.00000506,-0.00000279,0.00000306,0.0000048
 3,-0.00000237,0.00000523,-0.00000277,0.00000494,0.00000519,0.00000938,
 -0.00000114,0.00000911,0.00000271,-0.00147492,-0.00264067,-0.00169424,
 -0.00066651,-0.00057470,-0.00142112,0.00000400,-0.00000224,-0.00000671
 ,-0.00000144,-0.00000186,-0.00000319,0.00000043,0.00000729,0.00000470,
 -0.00000101,-0.00000283,0.00000116,-0.00000051,0.00000152,-0.00000007,
 -0.00000026,0.00000035,-0.00000197,-0.00000073,0.00000790,0.00000117,0
 .00000388,-0.00000112,-0.00000040,0.00000065,-0.00000275,-0.00000455,-
 0.00000172,0.00000063,-0.00000182,0.00000270,0.00000019,0.00000677,0.0
 0000074,-0.00000294,-0.00000035,0.00000320,0.00000381,-0.00000504,0.00
 000118,0.00000279,-0.00001025,-0.00000026,0.00000312,0.00000498,0.0000
 0091,0.00000373,0.00000244,-0.00000162,-0.00000151,0.00000255,0.000001
 44,-0.00000338,0.00000358\\\@


 I think that all right-thinking people in this
 country are sick and tired of being told that
 ordinary, decent people are fed up in this country
 with being sick and tired.  I'm certainly not!
 But I'm sick and tired of being told that I am!
                               -- Monty Python
 Job cpu time:       0 days 13 hours 45 minutes 24.4 seconds.
 Elapsed time:       0 days  1 hours  9 minutes  3.1 seconds.
 File lengths (MBytes):  RWF=    719 Int=      0 D2E=      0 Chk=     34 Scr=      1
 Normal termination of Gaussian 16 at Sat Mar  9 03:26:57 2019.
