 Entering Gaussian System, Link 0=g16
 Initial command:
 /sw/Projects/G16/g16/l1.exe "/nvme/pbs/tmpdir/pbs.74203[2].flm1/Gau-12360.inp" -scrdir="/nvme/pbs/tmpdir/pbs.74203[2].flm1/"
 Entering Link 1 = /sw/Projects/G16/g16/l1.exe PID=     12361.
  
 Copyright (c) 1988-2017, Gaussian, Inc.  All Rights Reserved.
  
 This is part of the Gaussian(R) 16 program.  It is based on
 the Gaussian(R) 09 system (copyright 2009, Gaussian, Inc.),
 the Gaussian(R) 03 system (copyright 2003, Gaussian, Inc.),
 the Gaussian(R) 98 system (copyright 1998, Gaussian, Inc.),
 the Gaussian(R) 94 system (copyright 1995, Gaussian, Inc.),
 the Gaussian 92(TM) system (copyright 1992, Gaussian, Inc.),
 the Gaussian 90(TM) system (copyright 1990, Gaussian, Inc.),
 the Gaussian 88(TM) system (copyright 1988, Gaussian, Inc.),
 the Gaussian 86(TM) system (copyright 1986, Carnegie Mellon
 University), and the Gaussian 82(TM) system (copyright 1983,
 Carnegie Mellon University). Gaussian is a federally registered
 trademark of Gaussian, Inc.
  
 This software contains proprietary and confidential information,
 including trade secrets, belonging to Gaussian, Inc.
  
 This software is provided under written license and may be
 used, copied, transmitted, or stored only in accord with that
 written license.
  
 The following legend is applicable only to US Government
 contracts under FAR:
  
                    RESTRICTED RIGHTS LEGEND
  
 Use, reproduction and disclosure by the US Government is
 subject to restrictions as set forth in subparagraphs (a)
 and (c) of the Commercial Computer Software - Restricted
 Rights clause in FAR 52.227-19.
  
 Gaussian, Inc.
 340 Quinnipiac St., Bldg. 40, Wallingford CT 06492
  
  
 ---------------------------------------------------------------
 Warning -- This program may not be used in any manner that
 competes with the business of Gaussian, Inc. or will provide
 assistance to any competitor of Gaussian, Inc.  The licensee
 of this program is prohibited from giving any competitor of
 Gaussian, Inc. access to this program.  By using this program,
 the user acknowledges that Gaussian, Inc. is engaged in the
 business of creating and licensing software in the field of
 computational chemistry and represents and warrants to the
 licensee that it is not a competitor of Gaussian, Inc. and that
 it will not use this program in any manner prohibited above.
 ---------------------------------------------------------------
  

 Cite this work as:
 Gaussian 16, Revision B.01,
 M. J. Frisch, G. W. Trucks, H. B. Schlegel, G. E. Scuseria, 
 M. A. Robb, J. R. Cheeseman, G. Scalmani, V. Barone, 
 G. A. Petersson, H. Nakatsuji, X. Li, M. Caricato, A. V. Marenich, 
 J. Bloino, B. G. Janesko, R. Gomperts, B. Mennucci, H. P. Hratchian, 
 J. V. Ortiz, A. F. Izmaylov, J. L. Sonnenberg, D. Williams-Young, 
 F. Ding, F. Lipparini, F. Egidi, J. Goings, B. Peng, A. Petrone, 
 T. Henderson, D. Ranasinghe, V. G. Zakrzewski, J. Gao, N. Rega, 
 G. Zheng, W. Liang, M. Hada, M. Ehara, K. Toyota, R. Fukuda, 
 J. Hasegawa, M. Ishida, T. Nakajima, Y. Honda, O. Kitao, H. Nakai, 
 T. Vreven, K. Throssell, J. A. Montgomery, Jr., J. E. Peralta, 
 F. Ogliaro, M. J. Bearpark, J. J. Heyd, E. N. Brothers, K. N. Kudin, 
 V. N. Staroverov, T. A. Keith, R. Kobayashi, J. Normand, 
 K. Raghavachari, A. P. Rendell, J. C. Burant, S. S. Iyengar, 
 J. Tomasi, M. Cossi, J. M. Millam, M. Klene, C. Adamo, R. Cammi, 
 J. W. Ochterski, R. L. Martin, K. Morokuma, O. Farkas, 
 J. B. Foresman, and D. J. Fox, Gaussian, Inc., Wallingford CT, 2016.
 
 ******************************************
 Gaussian 16:  ES64L-G16RevB.01 20-Dec-2017
                 8-Mar-2019 
 ******************************************
 %mem=20gb
 %nproc=12
 Will use up to   12 processors via shared memory.
 %chk=4c1_a1_a4_4c1_PSI.inp_extract_2.chk
 ----------------------------------------------------------------------
 #M062X/6-311++G(2d,2p) opt=ModRedundant freq=noraman SCRF=(SMD,solvent
 =water)
 ----------------------------------------------------------------------
 1/18=120,19=15,26=3,38=1/1,3;
 2/9=110,12=2,17=6,18=5,40=1/2;
 3/5=4,6=6,7=1212,11=2,25=1,30=1,70=32201,71=1,72=1,74=-55/1,2,3;
 4//1;
 5/5=2,38=5,53=1/2;
 6/7=2,8=2,9=2,10=2,28=1/1;
 7//1,2,3,16;
 1/18=20,19=15,26=3/3(2);
 2/9=110/2;
 99//99;
 2/9=110/2;
 3/5=4,6=6,7=1212,11=2,25=1,30=1,70=32205,71=1,72=1,74=-55/1,2,3;
 4/5=5,16=3,69=1/1;
 5/5=2,38=5,53=1/2;
 7//1,2,3,16;
 1/18=20,19=15,26=3/3(-5);
 2/9=110/2;
 6/7=2,8=2,9=2,10=2,19=2,28=1/1;
 99/9=1/99;
 -------------------------------
 4c1_a1_a4_4c1_PSI.inp_extract_2
 -------------------------------
 Symbolic Z-matrix:
 Charge =  0 Multiplicity = 1
 C                    -1.59115   1.22997  -0.63259 
 C                     1.20569  -0.74426  -0.76282 
 C                    -1.12431  -0.18539  -0.93519 
 C                     3.2429    0.70952   0.69356 
 C                    -3.22508   0.50537   0.91189 
 O                    -2.10669   1.34206   0.67718 
 C                     2.65974  -0.56577   1.30124 
 C                     2.22399   1.36034  -0.22636 
 C                     2.14534  -1.47468   0.18455 
 C                    -2.86211  -0.95885   0.71864 
 O                     1.7701    0.45598  -1.2259 
 O                    -0.01027  -0.51918  -0.11561 
 C                    -2.2547   -1.17641  -0.66912 
 H                    -2.3586    1.51142  -1.35018 
 H                    -0.77469   1.93251  -0.70786 
 H                     1.03277  -1.33045  -1.65471 
 H                    -0.82668  -0.23117  -1.97605 
 H                     4.13982   0.47148   0.12637 
 H                     3.52418   1.41863   1.46696 
 H                    -3.54601   0.70324   1.92553 
 H                    -4.02815   0.79237   0.23614 
 H                     1.84983  -0.31049   1.97955 
 H                     3.40987  -1.0898    1.8855 
 H                     2.6509    2.19551  -0.76429 
 H                     1.37635   1.72312   0.34394 
 H                     2.98547  -1.83026  -0.40582 
 H                     1.63489  -2.34551   0.58132 
 H                    -3.75309  -1.56773   0.84207 
 H                    -2.15787  -1.25703   1.48975 
 H                    -1.88536  -2.19075  -0.78017 
 H                    -3.02054  -1.02507  -1.42621 
 
 The following ModRedundant input section has been read:
 D      13       3      12       2 F                                           
 

 GradGradGradGradGradGradGradGradGradGradGradGradGradGradGradGradGradGrad
 Berny optimization.
 Initialization pass.
                           ----------------------------
                           !    Initial Parameters    !
                           ! (Angstroms and Degrees)  !
 --------------------------                            --------------------------
 ! Name  Definition              Value          Derivative Info.                !
 --------------------------------------------------------------------------------
 ! R1    R(1,3)                  1.5208         estimate D2E/DX2                !
 ! R2    R(1,6)                  1.412          estimate D2E/DX2                !
 ! R3    R(1,14)                 1.0877         estimate D2E/DX2                !
 ! R4    R(1,15)                 1.0797         estimate D2E/DX2                !
 ! R5    R(2,9)                  1.5212         estimate D2E/DX2                !
 ! R6    R(2,11)                 1.4048         estimate D2E/DX2                !
 ! R7    R(2,12)                 1.3957         estimate D2E/DX2                !
 ! R8    R(2,16)                 1.0812         estimate D2E/DX2                !
 ! R9    R(3,12)                 1.4227         estimate D2E/DX2                !
 ! R10   R(3,13)                 1.5267         estimate D2E/DX2                !
 ! R11   R(3,17)                 1.0835         estimate D2E/DX2                !
 ! R12   R(4,7)                  1.5283         estimate D2E/DX2                !
 ! R13   R(4,8)                  1.5192         estimate D2E/DX2                !
 ! R14   R(4,18)                 1.0876         estimate D2E/DX2                !
 ! R15   R(4,19)                 1.0863         estimate D2E/DX2                !
 ! R16   R(5,6)                  1.4163         estimate D2E/DX2                !
 ! R17   R(5,10)                 1.5209         estimate D2E/DX2                !
 ! R18   R(5,20)                 1.0815         estimate D2E/DX2                !
 ! R19   R(5,21)                 1.0881         estimate D2E/DX2                !
 ! R20   R(7,9)                  1.529          estimate D2E/DX2                !
 ! R21   R(7,22)                 1.0868         estimate D2E/DX2                !
 ! R22   R(7,23)                 1.0857         estimate D2E/DX2                !
 ! R23   R(8,11)                 1.4223         estimate D2E/DX2                !
 ! R24   R(8,24)                 1.0813         estimate D2E/DX2                !
 ! R25   R(8,25)                 1.0841         estimate D2E/DX2                !
 ! R26   R(9,26)                 1.0866         estimate D2E/DX2                !
 ! R27   R(9,27)                 1.0846         estimate D2E/DX2                !
 ! R28   R(10,13)                1.5304         estimate D2E/DX2                !
 ! R29   R(10,28)                1.0862         estimate D2E/DX2                !
 ! R30   R(10,29)                1.086          estimate D2E/DX2                !
 ! R31   R(13,30)                1.0852         estimate D2E/DX2                !
 ! R32   R(13,31)                1.0875         estimate D2E/DX2                !
 ! A1    A(3,1,6)              111.7483         estimate D2E/DX2                !
 ! A2    A(3,1,14)             109.0344         estimate D2E/DX2                !
 ! A3    A(3,1,15)             111.0729         estimate D2E/DX2                !
 ! A4    A(6,1,14)             109.4997         estimate D2E/DX2                !
 ! A5    A(6,1,15)             106.8035         estimate D2E/DX2                !
 ! A6    A(14,1,15)            108.6129         estimate D2E/DX2                !
 ! A7    A(9,2,11)             111.5523         estimate D2E/DX2                !
 ! A8    A(9,2,12)             109.0743         estimate D2E/DX2                !
 ! A9    A(9,2,16)             110.6218         estimate D2E/DX2                !
 ! A10   A(11,2,12)            111.413          estimate D2E/DX2                !
 ! A11   A(11,2,16)            104.8059         estimate D2E/DX2                !
 ! A12   A(12,2,16)            109.3063         estimate D2E/DX2                !
 ! A13   A(1,3,12)             110.1266         estimate D2E/DX2                !
 ! A14   A(1,3,13)             110.009          estimate D2E/DX2                !
 ! A15   A(1,3,17)             108.3479         estimate D2E/DX2                !
 ! A16   A(12,3,13)            109.0917         estimate D2E/DX2                !
 ! A17   A(12,3,17)            109.1702         estimate D2E/DX2                !
 ! A18   A(13,3,17)            110.082          estimate D2E/DX2                !
 ! A19   A(7,4,8)              110.0185         estimate D2E/DX2                !
 ! A20   A(7,4,18)             109.8405         estimate D2E/DX2                !
 ! A21   A(7,4,19)             111.1259         estimate D2E/DX2                !
 ! A22   A(8,4,18)             109.3341         estimate D2E/DX2                !
 ! A23   A(8,4,19)             108.973          estimate D2E/DX2                !
 ! A24   A(18,4,19)            107.4951         estimate D2E/DX2                !
 ! A25   A(6,5,10)             111.0532         estimate D2E/DX2                !
 ! A26   A(6,5,20)             106.3535         estimate D2E/DX2                !
 ! A27   A(6,5,21)             108.9091         estimate D2E/DX2                !
 ! A28   A(10,5,20)            111.4732         estimate D2E/DX2                !
 ! A29   A(10,5,21)            110.559          estimate D2E/DX2                !
 ! A30   A(20,5,21)            108.3494         estimate D2E/DX2                !
 ! A31   A(1,6,5)              113.2738         estimate D2E/DX2                !
 ! A32   A(4,7,9)              109.5128         estimate D2E/DX2                !
 ! A33   A(4,7,22)             109.664          estimate D2E/DX2                !
 ! A34   A(4,7,23)             110.6775         estimate D2E/DX2                !
 ! A35   A(9,7,22)             110.1663         estimate D2E/DX2                !
 ! A36   A(9,7,23)             109.7903         estimate D2E/DX2                !
 ! A37   A(22,7,23)            107.0009         estimate D2E/DX2                !
 ! A38   A(4,8,11)             111.542          estimate D2E/DX2                !
 ! A39   A(4,8,24)             111.5518         estimate D2E/DX2                !
 ! A40   A(4,8,25)             110.4383         estimate D2E/DX2                !
 ! A41   A(11,8,24)            105.5161         estimate D2E/DX2                !
 ! A42   A(11,8,25)            109.447          estimate D2E/DX2                !
 ! A43   A(24,8,25)            108.1755         estimate D2E/DX2                !
 ! A44   A(2,9,7)              112.163          estimate D2E/DX2                !
 ! A45   A(2,9,26)             107.2388         estimate D2E/DX2                !
 ! A46   A(2,9,27)             108.8234         estimate D2E/DX2                !
 ! A47   A(7,9,26)             109.3421         estimate D2E/DX2                !
 ! A48   A(7,9,27)             111.62           estimate D2E/DX2                !
 ! A49   A(26,9,27)            107.4506         estimate D2E/DX2                !
 ! A50   A(5,10,13)            110.2924         estimate D2E/DX2                !
 ! A51   A(5,10,28)            109.2369         estimate D2E/DX2                !
 ! A52   A(5,10,29)            109.2004         estimate D2E/DX2                !
 ! A53   A(13,10,28)           110.4212         estimate D2E/DX2                !
 ! A54   A(13,10,29)           110.3313         estimate D2E/DX2                !
 ! A55   A(28,10,29)           107.2962         estimate D2E/DX2                !
 ! A56   A(2,11,8)             116.0911         estimate D2E/DX2                !
 ! A57   A(2,12,3)             116.9282         estimate D2E/DX2                !
 ! A58   A(3,13,10)            111.0772         estimate D2E/DX2                !
 ! A59   A(3,13,30)            109.6898         estimate D2E/DX2                !
 ! A60   A(3,13,31)            108.0451         estimate D2E/DX2                !
 ! A61   A(10,13,30)           111.1464         estimate D2E/DX2                !
 ! A62   A(10,13,31)           109.3906         estimate D2E/DX2                !
 ! A63   A(30,13,31)           107.3692         estimate D2E/DX2                !
 ! D1    D(6,1,3,12)           -65.812          estimate D2E/DX2                !
 ! D2    D(6,1,3,13)            54.4651         estimate D2E/DX2                !
 ! D3    D(6,1,3,17)           174.8472         estimate D2E/DX2                !
 ! D4    D(14,1,3,12)          173.0034         estimate D2E/DX2                !
 ! D5    D(14,1,3,13)          -66.7195         estimate D2E/DX2                !
 ! D6    D(14,1,3,17)           53.6626         estimate D2E/DX2                !
 ! D7    D(15,1,3,12)           53.349          estimate D2E/DX2                !
 ! D8    D(15,1,3,13)          173.6261         estimate D2E/DX2                !
 ! D9    D(15,1,3,17)          -65.9918         estimate D2E/DX2                !
 ! D10   D(3,1,6,5)            -60.4481         estimate D2E/DX2                !
 ! D11   D(14,1,6,5)            60.4663         estimate D2E/DX2                !
 ! D12   D(15,1,6,5)           177.8942         estimate D2E/DX2                !
 ! D13   D(11,2,9,7)            51.102          estimate D2E/DX2                !
 ! D14   D(11,2,9,26)          -68.9541         estimate D2E/DX2                !
 ! D15   D(11,2,9,27)          175.1011         estimate D2E/DX2                !
 ! D16   D(12,2,9,7)           -72.3959         estimate D2E/DX2                !
 ! D17   D(12,2,9,26)          167.5479         estimate D2E/DX2                !
 ! D18   D(12,2,9,27)           51.6031         estimate D2E/DX2                !
 ! D19   D(16,2,9,7)           167.346          estimate D2E/DX2                !
 ! D20   D(16,2,9,26)           47.2899         estimate D2E/DX2                !
 ! D21   D(16,2,9,27)          -68.6549         estimate D2E/DX2                !
 ! D22   D(9,2,11,8)           -53.9943         estimate D2E/DX2                !
 ! D23   D(12,2,11,8)           68.1667         estimate D2E/DX2                !
 ! D24   D(16,2,11,8)         -173.7351         estimate D2E/DX2                !
 ! D25   D(9,2,12,3)          -163.3038         estimate D2E/DX2                !
 ! D26   D(11,2,12,3)           73.1155         estimate D2E/DX2                !
 ! D27   D(16,2,12,3)          -42.2397         estimate D2E/DX2                !
 ! D28   D(1,3,12,2)          -115.0131         estimate D2E/DX2                !
 ! D29   D(13,3,12,2)          124.1579         Frozen                          !
 ! D30   D(17,3,12,2)            3.8258         estimate D2E/DX2                !
 ! D31   D(1,3,13,10)          -50.5057         estimate D2E/DX2                !
 ! D32   D(1,3,13,30)         -173.7731         estimate D2E/DX2                !
 ! D33   D(1,3,13,31)           69.4798         estimate D2E/DX2                !
 ! D34   D(12,3,13,10)          70.3951         estimate D2E/DX2                !
 ! D35   D(12,3,13,30)         -52.8723         estimate D2E/DX2                !
 ! D36   D(12,3,13,31)        -169.6194         estimate D2E/DX2                !
 ! D37   D(17,3,13,10)        -169.8348         estimate D2E/DX2                !
 ! D38   D(17,3,13,30)          66.8978         estimate D2E/DX2                !
 ! D39   D(17,3,13,31)         -49.8493         estimate D2E/DX2                !
 ! D40   D(8,4,7,9)             53.436          estimate D2E/DX2                !
 ! D41   D(8,4,7,22)           -67.5639         estimate D2E/DX2                !
 ! D42   D(8,4,7,23)           174.6133         estimate D2E/DX2                !
 ! D43   D(18,4,7,9)           -66.9659         estimate D2E/DX2                !
 ! D44   D(18,4,7,22)          172.0343         estimate D2E/DX2                !
 ! D45   D(18,4,7,23)           54.2114         estimate D2E/DX2                !
 ! D46   D(19,4,7,9)           174.2155         estimate D2E/DX2                !
 ! D47   D(19,4,7,22)           53.2156         estimate D2E/DX2                !
 ! D48   D(19,4,7,23)          -64.6072         estimate D2E/DX2                !
 ! D49   D(7,4,8,11)           -55.2127         estimate D2E/DX2                !
 ! D50   D(7,4,8,24)          -172.9312         estimate D2E/DX2                !
 ! D51   D(7,4,8,25)            66.7315         estimate D2E/DX2                !
 ! D52   D(18,4,8,11)           65.4944         estimate D2E/DX2                !
 ! D53   D(18,4,8,24)          -52.2241         estimate D2E/DX2                !
 ! D54   D(18,4,8,25)         -172.5614         estimate D2E/DX2                !
 ! D55   D(19,4,8,11)         -177.2783         estimate D2E/DX2                !
 ! D56   D(19,4,8,24)           65.0031         estimate D2E/DX2                !
 ! D57   D(19,4,8,25)          -55.3341         estimate D2E/DX2                !
 ! D58   D(10,5,6,1)            60.4068         estimate D2E/DX2                !
 ! D59   D(20,5,6,1)          -178.1442         estimate D2E/DX2                !
 ! D60   D(21,5,6,1)           -61.5725         estimate D2E/DX2                !
 ! D61   D(6,5,10,13)          -54.8226         estimate D2E/DX2                !
 ! D62   D(6,5,10,28)         -176.3588         estimate D2E/DX2                !
 ! D63   D(6,5,10,29)           66.5785         estimate D2E/DX2                !
 ! D64   D(20,5,10,13)        -173.2226         estimate D2E/DX2                !
 ! D65   D(20,5,10,28)          65.2411         estimate D2E/DX2                !
 ! D66   D(20,5,10,29)         -51.8215         estimate D2E/DX2                !
 ! D67   D(21,5,10,13)          66.1907         estimate D2E/DX2                !
 ! D68   D(21,5,10,28)         -55.3455         estimate D2E/DX2                !
 ! D69   D(21,5,10,29)        -172.4081         estimate D2E/DX2                !
 ! D70   D(4,7,9,2)            -51.9014         estimate D2E/DX2                !
 ! D71   D(4,7,9,26)            66.9229         estimate D2E/DX2                !
 ! D72   D(4,7,9,27)          -174.3268         estimate D2E/DX2                !
 ! D73   D(22,7,9,2)            68.7936         estimate D2E/DX2                !
 ! D74   D(22,7,9,26)         -172.3821         estimate D2E/DX2                !
 ! D75   D(22,7,9,27)          -53.6317         estimate D2E/DX2                !
 ! D76   D(23,7,9,2)          -173.6136         estimate D2E/DX2                !
 ! D77   D(23,7,9,26)          -54.7893         estimate D2E/DX2                !
 ! D78   D(23,7,9,27)           63.9611         estimate D2E/DX2                !
 ! D79   D(4,8,11,2)            56.7821         estimate D2E/DX2                !
 ! D80   D(24,8,11,2)          178.0782         estimate D2E/DX2                !
 ! D81   D(25,8,11,2)          -65.7326         estimate D2E/DX2                !
 ! D82   D(5,10,13,3)           50.9952         estimate D2E/DX2                !
 ! D83   D(5,10,13,30)         173.4227         estimate D2E/DX2                !
 ! D84   D(5,10,13,31)         -68.1872         estimate D2E/DX2                !
 ! D85   D(28,10,13,3)         171.8259         estimate D2E/DX2                !
 ! D86   D(28,10,13,30)        -65.7467         estimate D2E/DX2                !
 ! D87   D(28,10,13,31)         52.6434         estimate D2E/DX2                !
 ! D88   D(29,10,13,3)         -69.7312         estimate D2E/DX2                !
 ! D89   D(29,10,13,30)         52.6963         estimate D2E/DX2                !
 ! D90   D(29,10,13,31)        171.0863         estimate D2E/DX2                !
 --------------------------------------------------------------------------------
 Trust Radius=3.00D-01 FncErr=1.00D-07 GrdErr=1.00D-06 EigMax=2.50D+02 EigMin=1.00D-04
 Number of steps in this run=    186 maximum allowed number of steps=    186.
 GradGradGradGradGradGradGradGradGradGradGradGradGradGradGradGradGradGrad

                          Input orientation:                          
 ---------------------------------------------------------------------
 Center     Atomic      Atomic             Coordinates (Angstroms)
 Number     Number       Type             X           Y           Z
 ---------------------------------------------------------------------
      1          6           0       -1.591154    1.229970   -0.632588
      2          6           0        1.205686   -0.744257   -0.762820
      3          6           0       -1.124305   -0.185385   -0.935191
      4          6           0        3.242900    0.709522    0.693562
      5          6           0       -3.225081    0.505369    0.911893
      6          8           0       -2.106692    1.342062    0.677181
      7          6           0        2.659738   -0.565773    1.301240
      8          6           0        2.223995    1.360337   -0.226364
      9          6           0        2.145336   -1.474676    0.184545
     10          6           0       -2.862108   -0.958848    0.718640
     11          8           0        1.770099    0.455976   -1.225897
     12          8           0       -0.010272   -0.519175   -0.115611
     13          6           0       -2.254700   -1.176411   -0.669123
     14          1           0       -2.358604    1.511416   -1.350181
     15          1           0       -0.774694    1.932509   -0.707858
     16          1           0        1.032774   -1.330453   -1.654714
     17          1           0       -0.826683   -0.231168   -1.976047
     18          1           0        4.139821    0.471478    0.126371
     19          1           0        3.524179    1.418630    1.466956
     20          1           0       -3.546005    0.703240    1.925529
     21          1           0       -4.028149    0.792366    0.236144
     22          1           0        1.849831   -0.310490    1.979554
     23          1           0        3.409873   -1.089804    1.885504
     24          1           0        2.650900    2.195512   -0.764287
     25          1           0        1.376345    1.723123    0.343940
     26          1           0        2.985466   -1.830257   -0.405816
     27          1           0        1.634889   -2.345512    0.581323
     28          1           0       -3.753086   -1.567726    0.842073
     29          1           0       -2.157874   -1.257030    1.489750
     30          1           0       -1.885362   -2.190753   -0.780173
     31          1           0       -3.020539   -1.025065   -1.426209
 ---------------------------------------------------------------------
                    Distance matrix (angstroms):
                    1          2          3          4          5
     1  C    0.000000
     2  C    3.425908   0.000000
     3  C    1.520772   2.402271   0.000000
     4  C    5.039605   2.895645   4.746175   0.000000
     5  C    2.362242   4.898768   2.881340   6.474884   0.000000
     6  O    1.412034   4.171112   2.428564   5.386883   1.416312
     7  C    5.003445   2.531100   4.411950   1.528309   5.994166
     8  C    3.838929   2.398761   3.755370   1.519207   5.631965
     9  C    4.684461   1.521169   3.688717   2.496891   5.769835
    10  C    2.869158   4.334480   2.520587   6.328919   1.520864
    11  O    3.499872   1.404835   2.978830   2.432643   5.433637
    12  O    2.413703   1.395742   1.422743   3.570376   3.527102
    13  C    2.496457   3.488525   1.526669   5.969695   2.503924
    14  H    1.087718   4.258781   2.138889   6.016375   2.622955
    15  H    1.079738   3.330165   2.158560   4.427272   3.265688
    16  H    3.805983   1.081203   2.545954   3.815830   5.299721
    17  H    2.127022   2.421922   1.083539   4.957138   3.825571
    18  H    5.830558   3.298154   5.410121   1.087583   7.406752
    19  H    5.532658   3.876260   5.472803   1.086320   6.833348
    20  H    3.262338   5.648100   3.852013   6.899784   1.081482
    21  H    2.623954   5.545464   3.280295   7.285894   1.088082
    22  H    4.586576   2.850209   4.166158   2.152868   5.249786
    23  H    6.060727   3.462869   5.416001   2.164759   6.893120
    24  H    4.352544   3.275803   4.466548   2.164244   6.339820
    25  H    3.162729   2.709614   3.395855   2.152591   4.793602
    26  H    5.510160   2.115293   4.458257   2.779457   6.764791
    27  H    4.966388   2.134234   3.818261   3.454205   5.644121
    28  H    3.830885   5.276666   3.461217   7.358786   2.140417
    29  H    3.318231   4.080508   2.845527   5.802551   2.139836
    30  H    3.436522   3.412804   2.150521   6.073101   3.453550
    31  H    2.785347   4.287180   2.131165   6.836146   2.801926
                    6          7          8          9         10
     6  O    0.000000
     7  C    5.171860   0.000000
     8  C    4.423978   2.496667   0.000000
     9  C    5.124104   1.528961   2.865717   0.000000
    10  C    2.422098   5.566391   5.669224   5.062196   0.000000
    11  O    4.408669   2.867377   1.422307   2.420241   5.219223
    12  O    2.913366   3.023010   2.921777   2.376914   3.003707
    13  C    2.859571   5.329813   5.166221   4.491996   1.530413
    14  H    2.049960   6.043882   4.720805   5.617616   3.261248
    15  H    2.010268   4.698214   3.090526   4.575136   3.840851
    16  H    4.736699   3.459684   3.271015   2.154407   4.576134
    17  H    3.339625   4.796634   3.860170   3.879094   3.454535
    18  H    6.330895   2.155656   2.141234   2.787269   7.171027
    19  H    5.686503   2.170847   2.135699   3.452102   6.855439
    20  H    2.009499   6.364855   6.193167   6.337642   2.164909
    21  H    2.046626   6.907011   6.294903   6.576782   2.158519
    22  H    4.481203   1.086843   2.792443   2.159794   4.920634
    23  H    6.148700   1.085668   3.445212   2.154168   6.380946
    24  H    5.043896   3.448358   1.081261   3.824416   6.522447
    25  H    3.519631   2.793307   1.084145   3.292821   5.029697
    26  H    6.096439   2.149200   3.285107   1.086638   6.018129
    27  H    5.254219   2.176251   3.838323   1.084594   4.707937
    28  H    3.347338   6.506847   6.740965   5.935687   1.086191
    29  H    2.723631   4.870601   5.384834   4.502060   1.086033
    30  H    3.828009   5.256498   5.459282   4.205945   2.172110
    31  H    3.295854   6.317869   5.885143   5.429820   2.151711
                   11         12         13         14         15
    11  O    0.000000
    12  O    2.313736   0.000000
    13  C    4.378777   2.403288   0.000000
    14  H    4.263284   3.340977   2.774716   0.000000
    15  H    2.987388   2.635498   3.443443   1.760304   0.000000
    16  H    1.979611   2.028535   3.435492   4.435133   3.848428
    17  H    2.788937   2.051998   2.154244   2.403142   2.508486
    18  H    2.728452   4.273549   6.651184   6.744717   5.194517
    19  H    3.354841   4.330352   6.685246   6.523190   4.845018
    20  H    6.184948   4.261685   3.454385   3.576779   4.015718
    21  H    5.989190   4.241133   2.800127   2.412642   3.574358
    22  H    3.296778   2.809493   4.961097   5.667222   4.375084
    23  H    3.841759   4.003432   6.214580   7.107132   5.776721
    24  H    2.003716   3.856442   5.953472   5.089832   3.436139
    25  H    2.055503   2.676153   4.755847   4.106667   2.403558
    26  H    2.715973   3.282926   5.287361   6.373201   5.328080
    27  H    3.336564   2.554952   4.249625   5.878315   5.076371
    28  H    6.235178   4.003158   2.163793   4.028855   4.850232
    29  H    5.073273   2.780973   2.162546   3.971120   4.112885
    30  H    4.535002   2.598418   1.085188   3.775569   4.270843
    31  H    5.018348   3.321942   1.087471   2.622532   3.782472
                   16         17         18         19         20
    16  H    0.000000
    17  H    2.183864   0.000000
    18  H    4.009110   5.438753   0.000000
    19  H    4.848647   5.788446   1.753077   0.000000
    20  H    6.157862   4.846661   7.897000   7.121065   0.000000
    21  H    5.804709   4.023779   8.175008   7.677549   1.759099
    22  H    3.862099   4.776693   3.047920   2.460905   5.490502
    23  H    4.271025   5.796313   2.462717   2.545681   7.183373
    24  H    3.980405   4.410297   2.445905   2.518850   6.918354
    25  H    3.665649   3.748990   3.041505   2.442759   5.269831
    26  H    2.371193   4.422125   2.629400   3.788503   7.383352
    27  H    2.528389   4.131577   3.796985   4.303781   6.159825
    28  H    5.403212   4.276917   8.183432   7.890969   2.524687
    29  H    4.480321   3.851780   6.671394   6.280557   2.441202
    30  H    3.165510   2.528021   6.649220   6.880434   4.295783
    31  H    4.071219   2.396998   7.478028   7.561441   3.807532
                   21         22         23         24         25
    21  H    0.000000
    22  H    6.229480   0.000000
    23  H    7.847746   1.746398   0.000000
    24  H    6.897781   3.801371   4.288442   0.000000
    25  H    5.485115   2.652358   3.797922   1.753798   0.000000
    26  H    7.515388   3.047843   2.445105   4.055521   3.972142
    27  H    6.483473   2.478420   2.535401   4.843949   4.083747
    28  H    2.452110   5.853818   7.254319   7.599565   6.114645
    29  H    3.044582   4.146992   5.584299   6.334433   4.762866
    30  H    3.810963   5.010304   6.029713   6.310091   5.217354
    31  H    2.661156   5.985845   7.233383   6.555568   5.478919
                   26         27         28         29         30
    26  H    0.000000
    27  H    1.750425   0.000000
    28  H    6.858151   5.450066   0.000000
    29  H    5.511416   4.049084   1.749491   0.000000
    30  H    4.898476   3.777537   2.551125   2.469545   0.000000
    31  H    6.145049   5.238967   2.444629   3.049724   1.750662
                   31
    31  H    0.000000
 Stoichiometry    C10H18O3
 Framework group  C1[X(C10H18O3)]
 Deg. of freedom    87
 Full point group                 C1      NOp   1
 Largest Abelian subgroup         C1      NOp   1
 Largest concise Abelian subgroup C1      NOp   1
                         Standard orientation:                         
 ---------------------------------------------------------------------
 Center     Atomic      Atomic             Coordinates (Angstroms)
 Number     Number       Type             X           Y           Z
 ---------------------------------------------------------------------
      1          6           0       -1.591154    1.229970   -0.632588
      2          6           0        1.205686   -0.744257   -0.762820
      3          6           0       -1.124305   -0.185385   -0.935191
      4          6           0        3.242900    0.709522    0.693562
      5          6           0       -3.225081    0.505369    0.911893
      6          8           0       -2.106692    1.342062    0.677181
      7          6           0        2.659738   -0.565773    1.301240
      8          6           0        2.223995    1.360337   -0.226364
      9          6           0        2.145336   -1.474676    0.184545
     10          6           0       -2.862108   -0.958848    0.718640
     11          8           0        1.770099    0.455976   -1.225897
     12          8           0       -0.010272   -0.519175   -0.115611
     13          6           0       -2.254700   -1.176411   -0.669123
     14          1           0       -2.358604    1.511416   -1.350181
     15          1           0       -0.774694    1.932509   -0.707858
     16          1           0        1.032774   -1.330453   -1.654714
     17          1           0       -0.826683   -0.231168   -1.976047
     18          1           0        4.139821    0.471478    0.126371
     19          1           0        3.524179    1.418630    1.466956
     20          1           0       -3.546005    0.703240    1.925529
     21          1           0       -4.028149    0.792366    0.236144
     22          1           0        1.849831   -0.310490    1.979554
     23          1           0        3.409873   -1.089804    1.885504
     24          1           0        2.650900    2.195512   -0.764287
     25          1           0        1.376345    1.723123    0.343940
     26          1           0        2.985466   -1.830257   -0.405816
     27          1           0        1.634889   -2.345512    0.581323
     28          1           0       -3.753086   -1.567726    0.842073
     29          1           0       -2.157874   -1.257030    1.489750
     30          1           0       -1.885362   -2.190753   -0.780173
     31          1           0       -3.020539   -1.025065   -1.426209
 ---------------------------------------------------------------------
 Rotational constants (GHZ):           1.5715584           0.4767402           0.4519763
 Standard basis: 6-311++G(2d,2p) (5D, 7F)
 There are   557 symmetry adapted cartesian basis functions of A   symmetry.
 There are   531 symmetry adapted basis functions of A   symmetry.
   531 basis functions,   762 primitive gaussians,   557 cartesian basis functions
    51 alpha electrons       51 beta electrons
       nuclear repulsion energy       907.7432498170 Hartrees.
 NAtoms=   31 NActive=   31 NUniq=   31 SFac= 1.00D+00 NAtFMM=   60 NAOKFM=F Big=F
 Integral buffers will be    131072 words long.
 Raffenetti 2 integral format.
 Two-electron integral symmetry is turned on.
 ------------------------------------------------------------------------------
 Polarizable Continuum Model (PCM)
 =================================
 Model                : PCM.
 Atomic radii         : SMD-Coulomb.
 Polarization charges : Total charges.
 Charge compensation  : None.
 Solution method      : On-the-fly selection.
 Cavity type          : VdW (van der Waals Surface) (Alpha=1.000).
 Cavity algorithm     : GePol (No added spheres)
                        Default sphere list used, NSphG=   31.
                        Lebedev-Laikov grids with approx.  5.0 points / Ang**2.
                        Smoothing algorithm: York/Karplus (Gamma=1.0000).
                        Polarization charges: spherical gaussians, with
                                              point-specific exponents (IZeta= 3).
                        Self-potential: point-specific (ISelfS= 7).
                        Self-field    : sphere-specific E.n sum rule (ISelfD= 2).
 1st derivatives      : Analytical E(r).r(x)/FMM algorithm (CHGder, D1EAlg=3).
                        Cavity 1st derivative terms included.
 Solvent              : Water, Eps=  78.355300 Eps(inf)=   1.777849
 ------------------------------------------------------------------------------
 ------------------------------------------------------------------------------
 Atomic radii for non-electrostatic terms: SMD-CDS.
 ------------------------------------------------------------------------------
 Nuclear repulsion after PCM non-electrostatic terms =      907.7496172821 Hartrees.
 One-electron integrals computed using PRISM.
 NBasis=   531 RedAO= T EigKep=  4.24D-06  NBF=   531
 NBsUse=   531 1.00D-06 EigRej= -1.00D+00 NBFU=   531
 ExpMin= 3.60D-02 ExpMax= 8.59D+03 ExpMxC= 1.30D+03 IAcc=3 IRadAn=         5 AccDes= 0.00D+00
 Harris functional with IExCor= 1009 and IRadAn=       5 diagonalized for initial guess.
 HarFok:  IExCor= 1009 AccDes= 0.00D+00 IRadAn=         5 IDoV= 1 UseB2=F ITyADJ=14
 ICtDFT=  3500011 ScaDFX=  1.000000  1.000000  1.000000  1.000000
 FoFCou: FMM=F IPFlag=           0 FMFlag=      100000 FMFlg1=           0
         NFxFlg=           0 DoJE=T BraDBF=F KetDBF=T FulRan=T
         wScrn=  0.000000 ICntrl=       500 IOpCl=  0 I1Cent=   200000004 NGrid=           0
         NMat0=    1 NMatS0=      1 NMatT0=    0 NMatD0=    1 NMtDS0=    0 NMtDT0=    0
 Petite list used in FoFCou.
 Requested convergence on RMS density matrix=1.00D-08 within 128 cycles.
 Requested convergence on MAX density matrix=1.00D-06.
 Requested convergence on             energy=1.00D-06.
 No special actions if energy rises.
 Inv3:  Mode=1 IEnd=    12607500.
 Iteration    1 A*A^-1 deviation from unit magnitude is 6.88D-15 for    509.
 Iteration    1 A*A^-1 deviation from orthogonality  is 3.71D-15 for    235    215.
 Iteration    1 A^-1*A deviation from unit magnitude is 5.11D-15 for    509.
 Iteration    1 A^-1*A deviation from orthogonality  is 6.52D-13 for   1508   1436.
 Error on total polarization charges =  0.06064
 SCF Done:  E(RM062X) =  -617.506549206     A.U. after   12 cycles
            NFock= 12  Conv=0.49D-08     -V/T= 2.0035
 SMD-CDS (non-electrostatic) energy       (kcal/mol) =       4.00
 (included in total energy above)

 **********************************************************************

            Population analysis using the SCF Density.

 **********************************************************************

 Orbital symmetries:
       Occupied  (A) (A) (A) (A) (A) (A) (A) (A) (A) (A) (A) (A)
                 (A) (A) (A) (A) (A) (A) (A) (A) (A) (A) (A) (A)
                 (A) (A) (A) (A) (A) (A) (A) (A) (A) (A) (A) (A)
                 (A) (A) (A) (A) (A) (A) (A) (A) (A) (A) (A) (A)
                 (A) (A) (A)
       Virtual   (A) (A) (A) (A) (A) (A) (A) (A) (A) (A) (A) (A)
                 (A) (A) (A) (A) (A) (A) (A) (A) (A) (A) (A) (A)
                 (A) (A) (A) (A) (A) (A) (A) (A) (A) (A) (A) (A)
                 (A) (A) (A) (A) (A) (A) (A) (A) (A) (A) (A) (A)
                 (A) (A) (A) (A) (A) (A) (A) (A) (A) (A) (A) (A)
                 (A) (A) (A) (A) (A) (A) (A) (A) (A) (A) (A) (A)
                 (A) (A) (A) (A) (A) (A) (A) (A) (A) (A) (A) (A)
                 (A) (A) (A) (A) (A) (A) (A) (A) (A) (A) (A) (A)
                 (A) (A) (A) (A) (A) (A) (A) (A) (A) (A) (A) (A)
                 (A) (A) (A) (A) (A) (A) (A) (A) (A) (A) (A) (A)
                 (A) (A) (A) (A) (A) (A) (A) (A) (A) (A) (A) (A)
                 (A) (A) (A) (A) (A) (A) (A) (A) (A) (A) (A) (A)
                 (A) (A) (A) (A) (A) (A) (A) (A) (A) (A) (A) (A)
                 (A) (A) (A) (A) (A) (A) (A) (A) (A) (A) (A) (A)
                 (A) (A) (A) (A) (A) (A) (A) (A) (A) (A) (A) (A)
                 (A) (A) (A) (A) (A) (A) (A) (A) (A) (A) (A) (A)
                 (A) (A) (A) (A) (A) (A) (A) (A) (A) (A) (A) (A)
                 (A) (A) (A) (A) (A) (A) (A) (A) (A) (A) (A) (A)
                 (A) (A) (A) (A) (A) (A) (A) (A) (A) (A) (A) (A)
                 (A) (A) (A) (A) (A) (A) (A) (A) (A) (A) (A) (A)
                 (A) (A) (A) (A) (A) (A) (A) (A) (A) (A) (A) (A)
                 (A) (A) (A) (A) (A) (A) (A) (A) (A) (A) (A) (A)
                 (A) (A) (A) (A) (A) (A) (A) (A) (A) (A) (A) (A)
                 (A) (A) (A) (A) (A) (A) (A) (A) (A) (A) (A) (A)
                 (A) (A) (A) (A) (A) (A) (A) (A) (A) (A) (A) (A)
                 (A) (A) (A) (A) (A) (A) (A) (A) (A) (A) (A) (A)
                 (A) (A) (A) (A) (A) (A) (A) (A) (A) (A) (A) (A)
                 (A) (A) (A) (A) (A) (A) (A) (A) (A) (A) (A) (A)
                 (A) (A) (A) (A) (A) (A) (A) (A) (A) (A) (A) (A)
                 (A) (A) (A) (A) (A) (A) (A) (A) (A) (A) (A) (A)
                 (A) (A) (A) (A) (A) (A) (A) (A) (A) (A) (A) (A)
                 (A) (A) (A) (A) (A) (A) (A) (A) (A) (A) (A) (A)
                 (A) (A) (A) (A) (A) (A) (A) (A) (A) (A) (A) (A)
                 (A) (A) (A) (A) (A) (A) (A) (A) (A) (A) (A) (A)
                 (A) (A) (A) (A) (A) (A) (A) (A) (A) (A) (A) (A)
                 (A) (A) (A) (A) (A) (A) (A) (A) (A) (A) (A) (A)
                 (A) (A) (A) (A) (A) (A) (A) (A) (A) (A) (A) (A)
                 (A) (A) (A) (A) (A) (A) (A) (A) (A) (A) (A) (A)
                 (A) (A) (A) (A) (A) (A) (A) (A) (A) (A) (A) (A)
                 (A) (A) (A) (A) (A) (A) (A) (A) (A) (A) (A) (A)
 The electronic state is 1-A.
 Alpha  occ. eigenvalues --  -19.62843 -19.62809 -19.62721 -10.63001 -10.58166
 Alpha  occ. eigenvalues --  -10.57202 -10.57110 -10.57070 -10.52406 -10.52311
 Alpha  occ. eigenvalues --  -10.52265 -10.52166 -10.52062  -1.20167  -1.16541
 Alpha  occ. eigenvalues --   -1.13414  -0.90427  -0.89134  -0.86892  -0.84251
 Alpha  occ. eigenvalues --   -0.74041  -0.73489  -0.72755  -0.71451  -0.65909
 Alpha  occ. eigenvalues --   -0.62417  -0.59697  -0.57652  -0.57541  -0.54835
 Alpha  occ. eigenvalues --   -0.54421  -0.53082  -0.51824  -0.50434  -0.49519
 Alpha  occ. eigenvalues --   -0.47814  -0.46772  -0.45458  -0.45283  -0.44442
 Alpha  occ. eigenvalues --   -0.43192  -0.42661  -0.41257  -0.39332  -0.38396
 Alpha  occ. eigenvalues --   -0.37831  -0.37107  -0.35586  -0.35352  -0.33164
 Alpha  occ. eigenvalues --   -0.31546
 Alpha virt. eigenvalues --    0.00341   0.01304   0.01349   0.01557   0.02676
 Alpha virt. eigenvalues --    0.03005   0.03146   0.03687   0.03833   0.05141
 Alpha virt. eigenvalues --    0.05260   0.05339   0.05733   0.06213   0.07688
 Alpha virt. eigenvalues --    0.08054   0.08511   0.08858   0.09116   0.09552
 Alpha virt. eigenvalues --    0.09948   0.11349   0.11862   0.12068   0.12497
 Alpha virt. eigenvalues --    0.12956   0.13469   0.13495   0.13616   0.13964
 Alpha virt. eigenvalues --    0.14404   0.14608   0.14736   0.14853   0.15211
 Alpha virt. eigenvalues --    0.15636   0.15758   0.16112   0.16433   0.16788
 Alpha virt. eigenvalues --    0.16883   0.17429   0.17669   0.17946   0.18315
 Alpha virt. eigenvalues --    0.18683   0.19210   0.19511   0.19684   0.20043
 Alpha virt. eigenvalues --    0.20295   0.21090   0.21159   0.21412   0.21566
 Alpha virt. eigenvalues --    0.22355   0.22509   0.23025   0.24090   0.24253
 Alpha virt. eigenvalues --    0.25093   0.26060   0.26724   0.27123   0.27691
 Alpha virt. eigenvalues --    0.27971   0.28514   0.28884   0.29244   0.29867
 Alpha virt. eigenvalues --    0.30380   0.30797   0.31109   0.32072   0.32562
 Alpha virt. eigenvalues --    0.33354   0.33772   0.34319   0.34514   0.34903
 Alpha virt. eigenvalues --    0.35306   0.35644   0.36154   0.36609   0.36892
 Alpha virt. eigenvalues --    0.37264   0.37762   0.37827   0.37896   0.38904
 Alpha virt. eigenvalues --    0.39025   0.39578   0.40229   0.40548   0.41090
 Alpha virt. eigenvalues --    0.41774   0.43118   0.43850   0.44672   0.45366
 Alpha virt. eigenvalues --    0.46839   0.48000   0.49673   0.50946   0.51682
 Alpha virt. eigenvalues --    0.52227   0.53283   0.53497   0.54461   0.56243
 Alpha virt. eigenvalues --    0.56852   0.58045   0.58847   0.60125   0.60383
 Alpha virt. eigenvalues --    0.60920   0.61179   0.61511   0.62209   0.62747
 Alpha virt. eigenvalues --    0.63291   0.63507   0.63801   0.64145   0.64753
 Alpha virt. eigenvalues --    0.65173   0.66222   0.66915   0.67263   0.67516
 Alpha virt. eigenvalues --    0.68232   0.68870   0.69530   0.70447   0.71029
 Alpha virt. eigenvalues --    0.71376   0.72260   0.72477   0.72757   0.73650
 Alpha virt. eigenvalues --    0.74492   0.75002   0.75135   0.75352   0.76533
 Alpha virt. eigenvalues --    0.77250   0.77802   0.78539   0.79608   0.79980
 Alpha virt. eigenvalues --    0.80511   0.81871   0.84231   0.85522   0.86454
 Alpha virt. eigenvalues --    0.87169   0.87432   0.88797   0.89904   0.90507
 Alpha virt. eigenvalues --    0.91129   0.92667   0.94242   0.95790   0.97049
 Alpha virt. eigenvalues --    0.98046   0.99566   1.00085   1.01594   1.01994
 Alpha virt. eigenvalues --    1.03227   1.04058   1.04886   1.06051   1.06559
 Alpha virt. eigenvalues --    1.08724   1.09942   1.10269   1.11291   1.12804
 Alpha virt. eigenvalues --    1.13801   1.14620   1.15118   1.16613   1.17402
 Alpha virt. eigenvalues --    1.18256   1.19284   1.20021   1.20530   1.20949
 Alpha virt. eigenvalues --    1.21809   1.22846   1.23737   1.24390   1.25331
 Alpha virt. eigenvalues --    1.26110   1.26601   1.26970   1.27588   1.28165
 Alpha virt. eigenvalues --    1.29901   1.30169   1.31296   1.31897   1.32629
 Alpha virt. eigenvalues --    1.33644   1.33830   1.34175   1.35344   1.35687
 Alpha virt. eigenvalues --    1.36176   1.36285   1.37241   1.37958   1.38518
 Alpha virt. eigenvalues --    1.39298   1.39743   1.40688   1.41751   1.41867
 Alpha virt. eigenvalues --    1.42332   1.43536   1.43556   1.44773   1.45607
 Alpha virt. eigenvalues --    1.46281   1.47001   1.48119   1.48472   1.49115
 Alpha virt. eigenvalues --    1.49631   1.50027   1.51038   1.52240   1.52284
 Alpha virt. eigenvalues --    1.53593   1.54804   1.55291   1.55583   1.56671
 Alpha virt. eigenvalues --    1.57116   1.57746   1.58093   1.58270   1.59765
 Alpha virt. eigenvalues --    1.59864   1.60780   1.61034   1.61690   1.62340
 Alpha virt. eigenvalues --    1.62718   1.64844   1.65344   1.66460   1.66772
 Alpha virt. eigenvalues --    1.68239   1.69146   1.70316   1.71446   1.72242
 Alpha virt. eigenvalues --    1.73267   1.74439   1.76673   1.77279   1.78161
 Alpha virt. eigenvalues --    1.80052   1.80347   1.81520   1.82753   1.84215
 Alpha virt. eigenvalues --    1.87465   1.88145   1.93473   1.97492   1.98596
 Alpha virt. eigenvalues --    2.05167   2.08162   2.12126   2.19129   2.22977
 Alpha virt. eigenvalues --    2.23703   2.27800   2.31885   2.33028   2.41095
 Alpha virt. eigenvalues --    2.41581   2.42361   2.44948   2.46685   2.51004
 Alpha virt. eigenvalues --    2.60399   2.77349   2.78452   2.80159   2.80686
 Alpha virt. eigenvalues --    2.82927   2.87617   2.91879   2.93693   2.94300
 Alpha virt. eigenvalues --    2.95497   2.97753   3.00184   3.01590   3.04308
 Alpha virt. eigenvalues --    3.06989   3.07676   3.09799   3.12140   3.12392
 Alpha virt. eigenvalues --    3.13356   3.14899   3.17551   3.20709   3.21337
 Alpha virt. eigenvalues --    3.25072   3.30388   3.32097   3.33696   3.35004
 Alpha virt. eigenvalues --    3.35710   3.37193   3.38695   3.40385   3.41233
 Alpha virt. eigenvalues --    3.43431   3.44464   3.45230   3.46424   3.47686
 Alpha virt. eigenvalues --    3.49311   3.49824   3.50455   3.52314   3.52843
 Alpha virt. eigenvalues --    3.53058   3.53740   3.55084   3.55996   3.57199
 Alpha virt. eigenvalues --    3.57887   3.58224   3.58871   3.59858   3.60229
 Alpha virt. eigenvalues --    3.61382   3.61796   3.64020   3.65110   3.66011
 Alpha virt. eigenvalues --    3.67106   3.67886   3.68890   3.69010   3.70145
 Alpha virt. eigenvalues --    3.70466   3.70601   3.72061   3.73109   3.74664
 Alpha virt. eigenvalues --    3.75344   3.75434   3.75644   3.77731   3.78153
 Alpha virt. eigenvalues --    3.79023   3.80061   3.82840   3.83388   3.86140
 Alpha virt. eigenvalues --    3.86342   3.89246   3.89882   3.92430   3.92768
 Alpha virt. eigenvalues --    3.93900   3.94613   3.95403   3.97321   3.98265
 Alpha virt. eigenvalues --    3.99175   4.00262   4.03681   4.04157   4.04619
 Alpha virt. eigenvalues --    4.05306   4.06527   4.07512   4.07998   4.08589
 Alpha virt. eigenvalues --    4.09062   4.09159   4.09304   4.10571   4.11466
 Alpha virt. eigenvalues --    4.12331   4.12877   4.14423   4.15312   4.15919
 Alpha virt. eigenvalues --    4.16320   4.17926   4.19097   4.20362   4.21313
 Alpha virt. eigenvalues --    4.22466   4.23260   4.24352   4.26333   4.28319
 Alpha virt. eigenvalues --    4.29845   4.30530   4.31320   4.32034   4.33286
 Alpha virt. eigenvalues --    4.33691   4.34096   4.34711   4.35457   4.37307
 Alpha virt. eigenvalues --    4.42111   4.43483   4.45297   4.47118   4.47457
 Alpha virt. eigenvalues --    4.58370   4.63158   4.74761   4.76940   4.82725
 Alpha virt. eigenvalues --    4.85778   4.94885   4.96301   5.00733   5.04422
 Alpha virt. eigenvalues --    5.07401   5.07905   5.08529   5.08929   5.12440
 Alpha virt. eigenvalues --    5.13228   5.14600   5.14868   5.32347   5.39393
 Alpha virt. eigenvalues --    5.44750   5.57522   5.60013   5.64993   5.86469
 Alpha virt. eigenvalues --    5.87549   6.08271   7.02029   7.04325   7.06873
 Alpha virt. eigenvalues --    7.09919   7.10009   7.12928   7.16850   7.18740
 Alpha virt. eigenvalues --    7.27451   7.36414   7.38257   7.43470   7.53661
 Alpha virt. eigenvalues --    7.54893   7.67313  23.96251  23.99331  24.07097
 Alpha virt. eigenvalues --   24.08527  24.11582  24.12193  24.14865  24.15849
 Alpha virt. eigenvalues --   24.17405  24.21564  50.14974  50.18246  50.26760
          Condensed to atoms (all electrons):
               1          2          3          4          5          6
     1  C    7.022177   0.378919  -1.384311   0.040511  -0.355249   0.135594
     2  C    0.378919   7.080710  -1.107089   0.147267  -0.040594   0.014178
     3  C   -1.384311  -1.107089   8.309607   0.008434   0.361238  -0.018468
     4  C    0.040511   0.147267   0.008434   5.926302  -0.006797   0.001409
     5  C   -0.355249  -0.040594   0.361238  -0.006797   5.458831   0.065934
     6  O    0.135594   0.014178  -0.018468   0.001409   0.065934   8.322830
     7  C   -0.006184  -0.070354  -0.003664  -0.097914  -0.000952   0.002074
     8  C   -0.109194  -0.488018   0.194348  -0.190639   0.015299  -0.010245
     9  C   -0.166302  -0.860123   0.253452  -0.062025   0.015876  -0.001874
    10  C    0.126522   0.162438  -0.520244   0.001434  -0.001936   0.019578
    11  O   -0.089227   0.297789   0.059613  -0.084200   0.001601  -0.002762
    12  O   -0.075420   0.167535  -0.071756  -0.014417  -0.011094   0.032246
    13  C    0.151694   0.054677  -0.533824   0.007940  -0.104271  -0.006359
    14  H    0.444440   0.016267  -0.064001   0.005492  -0.005160  -0.043270
    15  H    0.472055   0.007834  -0.077386  -0.023363   0.004770  -0.076663
    16  H    0.013740   0.518337  -0.031898   0.005353   0.001960   0.000111
    17  H    0.000462  -0.059526   0.472963   0.008864  -0.007077   0.006779
    18  H    0.003644   0.029963  -0.010240   0.480983  -0.000225   0.000001
    19  H    0.003191  -0.006093  -0.000013   0.443378  -0.000024   0.000046
    20  H   -0.007933  -0.001104   0.011569  -0.000006   0.446277  -0.063566
    21  H   -0.032783   0.001156   0.032014  -0.000123   0.473960  -0.056953
    22  H    0.006921  -0.007839  -0.016234  -0.062563  -0.001022  -0.000019
    23  H   -0.002526   0.011080   0.004755  -0.028982   0.000177   0.000095
    24  H   -0.001657  -0.006827   0.006977  -0.006491   0.000625  -0.000029
    25  H   -0.035198   0.011787  -0.013775  -0.074384  -0.001252   0.002097
    26  H   -0.005271  -0.158970   0.007026  -0.009656   0.000161  -0.000172
    27  H    0.004713  -0.010340  -0.003065  -0.010982   0.001716   0.000835
    28  H   -0.008276   0.006549  -0.012068   0.000071  -0.030692   0.009679
    29  H    0.021940  -0.004990  -0.033763   0.003038  -0.089819  -0.012682
    30  H   -0.012985  -0.002048   0.028607   0.000240   0.000967  -0.002154
    31  H    0.000489  -0.004826  -0.078980  -0.000711  -0.007472   0.000096
               7          8          9         10         11         12
     1  C   -0.006184  -0.109194  -0.166302   0.126522  -0.089227  -0.075420
     2  C   -0.070354  -0.488018  -0.860123   0.162438   0.297789   0.167535
     3  C   -0.003664   0.194348   0.253452  -0.520244   0.059613  -0.071756
     4  C   -0.097914  -0.190639  -0.062025   0.001434  -0.084200  -0.014417
     5  C   -0.000952   0.015299   0.015876  -0.001936   0.001601  -0.011094
     6  O    0.002074  -0.010245  -0.001874   0.019578  -0.002762   0.032246
     7  C    5.739499   0.063636  -0.160049  -0.003155  -0.002022   0.001177
     8  C    0.063636   5.585394   0.182737  -0.007141   0.124631   0.003776
     9  C   -0.160049   0.182737   6.555468  -0.016411  -0.066412  -0.036109
    10  C   -0.003155  -0.007141  -0.016411   5.694915  -0.003086   0.015252
    11  O   -0.002022   0.124631  -0.066412  -0.003086   8.262196  -0.033255
    12  O    0.001177   0.003776  -0.036109   0.015252  -0.033255   8.386632
    13  C    0.008053  -0.001614  -0.026861   0.034104   0.018601  -0.066610
    14  H   -0.002710  -0.007007   0.004636   0.029568   0.000222   0.013425
    15  H    0.008417   0.020444  -0.015084   0.005798   0.001609  -0.005777
    16  H    0.002535  -0.025888  -0.075246  -0.001702  -0.041539  -0.026596
    17  H   -0.005550   0.001025  -0.000547  -0.036766  -0.009065  -0.023105
    18  H   -0.023301  -0.087600  -0.026843   0.000213   0.001420  -0.000707
    19  H   -0.038349  -0.038348   0.000147  -0.000252   0.009959   0.000986
    20  H   -0.000203  -0.000079   0.001491  -0.063498   0.000054   0.001761
    21  H   -0.000022   0.000151  -0.000444  -0.013710  -0.000074   0.001316
    22  H    0.507390  -0.003160  -0.044006   0.001015   0.001493   0.000664
    23  H    0.428960   0.012963  -0.051431  -0.001065  -0.004063   0.001538
    24  H    0.007100   0.422178   0.001123   0.000292  -0.066896  -0.000631
    25  H    0.003912   0.458696   0.010224   0.007243  -0.034001   0.017534
    26  H   -0.021504   0.013335   0.553079   0.000370  -0.008932   0.010225
    27  H   -0.027460   0.009219   0.411624  -0.000657   0.008200  -0.006343
    28  H   -0.000253   0.000165  -0.000662   0.448506  -0.000094   0.002212
    29  H    0.000130  -0.003300   0.001495   0.513439   0.000539   0.000864
    30  H   -0.000071   0.001419  -0.000009  -0.016971  -0.000319   0.001693
    31  H    0.001023   0.000640   0.002099  -0.035169   0.000044   0.004959
              13         14         15         16         17         18
     1  C    0.151694   0.444440   0.472055   0.013740   0.000462   0.003644
     2  C    0.054677   0.016267   0.007834   0.518337  -0.059526   0.029963
     3  C   -0.533824  -0.064001  -0.077386  -0.031898   0.472963  -0.010240
     4  C    0.007940   0.005492  -0.023363   0.005353   0.008864   0.480983
     5  C   -0.104271  -0.005160   0.004770   0.001960  -0.007077  -0.000225
     6  O   -0.006359  -0.043270  -0.076663   0.000111   0.006779   0.000001
     7  C    0.008053  -0.002710   0.008417   0.002535  -0.005550  -0.023301
     8  C   -0.001614  -0.007007   0.020444  -0.025888   0.001025  -0.087600
     9  C   -0.026861   0.004636  -0.015084  -0.075246  -0.000547  -0.026843
    10  C    0.034104   0.029568   0.005798  -0.001702  -0.036766   0.000213
    11  O    0.018601   0.000222   0.001609  -0.041539  -0.009065   0.001420
    12  O   -0.066610   0.013425  -0.005777  -0.026596  -0.023105  -0.000707
    13  C    6.140237  -0.026391   0.004698   0.005295  -0.012573   0.000334
    14  H   -0.026391   0.458857  -0.013713   0.000289  -0.008598   0.000135
    15  H    0.004698  -0.013713   0.478453  -0.000081  -0.003429   0.000321
    16  H    0.005295   0.000289  -0.000081   0.421391   0.001322   0.002073
    17  H   -0.012573  -0.008598  -0.003429   0.001322   0.428079  -0.000915
    18  H    0.000334   0.000135   0.000321   0.002073  -0.000915   0.479621
    19  H   -0.000042  -0.000128   0.000383   0.000423   0.000306  -0.011686
    20  H    0.018441  -0.001051   0.000181   0.000096   0.000031  -0.000013
    21  H   -0.048541   0.003898  -0.001756  -0.000206   0.000371   0.000003
    22  H    0.001851   0.000296   0.000233  -0.001573  -0.000548   0.001716
    23  H    0.000256  -0.000097   0.000176   0.001297   0.000140  -0.002159
    24  H    0.000736   0.000213  -0.001710  -0.000686   0.000240  -0.007880
    25  H   -0.004324   0.001273  -0.005795   0.001146  -0.004104   0.004995
    26  H    0.004134   0.000174  -0.000517  -0.012289   0.001036  -0.003744
    27  H   -0.007638  -0.000112   0.000190  -0.006307  -0.001571  -0.001781
    28  H   -0.041334   0.000342   0.000886   0.000194  -0.000971  -0.000007
    29  H   -0.021432  -0.000983  -0.000843  -0.000265   0.000489   0.000057
    30  H    0.379166  -0.001274  -0.000377  -0.005415  -0.004430  -0.000109
    31  H    0.499917  -0.004173  -0.000492   0.000744  -0.004573  -0.000015
              19         20         21         22         23         24
     1  C    0.003191  -0.007933  -0.032783   0.006921  -0.002526  -0.001657
     2  C   -0.006093  -0.001104   0.001156  -0.007839   0.011080  -0.006827
     3  C   -0.000013   0.011569   0.032014  -0.016234   0.004755   0.006977
     4  C    0.443378  -0.000006  -0.000123  -0.062563  -0.028982  -0.006491
     5  C   -0.000024   0.446277   0.473960  -0.001022   0.000177   0.000625
     6  O    0.000046  -0.063566  -0.056953  -0.000019   0.000095  -0.000029
     7  C   -0.038349  -0.000203  -0.000022   0.507390   0.428960   0.007100
     8  C   -0.038348  -0.000079   0.000151  -0.003160   0.012963   0.422178
     9  C    0.000147   0.001491  -0.000444  -0.044006  -0.051431   0.001123
    10  C   -0.000252  -0.063498  -0.013710   0.001015  -0.001065   0.000292
    11  O    0.009959   0.000054  -0.000074   0.001493  -0.004063  -0.066896
    12  O    0.000986   0.001761   0.001316   0.000664   0.001538  -0.000631
    13  C   -0.000042   0.018441  -0.048541   0.001851   0.000256   0.000736
    14  H   -0.000128  -0.001051   0.003898   0.000296  -0.000097   0.000213
    15  H    0.000383   0.000181  -0.001756   0.000233   0.000176  -0.001710
    16  H    0.000423   0.000096  -0.000206  -0.001573   0.001297  -0.000686
    17  H    0.000306   0.000031   0.000371  -0.000548   0.000140   0.000240
    18  H   -0.011686  -0.000013   0.000003   0.001716  -0.002159  -0.007880
    19  H    0.478637  -0.000041   0.000013  -0.004601  -0.005829  -0.009277
    20  H   -0.000041   0.466737  -0.003554   0.000096   0.000037   0.000023
    21  H    0.000013  -0.003554   0.478142  -0.000100  -0.000016   0.000017
    22  H   -0.004601   0.000096  -0.000100   0.455025  -0.006979  -0.002550
    23  H   -0.005829   0.000037  -0.000016  -0.006979   0.460518   0.001842
    24  H   -0.009277   0.000023   0.000017  -0.002550   0.001842   0.464966
    25  H   -0.000759   0.000562   0.000149  -0.000343  -0.001491  -0.020165
    26  H   -0.002330   0.000010  -0.000019   0.001366  -0.002370   0.000686
    27  H    0.001360   0.000037   0.000068  -0.001763  -0.007651   0.000723
    28  H   -0.000001  -0.009110   0.004556   0.000239  -0.000068   0.000028
    29  H    0.000049  -0.002665  -0.000398  -0.001743   0.000380  -0.000036
    30  H    0.000024   0.000785  -0.000429  -0.000369  -0.000024   0.000126
    31  H    0.000022  -0.001460  -0.003432  -0.000043   0.000107  -0.000002
              25         26         27         28         29         30
     1  C   -0.035198  -0.005271   0.004713  -0.008276   0.021940  -0.012985
     2  C    0.011787  -0.158970  -0.010340   0.006549  -0.004990  -0.002048
     3  C   -0.013775   0.007026  -0.003065  -0.012068  -0.033763   0.028607
     4  C   -0.074384  -0.009656  -0.010982   0.000071   0.003038   0.000240
     5  C   -0.001252   0.000161   0.001716  -0.030692  -0.089819   0.000967
     6  O    0.002097  -0.000172   0.000835   0.009679  -0.012682  -0.002154
     7  C    0.003912  -0.021504  -0.027460  -0.000253   0.000130  -0.000071
     8  C    0.458696   0.013335   0.009219   0.000165  -0.003300   0.001419
     9  C    0.010224   0.553079   0.411624  -0.000662   0.001495  -0.000009
    10  C    0.007243   0.000370  -0.000657   0.448506   0.513439  -0.016971
    11  O   -0.034001  -0.008932   0.008200  -0.000094   0.000539  -0.000319
    12  O    0.017534   0.010225  -0.006343   0.002212   0.000864   0.001693
    13  C   -0.004324   0.004134  -0.007638  -0.041334  -0.021432   0.379166
    14  H    0.001273   0.000174  -0.000112   0.000342  -0.000983  -0.001274
    15  H   -0.005795  -0.000517   0.000190   0.000886  -0.000843  -0.000377
    16  H    0.001146  -0.012289  -0.006307   0.000194  -0.000265  -0.005415
    17  H   -0.004104   0.001036  -0.001571  -0.000971   0.000489  -0.004430
    18  H    0.004995  -0.003744  -0.001781  -0.000007   0.000057  -0.000109
    19  H   -0.000759  -0.002330   0.001360  -0.000001   0.000049   0.000024
    20  H    0.000562   0.000010   0.000037  -0.009110  -0.002665   0.000785
    21  H    0.000149  -0.000019   0.000068   0.004556  -0.000398  -0.000429
    22  H   -0.000343   0.001366  -0.001763   0.000239  -0.001743  -0.000369
    23  H   -0.001491  -0.002370  -0.007651  -0.000068   0.000380  -0.000024
    24  H   -0.020165   0.000686   0.000723   0.000028  -0.000036   0.000126
    25  H    0.518089  -0.000551  -0.000465   0.000273  -0.000379  -0.000196
    26  H   -0.000551   0.441980  -0.006080   0.000110  -0.000028  -0.000008
    27  H   -0.000465  -0.006080   0.468595  -0.000207  -0.001442  -0.000292
    28  H    0.000273   0.000110  -0.000207   0.474498  -0.012002  -0.008888
    29  H   -0.000379  -0.000028  -0.001442  -0.012002   0.469901  -0.002067
    30  H   -0.000196  -0.000008  -0.000292  -0.008888  -0.002067   0.467877
    31  H   -0.000257  -0.000042   0.000006  -0.005429   0.002313   0.000007
              31
     1  C    0.000489
     2  C   -0.004826
     3  C   -0.078980
     4  C   -0.000711
     5  C   -0.007472
     6  O    0.000096
     7  C    0.001023
     8  C    0.000640
     9  C    0.002099
    10  C   -0.035169
    11  O    0.000044
    12  O    0.004959
    13  C    0.499917
    14  H   -0.004173
    15  H   -0.000492
    16  H    0.000744
    17  H   -0.004573
    18  H   -0.000015
    19  H    0.000022
    20  H   -0.001460
    21  H   -0.003432
    22  H   -0.000043
    23  H    0.000107
    24  H   -0.000002
    25  H   -0.000257
    26  H   -0.000042
    27  H    0.000006
    28  H   -0.005429
    29  H    0.002313
    30  H    0.000007
    31  H    0.429544
 Mulliken charges:
               1
     1  C   -0.534495
     2  C   -0.077746
     3  C    0.230172
     4  C   -0.407462
     5  C   -0.185756
     6  O   -0.318368
     7  C   -0.310190
     8  C   -0.137823
     9  C   -0.383012
    10  C   -0.338924
    11  O   -0.342024
    12  O   -0.291975
    13  C   -0.428320
    14  H    0.199140
    15  H    0.220538
    16  H    0.253383
    17  H    0.261240
    18  H    0.171744
    19  H    0.178850
    20  H    0.206097
    21  H    0.166746
    22  H    0.177149
    23  H    0.190429
    24  H    0.216942
    25  H    0.159459
    26  H    0.198790
    27  H    0.186869
    28  H    0.181752
    29  H    0.174204
    30  H    0.177524
    31  H    0.205066
 Sum of Mulliken charges =  -0.00000
 Mulliken charges with hydrogens summed into heavy atoms:
               1
     1  C   -0.114818
     2  C    0.175637
     3  C    0.491413
     4  C   -0.056868
     5  C    0.187087
     6  O   -0.318368
     7  C    0.057388
     8  C    0.238577
     9  C    0.002647
    10  C    0.017033
    11  O   -0.342024
    12  O   -0.291975
    13  C   -0.045730
 Electronic spatial extent (au):  <R**2>=           2758.0753
 Charge=             -0.0000 electrons
 Dipole moment (field-independent basis, Debye):
    X=             -0.7112    Y=             -1.8300    Z=             -1.0504  Tot=              2.2266
 Quadrupole moment (field-independent basis, Debye-Ang):
   XX=            -68.2332   YY=            -78.7972   ZZ=            -80.7272
   XY=              2.9859   XZ=              6.1224   YZ=             -0.3750
 Traceless Quadrupole moment (field-independent basis, Debye-Ang):
   XX=              7.6860   YY=             -2.8780   ZZ=             -4.8080
   XY=              2.9859   XZ=              6.1224   YZ=             -0.3750
 Octapole moment (field-independent basis, Debye-Ang**2):
  XXX=            -20.0788  YYY=             -0.3313  ZZZ=              0.7591  XYY=             12.8179
  XXY=             -4.6205  XXZ=              7.5808  XZZ=            -10.3050  YZZ=             -3.2555
  YYZ=             -7.6584  XYZ=              7.0624
 Hexadecapole moment (field-independent basis, Debye-Ang**3):
 XXXX=          -2458.7710 YYYY=           -617.1283 ZZZZ=           -457.9181 XXXY=              7.3150
 XXXZ=             -5.8709 YYYX=             18.4232 YYYZ=             -8.7613 ZZZX=             -1.5066
 ZZZY=              9.4388 XXYY=           -529.6459 XXZZ=           -503.8614 YYZZ=           -178.7761
 XXYZ=             -6.0565 YYXZ=              3.7211 ZZXY=             -6.5778
 N-N= 9.077496172821D+02 E-N=-3.258091944867D+03  KE= 6.153639077830D+02
 D1PCM: PCM CHGder 1st derivatives, ID1Alg=3 FixD1E=F DoIter=F DoCFld=F I1PDM=0.
 Calling FoFJK, ICntrl=      2127 FMM=F ISym2X=0 I1Cent= 0 IOpClX= 0 NMat=1 NMatS=1 NMatT=0.
 ***** Axes restored to original set *****
 -------------------------------------------------------------------
 Center     Atomic                   Forces (Hartrees/Bohr)
 Number     Number              X              Y              Z
 -------------------------------------------------------------------
      1        6          -0.001129029   -0.006393461   -0.001759437
      2        6           0.004144569   -0.002227048    0.005479236
      3        6          -0.003222025    0.000887817   -0.000091123
      4        6          -0.003138355   -0.000651554    0.000495560
      5        6           0.001555013   -0.006445946   -0.002754394
      6        8           0.005494477    0.006785085    0.008669465
      7        6          -0.000147168    0.001145097   -0.004152502
      8        6           0.003460308   -0.004549962    0.004771612
      9        6          -0.000803901    0.002621246    0.001666822
     10        6          -0.000309623    0.001986887   -0.002712529
     11        8           0.001551417    0.004173142   -0.013379307
     12        8          -0.003134159   -0.001054346    0.014274192
     13        6          -0.000030422    0.002966333    0.002463217
     14        1          -0.003887160    0.000711846   -0.004261267
     15        1           0.005481441    0.003036202   -0.000370385
     16        1          -0.000880602   -0.003578455   -0.006250976
     17        1           0.001592477   -0.000120559   -0.005811370
     18        1           0.002242931   -0.001085574   -0.002319893
     19        1           0.000562402    0.001776146    0.002000785
     20        1          -0.001240913    0.000608458    0.004262827
     21        1          -0.004053037    0.000634128   -0.004051713
     22        1          -0.003207696    0.001175526    0.001570619
     23        1           0.001820152   -0.001309593    0.001201116
     24        1           0.001791024    0.003481778   -0.002095000
     25        1          -0.005243104    0.001704000    0.004133303
     26        1           0.002494018   -0.000423503   -0.002188717
     27        1          -0.001876529   -0.002396124    0.001126664
     28        1          -0.002180158   -0.001547963    0.000210302
     29        1           0.002933040   -0.000341333    0.002377325
     30        1           0.001744929   -0.002711616   -0.000288571
     31        1          -0.002384315    0.001143349   -0.002215862
 -------------------------------------------------------------------
 Cartesian Forces:  Max     0.014274192 RMS     0.003642886

 GradGradGradGradGradGradGradGradGradGradGradGradGradGradGradGradGradGrad
 Berny optimization.
 FormGI is forming the generalized inverse of G from B-inverse, IUseBI=4.
 Internal  Forces:  Max     0.010450481 RMS     0.002157337
 Search for a local minimum.
 Step number   1 out of a maximum of  186
 All quantities printed in internal units (Hartrees-Bohrs-Radians)
 Mixed Optimization -- RFO/linear search
 Second derivative matrix not updated -- first step.
 ITU=  0
     Eigenvalues ---    0.00617   0.00631   0.00729   0.00735   0.01400
     Eigenvalues ---    0.01442   0.01748   0.02696   0.02814   0.03079
     Eigenvalues ---    0.03118   0.04094   0.04354   0.04673   0.04753
     Eigenvalues ---    0.04886   0.04889   0.05050   0.05140   0.05149
     Eigenvalues ---    0.05262   0.05697   0.05733   0.06185   0.06188
     Eigenvalues ---    0.06314   0.06690   0.06920   0.07571   0.07833
     Eigenvalues ---    0.07933   0.07936   0.07971   0.08107   0.08273
     Eigenvalues ---    0.08844   0.09297   0.09346   0.10708   0.11621
     Eigenvalues ---    0.11693   0.11718   0.11764   0.12407   0.12528
     Eigenvalues ---    0.14628   0.14790   0.15670   0.16522   0.17514
     Eigenvalues ---    0.19224   0.21325   0.21966   0.25000   0.28512
     Eigenvalues ---    0.28678   0.28775   0.28897   0.28972   0.29049
     Eigenvalues ---    0.30286   0.30349   0.35035   0.35078   0.35093
     Eigenvalues ---    0.35106   0.35180   0.35204   0.35241   0.35257
     Eigenvalues ---    0.35275   0.35318   0.35375   0.35445   0.35498
     Eigenvalues ---    0.35570   0.35816   0.35842   0.35849   0.36026
     Eigenvalues ---    0.40756   0.41390   0.42050   0.42173   0.43330
     Eigenvalues ---    0.463341000.000001000.000001000.000001000.00000
     Eigenvalues --- 1000.000001000.000001000.000001000.000001000.00000
     Eigenvalues --- 1000.000001000.000001000.000001000.000001000.00000
     Eigenvalues --- 1000.000001000.000001000.000001000.000001000.00000
     Eigenvalues --- 1000.000001000.000001000.000001000.000001000.00000
     Eigenvalues --- 1000.000001000.000001000.000001000.000001000.00000
     Eigenvalues --- 1000.000001000.000001000.000001000.000001000.00000
     Eigenvalues --- 1000.000001000.000001000.000001000.000001000.00000
     Eigenvalues --- 1000.000001000.000001000.000001000.000001000.00000
     Eigenvalues --- 1000.000001000.000001000.000001000.000001000.00000
     Eigenvalues --- 1000.000001000.000001000.000001000.000001000.00000
     Eigenvalues --- 1000.000001000.000001000.000001000.000001000.00000
     Eigenvalues --- 1000.000001000.000001000.000001000.000001000.00000
     Eigenvalues --- 1000.000001000.000001000.000001000.000001000.00000
     Eigenvalues --- 1000.000001000.000001000.000001000.000001000.00000
     Eigenvalues --- 1000.000001000.000001000.000001000.000001000.00000
     Eigenvalues --- 1000.000001000.000001000.000001000.000001000.00000
     Eigenvalues --- 1000.000001000.000001000.000001000.000001000.00000
     Eigenvalues --- 1000.000001000.000001000.000001000.000001000.00000
     Eigenvalues --- 1000.000001000.000001000.000001000.000001000.00000
 RFO step:  Lambda=-3.52366937D-03 EMin= 6.17383128D-03
 Linear search not attempted -- first point.
 Iteration  1 RMS(Cart)=  0.05780519 RMS(Int)=  0.00075057
 Iteration  2 RMS(Cart)=  0.00197431 RMS(Int)=  0.00004437
 Iteration  3 RMS(Cart)=  0.00000125 RMS(Int)=  0.00004436
 Iteration  4 RMS(Cart)=  0.00000000 RMS(Int)=  0.00004436
 Iteration  1 RMS(Cart)=  0.00000767 RMS(Int)=  0.00000176
 Iteration  2 RMS(Cart)=  0.00000426 RMS(Int)=  0.00000196
 Iteration  3 RMS(Cart)=  0.00000236 RMS(Int)=  0.00000222
 Iteration  4 RMS(Cart)=  0.00000131 RMS(Int)=  0.00000239
 Iteration  5 RMS(Cart)=  0.00000073 RMS(Int)=  0.00000250
 Variable       Old X    -DE/DX   Delta X   Delta X   Delta X     New X
                                 (Linear)    (Quad)   (Total)
    R1        2.87384  -0.00102   0.00000  -0.00366  -0.00364   2.87020
    R2        2.66836   0.00587   0.00000   0.01406   0.01408   2.68244
    R3        2.05549   0.00574   0.00000   0.01619   0.01619   2.07168
    R4        2.04041   0.00615   0.00000   0.01690   0.01690   2.05731
    R5        2.87459  -0.00137   0.00000  -0.00437  -0.00438   2.87021
    R6        2.65475   0.00759   0.00000   0.01691   0.01693   2.67168
    R7        2.63757   0.00611   0.00000   0.01309   0.01309   2.65066
    R8        2.04318   0.00724   0.00000   0.01999   0.01999   2.06317
    R9        2.68859   0.00366   0.00000   0.00862   0.00862   2.69722
   R10        2.88499  -0.00151   0.00000  -0.00599  -0.00601   2.87897
   R11        2.04759   0.00603   0.00000   0.01677   0.01677   2.06437
   R12        2.88809  -0.00087   0.00000  -0.00305  -0.00306   2.88502
   R13        2.87089  -0.00063   0.00000  -0.00216  -0.00216   2.86873
   R14        2.05523   0.00330   0.00000   0.00930   0.00930   2.06453
   R15        2.05285   0.00273   0.00000   0.00767   0.00767   2.06052
   R16        2.67644   0.00635   0.00000   0.01529   0.01532   2.69176
   R17        2.87402  -0.00062   0.00000  -0.00155  -0.00156   2.87246
   R18        2.04370   0.00447   0.00000   0.01237   0.01237   2.05607
   R19        2.05618   0.00568   0.00000   0.01604   0.01604   2.07222
   R20        2.88932  -0.00116   0.00000  -0.00407  -0.00409   2.88523
   R21        2.05384   0.00365   0.00000   0.01027   0.01027   2.06410
   R22        2.05162   0.00254   0.00000   0.00711   0.00711   2.05873
   R23        2.68777   0.00551   0.00000   0.01313   0.01315   2.70092
   R24        2.04329   0.00444   0.00000   0.01226   0.01226   2.05555
   R25        2.04874   0.00684   0.00000   0.01909   0.01909   2.06783
   R26        2.05345   0.00326   0.00000   0.00916   0.00916   2.06260
   R27        2.04959   0.00322   0.00000   0.00900   0.00900   2.05858
   R28        2.89206  -0.00103   0.00000  -0.00451  -0.00453   2.88753
   R29        2.05260   0.00268   0.00000   0.00753   0.00753   2.06013
   R30        2.05231   0.00368   0.00000   0.01033   0.01033   2.06264
   R31        2.05071   0.00316   0.00000   0.00884   0.00884   2.05954
   R32        2.05502   0.00338   0.00000   0.00954   0.00954   2.06456
    A1        1.95038   0.00031   0.00000  -0.00184  -0.00183   1.94854
    A2        1.90301  -0.00093   0.00000  -0.00233  -0.00237   1.90064
    A3        1.93859  -0.00098   0.00000  -0.01142  -0.01143   1.92716
    A4        1.91113   0.00117   0.00000   0.01069   0.01069   1.92182
    A5        1.86407  -0.00026   0.00000  -0.00073  -0.00081   1.86327
    A6        1.89565   0.00076   0.00000   0.00622   0.00619   1.90185
    A7        1.94696   0.00276   0.00000   0.00984   0.00962   1.95658
    A8        1.90371  -0.00199   0.00000  -0.01182  -0.01177   1.89193
    A9        1.93071   0.00027   0.00000   0.00860   0.00863   1.93934
   A10        1.94452  -0.00093   0.00000  -0.01358  -0.01349   1.93104
   A11        1.82921  -0.00167   0.00000  -0.00603  -0.00605   1.82316
   A12        1.90776   0.00163   0.00000   0.01387   0.01387   1.92163
   A13        1.92207  -0.00178   0.00000  -0.01237  -0.01232   1.90975
   A14        1.92002   0.00114   0.00000   0.00526   0.00517   1.92519
   A15        1.89103  -0.00028   0.00000  -0.00026  -0.00024   1.89079
   A16        1.90401   0.00073   0.00000   0.00094   0.00099   1.90500
   A17        1.90538   0.00076   0.00000   0.00588   0.00585   1.91123
   A18        1.92129  -0.00059   0.00000   0.00050   0.00049   1.92179
   A19        1.92019  -0.00037   0.00000  -0.00353  -0.00372   1.91647
   A20        1.91708   0.00072   0.00000   0.00129   0.00137   1.91845
   A21        1.93951  -0.00056   0.00000  -0.00081  -0.00079   1.93872
   A22        1.90824  -0.00012   0.00000  -0.00210  -0.00206   1.90618
   A23        1.90194   0.00013   0.00000   0.00022   0.00028   1.90222
   A24        1.87614   0.00020   0.00000   0.00508   0.00505   1.88119
   A25        1.93824   0.00087   0.00000   0.00634   0.00624   1.94448
   A26        1.85622  -0.00087   0.00000  -0.00279  -0.00276   1.85346
   A27        1.90082   0.00085   0.00000   0.00439   0.00446   1.90528
   A28        1.94557  -0.00040   0.00000  -0.00360  -0.00359   1.94198
   A29        1.92962  -0.00097   0.00000  -0.00711  -0.00709   1.92253
   A30        1.89105   0.00056   0.00000   0.00310   0.00307   1.89413
   A31        1.97700  -0.00440   0.00000  -0.02602  -0.02593   1.95107
   A32        1.91136   0.00257   0.00000   0.00012   0.00011   1.91147
   A33        1.91400  -0.00121   0.00000  -0.00266  -0.00271   1.91129
   A34        1.93169  -0.00037   0.00000   0.00124   0.00129   1.93298
   A35        1.92277  -0.00090   0.00000  -0.00361  -0.00362   1.91914
   A36        1.91620  -0.00088   0.00000  -0.00007  -0.00006   1.91614
   A37        1.86752   0.00071   0.00000   0.00501   0.00501   1.87253
   A38        1.94678   0.00157   0.00000   0.00345   0.00339   1.95016
   A39        1.94695  -0.00013   0.00000  -0.00175  -0.00170   1.94525
   A40        1.92751  -0.00118   0.00000  -0.00458  -0.00462   1.92290
   A41        1.84160  -0.00104   0.00000  -0.00094  -0.00095   1.84066
   A42        1.91021   0.00031   0.00000   0.00159   0.00165   1.91186
   A43        1.88802   0.00048   0.00000   0.00248   0.00247   1.89049
   A44        1.95761  -0.00134   0.00000  -0.01280  -0.01293   1.94469
   A45        1.87167  -0.00021   0.00000   0.00130   0.00132   1.87299
   A46        1.89933   0.00060   0.00000  -0.00193  -0.00190   1.89742
   A47        1.90838   0.00127   0.00000   0.00806   0.00812   1.91650
   A48        1.94814  -0.00032   0.00000  -0.00060  -0.00068   1.94746
   A49        1.87537   0.00006   0.00000   0.00687   0.00684   1.88220
   A50        1.92497   0.00016   0.00000  -0.00550  -0.00556   1.91941
   A51        1.90654   0.00042   0.00000   0.00221   0.00226   1.90881
   A52        1.90591  -0.00063   0.00000  -0.00197  -0.00200   1.90391
   A53        1.92721  -0.00074   0.00000  -0.00026  -0.00027   1.92695
   A54        1.92565   0.00051   0.00000   0.00064   0.00066   1.92630
   A55        1.87267   0.00028   0.00000   0.00517   0.00516   1.87784
   A56        2.02617  -0.00590   0.00000  -0.03561  -0.03551   1.99066
   A57        2.04078  -0.01045   0.00000  -0.04122  -0.04122   1.99956
   A58        1.93866   0.00083   0.00000  -0.01014  -0.01020   1.92846
   A59        1.91445  -0.00042   0.00000  -0.00441  -0.00437   1.91007
   A60        1.88574  -0.00061   0.00000   0.00178   0.00177   1.88752
   A61        1.93987  -0.00020   0.00000   0.00220   0.00214   1.94202
   A62        1.90923  -0.00006   0.00000   0.00411   0.00413   1.91336
   A63        1.87395   0.00044   0.00000   0.00709   0.00707   1.88101
    D1       -1.14864   0.00081   0.00000   0.02393   0.02392  -1.12471
    D2        0.95060   0.00131   0.00000   0.02058   0.02059   0.97119
    D3        3.05166   0.00110   0.00000   0.02418   0.02415   3.07581
[...]
 00053229,-0.00029535,-0.00030424,0.00011393,0.00000995,0.00000479,0.00
 001777,-0.00320158,0.00257725,-0.00178164,0.00101631,-0.00056370,0.000
 81691,0.00001207,0.00001307,-0.00000780,-0.00000154,0.00000103,-0.0000
 0299,0.00034540,-0.00034481,-0.00016768,0.00009216,-0.00019989,-0.0000
 0364,0.01326282,-0.00347103,-0.00682820,-0.11450996,0.04465841,0.13655
 549,-0.00035513,-0.00006984,-0.00048377,-0.01616303,0.00367537,0.01425
 820,0.00062715,0.00042320,0.00152248,0.00070447,0.00033709,-0.00025138
 ,0.00008373,0.00000392,-0.00000848,-0.00006995,0.00002180,0.00010867,0
 .00915421,-0.00403659,-0.00635174,-0.00006800,-0.00000829,-0.00016827,
 -0.21191645,0.06344122,0.11113918,-0.00000315,-0.00002504,-0.00004677,
 0.00150965,-0.00067745,-0.00005603,-0.00562639,0.00277670,-0.00399501,
 -0.00015151,0.00016830,-0.00019059,-0.00009432,0.00019657,0.00004646,0
 .00001681,0.00000407,0.00001427,0.00056618,-0.00050417,-0.00000828,-0.
 00004617,0.00002434,-0.00012596,-0.00014536,0.00038373,-0.00000067,0.0
 0004900,0.00019632,-0.00004948,-0.00001280,0.00000552,0.00000948,-0.00
 001155,0.00000191,-0.00000876,0.00027019,-0.00197789,-0.00178025,0.000
 78854,0.00049287,0.00059382,0.00002530,0.00002317,0.00001512,-0.000028
 97,-0.00002414,0.00003317,0.23126612,0.00007250,0.00005798,0.00012186,
 0.01114585,-0.00611683,-0.00972202,0.00005523,0.00027235,-0.00077022,0
 .00104356,0.00066535,-0.00006929,-0.00003623,0.00000191,0.00000203,0.0
 0003614,-0.00001973,-0.00004299,0.01545449,-0.00705195,-0.01134083,0.0
 0001455,-0.00005372,-0.00006537,0.06098854,-0.07206152,-0.03964573,-0.
 00000092,0.00000461,0.00002425,-0.00029296,0.00066526,0.00011381,0.002
 67971,-0.00054061,0.00226670,0.00013721,-0.00014429,0.00017321,0.00002
 860,-0.00006063,-0.00001046,-0.00000860,-0.00000282,-0.00000763,-0.000
 52581,0.00052376,0.00015459,-0.00001111,0.00000392,0.00004892,-0.00023
 097,-0.00008513,0.00012957,-0.00019323,0.00017810,0.00004801,0.0000051
 9,-0.00000341,-0.00000427,0.00000468,-0.00000026,0.00000381,-0.0013490
 4,-0.00176240,-0.00287957,-0.00023930,0.00087527,0.00074287,0.00002769
 ,-0.00003929,0.00003223,-0.00004016,0.00004174,-0.00000438,-0.06859267
 ,0.07532055,-0.00020815,-0.00004260,-0.00030694,-0.01532670,0.00571937
 ,0.01076472,-0.00018155,0.00028628,0.00100967,0.00032759,0.00118270,0.
 00082543,0.00004838,-0.00000088,-0.00000478,-0.00003580,0.00001404,0.0
 0005166,0.01929061,-0.00845445,-0.01593223,-0.00029295,-0.00015446,-0.
 00019193,0.11518564,-0.04118151,-0.12440227,0.00000046,-0.00001184,-0.
 00003453,0.00026449,-0.00078593,0.00037184,-0.00520719,0.00269126,-0.0
 0206125,-0.00011319,0.00014092,-0.00015231,-0.00006336,0.00012958,0.00
 002444,0.00001342,0.00000393,0.00000068,0.00031605,-0.00052371,0.00091
 445,0.00002302,-0.00001707,-0.00008189,-0.00028222,-0.00024923,0.00047
 098,-0.00031137,0.00020415,0.00003426,-0.00000886,0.00000393,0.0000062
 6,-0.00000558,-0.00000007,-0.00000391,-0.00218301,-0.00363692,-0.00277
 347,0.00017458,0.00085429,0.00094895,0.00007032,-0.00002088,0.00006598
 ,0.00000615,-0.00000313,-0.00003006,-0.12028661,0.04768797,0.13707942,
 0.00004639,-0.00000090,-0.00001208,0.00855340,0.01676526,-0.00595119,0
 .00034980,-0.00011015,0.00006370,0.00034100,-0.00123517,-0.00249405,0.
 00000155,0.00000302,0.00000402,-0.00000139,-0.00000615,-0.00000068,-0.
 00476813,-0.00645333,0.00449840,-0.00060188,-0.00059472,-0.00084952,-0
 .10365758,-0.10041492,0.04693505,-0.00000220,-0.00000423,-0.00000149,-
 0.00134412,0.00501141,-0.00366530,0.00073189,0.00051413,-0.00030835,0.
 00000664,-0.00000955,0.00000525,0.00000418,-0.00000709,0.00000489,0.00
 000250,-0.00000514,0.00000177,0.00043758,-0.00074867,0.00039925,0.0000
 1066,0.00000873,-0.00002564,0.00017233,0.00034177,-0.00022223,0.000048
 64,-0.00088625,0.00034793,-0.00000014,-0.00000004,-0.00000057,0.000000
 31,-0.00000126,0.00000029,0.00058786,0.00030165,-0.00026446,-0.0000298
 0,0.00026707,0.00028609,0.00012195,0.00004127,0.00017878,0.00003096,0.
 00004485,0.00009750,-0.01023190,-0.02024768,0.00887914,0.10916418,-0.0
 0008498,0.00000896,-0.00007042,-0.00826777,-0.01298538,0.00420132,0.00
 012155,0.00035439,-0.00000899,-0.00081657,-0.00084926,-0.00429543,0.00
 000165,-0.00000180,-0.00000143,0.00000973,-0.00000416,0.00000091,-0.00
 772012,-0.01503058,0.00745795,-0.00014238,0.00122309,0.00030208,-0.096
 11563,-0.22410991,0.08275436,0.00000777,-0.00000121,0.00000415,0.00188
 007,-0.00216756,0.00292422,-0.00072157,0.00108003,-0.00057423,0.000031
 73,-0.00003821,0.00002479,-0.00001095,0.00002945,0.00000800,-0.0000015
 7,0.00000712,-0.00000689,0.00044371,0.00028570,0.00011408,-0.00003235,
 0.00000792,-0.00003565,-0.00012421,0.00005328,0.00013110,-0.00040279,-
 0.00099447,0.00066046,0.00000049,-0.00000012,-0.00000021,-0.00000020,0
 .00000140,-0.00000041,0.00052085,0.00061274,0.00037916,0.00004039,0.00
 075268,-0.00002951,0.00000719,-0.00006337,0.00002965,0.00006793,-0.000
 08318,-0.00007709,0.00383027,0.00926636,-0.00376596,0.10745753,0.24264
 934,0.00008372,-0.00001192,0.00005973,0.01242642,0.01419557,-0.0066956
 3,-0.00004919,-0.00033494,-0.00003616,-0.00143073,-0.00288622,-0.00422
 187,-0.00000056,-0.00000185,-0.00000140,-0.00001047,0.00000639,-0.0000
 1045,-0.01149970,-0.02136176,0.01135970,-0.00063209,-0.00085181,-0.001
 29057,0.04428763,0.08375200,-0.08678846,0.00000076,-0.00000680,0.00000
 411,-0.00279302,0.00544400,-0.00292097,0.00084438,-0.00080802,0.000986
 93,-0.00002831,0.00003735,-0.00001159,0.00000585,-0.00002213,-0.000006
 14,0.00000282,-0.00000471,0.00000410,0.00014095,-0.00073073,0.00032137
 ,0.00001134,-0.00000289,0.00001343,-0.00009926,0.00004795,0.00006402,-
 0.00051064,-0.00146139,0.00056172,-0.00000030,-0.00000013,0.00000021,-
 0.00000019,0.00000060,0.00000065,0.00066467,0.00082310,0.00108984,0.00
 028855,0.00103343,0.00093002,0.00014839,0.00012768,0.00023995,0.000059
 77,0.00010920,0.00018001,0.00600862,0.01304692,-0.00662845,-0.04790642
 ,-0.09012994,0.09280550,-0.00024351,0.00047223,0.00009629,0.00043497,-
 0.00001186,-0.00013598,0.00080651,0.00134126,0.00251614,0.00000339,-0.
 00000454,-0.00000642,0.00615454,0.00392558,-0.00156149,0.00163938,0.00
 247130,0.00032184,-0.00000293,0.00001274,0.00000157,0.00002584,0.00003
 505,0.00003262,-0.00003718,-0.00001322,0.00003381,-0.23219597,-0.12323
 683,0.02433783,-0.00016422,-0.00009778,0.00002736,-0.00018220,-0.00003
 310,0.00019916,-0.00910758,-0.00601448,0.00062623,0.00003884,-0.000033
 61,-0.00001586,0.00001892,-0.00008398,-0.00013658,-0.00003588,0.000013
 74,0.00002366,-0.00060354,-0.00060572,-0.00005632,-0.00000292,0.000001
 20,0.00000164,-0.00000476,-0.00000149,-0.00000413,0.00022371,-0.000654
 46,0.00003437,0.00035748,-0.00067932,-0.00020708,0.00000228,-0.0000007
 2,0.00000150,-0.00000649,-0.00000292,-0.00000793,-0.00000592,-0.000007
 92,-0.00000235,-0.00000656,-0.00000191,-0.00000225,-0.00002222,0.00000
 892,-0.00001210,0.00000070,0.00000012,-0.00000260,0.24855718,0.0009201
 8,0.00004695,-0.00197561,-0.00001695,0.00003017,-0.00009439,0.00093004
 ,0.00063712,-0.00107793,-0.00000081,0.00000171,0.00000456,-0.02759198,
 -0.01219427,0.00422599,-0.00086709,-0.00982373,0.00012878,-0.00000072,
 0.00000006,-0.00000045,0.00000575,-0.00000644,-0.00000796,-0.00001302,
 -0.00000082,0.00001007,-0.12099688,-0.13025438,0.01673888,0.00002465,0
 .00000182,0.00000960,-0.00016045,0.00004737,-0.00022936,0.00533888,0.0
 0343672,0.00001785,-0.00006494,0.00001952,0.00025099,-0.00014116,0.000
 07802,0.00025318,0.00001271,-0.00000786,0.00000246,0.00020413,0.000252
 91,-0.00015254,-0.00000174,0.00000120,-0.00000099,0.00000039,-0.000000
 27,0.00000009,0.00017788,0.00104893,-0.00052001,0.00040997,0.00125697,
 0.00057002,-0.00000063,-0.00000035,0.00000090,-0.00000076,0.00000033,-
 0.00000078,-0.00000032,-0.00000025,0.00000083,0.00000392,0.00000298,0.
 00000517,-0.00000420,0.00000257,-0.00000257,0.,0.00000063,0.00000104,0
 .13400617,0.13936089,0.00021259,-0.00078201,-0.00048768,-0.00036420,0.
 00003012,0.00031447,0.00060177,-0.00225541,-0.00669733,-0.00000311,0.0
 0000615,0.00000955,-0.00440698,-0.00074784,-0.00117557,-0.00025894,-0.
 00225559,0.00142345,0.00000715,-0.00001684,-0.00000563,-0.00001862,-0.
 00004925,-0.00004830,0.00006585,0.00001648,-0.00005146,0.02288060,0.01
 555875,-0.04845750,0.00015947,0.00009180,-0.00000369,0.00035317,-0.000
 18461,0.00047122,0.02614386,0.01895623,-0.00436317,-0.00008924,0.00005
 399,0.00007112,-0.00005469,0.00011711,0.00019807,0.00000051,-0.0000024
 4,-0.00000104,0.00138566,0.00124175,-0.00020711,0.00000238,-0.00000128
 ,-0.00000088,0.00000603,0.00000167,0.00000508,-0.00006262,0.00053818,-
 0.00000889,0.00008074,-0.00005733,0.00022054,0.00000216,0.00000047,-0.
 00000055,0.00000574,0.00000470,0.00001049,0.00000626,0.00000874,0.0000
 0357,0.00000362,0.00000234,-0.00000025,0.00002803,-0.00001422,0.000017
 90,-0.00000125,-0.00000204,0.00000101,-0.02814769,-0.01705144,0.053366
 22,-0.00013846,0.00007965,0.00041503,0.00025666,-0.00008652,0.00009810
 ,0.00006897,-0.00027614,-0.00090190,0.00000261,-0.00000296,-0.00000105
 ,-0.00767733,0.00196701,-0.00515760,0.00192942,-0.00022826,0.00025934,
 -0.00000239,0.00000769,0.00000864,0.00000184,0.00000094,-0.00000036,0.
 00001457,-0.00000628,-0.00000504,-0.16433613,0.04925114,-0.12120681,-0
 .00001639,-0.00001030,0.00000491,-0.00124720,-0.00013409,0.00081488,0.
 00978876,-0.00389100,0.00922017,-0.00008666,0.00000012,-0.00004260,0.0
 0002634,0.00000483,-0.00004086,-0.00001632,0.00001320,0.00002828,0.000
 07195,0.00018311,-0.00007249,0.00000096,0.00000143,-0.00000036,0.00000
 064,0.00000047,0.00000019,0.00017515,-0.00016630,0.00017720,0.00086790
 ,0.00176383,0.00060310,0.00002251,-0.00000357,-0.00001345,0.00000287,-
 0.00000060,-0.00000077,0.00000034,-0.00000054,-0.00000071,0.00000231,-
 0.00000227,-0.00000490,0.00000120,-0.00000069,-0.00000008,0.00000881,0
 .00000663,-0.00000762,-0.01655446,0.00810468,-0.01722424,0.17646786,-0
 .00000527,-0.00004319,-0.00009906,-0.00006419,0.00005769,0.00006051,0.
 00032332,-0.00019444,0.00040832,-0.00000074,-0.00000095,-0.00000015,0.
 02425389,-0.01231095,0.02302942,-0.00034863,0.00327311,-0.00052247,-0.
 00000889,-0.00000192,0.00000440,-0.00000859,-0.00000146,-0.00000043,0.
 00001198,0.00000273,-0.00001096,0.04671124,-0.06899059,0.05181585,0.00
 003113,0.00001502,-0.00001971,0.00001933,0.00005020,0.00002090,-0.0040
 8142,0.00080370,-0.00428090,0.00007454,0.00002220,-0.00003267,-0.00003
 112,0.00000925,0.00003397,-0.00000212,0.00000274,-0.00001102,-0.000034
 05,-0.00006511,-0.00000103,0.00000119,0.00000072,-0.00000123,0.0000001
 4,0.00000010,0.00000024,-0.00066759,0.00160798,-0.00019811,0.00119095,
 -0.00600982,-0.00073159,-0.00000023,-0.00000041,-0.00000506,0.00000244
 ,0.00000068,0.00000011,0.00000226,0.00000095,-0.00000036,0.00000454,-0
 .00000313,0.00000016,0.00000465,-0.00000509,0.00000210,-0.00000375,-0.
 00000423,0.00000409,-0.01119565,0.00564242,-0.01312241,-0.05654586,0.0
 7491965,0.00021079,-0.00007425,-0.00018423,0.00014632,-0.00008249,0.00
 015594,-0.00154320,-0.00000042,0.00020910,0.00000290,-0.00000310,-0.00
 000335,0.00451787,-0.00199866,0.00387379,0.00029645,0.00074316,-0.0002
 7123,0.00000248,0.00000237,0.00000365,0.00000773,0.00001128,0.00001446
 ,0.00002874,-0.00000113,-0.00001671,-0.12061702,0.05263113,-0.17405788
 ,-0.00010292,-0.00005567,0.00004750,0.00024973,-0.00005081,0.00091178,
 -0.02001366,0.00788886,-0.02235358,0.00001927,-0.00002802,-0.00001366,
 -0.00001751,0.00011562,0.00003473,-0.00004267,0.00002412,0.00000694,0.
 00020223,-0.00005861,0.00005123,-0.00000068,0.00000015,0.00000055,-0.0
 0000074,0.00000021,-0.00000025,0.00022838,0.00068057,0.00075348,-0.000
 01556,-0.00157220,0.00108187,0.00001818,0.00000110,-0.00000716,0.00000
 064,-0.00000059,-0.00000070,-0.00000156,-0.00000259,-0.00000150,0.0000
 0128,-0.00000203,-0.00000780,0.00000098,-0.00000423,0.00000293,0.00000
 655,-0.00000259,-0.00000540,0.00232863,-0.00203528,0.00259086,0.131134
 75,-0.05533104,0.19071468,-0.00491276,-0.00254656,0.00152819,0.0001916
 7,0.00009042,0.00013548,0.00653712,-0.02657844,-0.00421968,-0.00000699
 ,0.00000280,0.00000696,-0.00082382,-0.00094754,0.00345447,0.00073603,0
 .00066559,-0.00068526,0.00000698,-0.00000939,-0.00000063,0.00001485,-0
 .00000997,-0.00003633,-0.00000231,0.00002712,-0.00000816,-0.00439970,0
 .01163021,-0.00004888,0.00004141,0.00007635,-0.00002751,0.00275946,0.0
 0012089,0.00059800,-0.07673595,0.08452386,0.01066672,0.00009062,0.0000
 3328,0.00005824,0.00046024,-0.00146811,-0.00042283,0.00012135,0.000130
 17,0.00008260,0.00103728,0.00115046,-0.00011842,-0.00000093,0.00000062
 ,-0.00000105,0.00000225,0.00000123,-0.00000002,0.00009757,0.00105637,0
 .00027463,0.00012000,-0.00038251,-0.00004436,0.00000201,-0.00000025,0.
 00000212,0.00000281,0.00000278,0.00000557,0.00000393,0.00000293,0.0000
 0195,0.00001318,0.00000268,0.00001251,0.00000535,-0.00001003,0.0000051
 3,0.00001339,0.00000571,0.00000539,0.00003581,-0.00005791,-0.00056191,
 0.00057238,-0.00047915,-0.00008804,0.08083534,-0.00522896,-0.00052208,
 0.00192746,-0.00024277,0.00013990,0.00000242,0.00760836,-0.02199105,-0
 .00198264,-0.00000592,0.00000023,0.00000425,-0.00011038,0.00167565,-0.
 00072963,0.00052981,0.00019239,-0.00029675,-0.00000818,0.00001041,0.00
 000132,0.00000568,0.00000823,-0.00001261,-0.00005996,-0.00003609,0.000
 03363,0.00062963,-0.00137453,-0.00038606,-0.00000302,-0.00000285,-0.00
 006310,0.00130133,0.00237812,0.00047357,0.08138578,-0.28344036,-0.0323
 2420,0.00009276,0.00023686,0.00008633,0.00043219,-0.00128835,-0.000628
 98,-0.00016075,-0.00016457,-0.00006988,0.00006892,0.00086394,0.0001325
 7,-0.00000439,0.00000257,-0.00000157,-0.00000183,-0.00000128,-0.000001
 58,-0.00004225,-0.00030308,0.00009977,0.00000781,0.00004812,0.00010379
 ,0.00000213,-0.00000161,0.00000019,-0.00000290,-0.00000311,-0.00000859
 ,-0.00000023,-0.00000634,-0.00000193,0.00000221,0.00000293,0.00001761,
 -0.00001945,0.00001137,-0.00001291,-0.00002216,-0.00000774,-0.00000572
 ,0.00022236,0.00027502,-0.00037541,-0.00002511,0.00031252,-0.00025499,
 -0.08774151,0.30696320,0.00154320,0.00098427,-0.00004110,-0.00011058,-
 0.00001941,0.00017872,-0.00396293,0.00515736,-0.00023443,0.00000084,-0
 .00000244,-0.00000258,0.00328302,0.00192587,-0.00630982,-0.00089632,0.
 00004936,0.00093309,-0.00000513,0.00000228,-0.00000624,-0.00000689,0.0
 0000057,0.00000398,0.00003699,-0.00003570,-0.00004159,0.00988041,-0.03
 033153,-0.00362220,0.00001697,0.00002826,-0.00002848,0.00007644,-0.000
 76510,0.00001571,0.01084977,-0.03039599,-0.05202059,0.00023274,-0.0002
 4949,0.00008748,0.00001537,0.00045881,0.00037363,-0.00005909,-0.000059
 45,-0.00006168,-0.00060995,-0.00008410,0.00014454,0.00000183,-0.000000
 95,0.00000037,0.00000064,0.00000130,0.00000040,0.00029871,-0.00198925,
 -0.00029706,0.00010862,-0.00011417,0.00010849,-0.00000071,-0.00000056,
 -0.00000104,0.00000010,-0.00000116,-0.00000014,-0.00000090,0.00000150,
 0.00000094,0.00000194,-0.00000167,-0.00000265,0.00001478,-0.00000360,0
 .00000765,-0.00000289,0.00000980,-0.00000402,-0.00026358,0.00064878,0.
 00123154,-0.00087219,0.00027476,0.00139774,-0.01403825,0.03420091,0.05
 530841,0.00044328,0.00099184,-0.00023263,0.00170109,-0.00067643,-0.002
 19482,-0.01506627,0.00767265,-0.01668969,0.00002945,-0.00001281,-0.000
 03236,0.00068275,-0.00046255,-0.00018108,-0.00007332,-0.00027246,-0.00
 002072,0.00001103,0.00005254,0.00004048,0.00010264,0.00015739,0.000203
 71,-0.00026496,0.00005058,0.00030132,0.00995087,-0.00262000,0.01068583
 ,-0.00071710,-0.00058092,0.00043548,-0.00799562,-0.00287169,0.00011110
 ,-0.17866679,0.03268306,-0.12680230,0.00045648,-0.00030429,0.00011986,
 0.00010900,-0.00004410,0.00032214,0.00001210,0.00009945,0.00026101,0.0
 0058544,0.00065860,0.00036467,-0.00000798,0.00000143,0.00000496,-0.000
 01835,-0.00000787,-0.00001263,-0.00001380,-0.00021584,-0.00006763,-0.0
 0019244,-0.00019143,-0.00032634,-0.00000405,-0.00000117,0.00000863,-0.
 00002399,-0.00001198,-0.00002949,-0.00002440,-0.00002945,-0.00000914,-
 0.00000953,-0.00000176,-0.00001944,-0.00012098,0.00007652,-0.00008627,
 0.00000243,0.00000777,-0.00000818,0.00087682,-0.00021980,-0.00075210,-
 0.00020872,0.00084564,0.00303965,-0.00681858,0.00139079,-0.00553297,0.
 19526350,0.00060384,-0.00007593,0.00000900,0.00039141,-0.00025135,-0.0
 0120771,-0.01196872,0.00395337,-0.01460593,0.00001474,-0.00000510,-0.0
 0001474,-0.00090994,0.00029439,-0.00052756,0.00004017,-0.00016547,-0.0
 0000832,0.00000672,0.00002795,0.00002563,0.00004318,0.00007276,0.00008
 466,-0.00018128,0.00003533,0.00020292,-0.00271109,-0.00017607,-0.00187
 826,-0.00028201,-0.00029247,0.00018120,-0.00533966,-0.00068334,0.00027
 331,0.03553065,-0.05966210,0.03360089,-0.00022142,-0.00053715,-0.00018
 308,-0.00001158,0.00028470,0.00015107,-0.00002244,-0.00002530,0.000119
 80,0.00039571,0.00083722,0.00020623,-0.00000300,0.00000102,0.00000312,
 -0.00000875,-0.00000462,-0.00000503,-0.00001575,0.00007730,0.00004769,
 0.00003947,0.00016292,0.00007023,-0.00000143,-0.00000114,0.00000281,-0
 .00001157,-0.00000677,-0.00001551,-0.00000910,-0.00001497,-0.00000538,
 -0.00000008,0.00000074,-0.00001426,-0.00007129,0.00005660,-0.00005639,
 -0.00000552,0.00000810,-0.00000835,0.00016883,0.00014406,0.00028964,-0
 .00000425,0.00090962,-0.00053987,0.02070791,-0.00397842,0.02031075,-0.
 03616373,0.05901412,-0.00040678,0.00034159,-0.00016894,-0.00011902,-0.
 00001297,0.00026689,0.00347882,-0.00156592,0.00205000,-0.00000435,-0.0
 0000151,0.00000105,-0.00087612,0.00116325,0.00110907,0.00005693,-0.000
 43314,-0.00012702,0.00000277,-0.00000826,-0.00000504,-0.00000942,-0.00
 000502,-0.00000955,0.00004108,-0.00001845,-0.00003410,-0.02092248,0.00
 585248,-0.02345932,0.00001428,0.00003290,-0.00004399,0.00226873,0.0011
 2696,0.00155799,-0.12751540,0.03218195,-0.16781274,0.00020037,0.000017
 84,0.00012106,0.00005883,-0.00014308,0.00005160,-0.00003386,-0.0000245
 0,-0.00005179,-0.00018665,-0.00053552,0.00042625,0.,0.00000007,-0.0000
 0001,0.00000149,0.00000106,0.00000038,0.00033949,0.00005453,0.00021080
 ,0.00025357,-0.00056587,0.00032172,0.00000434,-0.00000093,-0.00000181,
 0.00000373,0.00000018,0.00000151,0.00000304,0.00000003,-0.00000132,-0.
 00000017,-0.00000221,0.00000106,0.00001882,-0.00001193,0.00000677,-0.0
 0000250,-0.00000123,-0.00000120,-0.00002028,0.00028010,0.00157399,0.00
 278844,-0.00128661,-0.00492778,0.00346337,0.00007276,0.00288092,0.1370
 9893,-0.03650853,0.18606350\\0.00000363,0.00000526,0.00000522,-0.00019
 382,-0.00098233,-0.00009297,-0.00028909,0.00019510,0.00074782,0.000022
 86,-0.00003430,0.00000400,0.00009375,0.00004030,-0.00002031,-0.0000506
 5,-0.00001218,0.00006194,0.00001569,0.00002095,-0.00000491,-0.00004595
 ,-0.00009699,-0.00007698,-0.00002956,0.00000837,0.00001824,-0.00000056
 ,-0.00002299,0.00000542,0.00005611,0.00020965,0.00001261,0.00026456,0.
 00105780,-0.00011439,0.00025017,-0.00046221,-0.00052294,0.00002431,-0.
 00002925,-0.00001127,-0.00000341,0.00000468,0.00001010,-0.00002962,0.0
 0001209,0.00000614,0.00002074,0.00001359,-0.00001097,0.00000336,-0.000
 00703,0.00000723,-0.00001991,0.00001426,-0.00000848,0.00000261,0.00000
 195,-0.00000570,-0.00002435,-0.00000708,-0.00000782,-0.00000356,-0.000
 00829,0.00000017,-0.00000457,0.00000580,0.00000314,0.00000875,0.000000
 74,0.00000701,0.00000120,0.00002252,0.00001539,-0.00004594,0.00002421,
 -0.00001466,-0.00001883,-0.00000523,-0.00000784,-0.00001148,0.00001967
 ,0.00000701,-0.00000129,0.00000327,-0.00000953,-0.00000630,-0.00000175
 ,-0.00000282,0.00001117,0.00000943,0.00000017\\\@


 TO DETECT ERRORS, THE PROGRAMMER MUST HAVE A CONNIVING MIND,
 ONE THAT DELIGHTS IN UNCOVERING FLAWS WHERE BEAUTY AND
 PERFECTION WERE ONCE THOUGHT TO LIE.

             -- THE PSYCHOLOGY OF COMPUTER PROGRAMMING
                GERALD M. WEINBERG
 Job cpu time:       0 days 13 hours 25 minutes 57.0 seconds.
 Elapsed time:       0 days  1 hours  7 minutes 25.5 seconds.
 File lengths (MBytes):  RWF=    723 Int=      0 D2E=      0 Chk=     34 Scr=      1
 Normal termination of Gaussian 16 at Fri Mar  8 23:53:55 2019.
