 Entering Gaussian System, Link 0=g16
 Initial command:
 /sw/Projects/G16/g16/l1.exe "/nvme/pbs/tmpdir/pbs.74203[21].flm1/Gau-28495.inp" -scrdir="/nvme/pbs/tmpdir/pbs.74203[21].flm1/"
 Entering Link 1 = /sw/Projects/G16/g16/l1.exe PID=     28496.
  
 Copyright (c) 1988-2017, Gaussian, Inc.  All Rights Reserved.
  
 This is part of the Gaussian(R) 16 program.  It is based on
 the Gaussian(R) 09 system (copyright 2009, Gaussian, Inc.),
 the Gaussian(R) 03 system (copyright 2003, Gaussian, Inc.),
 the Gaussian(R) 98 system (copyright 1998, Gaussian, Inc.),
 the Gaussian(R) 94 system (copyright 1995, Gaussian, Inc.),
 the Gaussian 92(TM) system (copyright 1992, Gaussian, Inc.),
 the Gaussian 90(TM) system (copyright 1990, Gaussian, Inc.),
 the Gaussian 88(TM) system (copyright 1988, Gaussian, Inc.),
 the Gaussian 86(TM) system (copyright 1986, Carnegie Mellon
 University), and the Gaussian 82(TM) system (copyright 1983,
 Carnegie Mellon University). Gaussian is a federally registered
 trademark of Gaussian, Inc.
  
 This software contains proprietary and confidential information,
 including trade secrets, belonging to Gaussian, Inc.
  
 This software is provided under written license and may be
 used, copied, transmitted, or stored only in accord with that
 written license.
  
 The following legend is applicable only to US Government
 contracts under FAR:
  
                    RESTRICTED RIGHTS LEGEND
  
 Use, reproduction and disclosure by the US Government is
 subject to restrictions as set forth in subparagraphs (a)
 and (c) of the Commercial Computer Software - Restricted
 Rights clause in FAR 52.227-19.
  
 Gaussian, Inc.
 340 Quinnipiac St., Bldg. 40, Wallingford CT 06492
  
  
 ---------------------------------------------------------------
 Warning -- This program may not be used in any manner that
 competes with the business of Gaussian, Inc. or will provide
 assistance to any competitor of Gaussian, Inc.  The licensee
 of this program is prohibited from giving any competitor of
 Gaussian, Inc. access to this program.  By using this program,
 the user acknowledges that Gaussian, Inc. is engaged in the
 business of creating and licensing software in the field of
 computational chemistry and represents and warrants to the
 licensee that it is not a competitor of Gaussian, Inc. and that
 it will not use this program in any manner prohibited above.
 ---------------------------------------------------------------
  

 Cite this work as:
 Gaussian 16, Revision B.01,
 M. J. Frisch, G. W. Trucks, H. B. Schlegel, G. E. Scuseria, 
 M. A. Robb, J. R. Cheeseman, G. Scalmani, V. Barone, 
 G. A. Petersson, H. Nakatsuji, X. Li, M. Caricato, A. V. Marenich, 
 J. Bloino, B. G. Janesko, R. Gomperts, B. Mennucci, H. P. Hratchian, 
 J. V. Ortiz, A. F. Izmaylov, J. L. Sonnenberg, D. Williams-Young, 
 F. Ding, F. Lipparini, F. Egidi, J. Goings, B. Peng, A. Petrone, 
 T. Henderson, D. Ranasinghe, V. G. Zakrzewski, J. Gao, N. Rega, 
 G. Zheng, W. Liang, M. Hada, M. Ehara, K. Toyota, R. Fukuda, 
 J. Hasegawa, M. Ishida, T. Nakajima, Y. Honda, O. Kitao, H. Nakai, 
 T. Vreven, K. Throssell, J. A. Montgomery, Jr., J. E. Peralta, 
 F. Ogliaro, M. J. Bearpark, J. J. Heyd, E. N. Brothers, K. N. Kudin, 
 V. N. Staroverov, T. A. Keith, R. Kobayashi, J. Normand, 
 K. Raghavachari, A. P. Rendell, J. C. Burant, S. S. Iyengar, 
 J. Tomasi, M. Cossi, J. M. Millam, M. Klene, C. Adamo, R. Cammi, 
 J. W. Ochterski, R. L. Martin, K. Morokuma, O. Farkas, 
 J. B. Foresman, and D. J. Fox, Gaussian, Inc., Wallingford CT, 2016.
 
 ******************************************
 Gaussian 16:  ES64L-G16RevB.01 20-Dec-2017
                 9-Mar-2019 
 ******************************************
 %mem=20gb
 %nproc=12
 Will use up to   12 processors via shared memory.
 %chk=4c1_a1_a4_4c1_PSI.inp_extract_21.chk
 ----------------------------------------------------------------------
 #M062X/6-311++G(2d,2p) opt=ModRedundant freq=noraman SCRF=(SMD,solvent
 =water)
 ----------------------------------------------------------------------
 1/18=120,19=15,26=3,38=1/1,3;
 2/9=110,12=2,17=6,18=5,40=1/2;
 3/5=4,6=6,7=1212,11=2,25=1,30=1,70=32201,71=1,72=1,74=-55/1,2,3;
 4//1;
 5/5=2,38=5,53=1/2;
 6/7=2,8=2,9=2,10=2,28=1/1;
 7//1,2,3,16;
 1/18=20,19=15,26=3/3(2);
 2/9=110/2;
 99//99;
 2/9=110/2;
 3/5=4,6=6,7=1212,11=2,25=1,30=1,70=32205,71=1,72=1,74=-55/1,2,3;
 4/5=5,16=3,69=1/1;
 5/5=2,38=5,53=1/2;
 7//1,2,3,16;
 1/18=20,19=15,26=3/3(-5);
 2/9=110/2;
 6/7=2,8=2,9=2,10=2,19=2,28=1/1;
 99/9=1/99;
 --------------------------------
 4c1_a1_a4_4c1_PSI.inp_extract_21
 --------------------------------
 Symbolic Z-matrix:
 Charge =  0 Multiplicity = 1
 C                    -1.91919  -0.35276   1.47096 
 C                     0.93839   0.17004  -0.78179 
 C                    -0.96726   0.53523   0.68815 
 C                     3.55726  -0.08437   0.42075 
 C                    -3.47961  -0.48037  -0.30005 
 O                    -2.67447  -1.19112   0.6232 
 C                     2.84577  -1.3393   -0.08503 
 C                     2.53962   0.97589   0.80634 
 C                     1.86463  -0.96347  -1.19622 
 C                    -2.63112   0.40125  -1.20414 
 O                     1.65679   1.26304  -0.2708 
 O                     0.03211  -0.32677   0.1571 
 C                    -1.74972   1.32544  -0.36169 
 H                    -2.58779   0.27162   2.05816 
 H                    -1.37126  -0.9996    2.14185 
 H                     0.41354   0.5582   -1.64007 
 H                    -0.49598   1.22229   1.38227 
 H                     4.20715   0.31011  -0.357 
 H                     4.17914  -0.30847   1.28283 
 H                    -4.0209   -1.22512  -0.8674 
 H                    -4.19999   0.12123   0.25034 
 H                     2.31679  -1.81543   0.73606 
 H                     3.56512  -2.06122  -0.45936 
 H                     3.01762   1.91536   1.04736 
 H                     1.96446   0.65796   1.66937 
 H                     2.41731  -0.62508  -2.06846 
 H                     1.26415  -1.81356  -1.50191 
 H                    -3.28358   0.98349  -1.84843 
 H                    -2.01894  -0.22638  -1.8454 
 H                    -1.0953    1.92367  -0.98321 
 H                    -2.3797    2.02421   0.18334 
 
 The following ModRedundant input section has been read:
 D      13       3      12       2 F                                           
 

 GradGradGradGradGradGradGradGradGradGradGradGradGradGradGradGradGradGrad
 Berny optimization.
 Initialization pass.
                           ----------------------------
                           !    Initial Parameters    !
                           ! (Angstroms and Degrees)  !
 --------------------------                            --------------------------
 ! Name  Definition              Value          Derivative Info.                !
 --------------------------------------------------------------------------------
 ! R1    R(1,3)                  1.519          estimate D2E/DX2                !
 ! R2    R(1,6)                  1.4114         estimate D2E/DX2                !
 ! R3    R(1,14)                 1.087          estimate D2E/DX2                !
 ! R4    R(1,15)                 1.0811         estimate D2E/DX2                !
 ! R5    R(2,9)                  1.5213         estimate D2E/DX2                !
 ! R6    R(2,11)                 1.4042         estimate D2E/DX2                !
 ! R7    R(2,12)                 1.3963         estimate D2E/DX2                !
 ! R8    R(2,16)                 1.0783         estimate D2E/DX2                !
 ! R9    R(3,12)                 1.4226         estimate D2E/DX2                !
 ! R10   R(3,13)                 1.5293         estimate D2E/DX2                !
 ! R11   R(3,17)                 1.0844         estimate D2E/DX2                !
 ! R12   R(4,7)                  1.5287         estimate D2E/DX2                !
 ! R13   R(4,8)                  1.5193         estimate D2E/DX2                !
 ! R14   R(4,18)                 1.0876         estimate D2E/DX2                !
 ! R15   R(4,19)                 1.0863         estimate D2E/DX2                !
 ! R16   R(5,6)                  1.4163         estimate D2E/DX2                !
 ! R17   R(5,10)                 1.5214         estimate D2E/DX2                !
 ! R18   R(5,20)                 1.0814         estimate D2E/DX2                !
 ! R19   R(5,21)                 1.088          estimate D2E/DX2                !
 ! R20   R(7,9)                  1.5293         estimate D2E/DX2                !
 ! R21   R(7,22)                 1.0866         estimate D2E/DX2                !
 ! R22   R(7,23)                 1.0857         estimate D2E/DX2                !
 ! R23   R(8,11)                 1.422          estimate D2E/DX2                !
 ! R24   R(8,24)                 1.0813         estimate D2E/DX2                !
 ! R25   R(8,25)                 1.0848         estimate D2E/DX2                !
 ! R26   R(9,26)                 1.0866         estimate D2E/DX2                !
 ! R27   R(9,27)                 1.0848         estimate D2E/DX2                !
 ! R28   R(10,13)                1.5299         estimate D2E/DX2                !
 ! R29   R(10,28)                1.0862         estimate D2E/DX2                !
 ! R30   R(10,29)                1.0862         estimate D2E/DX2                !
 ! R31   R(13,30)                1.0828         estimate D2E/DX2                !
 ! R32   R(13,31)                1.0873         estimate D2E/DX2                !
 ! A1    A(3,1,6)              111.9039         estimate D2E/DX2                !
 ! A2    A(3,1,14)             109.1504         estimate D2E/DX2                !
 ! A3    A(3,1,15)             110.6068         estimate D2E/DX2                !
 ! A4    A(6,1,14)             109.664          estimate D2E/DX2                !
 ! A5    A(6,1,15)             106.7722         estimate D2E/DX2                !
 ! A6    A(14,1,15)            108.6737         estimate D2E/DX2                !
 ! A7    A(9,2,11)             111.5663         estimate D2E/DX2                !
 ! A8    A(9,2,12)             108.2545         estimate D2E/DX2                !
 ! A9    A(9,2,16)             110.3472         estimate D2E/DX2                !
 ! A10   A(11,2,12)            111.3656         estimate D2E/DX2                !
 ! A11   A(11,2,16)            104.9788         estimate D2E/DX2                !
 ! A12   A(12,2,16)            110.3261         estimate D2E/DX2                !
 ! A13   A(1,3,12)             106.1642         estimate D2E/DX2                !
 ! A14   A(1,3,13)             109.5836         estimate D2E/DX2                !
 ! A15   A(1,3,17)             108.2317         estimate D2E/DX2                !
 ! A16   A(12,3,13)            114.5982         estimate D2E/DX2                !
 ! A17   A(12,3,17)            108.515          estimate D2E/DX2                !
 ! A18   A(13,3,17)            109.5347         estimate D2E/DX2                !
 ! A19   A(7,4,8)              110.1881         estimate D2E/DX2                !
 ! A20   A(7,4,18)             109.8323         estimate D2E/DX2                !
 ! A21   A(7,4,19)             111.0782         estimate D2E/DX2                !
 ! A22   A(8,4,18)             109.1843         estimate D2E/DX2                !
 ! A23   A(8,4,19)             109.0247         estimate D2E/DX2                !
 ! A24   A(18,4,19)            107.4722         estimate D2E/DX2                !
 ! A25   A(6,5,10)             111.1706         estimate D2E/DX2                !
 ! A26   A(6,5,20)             106.3163         estimate D2E/DX2                !
 ! A27   A(6,5,21)             108.9123         estimate D2E/DX2                !
 ! A28   A(10,5,20)            111.4976         estimate D2E/DX2                !
 ! A29   A(10,5,21)            110.4542         estimate D2E/DX2                !
 ! A30   A(20,5,21)            108.3468         estimate D2E/DX2                !
 ! A31   A(1,6,5)              113.4339         estimate D2E/DX2                !
 ! A32   A(4,7,9)              109.7104         estimate D2E/DX2                !
 ! A33   A(4,7,22)             109.6507         estimate D2E/DX2                !
 ! A34   A(4,7,23)             110.5829         estimate D2E/DX2                !
 ! A35   A(9,7,22)             110.146          estimate D2E/DX2                !
 ! A36   A(9,7,23)             109.7535         estimate D2E/DX2                !
 ! A37   A(22,7,23)            106.961          estimate D2E/DX2                !
 ! A38   A(4,8,11)             111.3767         estimate D2E/DX2                !
 ! A39   A(4,8,24)             111.5178         estimate D2E/DX2                !
 ! A40   A(4,8,25)             110.6414         estimate D2E/DX2                !
 ! A41   A(11,8,24)            105.5366         estimate D2E/DX2                !
 ! A42   A(11,8,25)            109.4298         estimate D2E/DX2                !
 ! A43   A(24,8,25)            108.1621         estimate D2E/DX2                !
 ! A44   A(2,9,7)              112.0726         estimate D2E/DX2                !
 ! A45   A(2,9,26)             107.2362         estimate D2E/DX2                !
 ! A46   A(2,9,27)             108.8827         estimate D2E/DX2                !
 ! A47   A(7,9,26)             109.4795         estimate D2E/DX2                !
 ! A48   A(7,9,27)             111.551          estimate D2E/DX2                !
 ! A49   A(26,9,27)            107.4207         estimate D2E/DX2                !
 ! A50   A(5,10,13)            110.1286         estimate D2E/DX2                !
 ! A51   A(5,10,28)            109.1541         estimate D2E/DX2                !
 ! A52   A(5,10,29)            109.2874         estimate D2E/DX2                !
 ! A53   A(13,10,28)           110.4182         estimate D2E/DX2                !
 ! A54   A(13,10,29)           110.4521         estimate D2E/DX2                !
 ! A55   A(28,10,29)           107.343          estimate D2E/DX2                !
 ! A56   A(2,11,8)             115.8546         estimate D2E/DX2                !
 ! A57   A(2,12,3)             119.4306         estimate D2E/DX2                !
 ! A58   A(3,13,10)            111.1389         estimate D2E/DX2                !
 ! A59   A(3,13,30)            111.7335         estimate D2E/DX2                !
 ! A60   A(3,13,31)            106.523          estimate D2E/DX2                !
 ! A61   A(10,13,30)           111.4605         estimate D2E/DX2                !
 ! A62   A(10,13,31)           109.2955         estimate D2E/DX2                !
 ! A63   A(30,13,31)           106.4297         estimate D2E/DX2                !
 ! D1    D(6,1,3,12)           -69.5005         estimate D2E/DX2                !
 ! D2    D(6,1,3,13)            54.7707         estimate D2E/DX2                !
 ! D3    D(6,1,3,17)           174.1673         estimate D2E/DX2                !
 ! D4    D(14,1,3,12)          168.9282         estimate D2E/DX2                !
 ! D5    D(14,1,3,13)          -66.8006         estimate D2E/DX2                !
 ! D6    D(14,1,3,17)           52.596          estimate D2E/DX2                !
 ! D7    D(15,1,3,12)           49.4114         estimate D2E/DX2                !
 ! D8    D(15,1,3,13)          173.6826         estimate D2E/DX2                !
 ! D9    D(15,1,3,17)          -66.9208         estimate D2E/DX2                !
 ! D10   D(3,1,6,5)            -60.3292         estimate D2E/DX2                !
 ! D11   D(14,1,6,5)            60.946          estimate D2E/DX2                !
 ! D12   D(15,1,6,5)           178.5146         estimate D2E/DX2                !
 ! D13   D(11,2,9,7)            51.2465         estimate D2E/DX2                !
 ! D14   D(11,2,9,26)          -68.9234         estimate D2E/DX2                !
 ! D15   D(11,2,9,27)          175.138          estimate D2E/DX2                !
 ! D16   D(12,2,9,7)           -71.6327         estimate D2E/DX2                !
 ! D17   D(12,2,9,26)          168.1974         estimate D2E/DX2                !
 ! D18   D(12,2,9,27)           52.2588         estimate D2E/DX2                !
 ! D19   D(16,2,9,7)           167.5413         estimate D2E/DX2                !
 ! D20   D(16,2,9,26)           47.3714         estimate D2E/DX2                !
 ! D21   D(16,2,9,27)          -68.5672         estimate D2E/DX2                !
 ! D22   D(9,2,11,8)           -54.803          estimate D2E/DX2                !
 ! D23   D(12,2,11,8)           66.2811         estimate D2E/DX2                !
 ! D24   D(16,2,11,8)         -174.3267         estimate D2E/DX2                !
 ! D25   D(9,2,12,3)          -178.7723         estimate D2E/DX2                !
 ! D26   D(11,2,12,3)           58.2267         estimate D2E/DX2                !
 ! D27   D(16,2,12,3)          -57.9332         estimate D2E/DX2                !
 ! D28   D(1,3,12,2)           170.2558         estimate D2E/DX2                !
 ! D29   D(13,3,12,2)           49.1579         Frozen                          !
 ! D30   D(17,3,12,2)          -73.603          estimate D2E/DX2                !
 ! D31   D(1,3,13,10)          -51.1473         estimate D2E/DX2                !
 ! D32   D(1,3,13,30)         -176.3451         estimate D2E/DX2                !
 ! D33   D(1,3,13,31)           67.8155         estimate D2E/DX2                !
 ! D34   D(12,3,13,10)          68.0516         estimate D2E/DX2                !
 ! D35   D(12,3,13,30)         -57.1462         estimate D2E/DX2                !
 ! D36   D(12,3,13,31)        -172.9856         estimate D2E/DX2                !
 ! D37   D(17,3,13,10)        -169.7397         estimate D2E/DX2                !
 ! D38   D(17,3,13,30)          65.0625         estimate D2E/DX2                !
 ! D39   D(17,3,13,31)         -50.7769         estimate D2E/DX2                !
 ! D40   D(8,4,7,9)             52.8817         estimate D2E/DX2                !
 ! D41   D(8,4,7,22)           -68.2094         estimate D2E/DX2                !
 ! D42   D(8,4,7,23)           174.0816         estimate D2E/DX2                !
 ! D43   D(18,4,7,9)           -67.4367         estimate D2E/DX2                !
 ! D44   D(18,4,7,22)          171.4722         estimate D2E/DX2                !
 ! D45   D(18,4,7,23)           53.7633         estimate D2E/DX2                !
 ! D46   D(19,4,7,9)           173.8081         estimate D2E/DX2                !
 ! D47   D(19,4,7,22)           52.717          estimate D2E/DX2                !
 ! D48   D(19,4,7,23)          -64.992          estimate D2E/DX2                !
 ! D49   D(7,4,8,11)           -55.1367         estimate D2E/DX2                !
 ! D50   D(7,4,8,24)          -172.7512         estimate D2E/DX2                !
 ! D51   D(7,4,8,25)            66.8136         estimate D2E/DX2                !
 ! D52   D(18,4,8,11)           65.5712         estimate D2E/DX2                !
 ! D53   D(18,4,8,24)          -52.0433         estimate D2E/DX2                !
 ! D54   D(18,4,8,25)         -172.4785         estimate D2E/DX2                !
 ! D55   D(19,4,8,11)         -177.2845         estimate D2E/DX2                !
 ! D56   D(19,4,8,24)           65.1011         estimate D2E/DX2                !
 ! D57   D(19,4,8,25)          -55.3342         estimate D2E/DX2                !
 ! D58   D(10,5,6,1)            59.8801         estimate D2E/DX2                !
 ! D59   D(20,5,6,1)          -178.5966         estimate D2E/DX2                !
 ! D60   D(21,5,6,1)           -62.0461         estimate D2E/DX2                !
 ! D61   D(6,5,10,13)          -54.567          estimate D2E/DX2                !
 ! D62   D(6,5,10,28)         -175.9425         estimate D2E/DX2                !
 ! D63   D(6,5,10,29)           66.9362         estimate D2E/DX2                !
 ! D64   D(20,5,10,13)        -173.0133         estimate D2E/DX2                !
 ! D65   D(20,5,10,28)          65.6113         estimate D2E/DX2                !
 ! D66   D(20,5,10,29)         -51.5101         estimate D2E/DX2                !
 ! D67   D(21,5,10,13)          66.4582         estimate D2E/DX2                !
 ! D68   D(21,5,10,28)         -54.9173         estimate D2E/DX2                !
 ! D69   D(21,5,10,29)        -172.0386         estimate D2E/DX2                !
 ! D70   D(4,7,9,2)            -51.3276         estimate D2E/DX2                !
 ! D71   D(4,7,9,26)            67.5271         estimate D2E/DX2                !
 ! D72   D(4,7,9,27)          -173.7138         estimate D2E/DX2                !
 ! D73   D(22,7,9,2)            69.4644         estimate D2E/DX2                !
 ! D74   D(22,7,9,26)         -171.6809         estimate D2E/DX2                !
 ! D75   D(22,7,9,27)          -52.9218         estimate D2E/DX2                !
 ! D76   D(23,7,9,2)          -173.0257         estimate D2E/DX2                !
 ! D77   D(23,7,9,26)          -54.171          estimate D2E/DX2                !
 ! D78   D(23,7,9,27)           64.5881         estimate D2E/DX2                !
 ! D79   D(4,8,11,2)            57.3736         estimate D2E/DX2                !
 ! D80   D(24,8,11,2)          178.5483         estimate D2E/DX2                !
 ! D81   D(25,8,11,2)          -65.2756         estimate D2E/DX2                !
 ! D82   D(5,10,13,3)           51.4196         estimate D2E/DX2                !
 ! D83   D(5,10,13,30)         176.7701         estimate D2E/DX2                !
 ! D84   D(5,10,13,31)         -65.8667         estimate D2E/DX2                !
 ! D85   D(28,10,13,3)         172.0381         estimate D2E/DX2                !
 ! D86   D(28,10,13,30)        -62.6113         estimate D2E/DX2                !
 ! D87   D(28,10,13,31)         54.7519         estimate D2E/DX2                !
 ! D88   D(29,10,13,3)         -69.3873         estimate D2E/DX2                !
 ! D89   D(29,10,13,30)         55.9633         estimate D2E/DX2                !
 ! D90   D(29,10,13,31)        173.3265         estimate D2E/DX2                !
 --------------------------------------------------------------------------------
 Trust Radius=3.00D-01 FncErr=1.00D-07 GrdErr=1.00D-06 EigMax=2.50D+02 EigMin=1.00D-04
 Number of steps in this run=    186 maximum allowed number of steps=    186.
 GradGradGradGradGradGradGradGradGradGradGradGradGradGradGradGradGradGrad

                          Input orientation:                          
 ---------------------------------------------------------------------
 Center     Atomic      Atomic             Coordinates (Angstroms)
 Number     Number       Type             X           Y           Z
 ---------------------------------------------------------------------
      1          6           0       -1.919190   -0.352755    1.470955
      2          6           0        0.938385    0.170036   -0.781787
      3          6           0       -0.967256    0.535227    0.688152
      4          6           0        3.557263   -0.084366    0.420747
      5          6           0       -3.479612   -0.480369   -0.300052
      6          8           0       -2.674467   -1.191115    0.623198
      7          6           0        2.845774   -1.339296   -0.085027
      8          6           0        2.539624    0.975893    0.806344
      9          6           0        1.864627   -0.963466   -1.196219
     10          6           0       -2.631120    0.401248   -1.204141
     11          8           0        1.656793    1.263037   -0.270803
     12          8           0        0.032112   -0.326773    0.157102
     13          6           0       -1.749717    1.325438   -0.361691
     14          1           0       -2.587792    0.271618    2.058158
     15          1           0       -1.371264   -0.999604    2.141848
     16          1           0        0.413535    0.558195   -1.640067
     17          1           0       -0.495982    1.222294    1.382271
     18          1           0        4.207151    0.310109   -0.357000
     19          1           0        4.179136   -0.308466    1.282827
     20          1           0       -4.020901   -1.225117   -0.867396
     21          1           0       -4.199990    0.121231    0.250336
     22          1           0        2.316787   -1.815426    0.736058
     23          1           0        3.565123   -2.061225   -0.459362
     24          1           0        3.017624    1.915355    1.047364
     25          1           0        1.964460    0.657959    1.669369
     26          1           0        2.417311   -0.625082   -2.068464
     27          1           0        1.264148   -1.813561   -1.501912
     28          1           0       -3.283576    0.983489   -1.848426
     29          1           0       -2.018939   -0.226384   -1.845395
     30          1           0       -1.095304    1.923673   -0.983211
     31          1           0       -2.379702    2.024209    0.183344
 ---------------------------------------------------------------------
                    Distance matrix (angstroms):
                    1          2          3          4          5
     1  C    0.000000
     2  C    3.676125   0.000000
     3  C    1.519036   2.434246   0.000000
     4  C    5.582697   2.892979   4.574568   0.000000
     5  C    2.363825   4.491525   2.884426   7.084771   0.000000
     6  O    1.411376   4.108456   2.428795   6.332483   1.416266
     7  C    5.108740   2.530156   4.318662   1.528683   6.387057
     8  C    4.699791   2.394897   3.536434   1.519350   6.290947
     9  C    4.669481   1.521350   3.717055   2.500482   5.440348
    10  C    2.869060   3.601834   2.523325   6.416554   1.521369
    11  O    4.293269   1.404231   2.887029   2.430128   5.424295
    12  O    2.352544   1.396303   1.422601   3.543298   3.544684
    13  C    2.490712   2.955897   1.529330   5.546512   2.501455
    14  H    1.087050   4.528745   2.138351   6.369422   2.630966
    15  H    1.081080   3.905148   2.152246   5.300021   3.267662
    16  H    3.993732   1.078323   2.706975   3.813511   4.246275
    17  H    2.124656   2.801393   1.084418   4.365854   3.825091
    18  H    6.427508   3.299227   5.283702   1.087592   7.727511
    19  H    6.101388   3.872217   5.248886   1.086337   7.822498
    20  H    3.262835   5.152504   3.852699   7.771049   1.081445
    21  H    2.629947   5.241236   3.288411   7.761848   1.088023
    22  H    4.541253   2.854103   4.038911   2.152852   6.037727
    23  H    6.059924   3.461537   5.347973   2.163937   7.221688
    24  H    5.449393   3.273403   4.232382   2.163965   7.054722
    25  H    4.017916   2.701678   3.093996   2.155719   5.900197
    26  H    5.604185   2.115413   4.516696   2.790705   6.158078
    27  H    4.594076   2.135265   3.910543   3.456170   5.071994
    28  H    3.829541   4.429941   3.464175   7.286051   2.139807
    29  H    3.320256   3.167677   2.846919   6.020764   2.141532
    30  H    3.447295   2.692899   2.176610   5.258298   3.454135
    31  H    2.742257   3.921624   2.113505   6.304760   2.777838
                    6          7          8          9         10
     6  O    0.000000
     7  C    5.567459   0.000000
     8  C    5.649443   2.499674   0.000000
     9  C    4.895455   1.529263   2.868273   0.000000
    10  C    2.424184   5.854765   5.577532   4.698324   0.000000
    11  O    5.057857   2.867111   1.422001   2.420104   4.472136
    12  O    2.879219   3.000087   2.899322   2.365368   3.078279
    13  C    2.856258   5.319388   4.459253   4.358784   1.529941
    14  H    2.050905   6.059037   5.324794   5.651587   3.265161
    15  H    2.010302   4.780980   4.580524   4.649192   3.839956
    16  H    4.209300   3.454621   3.267974   2.148981   3.079706
    17  H    3.338642   4.458928   3.099566   4.122940   3.452891
    18  H    7.111338   2.155888   2.139459   2.795300   6.891147
    19  H    6.941618   2.170597   2.136496   3.454221   7.284799
    20  H    2.008958   6.912045   7.119434   5.900511   2.165630
    21  H    2.046582   7.203360   6.816303   6.328402   2.157607
    22  H    5.031413   1.086604   2.801082   2.159625   5.758455
    23  H    6.392301   1.085712   3.446411   2.154001   6.709091
    24  H    6.498459   3.450304   1.081279   3.827620   6.266586
    25  H    5.102273   2.800651   1.084762   3.294022   5.426077
    26  H    5.787196   2.151210   3.292811   1.086635   5.223702
    27  H    4.518431   2.175783   3.838742   1.084751   4.490786
    28  H    3.347961   6.787771   6.399806   5.542563   1.086189
    29  H    2.730270   5.291777   5.409037   4.005846   1.086229
    30  H    3.843984   5.194786   4.160949   4.140306   2.173780
    31  H    3.258630   6.220192   5.068221   5.370635   2.149960
                   11         12         13         14         15
    11  O    0.000000
    12  O    2.313047   0.000000
    13  C    3.408294   2.484726   0.000000
    14  H    4.942011   3.291805   2.769219   0.000000
    15  H    4.484368   2.522178   3.437551   1.761519   0.000000
    16  H    1.979236   2.039232   2.627274   4.771473   4.462637
    17  H    2.714545   2.044390   2.150324   2.395053   2.505974
    18  H    2.723936   4.254512   6.042780   7.211499   6.251264
    19  H    3.353446   4.297139   6.365955   6.835858   5.658845
    20  H    6.227603   4.275925   3.452440   3.585092   4.015841
    21  H    5.989759   4.256770   2.797951   2.426936   3.582706
    22  H    3.305495   2.787655   5.254192   5.491684   4.030326
    23  H    3.837707   3.983782   6.302900   7.045454   5.679899
    24  H    2.003733   3.838357   5.006094   5.928260   5.381191
    25  H    2.055492   2.643978   4.285539   4.585130   3.754705
    26  H    2.715689   3.275867   4.907313   6.548598   5.676292
    27  H    3.336953   2.545737   4.498533   5.644423   4.570001
    28  H    5.193678   4.090564   2.163339   4.031411   4.848905
    29  H    4.267168   2.868254   2.163795   3.976094   4.112841
    30  H    2.918562   2.763311   1.082787   3.769182   4.288088
    31  H    4.132666   3.368182   1.087302   2.574841   3.741140
                   16         17         18         19         20
    16  H    0.000000
    17  H    3.225333   0.000000
    18  H    4.012397   5.096725   0.000000
    19  H    4.845014   4.920350   1.752841   0.000000
    20  H    4.841637   4.845191   8.385599   8.526683   0.000000
    21  H    5.004915   4.026573   8.431166   8.453427   1.758991
    22  H    3.860365   4.190108   3.047319   2.457281   6.563979
    23  H    4.264731   5.537660   2.458842   2.546448   7.642861
    24  H    3.980634   3.596932   2.442136   2.519907   7.941644
    25  H    3.656185   2.540605   3.042505   2.447076   6.767991
    26  H    2.366176   4.879308   2.647115   3.799398   6.576715
    27  H    2.523461   4.542355   3.805531   4.303166   5.355429
    28  H    3.727321   4.273770   7.667384   8.195484   2.526660
    29  H    2.564109   3.851739   6.423966   6.943244   2.441680
    30  H    2.138360   2.539020   5.577792   6.159309   4.299699
    31  H    3.643652   2.372529   6.827645   7.047595   3.788893
                   21         22         23         24         25
    21  H    0.000000
    22  H    6.815787   0.000000
    23  H    8.097146   1.745792   0.000000
    24  H    7.479845   3.808781   4.287560   0.000000
    25  H    6.348399   2.666990   3.806255   1.754163   0.000000
    26  H    7.051418   3.048338   2.443192   4.064798   3.977771
    27  H    6.055625   2.473168   2.538254   4.845441   4.081161
    28  H    2.447061   6.773297   7.622628   6.997078   6.326352
    29  H    3.044652   5.290319   6.038996   6.190482   5.385452
    30  H    3.795986   5.345944   6.154138   4.586881   4.242684
    31  H    2.634248   6.091412   7.241877   5.467130   4.790266
                   26         27         28         29         30
    26  H    0.000000
    27  H    1.750214   0.000000
    28  H    5.927565   5.350267   0.000000
    29  H    4.459712   3.662755   1.750174   0.000000
    30  H    4.473521   4.450054   2.533984   2.493834   0.000000
    31  H    5.924586   5.553936   2.455234   3.051410   1.737998
                   31
    31  H    0.000000
 Stoichiometry    C10H18O3
 Framework group  C1[X(C10H18O3)]
 Deg. of freedom    87
 Full point group                 C1      NOp   1
 Largest Abelian subgroup         C1      NOp   1
 Largest concise Abelian subgroup C1      NOp   1
                         Standard orientation:                         
 ---------------------------------------------------------------------
 Center     Atomic      Atomic             Coordinates (Angstroms)
 Number     Number       Type             X           Y           Z
 ---------------------------------------------------------------------
      1          6           0       -1.919190   -0.352755    1.470955
      2          6           0        0.938385    0.170036   -0.781787
      3          6           0       -0.967256    0.535227    0.688152
      4          6           0        3.557263   -0.084366    0.420747
      5          6           0       -3.479612   -0.480369   -0.300052
      6          8           0       -2.674467   -1.191115    0.623198
      7          6           0        2.845774   -1.339296   -0.085027
      8          6           0        2.539624    0.975893    0.806344
      9          6           0        1.864627   -0.963466   -1.196219
     10          6           0       -2.631120    0.401248   -1.204141
     11          8           0        1.656793    1.263037   -0.270803
     12          8           0        0.032112   -0.326773    0.157102
     13          6           0       -1.749717    1.325438   -0.361691
     14          1           0       -2.587792    0.271618    2.058158
     15          1           0       -1.371264   -0.999604    2.141848
     16          1           0        0.413535    0.558195   -1.640067
     17          1           0       -0.495982    1.222294    1.382271
     18          1           0        4.207151    0.310109   -0.357000
     19          1           0        4.179136   -0.308466    1.282827
     20          1           0       -4.020901   -1.225117   -0.867396
     21          1           0       -4.199990    0.121231    0.250336
     22          1           0        2.316787   -1.815426    0.736058
     23          1           0        3.565123   -2.061225   -0.459362
     24          1           0        3.017624    1.915355    1.047364
     25          1           0        1.964460    0.657959    1.669369
     26          1           0        2.417311   -0.625082   -2.068464
     27          1           0        1.264148   -1.813561   -1.501912
     28          1           0       -3.283576    0.983489   -1.848426
     29          1           0       -2.018939   -0.226384   -1.845395
     30          1           0       -1.095304    1.923673   -0.983211
     31          1           0       -2.379702    2.024209    0.183344
 ---------------------------------------------------------------------
 Rotational constants (GHZ):           1.7850450           0.4489014           0.4389114
 Standard basis: 6-311++G(2d,2p) (5D, 7F)
 There are   557 symmetry adapted cartesian basis functions of A   symmetry.
 There are   531 symmetry adapted basis functions of A   symmetry.
   531 basis functions,   762 primitive gaussians,   557 cartesian basis functions
    51 alpha electrons       51 beta electrons
       nuclear repulsion energy       908.3069030647 Hartrees.
 NAtoms=   31 NActive=   31 NUniq=   31 SFac= 1.00D+00 NAtFMM=   60 NAOKFM=F Big=F
 Integral buffers will be    131072 words long.
 Raffenetti 2 integral format.
 Two-electron integral symmetry is turned on.
 ------------------------------------------------------------------------------
 Polarizable Continuum Model (PCM)
 =================================
 Model                : PCM.
 Atomic radii         : SMD-Coulomb.
 Polarization charges : Total charges.
 Charge compensation  : None.
 Solution method      : On-the-fly selection.
 Cavity type          : VdW (van der Waals Surface) (Alpha=1.000).
 Cavity algorithm     : GePol (No added spheres)
                        Default sphere list used, NSphG=   31.
                        Lebedev-Laikov grids with approx.  5.0 points / Ang**2.
                        Smoothing algorithm: York/Karplus (Gamma=1.0000).
                        Polarization charges: spherical gaussians, with
                                              point-specific exponents (IZeta= 3).
                        Self-potential: point-specific (ISelfS= 7).
                        Self-field    : sphere-specific E.n sum rule (ISelfD= 2).
 1st derivatives      : Analytical E(r).r(x)/FMM algorithm (CHGder, D1EAlg=3).
                        Cavity 1st derivative terms included.
 Solvent              : Water, Eps=  78.355300 Eps(inf)=   1.777849
 ------------------------------------------------------------------------------
 ------------------------------------------------------------------------------
 Atomic radii for non-electrostatic terms: SMD-CDS.
 ------------------------------------------------------------------------------
 Nuclear repulsion after PCM non-electrostatic terms =      908.3132338171 Hartrees.
 One-electron integrals computed using PRISM.
 NBasis=   531 RedAO= T EigKep=  3.95D-06  NBF=   531
 NBsUse=   531 1.00D-06 EigRej= -1.00D+00 NBFU=   531
 ExpMin= 3.60D-02 ExpMax= 8.59D+03 ExpMxC= 1.30D+03 IAcc=3 IRadAn=         5 AccDes= 0.00D+00
 Harris functional with IExCor= 1009 and IRadAn=       5 diagonalized for initial guess.
 HarFok:  IExCor= 1009 AccDes= 0.00D+00 IRadAn=         5 IDoV= 1 UseB2=F ITyADJ=14
 ICtDFT=  3500011 ScaDFX=  1.000000  1.000000  1.000000  1.000000
 FoFCou: FMM=F IPFlag=           0 FMFlag=      100000 FMFlg1=           0
         NFxFlg=           0 DoJE=T BraDBF=F KetDBF=T FulRan=T
         wScrn=  0.000000 ICntrl=       500 IOpCl=  0 I1Cent=   200000004 NGrid=           0
         NMat0=    1 NMatS0=      1 NMatT0=    0 NMatD0=    1 NMtDS0=    0 NMtDT0=    0
 Petite list used in FoFCou.
 Requested convergence on RMS density matrix=1.00D-08 within 128 cycles.
 Requested convergence on MAX density matrix=1.00D-06.
 Requested convergence on             energy=1.00D-06.
 No special actions if energy rises.
 Inv3:  Mode=1 IEnd=    12096192.
 Iteration    1 A*A^-1 deviation from unit magnitude is 5.00D-15 for    225.
 Iteration    1 A*A^-1 deviation from orthogonality  is 3.25D-15 for   1670    252.
 Iteration    1 A^-1*A deviation from unit magnitude is 4.66D-15 for   2008.
 Iteration    1 A^-1*A deviation from orthogonality  is 1.34D-15 for   1348   1113.
 Error on total polarization charges =  0.06065
 SCF Done:  E(RM062X) =  -617.506973991     A.U. after   12 cycles
            NFock= 12  Conv=0.46D-08     -V/T= 2.0035
 SMD-CDS (non-electrostatic) energy       (kcal/mol) =       3.97
 (included in total energy above)

 **********************************************************************

            Population analysis using the SCF Density.

 **********************************************************************

 Orbital symmetries:
       Occupied  (A) (A) (A) (A) (A) (A) (A) (A) (A) (A) (A) (A)
                 (A) (A) (A) (A) (A) (A) (A) (A) (A) (A) (A) (A)
                 (A) (A) (A) (A) (A) (A) (A) (A) (A) (A) (A) (A)
                 (A) (A) (A) (A) (A) (A) (A) (A) (A) (A) (A) (A)
                 (A) (A) (A)
       Virtual   (A) (A) (A) (A) (A) (A) (A) (A) (A) (A) (A) (A)
                 (A) (A) (A) (A) (A) (A) (A) (A) (A) (A) (A) (A)
                 (A) (A) (A) (A) (A) (A) (A) (A) (A) (A) (A) (A)
                 (A) (A) (A) (A) (A) (A) (A) (A) (A) (A) (A) (A)
                 (A) (A) (A) (A) (A) (A) (A) (A) (A) (A) (A) (A)
                 (A) (A) (A) (A) (A) (A) (A) (A) (A) (A) (A) (A)
                 (A) (A) (A) (A) (A) (A) (A) (A) (A) (A) (A) (A)
                 (A) (A) (A) (A) (A) (A) (A) (A) (A) (A) (A) (A)
                 (A) (A) (A) (A) (A) (A) (A) (A) (A) (A) (A) (A)
                 (A) (A) (A) (A) (A) (A) (A) (A) (A) (A) (A) (A)
                 (A) (A) (A) (A) (A) (A) (A) (A) (A) (A) (A) (A)
                 (A) (A) (A) (A) (A) (A) (A) (A) (A) (A) (A) (A)
                 (A) (A) (A) (A) (A) (A) (A) (A) (A) (A) (A) (A)
                 (A) (A) (A) (A) (A) (A) (A) (A) (A) (A) (A) (A)
                 (A) (A) (A) (A) (A) (A) (A) (A) (A) (A) (A) (A)
                 (A) (A) (A) (A) (A) (A) (A) (A) (A) (A) (A) (A)
                 (A) (A) (A) (A) (A) (A) (A) (A) (A) (A) (A) (A)
                 (A) (A) (A) (A) (A) (A) (A) (A) (A) (A) (A) (A)
                 (A) (A) (A) (A) (A) (A) (A) (A) (A) (A) (A) (A)
                 (A) (A) (A) (A) (A) (A) (A) (A) (A) (A) (A) (A)
                 (A) (A) (A) (A) (A) (A) (A) (A) (A) (A) (A) (A)
                 (A) (A) (A) (A) (A) (A) (A) (A) (A) (A) (A) (A)
                 (A) (A) (A) (A) (A) (A) (A) (A) (A) (A) (A) (A)
                 (A) (A) (A) (A) (A) (A) (A) (A) (A) (A) (A) (A)
                 (A) (A) (A) (A) (A) (A) (A) (A) (A) (A) (A) (A)
                 (A) (A) (A) (A) (A) (A) (A) (A) (A) (A) (A) (A)
                 (A) (A) (A) (A) (A) (A) (A) (A) (A) (A) (A) (A)
                 (A) (A) (A) (A) (A) (A) (A) (A) (A) (A) (A) (A)
                 (A) (A) (A) (A) (A) (A) (A) (A) (A) (A) (A) (A)
                 (A) (A) (A) (A) (A) (A) (A) (A) (A) (A) (A) (A)
                 (A) (A) (A) (A) (A) (A) (A) (A) (A) (A) (A) (A)
                 (A) (A) (A) (A) (A) (A) (A) (A) (A) (A) (A) (A)
                 (A) (A) (A) (A) (A) (A) (A) (A) (A) (A) (A) (A)
                 (A) (A) (A) (A) (A) (A) (A) (A) (A) (A) (A) (A)
                 (A) (A) (A) (A) (A) (A) (A) (A) (A) (A) (A) (A)
                 (A) (A) (A) (A) (A) (A) (A) (A) (A) (A) (A) (A)
                 (A) (A) (A) (A) (A) (A) (A) (A) (A) (A) (A) (A)
                 (A) (A) (A) (A) (A) (A) (A) (A) (A) (A) (A) (A)
                 (A) (A) (A) (A) (A) (A) (A) (A) (A) (A) (A) (A)
                 (A) (A) (A) (A) (A) (A) (A) (A) (A) (A) (A) (A)
 The electronic state is 1-A.
 Alpha  occ. eigenvalues --  -19.62922 -19.62857 -19.62747 -10.62884 -10.58239
 Alpha  occ. eigenvalues --  -10.57388 -10.57149 -10.57120 -10.52525 -10.52307
 Alpha  occ. eigenvalues --  -10.52248 -10.52248 -10.52070  -1.20224  -1.16609
 Alpha  occ. eigenvalues --   -1.13310  -0.90412  -0.89006  -0.87341  -0.84291
 Alpha  occ. eigenvalues --   -0.74753  -0.73664  -0.72495  -0.70903  -0.66038
 Alpha  occ. eigenvalues --   -0.61818  -0.59734  -0.58474  -0.57032  -0.55588
 Alpha  occ. eigenvalues --   -0.53583  -0.53081  -0.52107  -0.51033  -0.49471
 Alpha  occ. eigenvalues --   -0.46952  -0.46609  -0.46073  -0.45422  -0.44968
 Alpha  occ. eigenvalues --   -0.43199  -0.42755  -0.40554  -0.39631  -0.38791
 Alpha  occ. eigenvalues --   -0.38060  -0.37187  -0.35448  -0.34212  -0.33111
 Alpha  occ. eigenvalues --   -0.32266
 Alpha virt. eigenvalues --    0.00320   0.01313   0.01345   0.01548   0.02737
 Alpha virt. eigenvalues --    0.02926   0.03143   0.03809   0.03993   0.05021
 Alpha virt. eigenvalues --    0.05130   0.05318   0.05796   0.06421   0.07672
 Alpha virt. eigenvalues --    0.07975   0.08271   0.08758   0.09118   0.10015
 Alpha virt. eigenvalues --    0.10260   0.11107   0.11255   0.12122   0.12543
 Alpha virt. eigenvalues --    0.12977   0.13286   0.13493   0.14067   0.14097
 Alpha virt. eigenvalues --    0.14277   0.14653   0.14837   0.15103   0.15240
 Alpha virt. eigenvalues --    0.15583   0.15659   0.15911   0.16547   0.16808
 Alpha virt. eigenvalues --    0.16906   0.17364   0.17897   0.18207   0.18356
 Alpha virt. eigenvalues --    0.18827   0.19070   0.19431   0.19784   0.20091
 Alpha virt. eigenvalues --    0.20495   0.20545   0.21211   0.21596   0.22110
 Alpha virt. eigenvalues --    0.22789   0.23242   0.23629   0.23879   0.24704
 Alpha virt. eigenvalues --    0.25319   0.25868   0.26917   0.27292   0.27835
 Alpha virt. eigenvalues --    0.28464   0.28634   0.29221   0.29542   0.29591
 Alpha virt. eigenvalues --    0.30069   0.30768   0.31050   0.32268   0.32743
 Alpha virt. eigenvalues --    0.33184   0.33384   0.33885   0.34534   0.35410
 Alpha virt. eigenvalues --    0.35555   0.35824   0.35953   0.36620   0.36907
 Alpha virt. eigenvalues --    0.37075   0.37302   0.37808   0.38089   0.38763
 Alpha virt. eigenvalues --    0.39066   0.39961   0.40011   0.40773   0.41252
 Alpha virt. eigenvalues --    0.42640   0.43511   0.43874   0.44597   0.45279
 Alpha virt. eigenvalues --    0.46619   0.48101   0.50212   0.50672   0.51450
 Alpha virt. eigenvalues --    0.52316   0.53093   0.54062   0.54764   0.56152
 Alpha virt. eigenvalues --    0.57748   0.58020   0.58681   0.59655   0.59960
 Alpha virt. eigenvalues --    0.60745   0.61137   0.61699   0.62003   0.62227
 Alpha virt. eigenvalues --    0.63005   0.63268   0.64633   0.65434   0.65793
 Alpha virt. eigenvalues --    0.66011   0.66275   0.66441   0.67296   0.67664
 Alpha virt. eigenvalues --    0.68363   0.69168   0.69702   0.70217   0.70656
 Alpha virt. eigenvalues --    0.71065   0.71718   0.72362   0.72768   0.73204
 Alpha virt. eigenvalues --    0.73893   0.74341   0.74608   0.75655   0.76517
 Alpha virt. eigenvalues --    0.77211   0.77542   0.78465   0.79050   0.80047
 Alpha virt. eigenvalues --    0.80890   0.82617   0.84533   0.85013   0.86787
 Alpha virt. eigenvalues --    0.87188   0.88618   0.88959   0.89554   0.89721
 Alpha virt. eigenvalues --    0.91340   0.91946   0.93743   0.95331   0.97520
 Alpha virt. eigenvalues --    0.99105   0.99947   1.00275   1.01736   1.01919
 Alpha virt. eigenvalues --    1.03333   1.05252   1.05739   1.06567   1.07291
 Alpha virt. eigenvalues --    1.07846   1.09314   1.09756   1.11512   1.12912
 Alpha virt. eigenvalues --    1.13863   1.14954   1.15555   1.17147   1.17462
 Alpha virt. eigenvalues --    1.17849   1.18760   1.19946   1.21242   1.21515
 Alpha virt. eigenvalues --    1.22491   1.23360   1.23502   1.24203   1.25379
 Alpha virt. eigenvalues --    1.25886   1.26393   1.26660   1.27197   1.28348
 Alpha virt. eigenvalues --    1.29015   1.30859   1.32024   1.32274   1.32388
 Alpha virt. eigenvalues --    1.32919   1.33989   1.34719   1.35905   1.36501
 Alpha virt. eigenvalues --    1.36660   1.37436   1.38042   1.38975   1.39325
 Alpha virt. eigenvalues --    1.39797   1.40239   1.40487   1.40688   1.42160
 Alpha virt. eigenvalues --    1.42870   1.43528   1.44122   1.45392   1.46383
 Alpha virt. eigenvalues --    1.46530   1.47797   1.48404   1.48585   1.48994
 Alpha virt. eigenvalues --    1.49233   1.50745   1.51095   1.52460   1.52810
 Alpha virt. eigenvalues --    1.53124   1.53524   1.54610   1.55514   1.56531
 Alpha virt. eigenvalues --    1.56971   1.57853   1.58538   1.58775   1.59453
 Alpha virt. eigenvalues --    1.60101   1.60656   1.61855   1.62685   1.63573
 Alpha virt. eigenvalues --    1.64751   1.65333   1.65682   1.66703   1.67276
 Alpha virt. eigenvalues --    1.68114   1.68673   1.70119   1.70861   1.72587
 Alpha virt. eigenvalues --    1.73887   1.75184   1.75832   1.77974   1.78296
 Alpha virt. eigenvalues --    1.78825   1.80474   1.81538   1.83436   1.84042
 Alpha virt. eigenvalues --    1.86633   1.90311   1.91444   1.97579   2.03869
 Alpha virt. eigenvalues --    2.04615   2.08819   2.16405   2.18042   2.22236
 Alpha virt. eigenvalues --    2.25689   2.27741   2.28641   2.36370   2.40065
 Alpha virt. eigenvalues --    2.41995   2.43218   2.44348   2.46863   2.53332
 Alpha virt. eigenvalues --    2.61914   2.76607   2.77387   2.78927   2.83676
 Alpha virt. eigenvalues --    2.84738   2.87984   2.92937   2.93749   2.95254
 Alpha virt. eigenvalues --    2.96967   2.97433   3.00045   3.02040   3.04286
 Alpha virt. eigenvalues --    3.07553   3.07883   3.09334   3.10841   3.13307
 Alpha virt. eigenvalues --    3.14272   3.16495   3.17347   3.20556   3.23108
 Alpha virt. eigenvalues --    3.27028   3.30942   3.32999   3.33381   3.35187
 Alpha virt. eigenvalues --    3.36340   3.37198   3.38326   3.39492   3.41909
 Alpha virt. eigenvalues --    3.43135   3.43970   3.46515   3.47311   3.48855
 Alpha virt. eigenvalues --    3.49441   3.50546   3.51650   3.51809   3.52114
 Alpha virt. eigenvalues --    3.53826   3.54038   3.54684   3.55520   3.56759
 Alpha virt. eigenvalues --    3.57768   3.58265   3.58511   3.59297   3.60061
 Alpha virt. eigenvalues --    3.60971   3.62529   3.63079   3.65643   3.66511
 Alpha virt. eigenvalues --    3.66871   3.67913   3.68478   3.69765   3.70569
 Alpha virt. eigenvalues --    3.71144   3.71817   3.72830   3.74195   3.75045
 Alpha virt. eigenvalues --    3.75305   3.76522   3.76914   3.77559   3.78907
 Alpha virt. eigenvalues --    3.79524   3.80879   3.81798   3.82854   3.84916
 Alpha virt. eigenvalues --    3.85500   3.88052   3.90179   3.91846   3.92352
 Alpha virt. eigenvalues --    3.93151   3.95015   3.96533   3.98143   3.99196
 Alpha virt. eigenvalues --    4.00214   4.01611   4.02378   4.04090   4.04238
 Alpha virt. eigenvalues --    4.05561   4.06316   4.07228   4.08044   4.08114
 Alpha virt. eigenvalues --    4.08935   4.09293   4.09952   4.10963   4.12339
 Alpha virt. eigenvalues --    4.12847   4.13217   4.14931   4.15264   4.16647
 Alpha virt. eigenvalues --    4.17918   4.18793   4.19536   4.20011   4.22795
 Alpha virt. eigenvalues --    4.23172   4.23604   4.25633   4.26386   4.28091
 Alpha virt. eigenvalues --    4.29164   4.30305   4.30820   4.31444   4.32330
 Alpha virt. eigenvalues --    4.33300   4.34046   4.35729   4.36758   4.39097
 Alpha virt. eigenvalues --    4.41103   4.43940   4.45417   4.47674   4.48378
 Alpha virt. eigenvalues --    4.58691   4.62545   4.73728   4.76101   4.83650
 Alpha virt. eigenvalues --    4.85938   4.95043   4.96329   5.01798   5.04852
 Alpha virt. eigenvalues --    5.07302   5.08200   5.08559   5.09470   5.12084
 Alpha virt. eigenvalues --    5.12837   5.14543   5.15251   5.31982   5.39001
 Alpha virt. eigenvalues --    5.43852   5.58244   5.59819   5.66398   5.86555
 Alpha virt. eigenvalues --    5.87591   6.05286   7.03416   7.05395   7.06414
 Alpha virt. eigenvalues --    7.09715   7.10775   7.12450   7.14994   7.20468
 Alpha virt. eigenvalues --    7.25441   7.36975   7.38780   7.48006   7.54805
 Alpha virt. eigenvalues --    7.55228   7.66337  23.96954  23.98338  24.06262
 Alpha virt. eigenvalues --   24.08546  24.12188  24.12407  24.14731  24.16117
 Alpha virt. eigenvalues --   24.17823  24.22926  50.15525  50.19331  50.26622
          Condensed to atoms (all electrons):
               1          2          3          4          5          6
     1  C    6.050141   0.094305  -0.570583   0.018942  -0.256946   0.087027
     2  C    0.094305   7.557624  -0.699632   0.470379   0.056329  -0.028872
     3  C   -0.570583  -0.699632   7.185624  -0.064875   0.278949   0.023770
     4  C    0.018942   0.470379  -0.064875   5.629680  -0.000774  -0.000191
     5  C   -0.256946   0.056329   0.278949  -0.000774   5.546177   0.083157
     6  O    0.087027  -0.028872   0.023770  -0.000191   0.083157   8.387328
     7  C   -0.022916  -0.329886   0.082480  -0.022187   0.007367   0.003176
     8  C   -0.002283  -0.556545   0.125423  -0.015230  -0.004759  -0.000103
     9  C   -0.021321  -1.356059   0.349186  -0.312318   0.013768   0.011332
    10  C    0.102412   0.036236  -0.237240   0.000492   0.114921   0.013668
    11  O    0.016065   0.200997   0.081505  -0.081745   0.001448  -0.000018
    12  O   -0.103120   0.191240  -0.006877  -0.013345  -0.017698   0.035931
    13  C    0.150788   0.148148  -0.860282   0.030860  -0.293507  -0.009605
    14  H    0.482418  -0.014696  -0.048612  -0.000408   0.003633  -0.057194
    15  H    0.434525   0.001154  -0.041161   0.002976   0.002143  -0.073897
    16  H    0.003996   0.558475  -0.061372   0.017506   0.001695  -0.001444
    17  H   -0.025125  -0.066200   0.457967  -0.010195  -0.023419   0.009491
    18  H    0.000040  -0.002809  -0.002610   0.486371   0.000041  -0.000033
    19  H   -0.000752   0.002451   0.000543   0.451244  -0.000100   0.000021
    20  H    0.005509  -0.000372   0.004717  -0.000225   0.447609  -0.063111
    21  H   -0.021301  -0.004411   0.031231   0.000198   0.452898  -0.058267
    22  H   -0.003481  -0.017158  -0.003102  -0.065783  -0.000317  -0.000243
    23  H   -0.001694   0.008256   0.005611  -0.032492   0.000099   0.000206
    24  H    0.002804   0.000191  -0.000248  -0.020871  -0.000207  -0.000071
    25  H    0.000653  -0.021073   0.001904  -0.061405   0.004101   0.000275
    26  H    0.004065  -0.140348   0.003820  -0.017820  -0.000940   0.000030
    27  H   -0.005476  -0.018051  -0.002881  -0.000296   0.001772  -0.000614
    28  H    0.000368  -0.000742  -0.004307  -0.000257  -0.022045   0.010199
    29  H    0.012568  -0.014374  -0.035526  -0.000541  -0.114828  -0.009804
    30  H    0.002360  -0.019686  -0.015490   0.002307  -0.013058  -0.003425
    31  H   -0.010837   0.002785  -0.061704   0.000180  -0.019320  -0.000242
               7          8          9         10         11         12
     1  C   -0.022916  -0.002283  -0.021321   0.102412   0.016065  -0.103120
     2  C   -0.329886  -0.556545  -1.356059   0.036236   0.200997   0.191240
     3  C    0.082480   0.125423   0.349186  -0.237240   0.081505  -0.006877
     4  C   -0.022187  -0.015230  -0.312318   0.000492  -0.081745  -0.013345
     5  C    0.007367  -0.004759   0.013768   0.114921   0.001448  -0.017698
     6  O    0.003176  -0.000103   0.011332   0.013668  -0.000018   0.035931
     7  C    5.715033  -0.026889   0.096519   0.005237   0.011859  -0.001081
     8  C   -0.026889   5.513196   0.272179  -0.006515   0.088677   0.003767
     9  C    0.096519   0.272179   6.961925   0.014417   0.021614  -0.053810
    10  C    0.005237  -0.006515   0.014417   5.569649  -0.001274   0.010863
    11  O    0.011859   0.088677   0.021614  -0.001274   8.283226  -0.047605
    12  O   -0.001081   0.003767  -0.053810   0.010863  -0.047605   8.386147
    13  C   -0.037327  -0.019088  -0.317334  -0.121570  -0.108070  -0.006421
    14  H    0.002268   0.002122   0.004942   0.027247   0.000651   0.014304
    15  H   -0.003823  -0.002723  -0.005488   0.001630  -0.001555   0.001206
    16  H   -0.008257  -0.042481  -0.116354   0.004070  -0.068814  -0.044778
    17  H   -0.002533   0.011276   0.017407  -0.029717   0.006471  -0.038834
    18  H   -0.021699  -0.084475  -0.006100  -0.000674  -0.001392  -0.000570
    19  H   -0.047508  -0.042053  -0.000538   0.000366   0.008942   0.001401
    20  H    0.000725  -0.000264   0.000907  -0.062934   0.000160   0.000878
    21  H   -0.000389   0.000217  -0.000030  -0.015378  -0.000073   0.001099
    22  H    0.518415   0.003143  -0.049871   0.000310   0.001678  -0.000816
    23  H    0.436242   0.010879  -0.047184   0.000768  -0.004063  -0.000015
    24  H    0.006668   0.427023  -0.000754  -0.000144  -0.064173   0.001542
    25  H    0.000592   0.458088   0.036414   0.000656  -0.026954   0.008099
    26  H   -0.006408   0.017809   0.525268  -0.001210  -0.006100   0.010380
    27  H   -0.039212  -0.000796   0.427358  -0.003103   0.007509  -0.003052
    28  H    0.000509   0.000285  -0.000204   0.438873  -0.000169   0.000314
    29  H   -0.002206   0.002796   0.001117   0.499012  -0.000411   0.012789
    30  H   -0.001353   0.004264  -0.005374  -0.023636   0.001873  -0.004542
    31  H    0.000393  -0.000444  -0.005674  -0.032532  -0.002443   0.001946
              13         14         15         16         17         18
     1  C    0.150788   0.482418   0.434525   0.003996  -0.025125   0.000040
     2  C    0.148148  -0.014696   0.001154   0.558475  -0.066200  -0.002809
     3  C   -0.860282  -0.048612  -0.041161  -0.061372   0.457967  -0.002610
     4  C    0.030860  -0.000408   0.002976   0.017506  -0.010195   0.486371
     5  C   -0.293507   0.003633   0.002143   0.001695  -0.023419   0.000041
     6  O   -0.009605  -0.057194  -0.073897  -0.001444   0.009491  -0.000033
     7  C   -0.037327   0.002268  -0.003823  -0.008257  -0.002533  -0.021699
     8  C   -0.019088   0.002122  -0.002723  -0.042481   0.011276  -0.084475
     9  C   -0.317334   0.004942  -0.005488  -0.116354   0.017407  -0.006100
    10  C   -0.121570   0.027247   0.001630   0.004070  -0.029717  -0.000674
    11  O   -0.108070   0.000651  -0.001555  -0.068814   0.006471  -0.001392
    12  O   -0.006421   0.014304   0.001206  -0.044778  -0.038834  -0.000570
    13  C    6.909940  -0.067094   0.026056   0.040752   0.028200   0.000004
    14  H   -0.067094   0.454760  -0.004339  -0.001576  -0.007299  -0.000089
    15  H    0.026056  -0.004339   0.464280   0.000360  -0.008928   0.000030
    16  H    0.040752  -0.001576   0.000360   0.479560  -0.003306   0.001613
    17  H    0.028200  -0.007299  -0.008928  -0.003306   0.456886   0.000190
    18  H    0.000004  -0.000089   0.000030   0.001613   0.000190   0.477760
    19  H    0.002064   0.000044   0.000053   0.000986   0.000203  -0.011593
    20  H    0.010628  -0.000115   0.000521   0.001310  -0.000230  -0.000001
    21  H   -0.039064   0.004599  -0.001097  -0.000378   0.002292   0.000001
    22  H    0.004023  -0.000115  -0.001280  -0.002761   0.000407   0.001321
    23  H   -0.002632   0.000075   0.000098   0.002534   0.000446  -0.002131
    24  H    0.002152   0.000097   0.000194  -0.001931  -0.000901  -0.004781
    25  H   -0.024676   0.000773  -0.003754   0.003545  -0.009590   0.004475
    26  H    0.000064   0.000152   0.000136  -0.017255  -0.000147  -0.002775
    27  H    0.007010  -0.000064  -0.000148  -0.007542  -0.000690  -0.000830
    28  H   -0.046966   0.000554   0.001005   0.000033  -0.000216  -0.000025
    29  H    0.009546  -0.000413  -0.000526  -0.010006   0.001953  -0.000195
    30  H    0.433837  -0.000782   0.000824  -0.020521   0.000425  -0.000155
    31  H    0.487940  -0.002110  -0.000508   0.001396  -0.006235  -0.000075
              19         20         21         22         23         24
     1  C   -0.000752   0.005509  -0.021301  -0.003481  -0.001694   0.002804
     2  C    0.002451  -0.000372  -0.004411  -0.017158   0.008256   0.000191
     3  C    0.000543   0.004717   0.031231  -0.003102   0.005611  -0.000248
     4  C    0.451244  -0.000225   0.000198  -0.065783  -0.032492  -0.020871
     5  C   -0.000100   0.447609   0.452898  -0.000317   0.000099  -0.000207
     6  O    0.000021  -0.063111  -0.058267  -0.000243   0.000206  -0.000071
     7  C   -0.047508   0.000725  -0.000389   0.518415   0.436242   0.006668
     8  C   -0.042053  -0.000264   0.000217   0.003143   0.010879   0.427023
     9  C   -0.000538   0.000907  -0.000030  -0.049871  -0.047184  -0.000754
    10  C    0.000366  -0.062934  -0.015378   0.000310   0.000768  -0.000144
    11  O    0.008942   0.000160  -0.000073   0.001678  -0.004063  -0.064173
    12  O    0.001401   0.000878   0.001099  -0.000816  -0.000015   0.001542
    13  C    0.002064   0.010628  -0.039064   0.004023  -0.002632   0.002152
    14  H    0.000044  -0.000115   0.004599  -0.000115   0.000075   0.000097
    15  H    0.000053   0.000521  -0.001097  -0.001280   0.000098   0.000194
    16  H    0.000986   0.001310  -0.000378  -0.002761   0.002534  -0.001931
    17  H    0.000203  -0.000230   0.002292   0.000407   0.000446  -0.000901
    18  H   -0.011593  -0.000001   0.000001   0.001321  -0.002131  -0.004781
    19  H    0.477887  -0.000008   0.000010  -0.004012  -0.006551  -0.010709
    20  H   -0.000008   0.464464  -0.002800   0.000022   0.000052  -0.000036
    21  H    0.000010  -0.002800   0.479775  -0.000035  -0.000012   0.000032
    22  H   -0.004012   0.000022  -0.000035   0.455363  -0.007795  -0.002254
    23  H   -0.006551   0.000052  -0.000012  -0.007795   0.463777   0.001059
    24  H   -0.010709  -0.000036   0.000032  -0.002254   0.001059   0.461355
    25  H   -0.000500   0.000281  -0.000378  -0.001282  -0.001251  -0.011688
    26  H   -0.002319  -0.000083  -0.000032   0.001321  -0.003710   0.000585
    27  H    0.000746   0.000048  -0.000131  -0.000941  -0.009010   0.000866
    28  H    0.000014  -0.009530   0.003836   0.000053   0.000031   0.000007
    29  H    0.000077  -0.004550   0.003167  -0.000111   0.000044   0.000142
    30  H    0.000074  -0.000308  -0.000006  -0.000031  -0.000140   0.000080
    31  H    0.000061  -0.001413  -0.002758   0.000005   0.000005  -0.000040
              25         26         27         28         29         30
     1  C    0.000653   0.004065  -0.005476   0.000368   0.012568   0.002360
     2  C   -0.021073  -0.140348  -0.018051  -0.000742  -0.014374  -0.019686
     3  C    0.001904   0.003820  -0.002881  -0.004307  -0.035526  -0.015490
     4  C   -0.061405  -0.017820  -0.000296  -0.000257  -0.000541   0.002307
     5  C    0.004101  -0.000940   0.001772  -0.022045  -0.114828  -0.013058
     6  O    0.000275   0.000030  -0.000614   0.010199  -0.009804  -0.003425
     7  C    0.000592  -0.006408  -0.039212   0.000509  -0.002206  -0.001353
     8  C    0.458088   0.017809  -0.000796   0.000285   0.002796   0.004264
     9  C    0.036414   0.525268   0.427358  -0.000204   0.001117  -0.005374
    10  C    0.000656  -0.001210  -0.003103   0.438873   0.499012  -0.023636
    11  O   -0.026954  -0.006100   0.007509  -0.000169  -0.000411   0.001873
    12  O    0.008099   0.010380  -0.003052   0.000314   0.012789  -0.004542
    13  C   -0.024676   0.000064   0.007010  -0.046966   0.009546   0.433837
    14  H    0.000773   0.000152  -0.000064   0.000554  -0.000413  -0.000782
    15  H   -0.003754   0.000136  -0.000148   0.001005  -0.000526   0.000824
    16  H    0.003545  -0.017255  -0.007542   0.000033  -0.010006  -0.020521
    17  H   -0.009590  -0.000147  -0.000690  -0.000216   0.001953   0.000425
    18  H    0.004475  -0.002775  -0.000830  -0.000025  -0.000195  -0.000155
    19  H   -0.000500  -0.002319   0.000746   0.000014   0.000077   0.000074
    20  H    0.000281  -0.000083   0.000048  -0.009530  -0.004550  -0.000308
    21  H   -0.000378  -0.000032  -0.000131   0.003836   0.003167  -0.000006
    22  H   -0.001282   0.001321  -0.000941   0.000053  -0.000111  -0.000031
    23  H   -0.001251  -0.003710  -0.009010   0.000031   0.000044  -0.000140
    24  H   -0.011688   0.000585   0.000866   0.000007   0.000142   0.000080
    25  H    0.503907  -0.000978  -0.000141  -0.000101  -0.000833  -0.002099
    26  H   -0.000978   0.438838  -0.002819  -0.000005   0.000900   0.000778
    27  H   -0.000141  -0.002819   0.460996   0.000149  -0.002787  -0.000816
    28  H   -0.000101  -0.000005   0.000149   0.470463  -0.011906  -0.005767
    29  H   -0.000833   0.000900  -0.002787  -0.011906   0.497682   0.002708
    30  H   -0.002099   0.000778  -0.000816  -0.005767   0.002708   0.457030
    31  H   -0.000561   0.000045   0.000075  -0.006157   0.004059   0.000793
              31
     1  C   -0.010837
     2  C    0.002785
     3  C   -0.061704
     4  C    0.000180
     5  C   -0.019320
     6  O   -0.000242
     7  C    0.000393
     8  C   -0.000444
     9  C   -0.005674
    10  C   -0.032532
    11  O   -0.002443
    12  O    0.001946
    13  C    0.487940
    14  H   -0.002110
    15  H   -0.000508
    16  H    0.001396
    17  H   -0.006235
    18  H   -0.000075
    19  H    0.000061
    20  H   -0.001413
    21  H   -0.002758
    22  H    0.000005
    23  H    0.000005
    24  H   -0.000040
    25  H   -0.000561
    26  H    0.000045
    27  H    0.000075
    28  H   -0.006157
    29  H    0.004059
    30  H    0.000793
    31  H    0.412941
 Mulliken charges:
               1
     1  C   -0.423151
     2  C   -0.037654
     3  C    0.083772
     4  C   -0.390180
     5  C   -0.248189
     6  O   -0.358479
     7  C   -0.313808
     8  C   -0.136498
     9  C   -0.455941
    10  C   -0.304901
    11  O   -0.317815
    12  O   -0.339342
    13  C   -0.338374
    14  H    0.206265
    15  H    0.212035
    16  H    0.290945
    17  H    0.239951
    18  H    0.171169
    19  H    0.179458
    20  H    0.208150
    21  H    0.167187
    22  H    0.175326
    23  H    0.188499
    24  H    0.214013
    25  H    0.143504
    26  H    0.198758
    27  H    0.192872
    28  H    0.181706
    29  H    0.160457
    30  H    0.209834
    31  H    0.240429
 Sum of Mulliken charges =  -0.00000
 Mulliken charges with hydrogens summed into heavy atoms:
               1
     1  C   -0.004851
     2  C    0.253291
     3  C    0.323723
     4  C   -0.039553
     5  C    0.127149
     6  O   -0.358479
     7  C    0.050018
     8  C    0.221019
     9  C   -0.064311
    10  C    0.037262
    11  O   -0.317815
    12  O   -0.339342
    13  C    0.111890
 Electronic spatial extent (au):  <R**2>=           2815.0348
 Charge=              0.0000 electrons
 Dipole moment (field-independent basis, Debye):
    X=              0.2282    Y=              1.9666    Z=             -0.0424  Tot=              1.9803
 Quadrupole moment (field-independent basis, Debye-Ang):
   XX=            -70.4904   YY=            -85.7028   ZZ=            -74.3012
   XY=             -9.1038   XZ=              3.5711   YZ=              3.8844
 Traceless Quadrupole moment (field-independent basis, Debye-Ang):
   XX=              6.3411   YY=             -8.8714   ZZ=              2.5303
   XY=             -9.1038   XZ=              3.5711   YZ=              3.8844
 Octapole moment (field-independent basis, Debye-Ang**2):
  XXX=             -2.0008  YYY=              2.2479  ZZZ=              4.8567  XYY=              4.2234
  XXY=             13.4246  XXZ=             -3.3242  XZZ=             -2.1957  YZZ=              0.7902
  YYZ=              0.1271  XYZ=             -0.6807
 Hexadecapole moment (field-independent basis, Debye-Ang**3):
 XXXX=          -2633.5537 YYYY=           -523.8593 ZZZZ=           -456.8797 XXXY=            -23.1316
 XXXZ=             45.5354 YYYX=             -5.9785 YYYZ=             10.1087 ZZZX=            -10.7871
 ZZZY=             -5.4225 XXYY=           -561.4864 XXZZ=           -519.5864 YYZZ=           -159.2429
 XXYZ=             31.8974 YYXZ=             14.1924 ZZXY=              1.3432
 N-N= 9.083132338171D+02 E-N=-3.259043903741D+03  KE= 6.153556822037D+02
 D1PCM: PCM CHGder 1st derivatives, ID1Alg=3 FixD1E=F DoIter=F DoCFld=F I1PDM=0.
 Calling FoFJK, ICntrl=      2127 FMM=F ISym2X=0 I1Cent= 0 IOpClX= 0 NMat=1 NMatS=1 NMatT=0.
 ***** Axes restored to original set *****
 -------------------------------------------------------------------
 Center     Atomic                   Forces (Hartrees/Bohr)
 Number     Number              X              Y              Z
 -------------------------------------------------------------------
      1        6           0.001623745    0.005104700   -0.003581244
      2        6           0.005300918   -0.003970825    0.001787402
      3        6          -0.001491288    0.004841769   -0.002044573
      4        6          -0.003008160   -0.000915191    0.000735417
      5        6           0.004089985    0.005180911   -0.002711825
      6        8           0.000934572   -0.012292052    0.000009167
      7        6          -0.000913940    0.004072715   -0.001161668
      8        6           0.003130683   -0.006502448   -0.001889053
      9        6           0.000295211   -0.000070537    0.003057967
     10        6          -0.000194888    0.001162500    0.003323048
     11        8          -0.001069024    0.013502763   -0.004585007
     12        8          -0.003246477   -0.015612658    0.002759425
     13        6          -0.001934880   -0.005778304    0.000572446
     14        1          -0.002764904    0.004202379    0.002645459
     15        1           0.003198822   -0.002927755    0.002717284
     16        1          -0.003882667    0.003516522   -0.006540908
     17        1           0.002344572    0.004333898    0.003941700
     18        1           0.001318001    0.001446497   -0.002778424
     19        1           0.001442590   -0.000627090    0.002240181
     20        1          -0.002108477   -0.003049376   -0.002542532
     21        1          -0.003262669    0.004028129    0.002539130
     22        1          -0.002328742   -0.000856035    0.002816480
     23        1           0.001664016   -0.001594648   -0.001047824
     24        1           0.002066640    0.003794203    0.001014840
     25        1          -0.003200683   -0.002685117    0.004875559
     26        1           0.001593928    0.001685057   -0.002301295
     27        1          -0.002128960   -0.002434937   -0.000665964
     28        1          -0.001553682    0.001543436   -0.001578589
     29        1           0.002816525   -0.002660299   -0.001589058
     30        1           0.003447714    0.001743846   -0.002136594
     31        1          -0.002178480    0.001817946    0.002119054
 -------------------------------------------------------------------
 Cartesian Forces:  Max     0.015612658 RMS     0.003785747

 GradGradGradGradGradGradGradGradGradGradGradGradGradGradGradGradGradGrad
 Berny optimization.
 FormGI is forming the generalized inverse of G from B-inverse, IUseBI=4.
 Internal  Forces:  Max     0.015911930 RMS     0.002345229
 Search for a local minimum.
 Step number   1 out of a maximum of  186
 All quantities printed in internal units (Hartrees-Bohrs-Radians)
 Mixed Optimization -- RFO/linear search
 Second derivative matrix not updated -- first step.
 ITU=  0
     Eigenvalues ---    0.00612   0.00622   0.00726   0.00739   0.01410
     Eigenvalues ---    0.01440   0.01741   0.02699   0.02808   0.03049
     Eigenvalues ---    0.03076   0.04084   0.04340   0.04488   0.04754
     Eigenvalues ---    0.04889   0.04896   0.04998   0.05142   0.05145
     Eigenvalues ---    0.05278   0.05684   0.05714   0.06179   0.06182
     Eigenvalues ---    0.06351   0.06861   0.07015   0.07606   0.07863
     Eigenvalues ---    0.07915   0.07943   0.07962   0.08209   0.08259
     Eigenvalues ---    0.08836   0.09230   0.09325   0.10707   0.11604
     Eigenvalues ---    0.11697   0.11727   0.11762   0.12399   0.12528
     Eigenvalues ---    0.14636   0.14750   0.15892   0.16495   0.17413
     Eigenvalues ---    0.19164   0.21424   0.21951   0.25000   0.28496
     Eigenvalues ---    0.28655   0.28799   0.28881   0.28907   0.28946
     Eigenvalues ---    0.30334   0.30353   0.35042   0.35092   0.35126
     Eigenvalues ---    0.35156   0.35204   0.35208   0.35239   0.35252
     Eigenvalues ---    0.35257   0.35313   0.35425   0.35426   0.35466
     Eigenvalues ---    0.35660   0.35820   0.35840   0.35864   0.36198
     Eigenvalues ---    0.40791   0.41411   0.42071   0.42270   0.43404
     Eigenvalues ---    0.462391000.000001000.000001000.000001000.00000
     Eigenvalues --- 1000.000001000.000001000.000001000.000001000.00000
     Eigenvalues --- 1000.000001000.000001000.000001000.000001000.00000
     Eigenvalues --- 1000.000001000.000001000.000001000.000001000.00000
     Eigenvalues --- 1000.000001000.000001000.000001000.000001000.00000
     Eigenvalues --- 1000.000001000.000001000.000001000.000001000.00000
     Eigenvalues --- 1000.000001000.000001000.000001000.000001000.00000
     Eigenvalues --- 1000.000001000.000001000.000001000.000001000.00000
     Eigenvalues --- 1000.000001000.000001000.000001000.000001000.00000
     Eigenvalues --- 1000.000001000.000001000.000001000.000001000.00000
     Eigenvalues --- 1000.000001000.000001000.000001000.000001000.00000
     Eigenvalues --- 1000.000001000.000001000.000001000.000001000.00000
     Eigenvalues --- 1000.000001000.000001000.000001000.000001000.00000
     Eigenvalues --- 1000.000001000.000001000.000001000.000001000.00000
     Eigenvalues --- 1000.000001000.000001000.000001000.000001000.00000
     Eigenvalues --- 1000.000001000.000001000.000001000.000001000.00000
     Eigenvalues --- 1000.000001000.000001000.000001000.000001000.00000
     Eigenvalues --- 1000.000001000.000001000.000001000.000001000.00000
     Eigenvalues --- 1000.000001000.000001000.000001000.000001000.00000
     Eigenvalues --- 1000.000001000.000001000.000001000.000001000.00000
 RFO step:  Lambda=-4.18732380D-03 EMin= 6.12248215D-03
 Linear search not attempted -- first point.
 Iteration  1 RMS(Cart)=  0.05469928 RMS(Int)=  0.00063568
 Iteration  2 RMS(Cart)=  0.00257585 RMS(Int)=  0.00004414
 Iteration  3 RMS(Cart)=  0.00000225 RMS(Int)=  0.00004412
 Iteration  4 RMS(Cart)=  0.00000000 RMS(Int)=  0.00004412
 Iteration  1 RMS(Cart)=  0.00002923 RMS(Int)=  0.00000636
 Iteration  2 RMS(Cart)=  0.00001614 RMS(Int)=  0.00000710
 Iteration  3 RMS(Cart)=  0.00000891 RMS(Int)=  0.00000803
 Iteration  4 RMS(Cart)=  0.00000492 RMS(Int)=  0.00000865
 Iteration  5 RMS(Cart)=  0.00000272 RMS(Int)=  0.00000902
 Iteration  6 RMS(Cart)=  0.00000150 RMS(Int)=  0.00000923
 Iteration  7 RMS(Cart)=  0.00000083 RMS(Int)=  0.00000935
 Variable       Old X    -DE/DX   Delta X   Delta X   Delta X     New X
                                 (Linear)    (Quad)   (Total)
    R1        2.87056  -0.00101   0.00000  -0.00286  -0.00282   2.86774
    R2        2.66711   0.00619   0.00000   0.01496   0.01500   2.68211
    R3        2.05423   0.00554   0.00000   0.01558   0.01558   2.06980
    R4        2.04295   0.00506   0.00000   0.01395   0.01395   2.05689
    R5        2.87493  -0.00132   0.00000  -0.00423  -0.00424   2.87070
    R6        2.65361   0.00727   0.00000   0.01620   0.01623   2.66984
    R7        2.63863   0.00616   0.00000   0.01320   0.01320   2.65184
    R8        2.03773   0.00836   0.00000   0.02284   0.02284   2.06057
    R9        2.68833   0.00293   0.00000   0.00689   0.00689   2.69522
   R10        2.89001  -0.00230   0.00000  -0.00880  -0.00881   2.88121
   R11        2.04925   0.00629   0.00000   0.01752   0.01752   2.06677
   R12        2.88879  -0.00082   0.00000  -0.00300  -0.00303   2.88577
   R13        2.87115  -0.00068   0.00000  -0.00226  -0.00225   2.86890
   R14        2.05525   0.00330   0.00000   0.00929   0.00929   2.06454
   R15        2.05288   0.00273   0.00000   0.00766   0.00766   2.06054
   R16        2.67635   0.00612   0.00000   0.01487   0.01488   2.69124
   R17        2.87497  -0.00059   0.00000  -0.00220  -0.00224   2.87274
   R18        2.04363   0.00449   0.00000   0.01239   0.01239   2.05603
   R19        2.05607   0.00567   0.00000   0.01599   0.01599   2.07206
   R20        2.88989  -0.00124   0.00000  -0.00439  -0.00441   2.88548
   R21        2.05338   0.00363   0.00000   0.01020   0.01020   2.06359
   R22        2.05170   0.00252   0.00000   0.00706   0.00706   2.05876
   R23        2.68719   0.00568   0.00000   0.01352   0.01354   2.70073
   R24        2.04332   0.00444   0.00000   0.01224   0.01224   2.05556
   R25        2.04990   0.00636   0.00000   0.01775   0.01775   2.06765
   R26        2.05344   0.00318   0.00000   0.00894   0.00894   2.06238
   R27        2.04988   0.00327   0.00000   0.00913   0.00913   2.05901
   R28        2.89117  -0.00149   0.00000  -0.00643  -0.00647   2.88470
   R29        2.05260   0.00270   0.00000   0.00756   0.00756   2.06016
   R30        2.05268   0.00406   0.00000   0.01139   0.01139   2.06406
   R31        2.04617   0.00427   0.00000   0.01184   0.01184   2.05801
   R32        2.05470   0.00349   0.00000   0.00983   0.00983   2.06453
    A1        1.95309   0.00016   0.00000   0.00077   0.00083   1.95392
    A2        1.90503  -0.00150   0.00000  -0.00668  -0.00671   1.89832
    A3        1.93045  -0.00021   0.00000  -0.00709  -0.00712   1.92333
    A4        1.91400   0.00160   0.00000   0.01183   0.01181   1.92581
    A5        1.86353  -0.00066   0.00000  -0.00337  -0.00341   1.86012
    A6        1.89671   0.00067   0.00000   0.00500   0.00498   1.90169
    A7        1.94720   0.00281   0.00000   0.01208   0.01195   1.95915
    A8        1.88940  -0.00209   0.00000  -0.01098  -0.01091   1.87848
    A9        1.92592   0.00029   0.00000   0.00675   0.00677   1.93269
   A10        1.94370  -0.00045   0.00000  -0.00848  -0.00839   1.93531
   A11        1.83223  -0.00180   0.00000  -0.00799  -0.00803   1.82419
   A12        1.92555   0.00134   0.00000   0.00933   0.00933   1.93488
   A13        1.85292   0.00008   0.00000  -0.00474  -0.00491   1.84801
   A14        1.91259   0.00118   0.00000   0.00003  -0.00018   1.91241
   A15        1.88900  -0.00030   0.00000   0.00654   0.00652   1.89552
   A16        2.00012  -0.00213   0.00000  -0.02280  -0.02282   1.97730
   A17        1.89394   0.00153   0.00000   0.01809   0.01813   1.91207
   A18        1.91174  -0.00027   0.00000   0.00417   0.00426   1.91600
   A19        1.92314  -0.00038   0.00000  -0.00366  -0.00382   1.91932
   A20        1.91694   0.00073   0.00000   0.00178   0.00185   1.91879
   A21        1.93868  -0.00055   0.00000  -0.00115  -0.00114   1.93754
   A22        1.90563  -0.00010   0.00000  -0.00149  -0.00145   1.90418
   A23        1.90284   0.00013   0.00000  -0.00019  -0.00014   1.90270
   A24        1.87574   0.00019   0.00000   0.00489   0.00486   1.88061
   A25        1.94029   0.00071   0.00000   0.00535   0.00528   1.94557
   A26        1.85557  -0.00085   0.00000  -0.00272  -0.00269   1.85288
   A27        1.90088   0.00099   0.00000   0.00522   0.00526   1.90614
   A28        1.94600  -0.00028   0.00000  -0.00285  -0.00284   1.94316
   A29        1.92779  -0.00106   0.00000  -0.00783  -0.00782   1.91997
   A30        1.89101   0.00055   0.00000   0.00324   0.00321   1.89422
   A31        1.97980  -0.00396   0.00000  -0.02317  -0.02312   1.95668
   A32        1.91481   0.00247   0.00000  -0.00004  -0.00006   1.91474
   A33        1.91377  -0.00116   0.00000  -0.00262  -0.00266   1.91111
   A34        1.93003  -0.00036   0.00000   0.00129   0.00133   1.93137
   A35        1.92241  -0.00087   0.00000  -0.00330  -0.00331   1.91910
   A36        1.91556  -0.00085   0.00000  -0.00031  -0.00030   1.91526
   A37        1.86682   0.00069   0.00000   0.00504   0.00504   1.87186
   A38        1.94389   0.00159   0.00000   0.00393   0.00391   1.94780
   A39        1.94635  -0.00012   0.00000  -0.00201  -0.00196   1.94439
   A40        1.93106  -0.00130   0.00000  -0.00537  -0.00541   1.92565
   A41        1.84196  -0.00108   0.00000  -0.00152  -0.00153   1.84043
   A42        1.90991   0.00040   0.00000   0.00256   0.00260   1.91251
   A43        1.88778   0.00052   0.00000   0.00269   0.00268   1.89047
   A44        1.95604  -0.00132   0.00000  -0.01240  -0.01250   1.94354
   A45        1.87162  -0.00021   0.00000   0.00083   0.00085   1.87247
   A46        1.90036   0.00055   0.00000  -0.00190  -0.00188   1.89848
   A47        1.91078   0.00123   0.00000   0.00785   0.00789   1.91867
   A48        1.94693  -0.00025   0.00000  -0.00006  -0.00013   1.94680
   A49        1.87485   0.00005   0.00000   0.00649   0.00646   1.88131
   A50        1.92211  -0.00006   0.00000  -0.00708  -0.00718   1.91492
   A51        1.90510   0.00036   0.00000   0.00220   0.00224   1.90734
   A52        1.90742  -0.00033   0.00000   0.00005   0.00005   1.90747
   A53        1.92716  -0.00065   0.00000  -0.00018  -0.00015   1.92701
   A54        1.92775   0.00041   0.00000  -0.00044  -0.00043   1.92733
   A55        1.87349   0.00027   0.00000   0.00582   0.00580   1.87929
   A56        2.02204  -0.00595   0.00000  -0.03495  -0.03483   1.98722
   A57        2.08446  -0.01591   0.00000  -0.06260  -0.06260   2.02186
   A58        1.93974   0.00124   0.00000  -0.00909  -0.00920   1.93054
   A59        1.95012  -0.00098   0.00000  -0.01017  -0.01020   1.93992
   A60        1.85918  -0.00049   0.00000   0.00509   0.00514   1.86432
   A61        1.94535  -0.00022   0.00000  -0.00032  -0.00045   1.94491
   A62        1.90757  -0.00012   0.00000   0.00807   0.00810   1.91566
   A63        1.85755   0.00054   0.00000   0.00798   0.00798   1.86552
    D1       -1.21301   0.00246   0.00000   0.05080   0.05081  -1.16220
    D2        0.95593   0.00062   0.00000   0.02012   0.02010   0.97603
[...]
 0.00045476,-0.00100100,0.00192499,0.00008160,0.00015317,0.00004820,-0.
 00001123,0.00000269,-0.00000303,-0.00004584,0.00001916,-0.00003300,-0.
 00036053,-0.00039496,-0.00002022,-0.00043975,0.00023172,0.00017361,0.0
 0105427,-0.00073988,0.00085822,0.00030132,-0.00030265,0.00039567,0.000
 00359,-0.00000044,0.00000013,0.00000241,-0.00000330,-0.00000076,-0.000
 09793,-0.00037041,-0.00023004,-0.00006137,-0.00008597,0.00014240,-0.00
 340025,-0.00193509,0.00799555,-0.11469443,-0.07291502,0.21800039,-0.00
 012800,0.00054614,0.00018576,-0.01084925,-0.01045785,0.01493745,0.0005
 9194,-0.00132355,0.00035966,0.00113666,0.00053657,0.00034900,0.0000776
 9,-0.00003781,0.00002539,-0.00011915,-0.00008103,-0.00007438,0.0110226
 7,0.00752180,-0.01849339,-0.00020349,0.00013322,-0.00010895,-0.1195038
 5,-0.04470735,0.10905039,0.00001905,0.00005542,-0.00000531,0.00115650,
 -0.00042127,-0.00094844,-0.00505335,0.00482428,0.00331490,-0.00006303,
 0.00004674,0.00014810,-0.00016520,-0.00011720,0.00008536,0.00001538,-0
 .00001386,-0.00000373,0.00039968,-0.00045766,-0.00040186,-0.00013437,0
 .00020927,0.00016852,-0.00013514,0.00000190,0.00040537,-0.00002739,0.0
 0016110,0.00023886,-0.00001587,-0.00000484,-0.00000460,-0.00000779,0.0
 0001024,0.00000420,-0.00215939,0.00070274,-0.00387316,0.00112108,-0.00
 024304,0.00092486,0.00005917,-0.00002598,0.00001021,-0.00004120,-0.000
 03368,-0.00000089,0.13161439,0.00017536,-0.00049887,-0.00018227,0.0115
 0511,0.00761381,-0.01905339,0.00028930,0.00123034,-0.00043755,0.000046
 47,0.00029773,-0.00089231,-0.00005668,0.00002591,-0.00002027,0.0000813
 6,0.00006363,0.00006587,-0.00373612,-0.00415567,0.00745404,0.00028571,
 -0.00002502,0.00002304,-0.04865238,-0.07857932,0.06998162,-0.00000678,
 -0.00003671,0.00000560,-0.00011502,0.00097012,0.00077586,0.00461427,-0
 .00363674,-0.00277558,0.00001590,-0.00000041,-0.00009998,0.00014735,0.
 00009659,-0.00008795,-0.00001659,0.00000777,0.00000290,-0.00055282,0.0
 0095626,0.00038548,0.00000382,-0.00007820,-0.00005881,0.00004645,0.000
 36639,-0.00002414,0.00012237,-0.00000468,-0.00008635,0.00001175,0.0000
 0245,0.00000413,0.00000501,-0.00000771,-0.00000370,0.00160824,0.000682
 69,0.00138198,-0.00030859,0.00016255,-0.00021350,-0.00004607,0.0000232
 3,-0.00000455,-0.00000774,-0.00001390,0.00004527,0.04718651,0.08208779
 ,0.00003979,-0.00022477,-0.00006971,0.00362240,0.00441233,-0.00843578,
 -0.00009923,0.00075465,0.00034190,0.00100640,0.00022324,0.00076781,-0.
 00003279,0.00001444,-0.00001126,0.00004860,0.00002636,0.00003308,0.011
 69547,0.00871515,-0.02031401,-0.00017000,0.00000440,-0.00010890,0.1095
 4939,0.06689541,-0.21027772,-0.00000838,-0.00002133,-0.00000486,-0.000
 47500,0.00003675,0.00064759,0.00174277,-0.00179002,0.00009034,0.000056
 13,-0.00005655,-0.00010528,0.00005432,0.00004792,-0.00004009,-0.000009
 76,0.00001001,0.00000034,-0.00019465,-0.00035288,0.00069902,-0.0000035
 6,-0.00003204,-0.00003302,-0.00021459,-0.00046079,0.00002751,-0.000243
 94,-0.00000343,0.00026131,0.00000715,0.00000262,0.00000193,0.00000401,
 -0.00000448,-0.00000164,-0.00343301,0.00089163,-0.00280219,0.00008834,
 -0.00018891,0.00128209,0.00004942,-0.00007083,-0.00002970,0.00000047,0
 .00004296,0.00002333,-0.11803006,-0.07660630,0.22967483,0.00002607,-0.
 00006262,-0.00001943,0.01132464,0.01461533,0.00595684,0.00046745,-0.00
 004785,-0.00018241,-0.00185470,0.00252316,-0.00379439,-0.00000128,-0.0
 0000690,-0.00000299,0.00000452,0.00000617,-0.00000188,-0.01010858,-0.0
 1665535,-0.00424786,-0.00107912,0.00052971,-0.00065647,-0.12366785,-0.
 11520109,-0.04096379,-0.00001515,0.00001527,0.00003695,-0.00101504,0.0
 0594763,0.00323972,0.00038966,0.00030202,0.00002539,0.00000914,-0.0000
 0188,-0.00003598,0.00001109,0.00001556,-0.00001078,-0.00000260,0.00000
 218,-0.00000215,0.00051361,-0.00089421,-0.00060575,0.00000914,0.000061
 10,0.00000282,0.00012763,0.00030622,0.00016279,-0.00036246,-0.00133390
 ,-0.00074821,0.00000151,0.00000055,0.00000084,0.00000168,0.00000086,-0
 .00000302,0.00102402,0.00030910,0.00030118,0.00033637,-0.00000829,0.00
 078959,0.00021268,-0.00015354,0.00011910,0.00010566,-0.00006194,0.0000
 7884,-0.00851881,-0.01270391,-0.00508747,0.13198904,0.00002042,-0.0000
 3956,-0.00000795,-0.01587543,-0.01706302,-0.00511149,0.00025703,0.0002
 6257,0.00019980,0.00136592,0.00034754,0.00160093,0.00000672,-0.0000046
 2,-0.00000086,0.00001375,0.00000665,0.00000304,0.00531917,0.00916521,0
 .00275637,0.00100353,-0.00017932,0.00153169,-0.11169664,-0.22148189,-0
 .06341039,0.00000054,-0.00000154,-0.00001108,0.00270861,-0.00592723,-0
 .00343828,-0.00093317,0.00148986,0.00089649,-0.00000491,-0.00003353,0.
 00002166,0.00000928,0.00000052,-0.00000780,-0.00000151,-0.00000225,-0.
 00000024,0.00022891,0.00064542,0.00041724,-0.00009409,0.00008067,0.000
 08619,0.00002480,0.00000523,0.00000783,0.00029949,0.00038855,0.0003585
 2,0.00000365,0.00000401,0.00000042,0.00000030,0.00000159,0.00000125,-0
 .00045241,0.00041913,-0.00052752,-0.00049986,0.00036592,-0.00063685,-0
 .00017762,0.00005065,-0.00015601,-0.00008688,0.00007489,-0.00019131,-0
 .00404681,-0.00750121,-0.00225633,0.12256364,0.23892829,-0.00000776,0.
 00001480,0.00000188,-0.00477574,-0.00678705,-0.00481816,-0.00011215,0.
 00008465,0.00012814,-0.00301305,0.00278400,-0.00317407,0.00000940,-0.0
 0001100,0.00000627,-0.00000784,0.00000658,-0.00000159,-0.01214326,-0.0
 2055089,-0.00744768,-0.00005036,0.00048601,0.00060201,-0.03917140,-0.0
 6069547,-0.06894791,-0.00000775,0.00001181,0.00000159,0.00089590,-0.00
 209409,0.00029580,-0.00013407,0.00003609,0.00042532,-0.00000704,-0.000
 01164,0.00001907,-0.00000644,-0.00000345,0.00000309,-0.00000033,-0.000
 00183,-0.00000384,0.00027656,0.00004402,0.00005719,-0.00002647,0.00000
 977,0.00001727,-0.00015483,-0.00022148,0.00012431,-0.00067016,-0.00128
 803,-0.00042379,0.00000099,0.00000130,-0.00000034,-0.00000026,0.000002
 64,-0.00000139,0.00094518,-0.00031016,0.00095810,0.00048221,0.00031366
 ,0.00087857,0.00005761,-0.00006357,0.00002642,0.00006471,-0.00000552,-
 0.00004716,0.01185703,0.02033143,0.00833532,0.04567381,0.06791919,0.07
 301736,-0.00098819,-0.00080725,-0.00024475,0.00051142,0.00011332,-0.00
 005976,-0.00092068,-0.00385294,-0.00153928,-0.00000138,-0.00000120,-0.
 00000800,0.01259720,-0.00881816,0.01049236,-0.00058854,-0.00414240,0.0
 0501849,-0.00000704,0.00001595,0.00002502,0.00005209,-0.00001763,0.000
 04409,-0.00003842,-0.00004719,-0.00000743,-0.13696190,0.08471500,-0.09
 419593,-0.00020756,-0.00008519,-0.00009157,-0.00011900,-0.00010294,0.0
 0011872,-0.01067708,0.01063442,-0.01115388,0.00011056,0.00008678,0.000
 04838,0.00017753,0.00023038,0.00007660,-0.00002824,0.00000262,-0.00010
 268,-0.00052775,0.00077398,-0.00094368,-0.00000536,0.00000176,0.000003
 92,-0.00000865,0.00000325,-0.00000204,0.00049184,0.00038321,-0.0009453
 1,0.00063627,0.00085716,-0.00048204,-0.00000064,-0.00000095,-0.0000005
 0,-0.00001307,0.00000759,-0.00000960,-0.00001770,-0.00000616,-0.000008
 69,0.00000407,-0.00000431,0.00001837,-0.00002823,0.00001764,0.00001006
 ,0.00000403,0.00000415,0.00000039,0.14552293,-0.00094851,-0.00102637,-
 0.00070596,0.00011541,0.00009475,-0.00009806,-0.00229088,-0.00331304,-
 0.00260205,-0.00000437,-0.00000232,0.00000255,0.01288387,-0.00886100,0
 .00761773,-0.00200002,-0.00253093,0.00540426,-0.00000201,-0.00000122,0
 .00000228,0.00001425,0.00001417,0.00000137,-0.00001698,-0.00002076,0.0
 0002024,0.08409109,-0.12629673,0.09167909,-0.00002841,-0.00000264,0.00
 001121,-0.00004573,0.00025094,0.00034653,-0.01284252,0.01270663,-0.014
 86206,0.00013399,0.00011935,0.00010534,0.00017643,0.00017501,0.0000931
 4,0.00001478,-0.00003549,0.00006439,-0.00061641,0.00059185,-0.00104528
 ,-0.00000213,0.00000214,0.00000085,-0.00000138,0.00000044,-0.00000033,
 0.00009952,0.00025990,-0.00076533,-0.00015044,0.00070122,-0.00012755,-
 0.00000108,-0.00000054,0.00000028,-0.00000183,0.00000093,-0.00000003,-
 0.00000285,-0.00000289,0.00000089,0.00000841,-0.00000434,0.00001250,-0
 .00000871,0.00000731,0.00000261,-0.00000422,-0.00000062,-0.00000036,-0
 .08947032,0.13574399,0.00053991,0.00031362,0.00129319,0.00028800,0.000
 17874,-0.00018497,-0.00116902,-0.00422417,-0.00081171,-0.00000384,-0.0
 0000017,-0.00000438,-0.01301059,0.00814364,-0.01095244,0.00195406,0.00
 365120,-0.00366385,-0.00000314,0.00000312,0.00001133,0.00005282,0.0000
 1033,0.00003144,-0.00003869,-0.00004333,0.00002790,-0.09239412,0.08969
 722,-0.14815957,-0.00013181,-0.00004618,0.00000022,-0.00020779,0.00041
 291,0.00052592,-0.00986524,0.00939538,-0.01193747,-0.00000174,-0.00009
 098,-0.00010530,-0.00006990,0.00000937,-0.00005908,-0.00002134,-0.0000
 4064,0.00001954,-0.00053388,0.00070486,-0.00077461,-0.00000381,0.00000
 119,0.00000263,-0.00000543,0.00000225,-0.00000152,0.00013571,0.0000128
 6,0.00052108,-0.00008826,-0.00078841,0.00053708,-0.00000222,-0.0000016
 5,0.00000103,-0.00000749,0.00000411,-0.00000313,-0.00000845,-0.0000040
 4,-0.00000327,0.00000723,-0.00000051,0.00001326,-0.00002278,0.00001619
 ,0.00001034,-0.00000534,0.00000024,-0.00000232,0.10396930,-0.09813658,
 0.16012808,-0.00030069,-0.00038765,-0.00029995,-0.00061536,-0.00004881
 ,-0.00070538,0.00066884,0.00049034,0.00032519,0.00000583,-0.00000530,0
 .00000762,-0.01484812,0.01307974,0.01112097,0.00219192,-0.00020741,-0.
 00108931,0.00001330,0.00000026,-0.00001968,0.00000176,0.00001347,-0.00
 000058,0.00005241,-0.00002804,0.00005231,-0.13324579,0.09068262,0.0824
 6967,0.00002468,-0.00006457,0.00003497,-0.00084187,0.00037225,-0.00021
 700,0.01241029,-0.01267367,-0.01103188,-0.00011721,0.00009072,-0.00000
 330,0.00005263,0.00004278,0.00002859,-0.00041209,-0.00027132,0.0003256
 9,-0.00001809,-0.00005896,0.00023583,0.00000013,-0.00000106,-0.0000003
 8,0.00000217,0.00000271,0.00000114,0.00063829,0.00030332,-0.00067800,-
 0.00132494,-0.00289268,0.00281875,0.00000164,-0.00000066,0.00000210,0.
 00000475,-0.00000160,0.00000466,0.00000065,-0.00000043,0.00000501,0.00
 000728,0.00000295,-0.00000139,0.00000471,0.00000603,0.00000051,0.00006
 688,0.00002904,0.00002443,-0.01019734,0.00952417,0.00978158,0.14681509
 ,-0.00009408,-0.00002638,0.00004237,-0.00036840,0.00001218,-0.00012150
 ,0.00083149,-0.00049338,0.00041728,-0.00000819,0.00000417,0.00000093,-
 0.01266422,0.01124781,0.01221350,0.00004450,0.00121814,-0.00210012,0.0
 0000335,-0.00003191,-0.00001619,0.00000018,0.00003183,-0.00002152,-0.0
 0001544,0.00001931,0.00006422,0.09256560,-0.14406664,-0.08793140,0.000
 09320,0.00005402,0.00013705,0.00040420,0.00081415,0.00079187,0.0110368
 8,-0.01359571,-0.01156384,-0.00002507,-0.00003610,-0.00002028,0.000045
 88,0.00006514,-0.00004140,-0.00046960,-0.00010441,0.00009549,-0.000136
 49,0.00007156,-0.00002216,0.00000015,-0.00000014,-0.00000088,0.0000018
 5,-0.00000247,-0.00000035,0.00072708,0.00106780,-0.00066103,-0.0021940
 0,-0.00130706,0.00309522,-0.00000085,0.00000016,0.00000298,0.00000739,
 -0.00000203,0.00000732,0.00001043,0.00000058,0.00000679,0.00000298,0.0
 0000030,0.00000138,-0.00000766,-0.00000265,0.00000025,-0.00005961,-0.0
 0003349,-0.00002257,0.00920753,-0.01025843,-0.00952005,-0.09616514,0.1
 5621590,-0.00013418,-0.00000086,-0.00008901,-0.00044573,0.00008089,-0.
 00020070,0.00109557,-0.00049885,-0.00007455,-0.00000538,0.00000089,0.0
 0000905,0.01258854,-0.01134254,-0.01218813,-0.00083450,-0.00085164,0.0
 0158734,0.00000998,-0.00002694,-0.00001580,-0.00000632,0.00003964,-0.0
 0003352,-0.00000171,0.00001939,0.00004978,0.08111615,-0.08637010,-0.12
 853424,0.00015621,0.00006067,0.00016483,-0.00030572,0.00049375,0.00027
 651,0.00999412,-0.01110177,-0.01041346,0.00001484,-0.00001822,0.000047
 13,0.00001508,0.00003866,-0.00004686,-0.00005312,-0.00003662,0.0001757
 9,-0.00012331,0.00007982,0.00004852,0.00000126,0.00000183,-0.00000127,
 0.00000489,-0.00000258,0.00000027,-0.00072550,0.00026422,0.00085288,0.
 00232534,0.00218582,-0.00149378,0.00000091,-0.00000021,-0.00000106,0.0
 0000921,-0.00000497,0.00000858,0.00001324,0.00000115,0.00001149,0.0000
 0474,-0.00000237,0.00000347,0.00000608,-0.00000370,-0.00000282,-0.0000
 2751,-0.00001389,-0.00001121,-0.01112114,0.01146752,0.01229301,-0.0913
 2116,0.09712657,0.13822332,-0.00234534,0.00161594,-0.00268307,-0.00183
 250,0.00136051,0.00135212,0.01332378,0.01008421,-0.01034627,0.00000284
 ,0.00002886,0.00003722,-0.00158724,-0.00191946,-0.00445471,0.00058348,
 -0.00002168,0.00094687,-0.00004167,0.00005082,0.00001379,-0.00003062,-
 0.00001700,-0.00007124,-0.00004178,-0.00002567,-0.00018627,-0.01154373
 ,-0.00829638,0.01093242,-0.00032003,0.00040963,-0.00015484,0.00088143,
 -0.00174237,0.00078036,-0.15331130,-0.09322113,0.09535149,0.00003487,-
 0.00001248,-0.00003958,0.00057148,0.00071176,-0.00055927,-0.00204720,0
 .00211547,0.00045112,0.00049089,-0.00064464,0.00090936,-0.00000372,0.0
 0000016,0.00000103,0.00000863,-0.00001208,-0.00000672,-0.00053226,-0.0
 0101824,0.00089945,0.00023512,0.00021646,-0.00019016,0.00000053,0.0000
 0411,-0.00001611,-0.00001074,0.00000428,-0.00001726,0.00001011,0.00000
 035,0.00000276,0.00000073,-0.00000628,0.00002291,0.00000397,-0.0000078
 6,-0.00000833,0.00000313,-0.00000374,0.00000124,0.00030946,0.00064979,
 0.00027213,0.00074970,0.00028731,-0.00006710,0.16814886,0.00350144,-0.
 00025658,0.00177153,0.00088176,-0.00079128,0.00052450,-0.01123222,-0.0
 1071961,0.01078126,-0.00002537,0.00003564,-0.00008356,-0.00166974,-0.0
 0088953,-0.00420700,0.00024907,0.00037118,-0.00011151,-0.00009516,0.00
 008489,0.00010667,0.00005034,-0.00002648,0.00032993,-0.00009288,-0.000
 02330,-0.00039214,-0.01194381,-0.01055665,0.01091968,-0.00048158,0.000
 29269,-0.00035866,-0.00044512,0.00114861,-0.00081660,-0.09145849,-0.12
 736440,0.08206231,-0.00023877,0.00014906,0.00010456,-0.00071295,-0.000
 48607,0.00046165,0.00154176,-0.00122108,-0.00090925,0.00037400,0.00046
 814,-0.00051724,-0.00000088,-0.00000706,0.00000435,-0.00003302,0.00001
 982,-0.00000219,-0.00065422,-0.00058694,0.00085490,-0.00016111,0.00004
 079,0.00020371,0.00000444,0.00000299,-0.00000980,-0.00004599,0.0000230
 5,-0.00004476,-0.00003305,-0.00000563,-0.00004360,0.00000617,0.0000199
 2,-0.00004291,-0.00000170,-0.00000657,0.00001751,0.00000030,0.00002393
 ,0.00001482,0.00042424,0.00077569,-0.00011392,0.00062945,0.00051652,0.
 00038565,0.09927850,0.13676470,-0.00486893,0.00167874,-0.00294475,0.00
 071149,-0.00030130,-0.00028213,0.01634274,0.01042814,-0.01371944,0.000
 01465,-0.00002838,0.00002905,-0.00281509,-0.00218730,-0.00333433,0.001
 08121,0.00011056,0.00094870,0.00008495,-0.00006826,-0.00006300,-0.0000
 1942,-0.00000628,-0.00013305,0.00000903,-0.00008397,0.00037747,-0.0133
 8008,-0.01116608,0.01332853,-0.00023854,-0.00032019,-0.00009034,-0.000
 01375,-0.00058634,0.00089923,0.09442261,0.08385954,-0.13405836,-0.0002
 0412,-0.00015586,0.00023232,0.00104160,0.00121119,-0.00052643,0.001248
 06,-0.00113480,0.00013482,0.00024284,-0.00062934,0.00067617,0.00000281
 ,0.00000244,-0.00000260,0.00001085,-0.00000559,0.00000104,-0.00075410,
 -0.00085163,0.00074000,-0.00005763,0.00000017,0.00002925,-0.00000886,-
 0.00000422,0.00000396,0.00003109,-0.00000839,0.00002600,0.00000378,-0.
 00000100,0.00001430,0.00000143,-0.00000679,0.00002044,-0.00003351,0.00
 003455,0.00000795,0.00000538,-0.00002129,-0.00000807,0.00066411,0.0008
 7471,0.00074386,0.00088780,0.00057604,0.00067984,-0.10339161,-0.089356
 69,0.14530488,0.00009494,-0.00061160,0.00109230,0.00149197,0.00071392,
 -0.00083370,-0.01062055,0.00926398,0.01001197,-0.00000356,0.00003527,-
 0.00004778,0.00139449,-0.00004104,-0.00023373,-0.00007202,0.00017760,-
 0.00014234,-0.00005110,0.00006324,0.00011078,0.00017887,-0.00004236,0.
 00021613,-0.00012360,-0.00010577,-0.00008489,0.01137601,-0.01388186,-0
 .01064055,-0.00056845,-0.00016203,-0.00017139,-0.00305127,0.00302928,-
 0.00174551,-0.13762871,0.09904522,0.07754894,0.00046454,-0.00021894,-0
 .00008502,0.00002903,-0.00021147,-0.00022811,0.00004726,-0.00007853,-0
 .00023801,0.00022211,-0.00054752,0.00020242,-0.00000534,-0.00000625,0.
 00000612,-0.00002736,0.00000999,-0.00000562,0.00007767,0.00024225,-0.0
 0013194,-0.00009006,0.00049580,0.00008244,-0.00000263,-0.00000725,0.00
 001273,-0.00005576,0.00001435,-0.00003115,-0.00003561,-0.00001312,-0.0
 0002738,-0.00000586,0.00001922,-0.00001463,-0.00006937,0.00004189,0.00
 003554,-0.00000237,0.00001413,-0.00000054,0.00091938,0.00072707,0.0005
 9416,-0.00179144,-0.00306128,-0.00218377,-0.01171090,0.01238457,0.0089
 7919,0.14961968,0.00010701,0.00004636,-0.00088433,-0.00125710,-0.00050
 450,0.00143647,0.00958245,-0.01207354,-0.01007218,-0.00000442,0.000001
 81,0.00000120,0.00131023,0.00053819,-0.00017847,-0.00026446,-0.0004041
 8,0.00035625,-0.00002714,0.00002661,-0.00000216,-0.00005696,0.00000438
 ,-0.00001170,0.00005046,0.00009988,-0.00023880,0.01018150,-0.01360922,
 -0.01030506,0.00018699,0.00028705,-0.00003107,0.00335369,-0.00205110,0
 .00229546,0.09769015,-0.15302785,-0.08169508,-0.00029656,-0.00008938,0
 .00034965,0.00001682,0.00029967,0.00008663,-0.00034477,0.00027124,-0.0
 0024152,-0.00013282,0.00078663,0.00011790,0.00000456,0.00000130,-0.000
 00228,0.00000587,-0.00000033,0.00000260,-0.00015832,0.00027137,0.00004
 104,-0.00029533,-0.00004412,0.00039956,0.00001176,0.00000870,-0.000019
 44,0.00000685,0.00000153,-0.00000934,0.00001002,0.00000637,-0.00000109
 ,0.00001173,0.00000295,-0.00001568,0.00005407,-0.00004690,-0.00002958,
 -0.00000348,0.00000765,0.00000634,-0.00012235,0.00091300,0.00045340,-0
 .00246256,-0.00137879,-0.00197120,-0.00986917,0.01220357,0.00814762,-0
 .10728876,0.16745166,0.00053112,0.00018751,0.00008477,0.00095161,0.000
 56220,-0.00159066,-0.01247197,0.01304108,0.01143494,0.00000418,0.00000
 087,0.00000003,0.00054776,0.00126137,0.00039329,-0.00008353,-0.0001660
 0,-0.00001993,0.00002175,-0.00002823,-0.00001007,0.00006036,-0.0000022
 3,0.00000655,-0.00001711,-0.00012528,0.00027482,0.01075618,-0.01343173
 ,-0.01162111,-0.00020104,-0.00028224,0.00009515,-0.00450093,0.00505840
 ,-0.00206138,0.07908148,-0.08402456,-0.11271990,-0.00006890,0.00042546
 ,-0.00022715,-0.00015576,-0.00021102,0.00019859,0.00011391,-0.00026280
 ,0.00033846,0.00017489,-0.00077941,0.00087987,-0.00000308,-0.00000110,
 0.00000069,-0.00000473,0.00000085,-0.00000178,-0.00018461,0.00021836,-
 0.00000028,-0.00028587,-0.00003903,0.00049960,-0.00001144,-0.00000905,
 0.00002148,-0.00000612,-0.00000205,0.00001490,-0.00000460,-0.00000422,
 0.00000521,-0.00001487,-0.00000173,0.00001182,-0.00007009,0.00004239,0
 .00003227,0.00000219,-0.00000957,-0.00001017,0.00042646,0.00063610,0.0
 0050370,-0.00275884,-0.00253600,-0.00132539,0.01021827,-0.01153318,-0.
 00903531,-0.08204666,0.09201485,0.12382698\\0.00000476,-0.00000119,0.0
 0001207,-0.00075932,-0.00029692,-0.00086280,-0.00138880,-0.00120840,-0
 .00044379,0.00000704,-0.00000692,0.00000284,-0.00000584,-0.00000268,0.
 00000092,-0.00000972,-0.00001090,-0.00000763,0.00000358,-0.00000296,-0
 .00000153,-0.00002363,0.00000836,-0.00001705,-0.00000176,0.00000674,0.
 00000403,0.00000463,0.00000888,-0.00000260,0.00002134,0.00001499,0.000
 01864,0.00140388,0.00072585,0.00124667,0.00074592,0.00076368,0.0000429
 3,-0.00000127,-0.00000459,-0.00000369,-0.00000563,0.00000051,-0.000004
 25,0.00001081,0.00000463,0.00000968,0.00000240,-0.00000667,-0.00000040
 ,-0.00000146,-0.00000239,0.00000371,-0.00000094,0.00000202,0.00000296,
 -0.00000041,0.00000554,-0.00000475,-0.00000018,0.00000120,-0.00000545,
 -0.00000107,-0.00000244,-0.00000256,-0.00000574,-0.00000007,-0.0000017
 3,0.00000060,-0.00000518,0.00000820,0.00000111,-0.00000370,0.00000399,
 0.00000005,0.00000409,0.00000012,-0.00000048,0.00000348,-0.00000631,0.
 00000078,0.00000112,-0.00000176,-0.00000099,0.00000659,0.00000057,-0.0
 0000207,0.00000091,0.00000731,0.00000239,-0.00000358,0.00000165\\\@


 LIVE PURE, SPEAK TRUE, RIGHT WRONG, FOLLOW THE KING...
 ELSE, WHEREFORE BORN......
           IDYLLS OF THE KING, TENNYSON
 Job cpu time:       0 days 13 hours 28 minutes 44.8 seconds.
 Elapsed time:       0 days  1 hours  7 minutes 39.9 seconds.
 File lengths (MBytes):  RWF=    720 Int=      0 D2E=      0 Chk=     34 Scr=      1
 Normal termination of Gaussian 16 at Sat Mar  9 05:07:10 2019.
