 Entering Gaussian System, Link 0=g16
 Initial command:
 /sw/Projects/G16/g16/l1.exe "/nvme/pbs/tmpdir/pbs.74203[20].flm1/Gau-2002.inp" -scrdir="/nvme/pbs/tmpdir/pbs.74203[20].flm1/"
 Entering Link 1 = /sw/Projects/G16/g16/l1.exe PID=      2003.
  
 Copyright (c) 1988-2017, Gaussian, Inc.  All Rights Reserved.
  
 This is part of the Gaussian(R) 16 program.  It is based on
 the Gaussian(R) 09 system (copyright 2009, Gaussian, Inc.),
 the Gaussian(R) 03 system (copyright 2003, Gaussian, Inc.),
 the Gaussian(R) 98 system (copyright 1998, Gaussian, Inc.),
 the Gaussian(R) 94 system (copyright 1995, Gaussian, Inc.),
 the Gaussian 92(TM) system (copyright 1992, Gaussian, Inc.),
 the Gaussian 90(TM) system (copyright 1990, Gaussian, Inc.),
 the Gaussian 88(TM) system (copyright 1988, Gaussian, Inc.),
 the Gaussian 86(TM) system (copyright 1986, Carnegie Mellon
 University), and the Gaussian 82(TM) system (copyright 1983,
 Carnegie Mellon University). Gaussian is a federally registered
 trademark of Gaussian, Inc.
  
 This software contains proprietary and confidential information,
 including trade secrets, belonging to Gaussian, Inc.
  
 This software is provided under written license and may be
 used, copied, transmitted, or stored only in accord with that
 written license.
  
 The following legend is applicable only to US Government
 contracts under FAR:
  
                    RESTRICTED RIGHTS LEGEND
  
 Use, reproduction and disclosure by the US Government is
 subject to restrictions as set forth in subparagraphs (a)
 and (c) of the Commercial Computer Software - Restricted
 Rights clause in FAR 52.227-19.
  
 Gaussian, Inc.
 340 Quinnipiac St., Bldg. 40, Wallingford CT 06492
  
  
 ---------------------------------------------------------------
 Warning -- This program may not be used in any manner that
 competes with the business of Gaussian, Inc. or will provide
 assistance to any competitor of Gaussian, Inc.  The licensee
 of this program is prohibited from giving any competitor of
 Gaussian, Inc. access to this program.  By using this program,
 the user acknowledges that Gaussian, Inc. is engaged in the
 business of creating and licensing software in the field of
 computational chemistry and represents and warrants to the
 licensee that it is not a competitor of Gaussian, Inc. and that
 it will not use this program in any manner prohibited above.
 ---------------------------------------------------------------
  

 Cite this work as:
 Gaussian 16, Revision B.01,
 M. J. Frisch, G. W. Trucks, H. B. Schlegel, G. E. Scuseria, 
 M. A. Robb, J. R. Cheeseman, G. Scalmani, V. Barone, 
 G. A. Petersson, H. Nakatsuji, X. Li, M. Caricato, A. V. Marenich, 
 J. Bloino, B. G. Janesko, R. Gomperts, B. Mennucci, H. P. Hratchian, 
 J. V. Ortiz, A. F. Izmaylov, J. L. Sonnenberg, D. Williams-Young, 
 F. Ding, F. Lipparini, F. Egidi, J. Goings, B. Peng, A. Petrone, 
 T. Henderson, D. Ranasinghe, V. G. Zakrzewski, J. Gao, N. Rega, 
 G. Zheng, W. Liang, M. Hada, M. Ehara, K. Toyota, R. Fukuda, 
 J. Hasegawa, M. Ishida, T. Nakajima, Y. Honda, O. Kitao, H. Nakai, 
 T. Vreven, K. Throssell, J. A. Montgomery, Jr., J. E. Peralta, 
 F. Ogliaro, M. J. Bearpark, J. J. Heyd, E. N. Brothers, K. N. Kudin, 
 V. N. Staroverov, T. A. Keith, R. Kobayashi, J. Normand, 
 K. Raghavachari, A. P. Rendell, J. C. Burant, S. S. Iyengar, 
 J. Tomasi, M. Cossi, J. M. Millam, M. Klene, C. Adamo, R. Cammi, 
 J. W. Ochterski, R. L. Martin, K. Morokuma, O. Farkas, 
 J. B. Foresman, and D. J. Fox, Gaussian, Inc., Wallingford CT, 2016.
 
 ******************************************
 Gaussian 16:  ES64L-G16RevB.01 20-Dec-2017
                 9-Mar-2019 
 ******************************************
 %mem=20gb
 %nproc=12
 Will use up to   12 processors via shared memory.
 %chk=4c1_a1_a4_4c1_PSI.inp_extract_20.chk
 ----------------------------------------------------------------------
 #M062X/6-311++G(2d,2p) opt=ModRedundant freq=noraman SCRF=(SMD,solvent
 =water)
 ----------------------------------------------------------------------
 1/18=120,19=15,26=3,38=1/1,3;
 2/9=110,12=2,17=6,18=5,40=1/2;
 3/5=4,6=6,7=1212,11=2,25=1,30=1,70=32201,71=1,72=1,74=-55/1,2,3;
 4//1;
 5/5=2,38=5,53=1/2;
 6/7=2,8=2,9=2,10=2,28=1/1;
 7//1,2,3,16;
 1/18=20,19=15,26=3/3(2);
 2/9=110/2;
 99//99;
 2/9=110/2;
 3/5=4,6=6,7=1212,11=2,25=1,30=1,70=32205,71=1,72=1,74=-55/1,2,3;
 4/5=5,16=3,69=1/1;
 5/5=2,38=5,53=1/2;
 7//1,2,3,16;
 1/18=20,19=15,26=3/3(-5);
 2/9=110/2;
 6/7=2,8=2,9=2,10=2,19=2,28=1/1;
 99/9=1/99;
 --------------------------------
 4c1_a1_a4_4c1_PSI.inp_extract_20
 --------------------------------
 Symbolic Z-matrix:
 Charge =  0 Multiplicity = 1
 C                    -2.00493  -0.52449   1.41603 
 C                     0.89329   0.13726  -0.71433 
 C                    -0.99604   0.44093   0.819 
 C                     3.58716  -0.05004   0.32675 
 C                    -3.46106  -0.38804  -0.43531 
 O                    -2.71268  -1.23162   0.42115 
 C                     2.86666  -1.32607  -0.10863 
 C                     2.57816   1.00403   0.75061 
 C                     1.81272  -0.9886   -1.16414 
 C                    -2.55236   0.58144  -1.17552 
 O                     1.62636   1.25357  -0.27551 
 O                     0.06583  -0.35243   0.29605 
 C                    -1.69082   1.36619  -0.18179 
 H                    -2.70449   0.02999   2.03647 
 H                    -1.50697  -1.26135   2.03059 
 H                     0.30837   0.49739  -1.54407 
 H                    -0.58955   1.04178   1.62623 
 H                     4.18259   0.33643  -0.49727 
 H                     4.26362  -0.24605   1.15389 
 H                    -3.98704  -1.03844  -1.12075 
 H                    -4.19652   0.15269   0.15651 
 H                     2.39709  -1.79281   0.753 
 H                     3.57344  -2.04477  -0.51204 
 H                     3.05563   1.95534   0.94119 
 H                     2.06183   0.69817   1.65433 
 H                     2.30509  -0.65762  -2.07454 
 H                     1.21026  -1.85448  -1.41691 
 H                    -3.16004   1.26129  -1.76569 
 H                    -1.92837   0.02323  -1.86718 
 H                    -0.98471   2.01032  -0.68961 
 H                    -2.33296   2.01717   0.40624 
 
 The following ModRedundant input section has been read:
 D      13       3      12       2 F                                           
 

 GradGradGradGradGradGradGradGradGradGradGradGradGradGradGradGradGradGrad
 Berny optimization.
 Initialization pass.
                           ----------------------------
                           !    Initial Parameters    !
                           ! (Angstroms and Degrees)  !
 --------------------------                            --------------------------
 ! Name  Definition              Value          Derivative Info.                !
 --------------------------------------------------------------------------------
 ! R1    R(1,3)                  1.5187         estimate D2E/DX2                !
 ! R2    R(1,6)                  1.4109         estimate D2E/DX2                !
 ! R3    R(1,14)                 1.0871         estimate D2E/DX2                !
 ! R4    R(1,15)                 1.081          estimate D2E/DX2                !
 ! R5    R(2,9)                  1.5216         estimate D2E/DX2                !
 ! R6    R(2,11)                 1.4057         estimate D2E/DX2                !
 ! R7    R(2,12)                 1.3948         estimate D2E/DX2                !
 ! R8    R(2,16)                 1.0772         estimate D2E/DX2                !
 ! R9    R(3,12)                 1.4249         estimate D2E/DX2                !
 ! R10   R(3,13)                 1.5298         estimate D2E/DX2                !
 ! R11   R(3,17)                 1.0853         estimate D2E/DX2                !
 ! R12   R(4,7)                  1.5287         estimate D2E/DX2                !
 ! R13   R(4,8)                  1.5195         estimate D2E/DX2                !
 ! R14   R(4,18)                 1.0876         estimate D2E/DX2                !
 ! R15   R(4,19)                 1.0864         estimate D2E/DX2                !
 ! R16   R(5,6)                  1.4161         estimate D2E/DX2                !
 ! R17   R(5,10)                 1.521          estimate D2E/DX2                !
 ! R18   R(5,20)                 1.0814         estimate D2E/DX2                !
 ! R19   R(5,21)                 1.0879         estimate D2E/DX2                !
 ! R20   R(7,9)                  1.5293         estimate D2E/DX2                !
 ! R21   R(7,22)                 1.0866         estimate D2E/DX2                !
 ! R22   R(7,23)                 1.0857         estimate D2E/DX2                !
 ! R23   R(8,11)                 1.4217         estimate D2E/DX2                !
 ! R24   R(8,24)                 1.0813         estimate D2E/DX2                !
 ! R25   R(8,25)                 1.0848         estimate D2E/DX2                !
 ! R26   R(9,26)                 1.0866         estimate D2E/DX2                !
 ! R27   R(9,27)                 1.0847         estimate D2E/DX2                !
 ! R28   R(10,13)                1.5315         estimate D2E/DX2                !
 ! R29   R(10,28)                1.0862         estimate D2E/DX2                !
 ! R30   R(10,29)                1.086          estimate D2E/DX2                !
 ! R31   R(13,30)                1.0823         estimate D2E/DX2                !
 ! R32   R(13,31)                1.0871         estimate D2E/DX2                !
 ! A1    A(3,1,6)              112.0017         estimate D2E/DX2                !
 ! A2    A(3,1,14)             109.1251         estimate D2E/DX2                !
 ! A3    A(3,1,15)             110.5354         estimate D2E/DX2                !
 ! A4    A(6,1,14)             109.5889         estimate D2E/DX2                !
 ! A5    A(6,1,15)             106.8764         estimate D2E/DX2                !
 ! A6    A(14,1,15)            108.6414         estimate D2E/DX2                !
 ! A7    A(9,2,11)             111.3922         estimate D2E/DX2                !
 ! A8    A(9,2,12)             108.2308         estimate D2E/DX2                !
 ! A9    A(9,2,16)             110.3518         estimate D2E/DX2                !
 ! A10   A(11,2,12)            111.2261         estimate D2E/DX2                !
 ! A11   A(11,2,16)            104.9598         estimate D2E/DX2                !
 ! A12   A(12,2,16)            110.6859         estimate D2E/DX2                !
 ! A13   A(1,3,12)             106.5827         estimate D2E/DX2                !
 ! A14   A(1,3,13)             109.8736         estimate D2E/DX2                !
 ! A15   A(1,3,17)             107.96           estimate D2E/DX2                !
 ! A16   A(12,3,13)            115.7915         estimate D2E/DX2                !
 ! A17   A(12,3,17)            107.5841         estimate D2E/DX2                !
 ! A18   A(13,3,17)            108.7729         estimate D2E/DX2                !
 ! A19   A(7,4,8)              110.2136         estimate D2E/DX2                !
 ! A20   A(7,4,18)             109.8075         estimate D2E/DX2                !
 ! A21   A(7,4,19)             111.0831         estimate D2E/DX2                !
 ! A22   A(8,4,18)             109.1706         estimate D2E/DX2                !
 ! A23   A(8,4,19)             109.0419         estimate D2E/DX2                !
 ! A24   A(18,4,19)            107.4619         estimate D2E/DX2                !
 ! A25   A(6,5,10)             110.9964         estimate D2E/DX2                !
 ! A26   A(6,5,20)             106.3863         estimate D2E/DX2                !
 ! A27   A(6,5,21)             108.9269         estimate D2E/DX2                !
 ! A28   A(10,5,20)            111.4356         estimate D2E/DX2                !
 ! A29   A(10,5,21)            110.5979         estimate D2E/DX2                !
 ! A30   A(20,5,21)            108.3561         estimate D2E/DX2                !
 ! A31   A(1,6,5)              113.1418         estimate D2E/DX2                !
 ! A32   A(4,7,9)              109.7054         estimate D2E/DX2                !
 ! A33   A(4,7,22)             109.6566         estimate D2E/DX2                !
 ! A34   A(4,7,23)             110.5817         estimate D2E/DX2                !
 ! A35   A(9,7,22)             110.1364         estimate D2E/DX2                !
 ! A36   A(9,7,23)             109.7703         estimate D2E/DX2                !
 ! A37   A(22,7,23)            106.9541         estimate D2E/DX2                !
 ! A38   A(4,8,11)             111.4077         estimate D2E/DX2                !
 ! A39   A(4,8,24)             111.4841         estimate D2E/DX2                !
 ! A40   A(4,8,25)             110.6616         estimate D2E/DX2                !
 ! A41   A(11,8,24)            105.5698         estimate D2E/DX2                !
 ! A42   A(11,8,25)            109.3966         estimate D2E/DX2                !
 ! A43   A(24,8,25)            108.143          estimate D2E/DX2                !
 ! A44   A(2,9,7)              112.0658         estimate D2E/DX2                !
 ! A45   A(2,9,26)             107.2231         estimate D2E/DX2                !
 ! A46   A(2,9,27)             108.9005         estimate D2E/DX2                !
 ! A47   A(7,9,26)             109.4628         estimate D2E/DX2                !
 ! A48   A(7,9,27)             111.5585         estimate D2E/DX2                !
 ! A49   A(26,9,27)            107.4318         estimate D2E/DX2                !
 ! A50   A(5,10,13)            110.2978         estimate D2E/DX2                !
 ! A51   A(5,10,28)            109.2162         estimate D2E/DX2                !
 ! A52   A(5,10,29)            109.0018         estimate D2E/DX2                !
 ! A53   A(13,10,28)           110.2765         estimate D2E/DX2                !
 ! A54   A(13,10,29)           110.6953         estimate D2E/DX2                !
 ! A55   A(28,10,29)           107.2857         estimate D2E/DX2                !
 ! A56   A(2,11,8)             115.7891         estimate D2E/DX2                !
 ! A57   A(2,12,3)             120.8287         estimate D2E/DX2                !
 ! A58   A(3,13,10)            111.7177         estimate D2E/DX2                !
 ! A59   A(3,13,30)            111.7525         estimate D2E/DX2                !
 ! A60   A(3,13,31)            106.0561         estimate D2E/DX2                !
 ! A61   A(10,13,30)           111.5624         estimate D2E/DX2                !
 ! A62   A(10,13,31)           108.9959         estimate D2E/DX2                !
 ! A63   A(30,13,31)           106.4262         estimate D2E/DX2                !
 ! D1    D(6,1,3,12)           -72.248          estimate D2E/DX2                !
 ! D2    D(6,1,3,13)            53.9353         estimate D2E/DX2                !
 ! D3    D(6,1,3,17)           172.4183         estimate D2E/DX2                !
 ! D4    D(14,1,3,12)          166.2287         estimate D2E/DX2                !
 ! D5    D(14,1,3,13)          -67.588          estimate D2E/DX2                !
 ! D6    D(14,1,3,17)           50.895          estimate D2E/DX2                !
 ! D7    D(15,1,3,12)           46.8112         estimate D2E/DX2                !
 ! D8    D(15,1,3,13)          172.9945         estimate D2E/DX2                !
 ! D9    D(15,1,3,17)          -68.5225         estimate D2E/DX2                !
 ! D10   D(3,1,6,5)            -61.0554         estimate D2E/DX2                !
 ! D11   D(14,1,6,5)            60.2009         estimate D2E/DX2                !
 ! D12   D(15,1,6,5)           177.75           estimate D2E/DX2                !
 ! D13   D(11,2,9,7)            51.5458         estimate D2E/DX2                !
 ! D14   D(11,2,9,26)          -68.5911         estimate D2E/DX2                !
 ! D15   D(11,2,9,27)          175.4551         estimate D2E/DX2                !
 ! D16   D(12,2,9,7)           -71.0302         estimate D2E/DX2                !
 ! D17   D(12,2,9,26)          168.833          estimate D2E/DX2                !
 ! D18   D(12,2,9,27)           52.8791         estimate D2E/DX2                !
 ! D19   D(16,2,9,7)           167.7143         estimate D2E/DX2                !
 ! D20   D(16,2,9,26)           47.5774         estimate D2E/DX2                !
 ! D21   D(16,2,9,27)          -68.3764         estimate D2E/DX2                !
 ! D22   D(9,2,11,8)           -55.0938         estimate D2E/DX2                !
 ! D23   D(12,2,11,8)           65.7432         estimate D2E/DX2                !
 ! D24   D(16,2,11,8)         -174.5193         estimate D2E/DX2                !
 ! D25   D(9,2,12,3)          -173.5407         estimate D2E/DX2                !
 ! D26   D(11,2,12,3)           63.7822         estimate D2E/DX2                !
 ! D27   D(16,2,12,3)          -52.492          estimate D2E/DX2                !
 ! D28   D(1,3,12,2)           156.6948         estimate D2E/DX2                !
 ! D29   D(13,3,12,2)           34.1579         Frozen                          !
 ! D30   D(17,3,12,2)          -87.7184         estimate D2E/DX2                !
 ! D31   D(1,3,13,10)          -49.2639         estimate D2E/DX2                !
 ! D32   D(1,3,13,30)         -175.0564         estimate D2E/DX2                !
 ! D33   D(1,3,13,31)           69.371          estimate D2E/DX2                !
 ! D34   D(12,3,13,10)          71.5149         estimate D2E/DX2                !
 ! D35   D(12,3,13,30)         -54.2775         estimate D2E/DX2                !
 ! D36   D(12,3,13,31)        -169.8502         estimate D2E/DX2                !
 ! D37   D(17,3,13,10)        -167.2443         estimate D2E/DX2                !
 ! D38   D(17,3,13,30)          66.9633         estimate D2E/DX2                !
 ! D39   D(17,3,13,31)         -48.6094         estimate D2E/DX2                !
 ! D40   D(8,4,7,9)             52.7555         estimate D2E/DX2                !
 ! D41   D(8,4,7,22)           -68.3243         estimate D2E/DX2                !
 ! D42   D(8,4,7,23)           173.9723         estimate D2E/DX2                !
 ! D43   D(18,4,7,9)           -67.5462         estimate D2E/DX2                !
 ! D44   D(18,4,7,22)          171.374          estimate D2E/DX2                !
 ! D45   D(18,4,7,23)           53.6706         estimate D2E/DX2                !
 ! D46   D(19,4,7,9)           173.724          estimate D2E/DX2                !
 ! D47   D(19,4,7,22)           52.6442         estimate D2E/DX2                !
 ! D48   D(19,4,7,23)          -65.0592         estimate D2E/DX2                !
 ! D49   D(7,4,8,11)           -55.0325         estimate D2E/DX2                !
 ! D50   D(7,4,8,24)          -172.6869         estimate D2E/DX2                !
 ! D51   D(7,4,8,25)            66.9109         estimate D2E/DX2                !
 ! D52   D(18,4,8,11)           65.652          estimate D2E/DX2                !
 ! D53   D(18,4,8,24)          -52.0024         estimate D2E/DX2                !
 ! D54   D(18,4,8,25)         -172.4047         estimate D2E/DX2                !
 ! D55   D(19,4,8,11)         -177.2139         estimate D2E/DX2                !
 ! D56   D(19,4,8,24)           65.1317         estimate D2E/DX2                !
 ! D57   D(19,4,8,25)          -55.2706         estimate D2E/DX2                !
 ! D58   D(10,5,6,1)            60.9551         estimate D2E/DX2                !
 ! D59   D(20,5,6,1)          -177.654          estimate D2E/DX2                !
 ! D60   D(21,5,6,1)           -61.0482         estimate D2E/DX2                !
 ! D61   D(6,5,10,13)          -54.4756         estimate D2E/DX2                !
 ! D62   D(6,5,10,28)         -175.8224         estimate D2E/DX2                !
 ! D63   D(6,5,10,29)           67.2519         estimate D2E/DX2                !
 ! D64   D(20,5,10,13)        -172.8552         estimate D2E/DX2                !
 ! D65   D(20,5,10,28)          65.798          estimate D2E/DX2                !
 ! D66   D(20,5,10,29)         -51.1277         estimate D2E/DX2                !
 ! D67   D(21,5,10,13)          66.5485         estimate D2E/DX2                !
 ! D68   D(21,5,10,28)         -54.7983         estimate D2E/DX2                !
 ! D69   D(21,5,10,29)        -171.724          estimate D2E/DX2                !
 ! D70   D(4,7,9,2)            -51.453          estimate D2E/DX2                !
 ! D71   D(4,7,9,26)            67.3702         estimate D2E/DX2                !
 ! D72   D(4,7,9,27)          -173.8631         estimate D2E/DX2                !
 ! D73   D(22,7,9,2)            69.337          estimate D2E/DX2                !
 ! D74   D(22,7,9,26)         -171.8398         estimate D2E/DX2                !
 ! D75   D(22,7,9,27)          -53.073          estimate D2E/DX2                !
 ! D76   D(23,7,9,2)          -173.1572         estimate D2E/DX2                !
 ! D77   D(23,7,9,26)          -54.334          estimate D2E/DX2                !
 ! D78   D(23,7,9,27)           64.4328         estimate D2E/DX2                !
 ! D79   D(4,8,11,2)            57.4951         estimate D2E/DX2                !
 ! D80   D(24,8,11,2)          178.6671         estimate D2E/DX2                !
 ! D81   D(25,8,11,2)          -65.1775         estimate D2E/DX2                !
 ! D82   D(5,10,13,3)           49.9297         estimate D2E/DX2                !
 ! D83   D(5,10,13,30)         175.8266         estimate D2E/DX2                !
 ! D84   D(5,10,13,31)         -66.9406         estimate D2E/DX2                !
 ! D85   D(28,10,13,3)         170.6438         estimate D2E/DX2                !
 ! D86   D(28,10,13,30)        -63.4593         estimate D2E/DX2                !
 ! D87   D(28,10,13,31)         53.7735         estimate D2E/DX2                !
 ! D88   D(29,10,13,3)         -70.7893         estimate D2E/DX2                !
 ! D89   D(29,10,13,30)         55.1076         estimate D2E/DX2                !
 ! D90   D(29,10,13,31)        172.3404         estimate D2E/DX2                !
 --------------------------------------------------------------------------------
 Trust Radius=3.00D-01 FncErr=1.00D-07 GrdErr=1.00D-06 EigMax=2.50D+02 EigMin=1.00D-04
 Number of steps in this run=    186 maximum allowed number of steps=    186.
 GradGradGradGradGradGradGradGradGradGradGradGradGradGradGradGradGradGrad

                          Input orientation:                          
 ---------------------------------------------------------------------
 Center     Atomic      Atomic             Coordinates (Angstroms)
 Number     Number       Type             X           Y           Z
 ---------------------------------------------------------------------
      1          6           0       -2.004932   -0.524490    1.416033
      2          6           0        0.893285    0.137262   -0.714331
      3          6           0       -0.996035    0.440926    0.818998
      4          6           0        3.587160   -0.050042    0.326748
      5          6           0       -3.461057   -0.388043   -0.435307
      6          8           0       -2.712676   -1.231623    0.421154
      7          6           0        2.866658   -1.326073   -0.108625
      8          6           0        2.578162    1.004032    0.750609
      9          6           0        1.812720   -0.988604   -1.164143
     10          6           0       -2.552363    0.581439   -1.175521
     11          8           0        1.626356    1.253570   -0.275511
     12          8           0        0.065830   -0.352434    0.296053
     13          6           0       -1.690820    1.366194   -0.181786
     14          1           0       -2.704494    0.029994    2.036469
     15          1           0       -1.506966   -1.261345    2.030593
     16          1           0        0.308365    0.497388   -1.544070
     17          1           0       -0.589552    1.041783    1.626228
     18          1           0        4.182588    0.336430   -0.497270
     19          1           0        4.263620   -0.246047    1.153890
     20          1           0       -3.987037   -1.038444   -1.120745
     21          1           0       -4.196520    0.152689    0.156506
     22          1           0        2.397094   -1.792809    0.752996
     23          1           0        3.573439   -2.044767   -0.512035
     24          1           0        3.055632    1.955338    0.941187
     25          1           0        2.061825    0.698165    1.654326
     26          1           0        2.305092   -0.657624   -2.074543
     27          1           0        1.210262   -1.854479   -1.416909
     28          1           0       -3.160039    1.261291   -1.765688
     29          1           0       -1.928366    0.023232   -1.867180
     30          1           0       -0.984714    2.010318   -0.689606
     31          1           0       -2.332963    2.017167    0.406235
 ---------------------------------------------------------------------
                    Distance matrix (angstroms):
                    1          2          3          4          5
     1  C    0.000000
     2  C    3.657325   0.000000
     3  C    1.518668   2.452109   0.000000
     4  C    5.716917   2.894113   4.635627   0.000000
     5  C    2.359317   4.394780   2.887352   7.097347   0.000000
     6  O    1.410930   4.020712   2.429518   6.410381   1.416060
     7  C    5.167157   2.530302   4.347777   1.528701   6.405201
     8  C    4.876876   2.395026   3.618929   1.519476   6.310027
     9  C    4.631110   1.521600   3.723642   2.500458   5.357667
    10  C    2.870350   3.504637   2.533773   6.352112   1.521032
    11  O    4.382815   1.405738   2.955550   2.430406   5.348102
    12  O    2.360511   1.394762   1.424938   3.534423   3.602095
    13  C    2.495271   2.910580   1.529842   5.488297   2.505067
    14  H    1.087097   4.530168   2.137740   6.520311   2.618553
    15  H    1.081022   3.905370   2.150986   5.506402   3.265240
    16  H    3.893300   1.077167   2.699766   3.814464   4.027640
    17  H    2.121484   2.914649   1.085301   4.508398   3.813118
    18  H    6.533553   3.302468   5.344307   1.087612   7.678151
    19  H    6.280206   3.872510   5.314890   1.086361   7.887734
    20  H    3.260082   5.036368   3.859693   7.774358   1.081435
    21  H    2.616876   5.163788   3.281018   7.788181   1.087906
    22  H    4.628832   2.853010   4.062912   2.152947   6.140307
    23  H    6.094827   3.461994   5.369396   2.163948   7.227362
    24  H    5.655469   3.274429   4.327168   2.163702   7.060694
    25  H    4.253255   2.700117   3.180323   2.156136   6.004052
    26  H    5.547806   2.115471   4.525133   2.789095   6.000687
    27  H    4.486859   2.135678   3.890490   3.456295   4.993516
    28  H    3.827092   4.335692   3.469368   7.184885   2.140287
    29  H    3.329467   3.050210   2.873893   5.936305   2.137416
    30  H    3.449610   2.652514   2.176926   5.116648   3.456744
    31  H    2.754508   3.898511   2.107673   6.271166   2.786723
                    6          7          8          9         10
     6  O    0.000000
     7  C    5.605226   0.000000
     8  C    5.753230   2.500180   0.000000
     9  C    4.801191   1.529310   2.867538   0.000000
    10  C    2.421212   5.843172   5.496440   4.638870   0.000000
    11  O    5.048636   2.867186   1.421663   2.419038   4.327063
    12  O    2.916971   2.992720   2.891096   2.364003   3.145248
    13  C    2.855938   5.293794   4.384601   4.334154   1.531537
    14  H    2.049631   6.121934   5.523463   5.629092   3.262532
    15  H    2.011197   4.869192   4.843404   4.615305   3.842899
    16  H    3.997283   3.454038   3.267142   2.148395   2.885595
    17  H    3.335901   4.534517   3.286723   4.204706   3.451716
    18  H    7.130705   2.155605   2.139410   2.795838   6.773450
    19  H    7.083570   2.170692   2.136844   3.454212   7.250415
    20  H    2.009668   6.933993   7.125694   5.800134   2.164558
    21  H    2.046497   7.221185   6.853762   6.257606   2.159022
    22  H    5.151194   1.086611   2.802697   2.159551   5.818364
    23  H    6.406816   1.085726   3.446741   2.154265   6.697957
    24  H    6.610638   3.450431   1.081333   3.826753   6.149606
    25  H    5.295343   2.802373   1.084833   3.294087   5.414092
    26  H    5.633469   2.151050   3.288944   1.086649   5.092974
    27  H    4.376742   2.175883   3.839319   1.084705   4.488798
    28  H    3.346197   6.764716   6.270956   5.491103   1.086170
    29  H    2.725119   5.282556   5.303167   3.938756   1.085983
    30  H    3.837945   5.128558   3.972520   4.128481   2.176082
    31  H    3.270939   6.203095   5.026349   5.356065   2.147418
                   11         12         13         14         15
    11  O    0.000000
    12  O    2.311098   0.000000
    13  C    3.320410   2.503564   0.000000
    14  H    5.059511   3.293933   2.780939   0.000000
    15  H    4.632561   2.511660   3.439823   1.761154   0.000000
    16  H    1.979433   2.041341   2.570483   4.702769   4.377989
    17  H    2.927749   2.035370   2.141716   2.380125   2.511883
    18  H    2.724820   4.248716   5.971337   7.344769   6.427597
    19  H    3.353685   4.285866   6.311791   7.029207   5.924449
    20  H    6.121922   4.347834   3.454930   3.571341   4.016387
    21  H    5.941756   4.294444   2.804562   2.403218   3.570069
    22  H    3.306401   2.778177   5.250158   5.567415   4.142028
    23  H    3.837460   3.977476   6.281412   7.086039   5.734913
    24  H    2.003912   3.831570   4.912939   6.171357   5.687808
    25  H    2.054843   2.632994   4.230829   4.828072   4.088707
    26  H    2.711063   3.275234   4.862682   6.516839   5.634572
    27  H    3.337048   2.549530   4.507165   5.549989   4.429493
    28  H    5.013009   4.154650   2.162950   4.022438   4.848514
    29  H    4.084506   2.966061   2.168070   3.980062   4.125573
    30  H    2.749878   2.767266   1.082295   3.782963   4.286725
    31  H    4.089507   3.373627   1.087144   2.597028   3.750927
                   16         17         18         19         20
    16  H    0.000000
    17  H    3.339672   0.000000
    18  H    4.016379   5.270682   0.000000
    19  H    4.845176   5.043301   1.752762   0.000000
    20  H    4.581317   4.839019   8.307934   8.595068   0.000000
    21  H    4.827501   3.995096   8.406583   8.528056   1.758991
    22  H    3.858018   4.209216   3.047099   2.457053   6.696051
    23  H    4.264781   5.606198   2.457922   2.546969   7.651406
    24  H    3.981155   3.819847   2.441322   2.520034   7.925496
    25  H    3.653036   2.673698   3.042672   2.447422   6.877904
    26  H    2.366933   4.996264   2.645926   3.798422   6.375393
    27  H    2.522076   4.570377   3.805330   4.303377   5.269302
    28  H    3.558439   4.261535   7.508557   8.118295   2.527580
    29  H    2.309153   3.877340   6.270447   6.894930   2.433608
    30  H    2.165899   2.541122   5.435062   6.002888   4.300555
    31  H    3.618015   2.340777   6.789227   7.013988   3.795311
                   21         22         23         24         25
    21  H    0.000000
    22  H    6.900472   0.000000
    23  H    8.102347   1.745730   0.000000
    24  H    7.513919   3.810209   4.287286   0.000000
    25  H    6.458165   2.670160   3.808119   1.754053   0.000000
    26  H    6.921354   3.048292   2.444238   4.060235   3.975149
    27  H    5.978098   2.474037   2.537639   4.845690   4.083336
    28  H    2.449106   6.822978   7.605353   6.814942   6.267493
    29  H    3.042464   5.373354   6.031824   6.038228   5.364528
    30  H    3.805573   5.289754   6.103442   4.357397   4.061670
    31  H    2.647921   6.083552   7.226902   5.415437   4.755172
                   26         27         28         29         30
    26  H    0.000000
    27  H    1.750313   0.000000
    28  H    5.800455   5.378587   0.000000
    29  H    4.292870   3.685041   1.749317   0.000000
    30  H    4.456320   4.503726   2.539888   2.495129   0.000000
    31  H    5.900875   5.555892   2.443901   3.050884   1.737438
                   31
    31  H    0.000000
 Stoichiometry    C10H18O3
 Framework group  C1[X(C10H18O3)]
 Deg. of freedom    87
 Full point group                 C1      NOp   1
 Largest Abelian subgroup         C1      NOp   1
 Largest concise Abelian subgroup C1      NOp   1
                         Standard orientation:                         
 ---------------------------------------------------------------------
 Center     Atomic      Atomic             Coordinates (Angstroms)
 Number     Number       Type             X           Y           Z
 ---------------------------------------------------------------------
      1          6           0       -2.004932   -0.524490    1.416033
      2          6           0        0.893285    0.137262   -0.714331
      3          6           0       -0.996035    0.440926    0.818998
      4          6           0        3.587160   -0.050042    0.326748
      5          6           0       -3.461057   -0.388043   -0.435307
      6          8           0       -2.712676   -1.231623    0.421154
      7          6           0        2.866658   -1.326073   -0.108625
      8          6           0        2.578162    1.004032    0.750609
      9          6           0        1.812720   -0.988604   -1.164143
     10          6           0       -2.552363    0.581439   -1.175521
     11          8           0        1.626356    1.253570   -0.275511
     12          8           0        0.065830   -0.352434    0.296053
     13          6           0       -1.690820    1.366194   -0.181786
     14          1           0       -2.704494    0.029994    2.036469
     15          1           0       -1.506966   -1.261345    2.030593
     16          1           0        0.308365    0.497388   -1.544070
     17          1           0       -0.589552    1.041783    1.626228
     18          1           0        4.182588    0.336430   -0.497270
     19          1           0        4.263620   -0.246047    1.153890
     20          1           0       -3.987037   -1.038444   -1.120745
     21          1           0       -4.196520    0.152689    0.156506
     22          1           0        2.397094   -1.792809    0.752996
     23          1           0        3.573439   -2.044767   -0.512035
     24          1           0        3.055632    1.955338    0.941187
     25          1           0        2.061825    0.698165    1.654326
     26          1           0        2.305092   -0.657624   -2.074543
     27          1           0        1.210262   -1.854479   -1.416909
     28          1           0       -3.160039    1.261291   -1.765688
     29          1           0       -1.928366    0.023232   -1.867180
     30          1           0       -0.984714    2.010318   -0.689606
     31          1           0       -2.332963    2.017167    0.406235
 ---------------------------------------------------------------------
 Rotational constants (GHZ):           1.7937800           0.4515053           0.4364520
 Standard basis: 6-311++G(2d,2p) (5D, 7F)
 There are   557 symmetry adapted cartesian basis functions of A   symmetry.
 There are   531 symmetry adapted basis functions of A   symmetry.
   531 basis functions,   762 primitive gaussians,   557 cartesian basis functions
    51 alpha electrons       51 beta electrons
       nuclear repulsion energy       908.2388231998 Hartrees.
 NAtoms=   31 NActive=   31 NUniq=   31 SFac= 1.00D+00 NAtFMM=   60 NAOKFM=F Big=F
 Integral buffers will be    131072 words long.
 Raffenetti 2 integral format.
 Two-electron integral symmetry is turned on.
 ------------------------------------------------------------------------------
 Polarizable Continuum Model (PCM)
 =================================
 Model                : PCM.
 Atomic radii         : SMD-Coulomb.
 Polarization charges : Total charges.
 Charge compensation  : None.
 Solution method      : On-the-fly selection.
 Cavity type          : VdW (van der Waals Surface) (Alpha=1.000).
 Cavity algorithm     : GePol (No added spheres)
                        Default sphere list used, NSphG=   31.
                        Lebedev-Laikov grids with approx.  5.0 points / Ang**2.
                        Smoothing algorithm: York/Karplus (Gamma=1.0000).
                        Polarization charges: spherical gaussians, with
                                              point-specific exponents (IZeta= 3).
                        Self-potential: point-specific (ISelfS= 7).
                        Self-field    : sphere-specific E.n sum rule (ISelfD= 2).
 1st derivatives      : Analytical E(r).r(x)/FMM algorithm (CHGder, D1EAlg=3).
                        Cavity 1st derivative terms included.
 Solvent              : Water, Eps=  78.355300 Eps(inf)=   1.777849
 ------------------------------------------------------------------------------
 ------------------------------------------------------------------------------
 Atomic radii for non-electrostatic terms: SMD-CDS.
 ------------------------------------------------------------------------------
 Nuclear repulsion after PCM non-electrostatic terms =      908.2451652985 Hartrees.
 One-electron integrals computed using PRISM.
 NBasis=   531 RedAO= T EigKep=  3.60D-06  NBF=   531
 NBsUse=   531 1.00D-06 EigRej= -1.00D+00 NBFU=   531
 ExpMin= 3.60D-02 ExpMax= 8.59D+03 ExpMxC= 1.30D+03 IAcc=3 IRadAn=         5 AccDes= 0.00D+00
 Harris functional with IExCor= 1009 and IRadAn=       5 diagonalized for initial guess.
 HarFok:  IExCor= 1009 AccDes= 0.00D+00 IRadAn=         5 IDoV= 1 UseB2=F ITyADJ=14
 ICtDFT=  3500011 ScaDFX=  1.000000  1.000000  1.000000  1.000000
 FoFCou: FMM=F IPFlag=           0 FMFlag=      100000 FMFlg1=           0
         NFxFlg=           0 DoJE=T BraDBF=F KetDBF=T FulRan=T
         wScrn=  0.000000 ICntrl=       500 IOpCl=  0 I1Cent=   200000004 NGrid=           0
         NMat0=    1 NMatS0=      1 NMatT0=    0 NMatD0=    1 NMtDS0=    0 NMtDT0=    0
 Petite list used in FoFCou.
 Requested convergence on RMS density matrix=1.00D-08 within 128 cycles.
 Requested convergence on MAX density matrix=1.00D-06.
 Requested convergence on             energy=1.00D-06.
 No special actions if energy rises.
 Inv3:  Mode=1 IEnd=    12180675.
 Iteration    1 A*A^-1 deviation from unit magnitude is 7.22D-15 for    983.
 Iteration    1 A*A^-1 deviation from orthogonality  is 4.18D-15 for   1450    239.
 Iteration    1 A^-1*A deviation from unit magnitude is 6.88D-15 for    361.
 Iteration    1 A^-1*A deviation from orthogonality  is 2.37D-15 for   1891    349.
 Error on total polarization charges =  0.06055
 SCF Done:  E(RM062X) =  -617.505262031     A.U. after   12 cycles
            NFock= 12  Conv=0.45D-08     -V/T= 2.0035
 SMD-CDS (non-electrostatic) energy       (kcal/mol) =       3.98
 (included in total energy above)

 **********************************************************************

            Population analysis using the SCF Density.

 **********************************************************************

 Orbital symmetries:
       Occupied  (A) (A) (A) (A) (A) (A) (A) (A) (A) (A) (A) (A)
                 (A) (A) (A) (A) (A) (A) (A) (A) (A) (A) (A) (A)
                 (A) (A) (A) (A) (A) (A) (A) (A) (A) (A) (A) (A)
                 (A) (A) (A) (A) (A) (A) (A) (A) (A) (A) (A) (A)
                 (A) (A) (A)
       Virtual   (A) (A) (A) (A) (A) (A) (A) (A) (A) (A) (A) (A)
                 (A) (A) (A) (A) (A) (A) (A) (A) (A) (A) (A) (A)
                 (A) (A) (A) (A) (A) (A) (A) (A) (A) (A) (A) (A)
                 (A) (A) (A) (A) (A) (A) (A) (A) (A) (A) (A) (A)
                 (A) (A) (A) (A) (A) (A) (A) (A) (A) (A) (A) (A)
                 (A) (A) (A) (A) (A) (A) (A) (A) (A) (A) (A) (A)
                 (A) (A) (A) (A) (A) (A) (A) (A) (A) (A) (A) (A)
                 (A) (A) (A) (A) (A) (A) (A) (A) (A) (A) (A) (A)
                 (A) (A) (A) (A) (A) (A) (A) (A) (A) (A) (A) (A)
                 (A) (A) (A) (A) (A) (A) (A) (A) (A) (A) (A) (A)
                 (A) (A) (A) (A) (A) (A) (A) (A) (A) (A) (A) (A)
                 (A) (A) (A) (A) (A) (A) (A) (A) (A) (A) (A) (A)
                 (A) (A) (A) (A) (A) (A) (A) (A) (A) (A) (A) (A)
                 (A) (A) (A) (A) (A) (A) (A) (A) (A) (A) (A) (A)
                 (A) (A) (A) (A) (A) (A) (A) (A) (A) (A) (A) (A)
                 (A) (A) (A) (A) (A) (A) (A) (A) (A) (A) (A) (A)
                 (A) (A) (A) (A) (A) (A) (A) (A) (A) (A) (A) (A)
                 (A) (A) (A) (A) (A) (A) (A) (A) (A) (A) (A) (A)
                 (A) (A) (A) (A) (A) (A) (A) (A) (A) (A) (A) (A)
                 (A) (A) (A) (A) (A) (A) (A) (A) (A) (A) (A) (A)
                 (A) (A) (A) (A) (A) (A) (A) (A) (A) (A) (A) (A)
                 (A) (A) (A) (A) (A) (A) (A) (A) (A) (A) (A) (A)
                 (A) (A) (A) (A) (A) (A) (A) (A) (A) (A) (A) (A)
                 (A) (A) (A) (A) (A) (A) (A) (A) (A) (A) (A) (A)
                 (A) (A) (A) (A) (A) (A) (A) (A) (A) (A) (A) (A)
                 (A) (A) (A) (A) (A) (A) (A) (A) (A) (A) (A) (A)
                 (A) (A) (A) (A) (A) (A) (A) (A) (A) (A) (A) (A)
                 (A) (A) (A) (A) (A) (A) (A) (A) (A) (A) (A) (A)
                 (A) (A) (A) (A) (A) (A) (A) (A) (A) (A) (A) (A)
                 (A) (A) (A) (A) (A) (A) (A) (A) (A) (A) (A) (A)
                 (A) (A) (A) (A) (A) (A) (A) (A) (A) (A) (A) (A)
                 (A) (A) (A) (A) (A) (A) (A) (A) (A) (A) (A) (A)
                 (A) (A) (A) (A) (A) (A) (A) (A) (A) (A) (A) (A)
                 (A) (A) (A) (A) (A) (A) (A) (A) (A) (A) (A) (A)
                 (A) (A) (A) (A) (A) (A) (A) (A) (A) (A) (A) (A)
                 (A) (A) (A) (A) (A) (A) (A) (A) (A) (A) (A) (A)
                 (A) (A) (A) (A) (A) (A) (A) (A) (A) (A) (A) (A)
                 (A) (A) (A) (A) (A) (A) (A) (A) (A) (A) (A) (A)
                 (A) (A) (A) (A) (A) (A) (A) (A) (A) (A) (A) (A)
                 (A) (A) (A) (A) (A) (A) (A) (A) (A) (A) (A) (A)
 The electronic state is 1-A.
 Alpha  occ. eigenvalues --  -19.62881 -19.62785 -19.62765 -10.62883 -10.58331
 Alpha  occ. eigenvalues --  -10.57379 -10.57155 -10.57083 -10.52646 -10.52297
 Alpha  occ. eigenvalues --  -10.52275 -10.52240 -10.52056  -1.20108  -1.16646
 Alpha  occ. eigenvalues --   -1.13253  -0.90393  -0.88987  -0.87391  -0.84307
 Alpha  occ. eigenvalues --   -0.74862  -0.73698  -0.72513  -0.70830  -0.66109
 Alpha  occ. eigenvalues --   -0.61713  -0.59764  -0.58594  -0.56806  -0.55498
 Alpha  occ. eigenvalues --   -0.53554  -0.53144  -0.52411  -0.50967  -0.49440
 Alpha  occ. eigenvalues --   -0.46815  -0.46649  -0.46032  -0.45460  -0.44950
 Alpha  occ. eigenvalues --   -0.43235  -0.42758  -0.40474  -0.39737  -0.38722
 Alpha  occ. eigenvalues --   -0.38095  -0.37215  -0.35433  -0.34065  -0.33232
 Alpha  occ. eigenvalues --   -0.32195
 Alpha virt. eigenvalues --    0.00308   0.01310   0.01335   0.01558   0.02742
 Alpha virt. eigenvalues --    0.02919   0.03135   0.03845   0.03934   0.05021
 Alpha virt. eigenvalues --    0.05135   0.05332   0.05822   0.06390   0.07559
 Alpha virt. eigenvalues --    0.07968   0.08214   0.08786   0.09070   0.10133
 Alpha virt. eigenvalues --    0.10297   0.10943   0.11270   0.12064   0.12461
 Alpha virt. eigenvalues --    0.13023   0.13236   0.13409   0.13887   0.14154
 Alpha virt. eigenvalues --    0.14534   0.14630   0.14766   0.14979   0.15427
 Alpha virt. eigenvalues --    0.15569   0.15743   0.15999   0.16346   0.16734
 Alpha virt. eigenvalues --    0.17061   0.17473   0.17932   0.18134   0.18384
 Alpha virt. eigenvalues --    0.18647   0.18960   0.19355   0.19964   0.20118
 Alpha virt. eigenvalues --    0.20465   0.20535   0.21107   0.21912   0.22203
 Alpha virt. eigenvalues --    0.22598   0.22968   0.23945   0.24080   0.24504
 Alpha virt. eigenvalues --    0.25410   0.25814   0.27116   0.27231   0.27397
 Alpha virt. eigenvalues --    0.28401   0.28556   0.29372   0.29606   0.29935
 Alpha virt. eigenvalues --    0.30074   0.30460   0.31010   0.32478   0.32648
 Alpha virt. eigenvalues --    0.33000   0.33444   0.33726   0.34432   0.35339
 Alpha virt. eigenvalues --    0.35695   0.35773   0.35878   0.36470   0.36915
 Alpha virt. eigenvalues --    0.36990   0.37412   0.37739   0.38580   0.39047
 Alpha virt. eigenvalues --    0.39330   0.39883   0.40025   0.40687   0.41276
 Alpha virt. eigenvalues --    0.42799   0.43393   0.43556   0.44514   0.45334
 Alpha virt. eigenvalues --    0.46279   0.48439   0.50015   0.50782   0.51087
 Alpha virt. eigenvalues --    0.52376   0.53370   0.54163   0.54601   0.55763
 Alpha virt. eigenvalues --    0.57368   0.58410   0.58499   0.59407   0.59903
 Alpha virt. eigenvalues --    0.60696   0.61168   0.61693   0.61921   0.62242
 Alpha virt. eigenvalues --    0.63220   0.63417   0.64598   0.65294   0.65776
 Alpha virt. eigenvalues --    0.65905   0.66452   0.66590   0.67657   0.67818
 Alpha virt. eigenvalues --    0.68248   0.68705   0.69822   0.70086   0.70540
 Alpha virt. eigenvalues --    0.71174   0.72024   0.72180   0.72752   0.73544
 Alpha virt. eigenvalues --    0.74089   0.74428   0.74841   0.75261   0.76295
 Alpha virt. eigenvalues --    0.77292   0.78318   0.78551   0.78835   0.79820
 Alpha virt. eigenvalues --    0.80948   0.82398   0.84663   0.84816   0.86569
 Alpha virt. eigenvalues --    0.87627   0.88499   0.88742   0.89838   0.90208
 Alpha virt. eigenvalues --    0.91153   0.91854   0.93948   0.95699   0.97127
 Alpha virt. eigenvalues --    0.98988   0.99421   1.00322   1.01312   1.01885
 Alpha virt. eigenvalues --    1.03384   1.04625   1.05313   1.06255   1.07005
 Alpha virt. eigenvalues --    1.08482   1.08989   1.09979   1.11757   1.12875
 Alpha virt. eigenvalues --    1.13594   1.15472   1.16222   1.16865   1.17590
 Alpha virt. eigenvalues --    1.18705   1.19182   1.20114   1.21487   1.21809
 Alpha virt. eigenvalues --    1.22050   1.22614   1.23551   1.23988   1.24682
 Alpha virt. eigenvalues --    1.25401   1.25880   1.26795   1.27105   1.28187
 Alpha virt. eigenvalues --    1.29101   1.31061   1.31555   1.32024   1.33081
 Alpha virt. eigenvalues --    1.33146   1.34409   1.34809   1.35534   1.36330
 Alpha virt. eigenvalues --    1.36764   1.37217   1.37895   1.38156   1.39097
 Alpha virt. eigenvalues --    1.39962   1.40209   1.40827   1.41238   1.42253
 Alpha virt. eigenvalues --    1.42984   1.43192   1.44629   1.45239   1.46407
 Alpha virt. eigenvalues --    1.46776   1.47348   1.47997   1.48722   1.49008
 Alpha virt. eigenvalues --    1.49505   1.50142   1.51257   1.51994   1.52469
 Alpha virt. eigenvalues --    1.52886   1.53789   1.54797   1.55727   1.56443
 Alpha virt. eigenvalues --    1.57042   1.57871   1.58122   1.58963   1.59431
 Alpha virt. eigenvalues --    1.59930   1.60805   1.61203   1.62912   1.63065
 Alpha virt. eigenvalues --    1.64659   1.65281   1.65994   1.67113   1.67500
 Alpha virt. eigenvalues --    1.68514   1.69055   1.70125   1.70724   1.72177
 Alpha virt. eigenvalues --    1.73411   1.74987   1.75768   1.77742   1.78110
 Alpha virt. eigenvalues --    1.79100   1.80160   1.80836   1.83413   1.85251
 Alpha virt. eigenvalues --    1.87882   1.89161   1.91556   1.97561   2.02779
 Alpha virt. eigenvalues --    2.05156   2.09110   2.16173   2.18940   2.22196
 Alpha virt. eigenvalues --    2.25760   2.27660   2.28927   2.35673   2.39324
 Alpha virt. eigenvalues --    2.42103   2.43374   2.44351   2.47229   2.53599
 Alpha virt. eigenvalues --    2.62364   2.76417   2.77422   2.78746   2.84123
 Alpha virt. eigenvalues --    2.84676   2.88434   2.93569   2.93813   2.95263
 Alpha virt. eigenvalues --    2.96783   2.97511   2.99848   3.02423   3.04288
 Alpha virt. eigenvalues --    3.07415   3.08083   3.09257   3.10548   3.12782
 Alpha virt. eigenvalues --    3.14285   3.15298   3.17992   3.19848   3.22676
 Alpha virt. eigenvalues --    3.25804   3.30525   3.32830   3.33627   3.35306
 Alpha virt. eigenvalues --    3.36439   3.38132   3.38232   3.40078   3.42064
 Alpha virt. eigenvalues --    3.43384   3.43955   3.46141   3.47519   3.48460
 Alpha virt. eigenvalues --    3.49925   3.50457   3.51331   3.51592   3.52128
 Alpha virt. eigenvalues --    3.53360   3.54056   3.54847   3.55760   3.56405
 Alpha virt. eigenvalues --    3.57200   3.57855   3.58582   3.59288   3.59890
 Alpha virt. eigenvalues --    3.60954   3.62140   3.63596   3.65635   3.66288
 Alpha virt. eigenvalues --    3.66779   3.67909   3.68639   3.69682   3.70565
 Alpha virt. eigenvalues --    3.71419   3.71935   3.73275   3.74554   3.74917
 Alpha virt. eigenvalues --    3.75517   3.76597   3.77054   3.77460   3.78169
 Alpha virt. eigenvalues --    3.79508   3.80429   3.81960   3.82895   3.85203
 Alpha virt. eigenvalues --    3.85974   3.87811   3.90139   3.91232   3.92530
 Alpha virt. eigenvalues --    3.93407   3.94904   3.96234   3.98107   3.99150
 Alpha virt. eigenvalues --    4.00006   4.01442   4.02153   4.03752   4.04302
 Alpha virt. eigenvalues --    4.05449   4.06674   4.07251   4.07966   4.08368
 Alpha virt. eigenvalues --    4.09151   4.09803   4.09950   4.10967   4.12564
 Alpha virt. eigenvalues --    4.12805   4.13423   4.14921   4.15561   4.17044
 Alpha virt. eigenvalues --    4.17854   4.18947   4.19688   4.20328   4.22481
 Alpha virt. eigenvalues --    4.23158   4.24308   4.25092   4.27202   4.27970
 Alpha virt. eigenvalues --    4.28225   4.30506   4.30729   4.31722   4.32509
 Alpha virt. eigenvalues --    4.33188   4.34150   4.34960   4.37156   4.41001
 Alpha virt. eigenvalues --    4.41631   4.43931   4.45875   4.47626   4.48807
 Alpha virt. eigenvalues --    4.58761   4.62833   4.73805   4.76094   4.83298
 Alpha virt. eigenvalues --    4.85947   4.94840   4.96229   5.01809   5.04463
 Alpha virt. eigenvalues --    5.07280   5.08343   5.09007   5.09673   5.12081
 Alpha virt. eigenvalues --    5.12750   5.14658   5.15792   5.32101   5.39094
 Alpha virt. eigenvalues --    5.43421   5.58385   5.59803   5.66347   5.86631
 Alpha virt. eigenvalues --    5.87391   6.04614   7.03282   7.05376   7.06393
 Alpha virt. eigenvalues --    7.10031   7.10728   7.12377   7.15804   7.19683
 Alpha virt. eigenvalues --    7.25853   7.36583   7.39527   7.47246   7.54077
 Alpha virt. eigenvalues --    7.55190   7.66115  23.96958  23.98425  24.06756
 Alpha virt. eigenvalues --   24.08245  24.12064  24.12372  24.14694  24.16174
 Alpha virt. eigenvalues --   24.17432  24.22912  50.15480  50.18973  50.27226
          Condensed to atoms (all electrons):
               1          2          3          4          5          6
     1  C    6.001013   0.148965  -0.630544   0.022256  -0.265776   0.099591
     2  C    0.148965   7.843871  -0.798029   0.506796   0.061026  -0.036271
     3  C   -0.630544  -0.798029   7.414734  -0.071903   0.280735   0.031892
     4  C    0.022256   0.506796  -0.071903   5.637353   0.000240  -0.000484
     5  C   -0.265776   0.061026   0.280735   0.000240   5.567505   0.088584
     6  O    0.099591  -0.036271   0.031892  -0.000484   0.088584   8.377834
     7  C   -0.024969  -0.420868   0.117283  -0.025687   0.008234   0.002321
     8  C   -0.009181  -0.556974   0.091569  -0.037078  -0.005564   0.000118
     9  C   -0.044949  -1.543413   0.425804  -0.332502   0.012239   0.016940
    10  C    0.089313  -0.005905  -0.119782  -0.006470   0.095469   0.014535
    11  O    0.004419   0.195430   0.093529  -0.079494  -0.000415  -0.000002
    12  O   -0.092855   0.158739  -0.002991  -0.018373  -0.022770   0.032413
    13  C    0.265134   0.210517  -1.164495   0.036836  -0.277120  -0.020494
    14  H    0.472122  -0.018119  -0.025195  -0.000891   0.001072  -0.059311
    15  H    0.432428   0.000926  -0.042495   0.002333   0.003429  -0.072199
    16  H    0.013010   0.547997  -0.083348   0.029796  -0.002765  -0.000638
    17  H   -0.016785  -0.056515   0.450725  -0.008394  -0.019961   0.010545
    18  H    0.000053  -0.002656  -0.002531   0.490010   0.000039  -0.000023
    19  H   -0.000353   0.005213  -0.000109   0.448022  -0.000060   0.000001
    20  H    0.003926  -0.002135   0.007198  -0.000191   0.447041  -0.063262
    21  H   -0.024767  -0.004904   0.048574   0.000159   0.451182  -0.058381
    22  H   -0.001667  -0.016814  -0.003806  -0.066636  -0.000256  -0.000215
    23  H   -0.001626  -0.003375   0.008075  -0.031761   0.000086   0.000228
    24  H    0.002429   0.003154  -0.002634  -0.026355  -0.000217  -0.000046
    25  H   -0.000328  -0.016231   0.004037  -0.059177   0.003617   0.000019
    26  H    0.003028  -0.140569   0.003959  -0.018161  -0.000632  -0.000065
    27  H   -0.006064  -0.004408  -0.006519  -0.002318   0.001011  -0.000973
    28  H    0.000131  -0.001315  -0.001423  -0.000483  -0.022396   0.010179
    29  H    0.014074  -0.017513  -0.020328  -0.001451  -0.115138  -0.012237
    30  H    0.004358  -0.012176  -0.019485   0.000612  -0.013313  -0.003812
    31  H   -0.010174  -0.000064  -0.062439   0.000701  -0.021777  -0.001286
               7          8          9         10         11         12
     1  C   -0.024969  -0.009181  -0.044949   0.089313   0.004419  -0.092855
     2  C   -0.420868  -0.556974  -1.543413  -0.005905   0.195430   0.158739
     3  C    0.117283   0.091569   0.425804  -0.119782   0.093529  -0.002991
     4  C   -0.025687  -0.037078  -0.332502  -0.006470  -0.079494  -0.018373
     5  C    0.008234  -0.005564   0.012239   0.095469  -0.000415  -0.022770
     6  O    0.002321   0.000118   0.016940   0.014535  -0.000002   0.032413
     7  C    5.725711  -0.025492   0.164608   0.006804   0.023381  -0.001154
     8  C   -0.025492   5.548544   0.250486  -0.007909   0.082741   0.014263
     9  C    0.164608   0.250486   7.210389   0.062980   0.007055  -0.033484
    10  C    0.006804  -0.007909   0.062980   5.620018   0.000043   0.029955
    11  O    0.023381   0.082741   0.007055   0.000043   8.309616  -0.050673
    12  O   -0.001154   0.014263  -0.033484   0.029955  -0.050673   8.400558
    13  C   -0.068050   0.013281  -0.448072  -0.299662  -0.095938  -0.014008
    14  H    0.002502   0.001496   0.005901   0.028684   0.000015   0.013637
    15  H   -0.002644  -0.002562  -0.004677   0.001486  -0.000664   0.000235
    16  H   -0.014851  -0.054783  -0.133831   0.000892  -0.085665  -0.043306
    17  H    0.000974   0.011821   0.014715  -0.026200   0.005682  -0.038644
    18  H   -0.020594  -0.084383  -0.008583  -0.000650  -0.000702  -0.001124
    19  H   -0.049040  -0.039638  -0.002710   0.000132   0.008696   0.001613
    20  H    0.000747  -0.000408   0.001201  -0.062979   0.000178   0.000797
    21  H   -0.000352   0.000316   0.000607  -0.011845  -0.000087   0.000814
    22  H    0.518784   0.006563  -0.053103  -0.000160   0.002248  -0.001983
    23  H    0.438908   0.008746  -0.038095   0.001080  -0.004189   0.000738
    24  H    0.008030   0.431128  -0.001614   0.000108  -0.065513   0.002472
    25  H   -0.000947   0.459403   0.038301   0.002273  -0.033583   0.006985
    26  H   -0.004644   0.019449   0.524496  -0.001941  -0.002941   0.009827
    27  H   -0.042869   0.001210   0.415519  -0.002973   0.007447  -0.003039
    28  H    0.000592   0.000241   0.000730   0.439427   0.000071   0.000581
    29  H   -0.001360   0.004317   0.007746   0.515872   0.000760   0.009315
    30  H   -0.002316   0.006270  -0.006865  -0.022954   0.001153  -0.007384
    31  H   -0.000606  -0.000587  -0.009299  -0.032111  -0.002724   0.001334
              13         14         15         16         17         18
     1  C    0.265134   0.472122   0.432428   0.013010  -0.016785   0.000053
     2  C    0.210517  -0.018119   0.000926   0.547997  -0.056515  -0.002656
     3  C   -1.164495  -0.025195  -0.042495  -0.083348   0.450725  -0.002531
     4  C    0.036836  -0.000891   0.002333   0.029796  -0.008394   0.490010
     5  C   -0.277120   0.001072   0.003429  -0.002765  -0.019961   0.000039
     6  O   -0.020494  -0.059311  -0.072199  -0.000638   0.010545  -0.000023
     7  C   -0.068050   0.002502  -0.002644  -0.014851   0.000974  -0.020594
     8  C    0.013281   0.001496  -0.002562  -0.054783   0.011821  -0.084383
     9  C   -0.448072   0.005901  -0.004677  -0.133831   0.014715  -0.008583
    10  C   -0.299662   0.028684   0.001486   0.000892  -0.026200  -0.000650
    11  O   -0.095938   0.000015  -0.000664  -0.085665   0.005682  -0.000702
    12  O   -0.014008   0.013637   0.000235  -0.043306  -0.038644  -0.001124
    13  C    7.316994  -0.075804   0.026842   0.065190   0.012505  -0.000269
    14  H   -0.075804   0.454762  -0.002890  -0.001216  -0.003855  -0.000062
    15  H    0.026842  -0.002890   0.461518  -0.000429  -0.011400   0.000002
    16  H    0.065190  -0.001216  -0.000429   0.508925  -0.003843   0.001954
    17  H    0.012505  -0.003855  -0.011400  -0.003843   0.448963   0.000018
    18  H   -0.000269  -0.000062   0.000002   0.001954   0.000018   0.477836
    19  H    0.002426   0.000024  -0.000003   0.001169   0.000325  -0.011917
    20  H    0.010458   0.000145   0.000466   0.001829  -0.000143   0.000006
    21  H   -0.051527   0.004393  -0.001163  -0.000554   0.002954   0.000001
    22  H    0.004310  -0.000165  -0.001053  -0.003577   0.000410   0.001163
    23  H   -0.004585   0.000111   0.000074   0.002881   0.000439  -0.002151
    24  H    0.003342   0.000088   0.000095  -0.001591  -0.000139  -0.005202
    25  H   -0.026294   0.000730  -0.001555   0.004897  -0.008572   0.003918
    26  H    0.000115   0.000064   0.000232  -0.021348  -0.000108  -0.002662
    27  H    0.011992  -0.000051   0.000063  -0.007405  -0.000478  -0.000869
    28  H   -0.051944   0.000842   0.000974  -0.001228  -0.000325  -0.000024
    29  H   -0.012534  -0.000696   0.000104  -0.011795   0.001529  -0.000304
    30  H    0.433154  -0.001615   0.000851  -0.018585  -0.000403  -0.000088
    31  H    0.491666  -0.002310   0.000138   0.002365  -0.006724  -0.000077
              19         20         21         22         23         24
     1  C   -0.000353   0.003926  -0.024767  -0.001667  -0.001626   0.002429
     2  C    0.005213  -0.002135  -0.004904  -0.016814  -0.003375   0.003154
     3  C   -0.000109   0.007198   0.048574  -0.003806   0.008075  -0.002634
     4  C    0.448022  -0.000191   0.000159  -0.066636  -0.031761  -0.026355
     5  C   -0.000060   0.447041   0.451182  -0.000256   0.000086  -0.000217
     6  O    0.000001  -0.063262  -0.058381  -0.000215   0.000228  -0.000046
     7  C   -0.049040   0.000747  -0.000352   0.518784   0.438908   0.008030
     8  C   -0.039638  -0.000408   0.000316   0.006563   0.008746   0.431128
     9  C   -0.002710   0.001201   0.000607  -0.053103  -0.038095  -0.001614
    10  C    0.000132  -0.062979  -0.011845  -0.000160   0.001080   0.000108
    11  O    0.008696   0.000178  -0.000087   0.002248  -0.004189  -0.065513
    12  O    0.001613   0.000797   0.000814  -0.001983   0.000738   0.002472
    13  C    0.002426   0.010458  -0.051527   0.004310  -0.004585   0.003342
    14  H    0.000024   0.000145   0.004393  -0.000165   0.000111   0.000088
    15  H   -0.000003   0.000466  -0.001163  -0.001053   0.000074   0.000095
    16  H    0.001169   0.001829  -0.000554  -0.003577   0.002881  -0.001591
    17  H    0.000325  -0.000143   0.002954   0.000410   0.000439  -0.000139
    18  H   -0.011917   0.000006   0.000001   0.001163  -0.002151  -0.005202
    19  H    0.479225  -0.000010   0.000006  -0.003818  -0.007033  -0.010281
    20  H   -0.000010   0.464914  -0.002347   0.000019   0.000054  -0.000042
    21  H    0.000006  -0.002347   0.477015  -0.000034  -0.000014   0.000038
    22  H   -0.003818   0.000019  -0.000034   0.455322  -0.008760  -0.002105
    23  H   -0.007033   0.000054  -0.000014  -0.008760   0.465724   0.001046
    24  H   -0.010281  -0.000042   0.000038  -0.002105   0.001046   0.462100
    25  H   -0.000077   0.000247  -0.000319  -0.002652  -0.000768  -0.010884
    26  H   -0.002365  -0.000126  -0.000006   0.001804  -0.004542   0.000521
    27  H    0.000839  -0.000007  -0.000152  -0.000396  -0.009511   0.000837
    28  H    0.000009  -0.009882   0.004530   0.000039   0.000039   0.000023
    29  H    0.000079  -0.004681   0.002587  -0.000144   0.000055   0.000233
    30  H    0.000103  -0.000380  -0.000674   0.000025  -0.000204  -0.000275
    31  H    0.000075  -0.001289  -0.003029  -0.000002  -0.000030  -0.000020
              25         26         27         28         29         30
     1  C   -0.000328   0.003028  -0.006064   0.000131   0.014074   0.004358
     2  C   -0.016231  -0.140569  -0.004408  -0.001315  -0.017513  -0.012176
     3  C    0.004037   0.003959  -0.006519  -0.001423  -0.020328  -0.019485
     4  C   -0.059177  -0.018161  -0.002318  -0.000483  -0.001451   0.000612
     5  C    0.003617  -0.000632   0.001011  -0.022396  -0.115138  -0.013313
     6  O    0.000019  -0.000065  -0.000973   0.010179  -0.012237  -0.003812
     7  C   -0.000947  -0.004644  -0.042869   0.000592  -0.001360  -0.002316
     8  C    0.459403   0.019449   0.001210   0.000241   0.004317   0.006270
     9  C    0.038301   0.524496   0.415519   0.000730   0.007746  -0.006865
    10  C    0.002273  -0.001941  -0.002973   0.439427   0.515872  -0.022954
    11  O   -0.033583  -0.002941   0.007447   0.000071   0.000760   0.001153
    12  O    0.006985   0.009827  -0.003039   0.000581   0.009315  -0.007384
    13  C   -0.026294   0.000115   0.011992  -0.051944  -0.012534   0.433154
    14  H    0.000730   0.000064  -0.000051   0.000842  -0.000696  -0.001615
    15  H   -0.001555   0.000232   0.000063   0.000974   0.000104   0.000851
    16  H    0.004897  -0.021348  -0.007405  -0.001228  -0.011795  -0.018585
    17  H   -0.008572  -0.000108  -0.000478  -0.000325   0.001529  -0.000403
    18  H    0.003918  -0.002662  -0.000869  -0.000024  -0.000304  -0.000088
    19  H   -0.000077  -0.002365   0.000839   0.000009   0.000079   0.000103
    20  H    0.000247  -0.000126  -0.000007  -0.009882  -0.004681  -0.000380
    21  H   -0.000319  -0.000006  -0.000152   0.004530   0.002587  -0.000674
    22  H   -0.002652   0.001804  -0.000396   0.000039  -0.000144   0.000025
    23  H   -0.000768  -0.004542  -0.009511   0.000039   0.000055  -0.000204
    24  H   -0.010884   0.000521   0.000837   0.000023   0.000233  -0.000275
    25  H    0.498137  -0.001199  -0.000472  -0.000032  -0.000889  -0.001471
    26  H   -0.001199   0.440359  -0.001926  -0.000099   0.001276   0.000611
    27  H   -0.000472  -0.001926   0.459803   0.000206  -0.002511  -0.000574
    28  H   -0.000032  -0.000099   0.000206   0.470607  -0.010450  -0.005478
    29  H   -0.000889   0.001276  -0.002511  -0.010450   0.495154   0.001875
    30  H   -0.001471   0.000611  -0.000574  -0.005478   0.001875   0.456772
    31  H   -0.000665  -0.000008   0.000217  -0.006626   0.004181   0.002005
              31
     1  C   -0.010174
     2  C   -0.000064
     3  C   -0.062439
     4  C    0.000701
     5  C   -0.021777
     6  O   -0.001286
     7  C   -0.000606
     8  C   -0.000587
     9  C   -0.009299
    10  C   -0.032111
    11  O   -0.002724
    12  O    0.001334
    13  C    0.491666
    14  H   -0.002310
    15  H    0.000138
    16  H    0.002365
    17  H   -0.006724
    18  H   -0.000077
    19  H    0.000075
    20  H   -0.001289
    21  H   -0.003029
    22  H   -0.000002
    23  H   -0.000030
    24  H   -0.000020
    25  H   -0.000665
    26  H   -0.000008
    27  H    0.000217
    28  H   -0.006626
    29  H    0.004181
    30  H    0.002005
    31  H    0.410405
 Mulliken charges:
               1
     1  C   -0.446213
     2  C   -0.024380
     3  C    0.079941
     4  C   -0.387307
     5  C   -0.253350
     6  O   -0.355500
     7  C   -0.312435
     8  C   -0.127404
     9  C   -0.498520
    10  C   -0.307530
    11  O   -0.319873
    12  O   -0.352489
    13  C   -0.293967
    14  H    0.205596
    15  H    0.211540
    16  H    0.309852
    17  H    0.240883
    18  H    0.169871
    19  H    0.179458
    20  H    0.208653
    21  H    0.166981
    22  H    0.176659
    23  H    0.188359
    24  H    0.211273
    25  H    0.143548
    26  H    0.197599
    27  H    0.194371
    28  H    0.182483
    29  H    0.152876
    30  H    0.210264
    31  H    0.248759
 Sum of Mulliken charges =  -0.00000
 Mulliken charges with hydrogens summed into heavy atoms:
               1
     1  C   -0.029076
     2  C    0.285472
     3  C    0.320824
     4  C   -0.037977
     5  C    0.122284
     6  O   -0.355500
     7  C    0.052583
     8  C    0.227417
     9  C   -0.106550
    10  C    0.027829
    11  O   -0.319873
    12  O   -0.352489
    13  C    0.165056
 Electronic spatial extent (au):  <R**2>=           2813.6258
 Charge=             -0.0000 electrons
 Dipole moment (field-independent basis, Debye):
    X=              0.0739    Y=              1.9424    Z=              0.1448  Tot=              1.9492
 Quadrupole moment (field-independent basis, Debye-Ang):
   XX=            -70.4558   YY=            -85.7835   ZZ=            -74.1389
   XY=             -9.1853   XZ=              2.5107   YZ=              3.1704
 Traceless Quadrupole moment (field-independent basis, Debye-Ang):
   XX=              6.3370   YY=             -8.9908   ZZ=              2.6538
   XY=             -9.1853   XZ=              2.5107   YZ=              3.1704
 Octapole moment (field-independent basis, Debye-Ang**2):
  XXX=              0.1614  YYY=              2.9489  ZZZ=              4.8915  XYY=              5.4583
  XXY=             16.2616  XXZ=             -1.2926  XZZ=             -5.2140  YZZ=             -0.8507
  YYZ=              1.2721  XYZ=              1.4678
 Hexadecapole moment (field-independent basis, Debye-Ang**3):
 XXXX=          -2640.0111 YYYY=           -539.2566 ZZZZ=           -438.0579 XXXY=            -29.2656
 XXXZ=             41.8042 YYYX=             -7.9067 YYYZ=              6.7225 ZZZX=            -10.3205
 ZZZY=             -4.6282 XXYY=           -567.8765 XXZZ=           -510.0956 YYZZ=           -157.5246
 XXYZ=             26.2886 YYXZ=             11.0576 ZZXY=              5.0542
 N-N= 9.082451652985D+02 E-N=-3.258909663156D+03  KE= 6.153534586441D+02
 D1PCM: PCM CHGder 1st derivatives, ID1Alg=3 FixD1E=F DoIter=F DoCFld=F I1PDM=0.
 Calling FoFJK, ICntrl=      2127 FMM=F ISym2X=0 I1Cent= 0 IOpClX= 0 NMat=1 NMatS=1 NMatT=0.
 ***** Axes restored to original set *****
 -------------------------------------------------------------------
 Center     Atomic                   Forces (Hartrees/Bohr)
 Number     Number              X              Y              Z
 -------------------------------------------------------------------
      1        6           0.001784850    0.005499289   -0.002845419
      2        6           0.006144773   -0.003058961    0.003003855
      3        6           0.000637529    0.007540020   -0.000728162
      4        6          -0.002956761   -0.000936026    0.000867943
      5        6           0.004177661    0.005174541   -0.001770223
      6        8           0.000894184   -0.012025568   -0.001671937
      7        6          -0.001053502    0.004069943   -0.001141036
      8        6           0.003282606   -0.006546141   -0.001860624
      9        6           0.000564417   -0.000086274    0.003015642
     10        6          -0.000173595    0.000757913    0.003478354
     11        8          -0.001568929    0.013481610   -0.004855671
     12        8          -0.004199305   -0.016953888    0.000728475
     13        6          -0.003102835   -0.007339098   -0.000549467
     14        1          -0.002940062    0.003866968    0.003026640
     15        1           0.003013562   -0.003309671    0.002513897
     16        1          -0.004615141    0.003394050   -0.006543663
     17        1           0.001615666    0.003739317    0.004402578
     18        1           0.001129833    0.001409502   -0.002885320
     19        1           0.001579474   -0.000551761    0.002155352
     20        1          -0.002019917   -0.002621912   -0.003022917
     21        1          -0.003309710    0.003727593    0.002929604
     22        1          -0.002156273   -0.000834105    0.002976737
     23        1           0.001617963   -0.001585400   -0.001129035
     24        1           0.002062498    0.003831592    0.000804575
     25        1          -0.002762474   -0.002601453    0.005030042
     26        1           0.001463240    0.001690662   -0.002431711
     27        1          -0.002110425   -0.002467239   -0.000494667
     28        1          -0.001485290    0.001789293   -0.001472567
     29        1           0.002912835   -0.002573429   -0.001901547
     30        1           0.003846131    0.001880772   -0.001861863
     31        1          -0.002273003    0.001637859    0.002232134
 -------------------------------------------------------------------
 Cartesian Forces:  Max     0.016953888 RMS     0.003938469

 GradGradGradGradGradGradGradGradGradGradGradGradGradGradGradGradGradGrad
 Berny optimization.
 FormGI is forming the generalized inverse of G from B-inverse, IUseBI=4.
 Internal  Forces:  Max     0.016929191 RMS     0.002401714
 Search for a local minimum.
 Step number   1 out of a maximum of  186
 All quantities printed in internal units (Hartrees-Bohrs-Radians)
 Mixed Optimization -- RFO/linear search
 Second derivative matrix not updated -- first step.
 ITU=  0
     Eigenvalues ---    0.00586   0.00622   0.00724   0.00736   0.01409
     Eigenvalues ---    0.01451   0.01761   0.02698   0.02806   0.03017
     Eigenvalues ---    0.03074   0.04082   0.04300   0.04423   0.04751
     Eigenvalues ---    0.04890   0.04908   0.04971   0.05128   0.05142
     Eigenvalues ---    0.05278   0.05664   0.05684   0.06177   0.06178
     Eigenvalues ---    0.06354   0.06814   0.07039   0.07614   0.07862
     Eigenvalues ---    0.07966   0.07966   0.07970   0.08256   0.08297
     Eigenvalues ---    0.08836   0.09221   0.09420   0.10706   0.11601
     Eigenvalues ---    0.11700   0.11719   0.11764   0.12398   0.12566
     Eigenvalues ---    0.14721   0.14724   0.16038   0.16481   0.17507
     Eigenvalues ---    0.19131   0.21452   0.21947   0.25000   0.28479
     Eigenvalues ---    0.28645   0.28692   0.28871   0.28934   0.28940
     Eigenvalues ---    0.30317   0.30387   0.35056   0.35090   0.35145
     Eigenvalues ---    0.35150   0.35203   0.35207   0.35237   0.35259
     Eigenvalues ---    0.35281   0.35311   0.35361   0.35417   0.35432
     Eigenvalues ---    0.35718   0.35821   0.35834   0.35871   0.36339
     Eigenvalues ---    0.40835   0.41429   0.41725   0.42310   0.43172
     Eigenvalues ---    0.465001000.000001000.000001000.000001000.00000
     Eigenvalues --- 1000.000001000.000001000.000001000.000001000.00000
     Eigenvalues --- 1000.000001000.000001000.000001000.000001000.00000
     Eigenvalues --- 1000.000001000.000001000.000001000.000001000.00000
     Eigenvalues --- 1000.000001000.000001000.000001000.000001000.00000
     Eigenvalues --- 1000.000001000.000001000.000001000.000001000.00000
     Eigenvalues --- 1000.000001000.000001000.000001000.000001000.00000
     Eigenvalues --- 1000.000001000.000001000.000001000.000001000.00000
     Eigenvalues --- 1000.000001000.000001000.000001000.000001000.00000
     Eigenvalues --- 1000.000001000.000001000.000001000.000001000.00000
     Eigenvalues --- 1000.000001000.000001000.000001000.000001000.00000
     Eigenvalues --- 1000.000001000.000001000.000001000.000001000.00000
     Eigenvalues --- 1000.000001000.000001000.000001000.000001000.00000
     Eigenvalues --- 1000.000001000.000001000.000001000.000001000.00000
     Eigenvalues --- 1000.000001000.000001000.000001000.000001000.00000
     Eigenvalues --- 1000.000001000.000001000.000001000.000001000.00000
     Eigenvalues --- 1000.000001000.000001000.000001000.000001000.00000
     Eigenvalues --- 1000.000001000.000001000.000001000.000001000.00000
     Eigenvalues --- 1000.000001000.000001000.000001000.000001000.00000
     Eigenvalues --- 1000.000001000.000001000.000001000.000001000.00000
 RFO step:  Lambda=-4.40563292D-03 EMin= 5.85520994D-03
 Linear search not attempted -- first point.
 Iteration  1 RMS(Cart)=  0.06187854 RMS(Int)=  0.00082702
 Iteration  2 RMS(Cart)=  0.00289733 RMS(Int)=  0.00005151
 Iteration  3 RMS(Cart)=  0.00000306 RMS(Int)=  0.00005149
 Iteration  4 RMS(Cart)=  0.00000000 RMS(Int)=  0.00005149
 Iteration  1 RMS(Cart)=  0.00005190 RMS(Int)=  0.00001112
 Iteration  2 RMS(Cart)=  0.00002864 RMS(Int)=  0.00001242
 Iteration  3 RMS(Cart)=  0.00001580 RMS(Int)=  0.00001405
 Iteration  4 RMS(Cart)=  0.00000872 RMS(Int)=  0.00001514
 Iteration  5 RMS(Cart)=  0.00000481 RMS(Int)=  0.00001579
 Iteration  6 RMS(Cart)=  0.00000266 RMS(Int)=  0.00001615
 Iteration  7 RMS(Cart)=  0.00000147 RMS(Int)=  0.00001636
 Iteration  8 RMS(Cart)=  0.00000081 RMS(Int)=  0.00001647
 Variable       Old X    -DE/DX   Delta X   Delta X   Delta X     New X
                                 (Linear)    (Quad)   (Total)
    R1        2.86987  -0.00092   0.00000  -0.00279  -0.00274   2.86713
    R2        2.66627   0.00618   0.00000   0.01487   0.01491   2.68118
    R3        2.05432   0.00559   0.00000   0.01571   0.01571   2.07003
    R4        2.04284   0.00507   0.00000   0.01397   0.01397   2.05681
    R5        2.87541  -0.00118   0.00000  -0.00379  -0.00379   2.87162
    R6        2.65646   0.00743   0.00000   0.01674   0.01677   2.67323
    R7        2.63572   0.00612   0.00000   0.01305   0.01305   2.64876
    R8        2.03555   0.00868   0.00000   0.02360   0.02360   2.05915
    R9        2.69274   0.00266   0.00000   0.00630   0.00630   2.69904
   R10        2.89098  -0.00244   0.00000  -0.00977  -0.00975   2.88123
   R11        2.05092   0.00595   0.00000   0.01662   0.01662   2.06754
   R12        2.88883  -0.00085   0.00000  -0.00322  -0.00325   2.88557
   R13        2.87139  -0.00075   0.00000  -0.00245  -0.00245   2.86894
   R14        2.05529   0.00330   0.00000   0.00930   0.00930   2.06459
   R15        2.05292   0.00272   0.00000   0.00764   0.00764   2.06056
   R16        2.67597   0.00582   0.00000   0.01451   0.01449   2.69046
   R17        2.87433  -0.00060   0.00000  -0.00195  -0.00200   2.87233
   R18        2.04362   0.00448   0.00000   0.01234   0.01234   2.05596
   R19        2.05584   0.00568   0.00000   0.01601   0.01601   2.07186
   R20        2.88998  -0.00127   0.00000  -0.00460  -0.00463   2.88535
   R21        2.05340   0.00365   0.00000   0.01024   0.01024   2.06364
   R22        2.05172   0.00252   0.00000   0.00705   0.00705   2.05878
   R23        2.68655   0.00582   0.00000   0.01392   0.01395   2.70050
   R24        2.04342   0.00442   0.00000   0.01219   0.01219   2.05562
   R25        2.05004   0.00624   0.00000   0.01740   0.01740   2.06744
   R26        2.05347   0.00322   0.00000   0.00902   0.00902   2.06249
   R27        2.04980   0.00326   0.00000   0.00908   0.00908   2.05887
   R28        2.89419  -0.00148   0.00000  -0.00635  -0.00639   2.88779
   R29        2.05256   0.00275   0.00000   0.00771   0.00771   2.06027
   R30        2.05221   0.00421   0.00000   0.01178   0.01178   2.06399
   R31        2.04524   0.00450   0.00000   0.01245   0.01245   2.05769
   R32        2.05440   0.00353   0.00000   0.00992   0.00992   2.06433
    A1        1.95480   0.00026   0.00000   0.00059   0.00068   1.95548
    A2        1.90459  -0.00149   0.00000  -0.00613  -0.00617   1.89842
    A3        1.92921  -0.00025   0.00000  -0.00743  -0.00748   1.92173
    A4        1.91269   0.00165   0.00000   0.01238   0.01237   1.92506
    A5        1.86534  -0.00078   0.00000  -0.00396  -0.00402   1.86133
    A6        1.89615   0.00068   0.00000   0.00500   0.00498   1.90113
    A7        1.94416   0.00263   0.00000   0.01187   0.01177   1.95593
    A8        1.88898  -0.00201   0.00000  -0.01007  -0.01001   1.87897
    A9        1.92600   0.00033   0.00000   0.00609   0.00611   1.93211
   A10        1.94126  -0.00022   0.00000  -0.00615  -0.00607   1.93519
   A11        1.83189  -0.00176   0.00000  -0.00815  -0.00819   1.82371
   A12        1.93183   0.00114   0.00000   0.00703   0.00702   1.93886
   A13        1.86022   0.00023   0.00000  -0.00423  -0.00456   1.85566
   A14        1.91766   0.00088   0.00000   0.00005  -0.00023   1.91743
   A15        1.88426  -0.00052   0.00000   0.00749   0.00744   1.89170
   A16        2.02094  -0.00280   0.00000  -0.02929  -0.02932   1.99162
   A17        1.87770   0.00194   0.00000   0.02297   0.02305   1.90074
   A18        1.89845   0.00037   0.00000   0.00544   0.00559   1.90403
   A19        1.92359  -0.00034   0.00000  -0.00398  -0.00413   1.91946
   A20        1.91650   0.00071   0.00000   0.00207   0.00212   1.91863
   A21        1.93877  -0.00056   0.00000  -0.00125  -0.00124   1.93753
   A22        1.90539  -0.00011   0.00000  -0.00115  -0.00111   1.90428
   A23        1.90314   0.00011   0.00000  -0.00040  -0.00036   1.90278
   A24        1.87556   0.00020   0.00000   0.00491   0.00489   1.88045
   A25        1.93725   0.00049   0.00000   0.00478   0.00471   1.94196
   A26        1.85679  -0.00075   0.00000  -0.00256  -0.00253   1.85426
   A27        1.90113   0.00102   0.00000   0.00520   0.00523   1.90636
   A28        1.94492  -0.00024   0.00000  -0.00278  -0.00277   1.94215
   A29        1.93030  -0.00100   0.00000  -0.00764  -0.00764   1.92266
   A30        1.89117   0.00054   0.00000   0.00342   0.00339   1.89456
   A31        1.97470  -0.00371   0.00000  -0.02225  -0.02220   1.95250
   A32        1.91472   0.00244   0.00000  -0.00046  -0.00051   1.91421
   A33        1.91387  -0.00110   0.00000  -0.00214  -0.00217   1.91170
   A34        1.93001  -0.00040   0.00000   0.00110   0.00115   1.93117
   A35        1.92224  -0.00087   0.00000  -0.00300  -0.00299   1.91925
   A36        1.91585  -0.00085   0.00000  -0.00060  -0.00058   1.91527
   A37        1.86670   0.00069   0.00000   0.00517   0.00517   1.87187
   A38        1.94443   0.00159   0.00000   0.00434   0.00434   1.94877
   A39        1.94576  -0.00012   0.00000  -0.00193  -0.00190   1.94387
   A40        1.93141  -0.00133   0.00000  -0.00591  -0.00594   1.92547
   A41        1.84254  -0.00107   0.00000  -0.00154  -0.00155   1.84099
   A42        1.90933   0.00042   0.00000   0.00271   0.00274   1.91207
   A43        1.88745   0.00053   0.00000   0.00262   0.00261   1.89006
   A44        1.95592  -0.00122   0.00000  -0.01194  -0.01203   1.94389
   A45        1.87140  -0.00018   0.00000   0.00074   0.00075   1.87215
   A46        1.90067   0.00047   0.00000  -0.00190  -0.00188   1.89879
   A47        1.91049   0.00114   0.00000   0.00716   0.00720   1.91768
   A48        1.94706  -0.00023   0.00000   0.00023   0.00016   1.94722
   A49        1.87504   0.00007   0.00000   0.00650   0.00647   1.88151
   A50        1.92506  -0.00012   0.00000  -0.00700  -0.00712   1.91794
   A51        1.90618   0.00031   0.00000   0.00200   0.00203   1.90821
   A52        1.90244  -0.00024   0.00000   0.00025   0.00027   1.90271
   A53        1.92469  -0.00058   0.00000  -0.00004  -0.00000   1.92469
   A54        1.93200   0.00039   0.00000  -0.00050  -0.00048   1.93152
   A55        1.87249   0.00026   0.00000   0.00568   0.00566   1.87815
   A56        2.02090  -0.00589   0.00000  -0.03394  -0.03382   1.98708
   A57        2.10886  -0.01693   0.00000  -0.06654  -0.06654   2.04232
   A58        1.94984   0.00153   0.00000  -0.00903  -0.00912   1.94072
   A59        1.95045  -0.00119   0.00000  -0.01142  -0.01149   1.93895
   A60        1.85103  -0.00051   0.00000   0.00583   0.00588   1.85691
   A61        1.94713  -0.00031   0.00000  -0.00142  -0.00158   1.94555
   A62        1.90234  -0.00018   0.00000   0.00922   0.00923   1.91157
   A63        1.85749   0.00062   0.00000   0.00882   0.00883   1.86632
    D1       -1.26097   0.00308   0.00000   0.05938   0.05942  -1.20155
[...]
 04540,-0.00002753,-0.00001306,0.00000026,-0.00000257,-0.00001597,0.000
 00848,-0.00000988,-0.00033650,-0.00038963,0.00000986,-0.00029104,0.000
 01230,0.00001416,0.00120529,-0.00090714,0.00076109,0.00032182,-0.00029
 122,0.00039114,0.00000005,-0.00000375,0.00000154,-0.00000045,-0.000003
 04,0.00000175,-0.00012816,-0.00037887,-0.00022006,-0.00004962,-0.00009
 541,0.00015041,-0.00224640,-0.00142068,0.00718228,-0.10986981,-0.07459
 246,0.23428304,-0.00009704,0.00046901,0.00021470,-0.00967846,-0.010272
 77,0.01557868,0.00087860,-0.00109342,0.00047988,0.00117323,0.00058777,
 0.00027201,0.00006974,-0.00003878,0.00002337,-0.00011589,-0.00007376,-
 0.00008960,0.01042852,0.00800484,-0.02059190,-0.00022751,0.00012981,-0
 .00010687,-0.10533916,-0.04002168,0.10196183,0.00002061,0.00005322,0.0
 0000226,0.00109872,-0.00043175,-0.00099962,-0.00527066,0.00453731,0.00
 349630,-0.00006426,0.00002420,0.00013615,-0.00015852,-0.00011215,0.000
 04872,0.00001248,-0.00001348,-0.00000531,0.00039335,-0.00049841,-0.000
 40031,-0.00022973,0.00023920,0.00022186,-0.00014471,-0.00003571,0.0004
 1287,-0.00003368,0.00016109,0.00025224,-0.00001540,-0.00000379,-0.0000
 0549,-0.00000702,0.00000885,0.00000471,-0.00262584,0.00062171,-0.00389
 897,0.00120272,-0.00022220,0.00095053,0.00006272,-0.00002899,0.0000051
 7,-0.00003678,-0.00003191,0.00000497,0.11654206,0.00015425,-0.00044602
 ,-0.00021831,0.00995947,0.00733687,-0.01959440,0.00008084,0.00111914,-
 0.00048761,0.00003945,0.00030828,-0.00088557,-0.00005077,0.00002894,-0
 .00001758,0.00008209,0.00005683,0.00008006,-0.00285338,-0.00380311,0.0
 0704028,0.00027319,-0.00001120,0.00000528,-0.04382903,-0.07838576,0.07
 275810,-0.00000775,-0.00003728,0.00000179,-0.00002235,0.00089493,0.000
 69611,0.00466543,-0.00338533,-0.00286399,0.00000806,0.00002325,-0.0000
 8302,0.00014441,0.00009988,-0.00005666,-0.00001453,0.00000758,0.000003
 34,-0.00053211,0.00093626,0.00042947,0.00006833,-0.00010467,-0.0000962
 7,0.00001724,0.00035196,-0.00002173,0.00011525,0.00000028,-0.00008368,
 0.00001114,0.00000160,0.00000436,0.00000405,-0.00000705,-0.00000422,0.
 00155464,0.00076122,0.00114907,-0.00030493,0.00014168,-0.00016492,-0.0
 0004473,0.00002025,-0.00000228,-0.00001136,-0.00001039,0.00004713,0.04
 200361,0.08168866,0.00005632,-0.00024309,-0.00011486,0.00340425,0.0048
 5784,-0.00926725,-0.00026161,0.00076070,0.00025911,0.00097720,0.000250
 54,0.00064429,-0.00003244,0.00001776,-0.00001212,0.00005431,0.00002787
 ,0.00004819,0.00980301,0.00829440,-0.02009232,-0.00018850,-0.00000379,
 -0.00009600,0.10247942,0.06936498,-0.22474032,-0.00001029,-0.00001980,
 -0.00000772,-0.00047913,0.00003444,0.00073846,0.00214123,-0.00193546,-
 0.00006760,0.00004537,-0.00003966,-0.00010257,0.00006940,0.00005820,-0
 .00003144,-0.00001135,0.00000897,0.00000209,-0.00016420,-0.00032100,0.
 00072584,0.00003454,-0.00004412,-0.00006215,-0.00021723,-0.00045825,0.
 00003266,-0.00023138,-0.00001591,0.00025954,0.00000770,0.00000262,0.00
 000308,0.00000413,-0.00000455,-0.00000254,-0.00347803,0.00073356,-0.00
 237411,0.00010244,-0.00015833,0.00122828,0.00004624,-0.00006959,-0.000
 03193,0.00000086,0.00004500,0.00001923,-0.11026556,-0.07927168,0.24541
 748,0.00002145,-0.00004978,-0.00001623,0.01124538,0.01483240,0.0049682
 2,0.00036644,-0.00003942,-0.00018788,-0.00232372,0.00255360,-0.0038956
 9,-0.00000651,-0.00000086,-0.00000830,0.00001614,0.00000150,-0.0000109
 2,-0.01078594,-0.01829635,-0.00378294,-0.00114486,0.00053497,-0.000598
 86,-0.12341367,-0.11703698,-0.03471311,-0.00002119,0.00000212,0.000035
 84,-0.00085549,0.00596789,0.00325251,0.00056344,0.00033411,-0.00004019
 ,0.00000755,0.00000473,-0.00003503,0.00000799,0.00001490,-0.00000432,-
 0.00000141,0.00000160,-0.00000207,0.00050552,-0.00088041,-0.00061912,0
 .00000095,0.00004297,-0.00000541,0.00011870,0.00029590,0.00015661,-0.0
 0042573,-0.00143538,-0.00072920,0.00000117,0.00000019,0.00000163,0.000
 00164,-0.00000067,-0.00000155,0.00106897,0.00031974,0.00027085,0.00042
 630,0.00002257,0.00083130,0.00023125,-0.00015036,0.00011245,0.00011661
 ,-0.00006331,0.00007374,-0.00775893,-0.01155271,-0.00392653,0.13199100
 ,0.00003358,-0.00004895,-0.00003098,-0.01559956,-0.01720803,-0.0038258
 9,0.00028833,0.00028809,0.00023565,0.00134107,0.00049475,0.00138707,0.
 00001303,-0.00001186,0.00000297,0.00000963,0.00000294,0.00000466,0.004
 89391,0.00861431,0.00213348,0.00107132,-0.00011598,0.00148120,-0.11359
 220,-0.22809161,-0.05502421,0.00001392,0.00000644,-0.00000889,0.002587
 67,-0.00589937,-0.00347927,-0.00094845,0.00148756,0.00092101,-0.000006
 01,-0.00002861,0.00003380,0.00001356,0.00000570,-0.00000840,-0.0000013
 3,-0.00000183,-0.00000108,0.00024078,0.00062869,0.00036505,-0.00009621
 ,0.00006811,0.00007581,0.00002559,0.00001123,0.00001169,0.00029244,0.0
 0034980,0.00031276,0.00000439,0.00000494,0.00000043,0.00000170,0.00000
 316,0.00000012,-0.00044518,0.00039418,-0.00047538,-0.00052724,0.000354
 84,-0.00058088,-0.00018427,0.00004223,-0.00014736,-0.00010294,0.000071
 18,-0.00018977,-0.00400357,-0.00753805,-0.00185583,0.12463168,0.246114
 29,0.00000159,0.00000857,-0.00000137,-0.00526335,-0.00754596,-0.004674
 95,-0.00009907,0.00009789,0.00013272,-0.00311282,0.00251749,-0.0028224
 6,0.00000985,-0.00001159,0.00000654,-0.00000819,0.00000540,-0.00000208
 ,-0.01158478,-0.02000857,-0.00622596,0.00002247,0.00046848,0.00060843,
 -0.03298857,-0.05203700,-0.06315386,-0.00000517,0.00001373,0.00000303,
 0.00093062,-0.00231754,0.00015086,-0.00018560,-0.00005814,0.00042321,-
 0.00000908,-0.00001478,0.00002281,-0.00000413,-0.00000321,-0.00000032,
 0.00000028,-0.00000132,-0.00000380,0.00024404,0.00009769,0.00006869,-0
 .00002209,0.00000773,0.00001925,-0.00015414,-0.00024557,0.00012725,-0.
 00065000,-0.00122498,-0.00032312,0.00000072,0.00000162,-0.00000026,0.0
 0000026,0.00000287,-0.00000147,0.00092352,-0.00028716,0.00086994,0.000
 51419,0.00032894,0.00081199,0.00004941,-0.00005534,0.00002083,0.000055
 06,-0.00000251,-0.00005172,0.01241989,0.02154919,0.00757364,0.03889422
 ,0.05871370,0.06645425,-0.00099904,-0.00077363,-0.00045897,0.00048494,
 0.00002459,0.00017930,-0.00078785,-0.00366190,-0.00190931,0.00000117,0
 .00000323,-0.00001466,0.01275478,-0.01128151,0.01043910,-0.00103984,-0
 .00497084,0.00469007,-0.00001102,0.00002968,0.00003523,0.00005007,-0.0
 0003499,0.00005950,-0.00004556,-0.00004583,-0.00004663,-0.12341575,0.0
 9157009,-0.07930904,-0.00025167,-0.00008245,-0.00014594,-0.00004203,0.
 00000734,0.00025450,-0.00981201,0.01222421,-0.01026523,0.00011062,0.00
 008073,0.00007446,0.00017652,0.00021867,0.00012062,-0.00005598,0.00004
 302,-0.00018562,-0.00043490,0.00084113,-0.00093904,-0.00000408,-0.0000
 0072,0.00000417,-0.00001047,0.00000337,-0.00000149,0.00051767,0.000472
 72,-0.00088984,0.00068880,0.00095573,-0.00036664,-0.00000061,-0.000000
 88,-0.00000250,-0.00001826,0.00000868,-0.00001345,-0.00002110,-0.00000
 480,-0.00001474,-0.00000073,0.00000300,0.00000234,-0.00002670,0.000016
 48,0.00001122,0.00000193,0.00000744,0.00000150,0.13052208,-0.00093711,
 -0.00090422,-0.00101129,0.00006155,0.00011755,-0.00016295,-0.00207233,
 -0.00212710,-0.00267791,-0.00000240,-0.00000032,0.00000266,0.01319993,
 -0.01089886,0.00769656,-0.00250195,-0.00343847,0.00518478,0.00000216,-
 0.00000547,-0.00000476,0.00000048,0.00001587,-0.00000569,-0.00000760,-
 0.00001565,0.00003593,0.09038464,-0.15592250,0.09832033,0.00002227,-0.
 00000548,0.00004436,-0.00011648,0.00014399,0.00017398,-0.01012018,0.01
 286290,-0.01186914,0.00012217,0.00011098,0.00013751,0.00017654,0.00014
 665,0.00012979,0.00000665,-0.00007177,0.00011927,-0.00041830,0.0005199
 8,-0.00089053,-0.00000016,0.00000091,-0.00000027,0.00000064,-0.0000003
 2,0.00000013,0.00007392,0.00031097,-0.00072071,-0.00012873,0.00079158,
 -0.00008328,-0.00000087,-0.00000065,0.00000118,0.00000117,-0.00000114,
 0.00000243,0.00000172,-0.00000116,0.00000326,0.00000393,-0.00000188,0.
 00000337,-0.00000629,0.00000585,0.00000108,-0.00000311,-0.00000218,-0.
 00000104,-0.09682096,0.16787989,0.00029316,0.00002420,0.00120112,0.000
 35725,0.00024098,-0.00029116,-0.00159875,-0.00434524,-0.00168853,-0.00
 000417,0.00000260,-0.00000817,-0.01017471,0.00809178,-0.00897214,0.001
 81181,0.00341368,-0.00228785,0.00000013,0.00000028,0.00000973,0.000044
 91,0.00001367,0.00004015,-0.00003792,-0.00004857,0.00004790,-0.0774985
 6,0.09617040,-0.13187853,-0.00013035,-0.00006210,0.00002571,-0.0003963
 4,0.00037241,0.00040620,-0.01066262,0.01331943,-0.01305707,0.00002359,
 -0.00006255,-0.00009102,-0.00003214,0.00004587,-0.00004084,-0.00004982
 ,-0.00007256,0.00006129,-0.00052354,0.00084916,-0.00089600,-0.00000234
 ,-0.00000012,0.00000224,-0.00000564,0.00000218,-0.00000110,0.00016012,
 0.00001073,0.00038098,-0.00012511,-0.00072081,0.00040985,-0.00000224,-
 0.00000217,0.00000218,-0.00000695,0.00000301,-0.00000156,-0.00000658,-
 0.00000349,-0.00000209,0.00000114,0.00000353,0.00000508,-0.00002583,0.
 00001859,0.00001238,-0.00000533,-0.00000135,-0.00000311,0.08799687,-0.
 10533707,0.14284720,-0.00027319,-0.00032128,-0.00029574,-0.00069647,-0
 .00023557,-0.00101008,0.00080245,0.00037349,0.00036279,0.00000383,-0.0
 0001148,0.00001446,-0.01620589,0.01298834,0.01340412,0.00230919,0.0000
 0449,-0.00125972,0.00002231,-0.00002157,-0.00005062,-0.00003827,0.0000
 3741,-0.00002554,0.00009242,-0.00000584,0.00013272,-0.13314188,0.08347
 426,0.08945330,0.00012225,-0.00002193,0.00010774,-0.00033896,0.0004054
 1,0.00050817,0.01225351,-0.01171334,-0.01186490,-0.00012400,0.00007869
 ,-0.00000191,0.00004575,0.00003276,0.00003667,-0.00134487,-0.00062975,
 0.00004395,-0.00003081,-0.00004093,0.00021764,0.00000096,0.00000031,-0
 .00000230,0.00000764,0.00000364,0.00000231,0.00070652,0.00036628,-0.00
 062899,-0.00172641,-0.00332735,0.00256448,0.00000250,-0.00000081,0.000
 00645,0.00001813,-0.00000662,0.00001497,0.00001008,0.00000012,0.000013
 05,0.00000964,-0.00000038,0.00000368,0.00001140,-0.00000088,-0.0000039
 5,0.00004256,0.00002831,0.00001965,-0.00953428,0.00796065,0.00961737,0
 .14806970,-0.00006174,0.00000643,0.00004746,-0.00005698,0.00024059,-0.
 00040931,0.00047930,-0.00036050,0.00038315,-0.00001007,0.00000373,0.00
 000766,-0.01385777,0.01060307,0.01424634,0.00012211,0.00165474,-0.0020
 1990,0.00001624,-0.00005743,-0.00003844,-0.00001098,0.00006394,-0.0000
 4930,-0.00000106,0.00001398,0.00013994,0.08559557,-0.12980553,-0.08844
 751,0.00021133,0.00004744,0.00028293,-0.00004532,0.00061294,0.00030762
 ,0.00919294,-0.01063155,-0.01030140,-0.00001520,-0.00003842,-0.0000364
 5,0.00004450,0.00005720,-0.00002885,-0.00063899,-0.00006171,0.00022195
 ,-0.00012741,0.00008030,-0.00002099,0.00000088,0.00000095,-0.00000241,
 0.00000596,-0.00000443,-0.00000020,0.00080624,0.00108116,-0.00052747,-
 0.00253502,-0.00174880,0.00282316,-0.00000081,-0.00000151,0.00000610,0
 .00001865,-0.00000614,0.00001632,0.00002217,0.00000016,0.00001896,0.00
 000268,-0.00000295,0.00000860,-0.00000934,0.00000036,0.00000056,-0.000
 04504,-0.00004315,-0.00002343,0.01102604,-0.01093509,-0.01232594,-0.08
 778536,0.13946631,-0.00021891,-0.00003147,-0.00012719,-0.00023105,0.00
 028841,-0.00066093,0.00116596,-0.00042848,0.00003367,-0.00000873,-0.00
 000096,0.00001801,0.01070857,-0.00827197,-0.01103216,-0.00078656,-0.00
 089255,0.00118410,0.00002830,-0.00006126,-0.00004842,-0.00002124,0.000
 08525,-0.00006424,0.00002126,0.00001834,0.00016764,0.08858850,-0.08722
 862,-0.14399312,0.00030395,0.00007335,0.00034838,-0.00047373,0.0004427
 2,0.00022808,0.01186361,-0.01185358,-0.01293918,0.00000608,-0.00001905
 ,0.00004483,0.00003207,0.00005690,-0.00003755,0.00015629,-0.00015174,0
 .00056309,-0.00015537,0.00010335,0.00005960,0.00000265,0.00000272,-0.0
 0000310,0.00001074,-0.00000395,0.00000033,-0.00062802,0.00033633,0.000
 77218,0.00202881,0.00190428,-0.00060831,0.00000008,-0.00000100,0.00000
 480,0.00002385,-0.00001090,0.00002193,0.00002833,0.00000074,0.00002759
 ,0.00000681,-0.00000588,0.00001137,0.00000517,-0.00000135,-0.00000407,
 -0.00002102,-0.00002051,-0.00001273,-0.01046070,0.00941179,0.01223385,
 -0.09940937,0.09774853,0.15504611,-0.00175495,0.00179483,-0.00242105,-
 0.00127491,0.00164816,0.00133127,0.01249337,0.00946836,-0.00731885,-0.
 00002870,0.00004854,0.00001071,-0.00126702,-0.00102909,-0.00444348,0.0
 0046247,-0.00018257,0.00090596,-0.00005844,0.00004489,0.00001698,-0.00
 008054,-0.00000289,0.00002882,-0.00006460,-0.00008715,-0.00018345,-0.0
 1188124,-0.00858949,0.00868757,-0.00067255,0.00084070,-0.00009683,0.00
 071246,-0.00164981,0.00051496,-0.17242834,-0.10808454,0.08642511,0.000
 02869,0.00000670,-0.00003769,0.00055743,0.00068656,-0.00040025,-0.0013
 3713,0.00163146,0.00026333,0.00033934,-0.00064213,0.00073187,-0.000001
 87,-0.00000279,0.00000085,0.00000128,-0.00000205,-0.00000652,-0.000534
 53,-0.00100676,0.00069876,0.00021588,0.00021825,-0.00012398,0.00000113
 ,0.00000450,-0.00001675,-0.00001334,0.00000513,-0.00001978,0.00000217,
 0.00000002,0.00000116,0.00001365,-0.00000315,0.00002715,-0.00000283,-0
 .00000695,-0.00000227,0.00000627,-0.00001002,-0.00000121,0.00026973,0.
 00053054,0.00026723,0.00066100,0.00028498,0.00000151,0.18807898,0.0038
 2823,-0.00080293,0.00237930,0.00095194,-0.00153086,0.00021755,-0.01425
 820,-0.01304753,0.01036798,-0.00006671,0.00004138,-0.00013661,-0.00110
 211,-0.00009849,-0.00360152,0.00013041,0.00039910,-0.00022961,-0.00009
 070,0.00006685,0.00010500,0.00011900,0.00003807,0.00050083,-0.00008197
 ,-0.00000848,-0.00034068,-0.01044254,-0.00923374,0.00721953,-0.0010638
 2,0.00063875,-0.00038038,-0.00041148,0.00144343,-0.00090440,-0.1052321
 4,-0.13667382,0.07272304,-0.00021863,0.00015217,0.00008730,-0.00087554
 ,-0.00067207,0.00039678,0.00115102,-0.00119763,-0.00100140,0.00040444,
 0.00055130,-0.00046760,0.00000090,-0.00000831,0.00000554,-0.00005025,0
 .00003831,0.00000240,-0.00055923,-0.00049604,0.00062131,-0.00015891,0.
 00000498,0.00018491,0.00000429,0.00000418,-0.00000891,-0.00004669,0.00
 002417,-0.00003840,-0.00004511,-0.00001381,-0.00004706,0.00000832,0.00
 002424,-0.00006222,-0.00000013,-0.00000795,0.00001579,-0.00000480,0.00
 003848,0.00001743,0.00033435,0.00060775,-0.00010479,0.00048920,0.00034
 552,0.00037028,0.11432462,0.14702549,-0.00439883,0.00197862,-0.0029321
 2,0.00071194,-0.00032196,-0.00009001,0.01672438,0.01044602,-0.01097280
 ,0.00002849,-0.00002471,0.00003985,-0.00289996,-0.00169796,-0.00437980
 ,0.00108453,0.00000116,0.00107837,0.00007206,-0.00004533,-0.00004496,-
 0.00001009,-0.00004733,-0.00015494,-0.00000274,-0.00007970,0.00029432,
 -0.01637119,-0.01349766,0.01268382,0.00027907,-0.00041913,0.00007494,-
 0.00002123,-0.00068436,0.00086630,0.08495472,0.07435422,-0.10734590,-0
 .00021255,-0.00017677,0.00019713,0.00104257,0.00119700,-0.00028248,0.0
 0088782,-0.00119356,-0.00012621,0.00021656,-0.00064744,0.00052817,0.00
 000244,0.00000112,-0.00000214,0.00001161,-0.00000987,-0.00000112,-0.00
 089466,-0.00103195,0.00070465,-0.00006650,0.00000866,0.00004247,-0.000
 00785,-0.00000358,0.00000186,0.00002271,-0.00000486,0.00001573,-0.0000
 0123,0.00000172,0.00000863,-0.00000610,-0.00000100,0.00000995,-0.00003
 530,0.00003217,0.00001087,0.00000605,-0.00001820,-0.00000574,0.0006722
 1,0.00083028,0.00083719,0.00098635,0.00046871,0.00081665,-0.09320952,-
 0.07883453,0.11625252,-0.00000447,-0.00063864,0.00084628,0.00131163,0.
 00049653,-0.00077373,-0.01005425,0.00767435,0.00901114,-0.00001771,0.0
 0003871,-0.00006546,0.00138004,-0.00009644,-0.00023856,-0.00007989,0.0
 0016571,-0.00011286,-0.00005120,0.00006474,0.00011156,0.00019322,-0.00
 001695,0.00026643,-0.00011937,-0.00009986,-0.00010144,0.01112866,-0.01
 291052,-0.01137422,-0.00077304,-0.00004406,-0.00018302,-0.00227547,0.0
 0286699,-0.00136984,-0.13910858,0.09457049,0.08387524,0.00041582,-0.00
 021184,-0.00006583,0.00004907,-0.00013824,-0.00025185,-0.00004351,-0.0
 0004844,-0.00026331,0.00015967,-0.00044594,0.00018882,-0.00000328,-0.0
 0000735,0.00000612,-0.00003208,0.00001550,-0.00000314,0.00008055,0.000
 25265,-0.00008967,-0.00015561,0.00042827,0.00011550,0.00000071,-0.0000
 0612,0.00001037,-0.00005591,0.00001398,-0.00002953,-0.00003820,-0.0000
 1548,-0.00002625,-0.00001332,0.00002311,-0.00002393,-0.00006104,0.0000
 3358,0.00003481,-0.00000382,0.00001866,0.00000093,0.00093357,0.0005875
 3,0.00071536,-0.00173681,-0.00262850,-0.00256781,-0.01244285,0.0129622
 7,0.01043421,0.15141748,-0.00007321,0.00011537,-0.00080253,-0.00131741
 ,-0.00052355,0.00161762,0.01196313,-0.01318834,-0.01236154,-0.00001068
 ,0.00000478,-0.00000622,0.00116479,0.00031382,-0.00018036,-0.00024393,
 -0.00041066,0.00031785,-0.00002579,0.00001387,-0.00001015,-0.00006090,
 0.00002571,0.00001916,0.00004787,0.00010225,-0.00023000,0.00846551,-0.
 01088125,-0.00960466,0.00010441,0.00035499,-0.00006477,0.00322674,-0.0
 0276022,0.00253985,0.09338161,-0.14312164,-0.08273766,-0.00030929,-0.0
 0019931,0.00035837,0.00004183,0.00031208,0.00012464,-0.00039495,0.0002
 8625,-0.00015100,-0.00018669,0.00102710,0.00002054,0.00000500,0.000001
 43,-0.00000262,0.00000514,0.00000248,0.00000274,-0.00013705,0.00021735
 ,0.00006585,-0.00029947,-0.00010266,0.00024067,0.00001104,0.00000944,-
 0.00002346,0.00001142,0.00000189,-0.00000819,0.00001282,0.00000559,0.0
 0000017,0.00001801,0.00000458,-0.00002040,0.00005750,-0.00004701,-0.00
 003328,-0.00000170,0.00000870,0.00000743,-0.00019198,0.00081741,0.0005
 0426,-0.00212028,-0.00058163,-0.00185973,-0.01023883,0.01234747,0.0094
 2023,-0.10290469,0.15584369,0.00058443,0.00013650,-0.00000476,0.000845
 77,0.00056056,-0.00163324,-0.01266508,0.01167284,0.01115959,0.00000738
 ,-0.00000241,0.00000740,0.00071731,0.00115038,0.00050673,-0.00012716,-
 0.00021253,-0.00003561,0.00002186,-0.00002248,-0.00001011,0.00005589,-
 0.00001099,-0.00002474,-0.00000146,-0.00011091,0.00026869,0.01237517,-
 0.01453737,-0.01436000,-0.00010303,-0.00032030,0.00012528,-0.00395265,
 0.00517312,-0.00165206,0.08530047,-0.08493444,-0.12178373,-0.00002474,
 0.00042320,-0.00020727,-0.00016421,-0.00022951,0.00014764,0.00001958,-
 0.00023387,0.00025891,-0.00006562,-0.00059425,0.00100228,-0.00000327,-
 0.00000063,0.00000050,-0.00000273,-0.00000155,-0.00000186,-0.00019136,
 0.00024515,0.00002330,-0.00034462,-0.00013054,0.00046746,-0.00000811,-
 0.00000840,0.00002252,-0.00000541,-0.00000245,0.00001488,-0.00000510,-
 0.00000290,0.00000667,-0.00001509,-0.00000304,0.00001910,-0.00006655,0
 .00003836,0.00003186,0.00000029,-0.00001141,-0.00001048,0.00048270,0.0
 0066592,0.00069615,-0.00295674,-0.00249637,-0.00205120,0.00836838,-0.0
 0905687,-0.00812520,-0.08807630,0.09285718,0.13514129\\0.00000707,0.00
 001733,0.00003269,-0.00289612,-0.00159916,-0.00311746,-0.00525522,-0.0
 0478942,-0.00259215,0.00000430,-0.00000333,-0.00002952,-0.00000268,-0.
 00000064,0.00000667,-0.00001396,-0.00000590,-0.00001575,-0.00000440,0.
 00000442,0.00002025,-0.00002732,-0.00001212,-0.00002932,0.00002956,0.0
 0004590,0.00001511,0.00002980,-0.00002428,-0.00000296,0.00003116,0.000
 02222,0.00005027,0.00540148,0.00352777,0.00480514,0.00275646,0.0028169
 7,0.00082156,0.00000520,-0.00001613,-0.00001658,-0.00002450,0.00001913
 ,-0.00002137,0.00001693,-0.00000121,0.00003185,-0.00000584,-0.00000467
 ,-0.00000772,-0.00000711,-0.00000342,0.00001479,-0.00001153,0.00001163
 ,0.00000310,0.00001546,0.00000741,0.00001582,0.00001125,-0.00001128,-0
 .00001598,0.00000325,0.00000006,-0.00000492,-0.00001102,0.00001678,0.0
 0000811,-0.00000753,-0.00001671,-0.00000165,0.00000445,0.00001303,-0.0
 0001186,-0.00001642,-0.00000201,0.00001447,-0.00000455,0.00002301,0.00
 000853,-0.00001510,-0.00001521,0.00000491,-0.00001338,0.00001880,0.000
 00970,-0.00001568,-0.00001993,0.00000477,0.00001601,-0.00001908,-0.000
 00049\\\@


 AS FAR AS THE LAWS OF MATHEMATICS REFER TO REALITY,
 THEY ARE NOT CERTAIN; AND AS FAR AS THEY ARE CERTAIN,
 THEY DO NOT REFER TO REALITY.

                                         -- ALBERT EINSTEIN
 Job cpu time:       0 days 13 hours 21 minutes 41.4 seconds.
 Elapsed time:       0 days  1 hours  6 minutes 53.4 seconds.
 File lengths (MBytes):  RWF=    721 Int=      0 D2E=      0 Chk=     34 Scr=      1
 Normal termination of Gaussian 16 at Sat Mar  9 04:53:21 2019.
