 Entering Gaussian System, Link 0=g16
 Initial command:
 /sw/Projects/G16/g16/l1.exe "/nvme/pbs/tmpdir/pbs.74203[0].flm1/Gau-6956.inp" -scrdir="/nvme/pbs/tmpdir/pbs.74203[0].flm1/"
 Entering Link 1 = /sw/Projects/G16/g16/l1.exe PID=      6957.
  
 Copyright (c) 1988-2017, Gaussian, Inc.  All Rights Reserved.
  
 This is part of the Gaussian(R) 16 program.  It is based on
 the Gaussian(R) 09 system (copyright 2009, Gaussian, Inc.),
 the Gaussian(R) 03 system (copyright 2003, Gaussian, Inc.),
 the Gaussian(R) 98 system (copyright 1998, Gaussian, Inc.),
 the Gaussian(R) 94 system (copyright 1995, Gaussian, Inc.),
 the Gaussian 92(TM) system (copyright 1992, Gaussian, Inc.),
 the Gaussian 90(TM) system (copyright 1990, Gaussian, Inc.),
 the Gaussian 88(TM) system (copyright 1988, Gaussian, Inc.),
 the Gaussian 86(TM) system (copyright 1986, Carnegie Mellon
 University), and the Gaussian 82(TM) system (copyright 1983,
 Carnegie Mellon University). Gaussian is a federally registered
 trademark of Gaussian, Inc.
  
 This software contains proprietary and confidential information,
 including trade secrets, belonging to Gaussian, Inc.
  
 This software is provided under written license and may be
 used, copied, transmitted, or stored only in accord with that
 written license.
  
 The following legend is applicable only to US Government
 contracts under FAR:
  
                    RESTRICTED RIGHTS LEGEND
  
 Use, reproduction and disclosure by the US Government is
 subject to restrictions as set forth in subparagraphs (a)
 and (c) of the Commercial Computer Software - Restricted
 Rights clause in FAR 52.227-19.
  
 Gaussian, Inc.
 340 Quinnipiac St., Bldg. 40, Wallingford CT 06492
  
  
 ---------------------------------------------------------------
 Warning -- This program may not be used in any manner that
 competes with the business of Gaussian, Inc. or will provide
 assistance to any competitor of Gaussian, Inc.  The licensee
 of this program is prohibited from giving any competitor of
 Gaussian, Inc. access to this program.  By using this program,
 the user acknowledges that Gaussian, Inc. is engaged in the
 business of creating and licensing software in the field of
 computational chemistry and represents and warrants to the
 licensee that it is not a competitor of Gaussian, Inc. and that
 it will not use this program in any manner prohibited above.
 ---------------------------------------------------------------
  

 Cite this work as:
 Gaussian 16, Revision B.01,
 M. J. Frisch, G. W. Trucks, H. B. Schlegel, G. E. Scuseria, 
 M. A. Robb, J. R. Cheeseman, G. Scalmani, V. Barone, 
 G. A. Petersson, H. Nakatsuji, X. Li, M. Caricato, A. V. Marenich, 
 J. Bloino, B. G. Janesko, R. Gomperts, B. Mennucci, H. P. Hratchian, 
 J. V. Ortiz, A. F. Izmaylov, J. L. Sonnenberg, D. Williams-Young, 
 F. Ding, F. Lipparini, F. Egidi, J. Goings, B. Peng, A. Petrone, 
 T. Henderson, D. Ranasinghe, V. G. Zakrzewski, J. Gao, N. Rega, 
 G. Zheng, W. Liang, M. Hada, M. Ehara, K. Toyota, R. Fukuda, 
 J. Hasegawa, M. Ishida, T. Nakajima, Y. Honda, O. Kitao, H. Nakai, 
 T. Vreven, K. Throssell, J. A. Montgomery, Jr., J. E. Peralta, 
 F. Ogliaro, M. J. Bearpark, J. J. Heyd, E. N. Brothers, K. N. Kudin, 
 V. N. Staroverov, T. A. Keith, R. Kobayashi, J. Normand, 
 K. Raghavachari, A. P. Rendell, J. C. Burant, S. S. Iyengar, 
 J. Tomasi, M. Cossi, J. M. Millam, M. Klene, C. Adamo, R. Cammi, 
 J. W. Ochterski, R. L. Martin, K. Morokuma, O. Farkas, 
 J. B. Foresman, and D. J. Fox, Gaussian, Inc., Wallingford CT, 2016.
 
 ******************************************
 Gaussian 16:  ES64L-G16RevB.01 20-Dec-2017
                 8-Mar-2019 
 ******************************************
 %mem=20gb
 %nproc=12
 Will use up to   12 processors via shared memory.
 %chk=4c1_a1_a4_4c1_PSI.inp_extract_0.chk
 ----------------------------------------------------------------------
 #M062X/6-311++G(2d,2p) opt=ModRedundant freq=noraman SCRF=(SMD,solvent
 =water)
 ----------------------------------------------------------------------
 1/18=120,19=15,26=3,38=1/1,3;
 2/9=110,12=2,17=6,18=5,40=1/2;
 3/5=4,6=6,7=1212,11=2,25=1,30=1,70=32201,71=1,72=1,74=-55/1,2,3;
 4//1;
 5/5=2,38=5,53=1/2;
 6/7=2,8=2,9=2,10=2,28=1/1;
 7//1,2,3,16;
 1/18=20,19=15,26=3/3(2);
 2/9=110/2;
 99//99;
 2/9=110/2;
 3/5=4,6=6,7=1212,11=2,25=1,30=1,70=32205,71=1,72=1,74=-55/1,2,3;
 4/5=5,16=3,69=1/1;
 5/5=2,38=5,53=1/2;
 7//1,2,3,16;
 1/18=20,19=15,26=3/3(-5);
 2/9=110/2;
 6/7=2,8=2,9=2,10=2,19=2,28=1/1;
 99/9=1/99;
 -------------------------------
 4c1_a1_a4_4c1_PSI.inp_extract_0
 -------------------------------
 Symbolic Z-matrix:
 Charge =  0 Multiplicity = 1
 C                    -1.71246   1.44297  -0.13194 
 C                     1.1298   -0.68714  -0.69078 
 C                    -1.06177   0.26363  -0.83432 
 C                     3.41923   0.5153    0.60743 
 C                    -3.40657   0.11319   0.83419 
 O                    -2.37053   1.05327   1.05457 
 C                     2.66295  -0.60794   1.31676 
 C                     2.49137   1.25412  -0.3423 
 C                     1.97361  -1.49745   0.28094 
 C                    -2.85861  -1.16322   0.21559 
 O                     1.86928   0.36334  -1.25949 
 O                     0.00485  -0.20484  -0.01885 
 C                    -2.08667  -0.84586  -1.06723 
 H                    -2.42613   1.90971  -0.80663 
 H                    -0.9701    2.17653   0.14864 
 H                     0.8209   -1.29392  -1.53059 
 H                    -0.66207   0.61346  -1.77813 
 H                     4.25151   0.10008   0.04371 
 H                     3.83019   1.22246   1.32238 
 H                    -3.85737  -0.07564   1.79892 
 H                    -4.15775   0.56102   0.18681 
 H                     1.92684  -0.18274   1.99369 
 H                     3.34119  -1.20377   1.91984 
 H                     3.03229   1.96538  -0.95113 
 H                     1.72895   1.79311   0.20946 
 H                     2.72521  -2.02298  -0.30184 
 H                     1.34515  -2.24518   0.75251 
 H                    -3.68072  -1.84092   0.00429 
 H                    -2.21005  -1.65662   0.93347 
 H                    -1.59212  -1.73223  -1.45144 
 H                    -2.77992  -0.50744  -1.8338 
 
 The following ModRedundant input section has been read:
 D      13       3      12       2 F                                           
 

 GradGradGradGradGradGradGradGradGradGradGradGradGradGradGradGradGradGrad
 Berny optimization.
 Initialization pass.
                           ----------------------------
                           !    Initial Parameters    !
                           ! (Angstroms and Degrees)  !
 --------------------------                            --------------------------
 ! Name  Definition              Value          Derivative Info.                !
 --------------------------------------------------------------------------------
 ! R1    R(1,3)                  1.5191         estimate D2E/DX2                !
 ! R2    R(1,6)                  1.4116         estimate D2E/DX2                !
 ! R3    R(1,14)                 1.0874         estimate D2E/DX2                !
 ! R4    R(1,15)                 1.0807         estimate D2E/DX2                !
 ! R5    R(2,9)                  1.5208         estimate D2E/DX2                !
 ! R6    R(2,11)                 1.4049         estimate D2E/DX2                !
 ! R7    R(2,12)                 1.3963         estimate D2E/DX2                !
 ! R8    R(2,16)                 1.0811         estimate D2E/DX2                !
 ! R9    R(3,12)                 1.422          estimate D2E/DX2                !
 ! R10   R(3,13)                 1.5283         estimate D2E/DX2                !
 ! R11   R(3,17)                 1.083          estimate D2E/DX2                !
 ! R12   R(4,7)                  1.5286         estimate D2E/DX2                !
 ! R13   R(4,8)                  1.5195         estimate D2E/DX2                !
 ! R14   R(4,18)                 1.0876         estimate D2E/DX2                !
 ! R15   R(4,19)                 1.0863         estimate D2E/DX2                !
 ! R16   R(5,6)                  1.4162         estimate D2E/DX2                !
 ! R17   R(5,10)                 1.5206         estimate D2E/DX2                !
 ! R18   R(5,20)                 1.0815         estimate D2E/DX2                !
 ! R19   R(5,21)                 1.0881         estimate D2E/DX2                !
 ! R20   R(7,9)                  1.5295         estimate D2E/DX2                !
 ! R21   R(7,22)                 1.0867         estimate D2E/DX2                !
 ! R22   R(7,23)                 1.0857         estimate D2E/DX2                !
 ! R23   R(8,11)                 1.4219         estimate D2E/DX2                !
 ! R24   R(8,24)                 1.0813         estimate D2E/DX2                !
 ! R25   R(8,25)                 1.0845         estimate D2E/DX2                !
 ! R26   R(9,26)                 1.0866         estimate D2E/DX2                !
 ! R27   R(9,27)                 1.0846         estimate D2E/DX2                !
 ! R28   R(10,13)                1.5304         estimate D2E/DX2                !
 ! R29   R(10,28)                1.0862         estimate D2E/DX2                !
 ! R30   R(10,29)                1.086          estimate D2E/DX2                !
 ! R31   R(13,30)                1.0853         estimate D2E/DX2                !
 ! R32   R(13,31)                1.0875         estimate D2E/DX2                !
 ! A1    A(3,1,6)              111.9624         estimate D2E/DX2                !
 ! A2    A(3,1,14)             109.1163         estimate D2E/DX2                !
 ! A3    A(3,1,15)             110.6572         estimate D2E/DX2                !
 ! A4    A(6,1,14)             109.5152         estimate D2E/DX2                !
 ! A5    A(6,1,15)             106.8212         estimate D2E/DX2                !
 ! A6    A(14,1,15)            108.6978         estimate D2E/DX2                !
 ! A7    A(9,2,11)             111.4078         estimate D2E/DX2                !
 ! A8    A(9,2,12)             108.8805         estimate D2E/DX2                !
 ! A9    A(9,2,16)             110.8432         estimate D2E/DX2                !
 ! A10   A(11,2,12)            111.1363         estimate D2E/DX2                !
 ! A11   A(11,2,16)            104.8087         estimate D2E/DX2                !
 ! A12   A(12,2,16)            109.7229         estimate D2E/DX2                !
 ! A13   A(1,3,12)             108.1737         estimate D2E/DX2                !
 ! A14   A(1,3,13)             110.2931         estimate D2E/DX2                !
 ! A15   A(1,3,17)             108.0745         estimate D2E/DX2                !
 ! A16   A(12,3,13)            110.5641         estimate D2E/DX2                !
 ! A17   A(12,3,17)            109.2283         estimate D2E/DX2                !
 ! A18   A(13,3,17)            110.4381         estimate D2E/DX2                !
 ! A19   A(7,4,8)              110.1943         estimate D2E/DX2                !
 ! A20   A(7,4,18)             109.7904         estimate D2E/DX2                !
 ! A21   A(7,4,19)             111.1064         estimate D2E/DX2                !
 ! A22   A(8,4,18)             109.2055         estimate D2E/DX2                !
 ! A23   A(8,4,19)             109.0163         estimate D2E/DX2                !
 ! A24   A(18,4,19)            107.4668         estimate D2E/DX2                !
 ! A25   A(6,5,10)             110.9091         estimate D2E/DX2                !
 ! A26   A(6,5,20)             106.381          estimate D2E/DX2                !
 ! A27   A(6,5,21)             108.9307         estimate D2E/DX2                !
 ! A28   A(10,5,20)            111.5031         estimate D2E/DX2                !
 ! A29   A(10,5,21)            110.6233         estimate D2E/DX2                !
 ! A30   A(20,5,21)            108.3512         estimate D2E/DX2                !
 ! A31   A(1,6,5)              113.1712         estimate D2E/DX2                !
 ! A32   A(4,7,9)              109.6373         estimate D2E/DX2                !
 ! A33   A(4,7,22)             109.6743         estimate D2E/DX2                !
 ! A34   A(4,7,23)             110.6062         estimate D2E/DX2                !
 ! A35   A(9,7,22)             110.1285         estimate D2E/DX2                !
 ! A36   A(9,7,23)             109.7904         estimate D2E/DX2                !
 ! A37   A(22,7,23)            106.9703         estimate D2E/DX2                !
 ! A38   A(4,8,11)             111.4528         estimate D2E/DX2                !
 ! A39   A(4,8,24)             111.4877         estimate D2E/DX2                !
 ! A40   A(4,8,25)             110.6674         estimate D2E/DX2                !
 ! A41   A(11,8,24)            105.5306         estimate D2E/DX2                !
 ! A42   A(11,8,25)            109.3873         estimate D2E/DX2                !
 ! A43   A(24,8,25)            108.1335         estimate D2E/DX2                !
 ! A44   A(2,9,7)              111.8953         estimate D2E/DX2                !
 ! A45   A(2,9,26)             107.3849         estimate D2E/DX2                !
 ! A46   A(2,9,27)             108.8821         estimate D2E/DX2                !
 ! A47   A(7,9,26)             109.4354         estimate D2E/DX2                !
 ! A48   A(7,9,27)             111.5691         estimate D2E/DX2                !
 ! A49   A(26,9,27)            107.4911         estimate D2E/DX2                !
 ! A50   A(5,10,13)            110.4077         estimate D2E/DX2                !
 ! A51   A(5,10,28)            109.2766         estimate D2E/DX2                !
 ! A52   A(5,10,29)            109.1265         estimate D2E/DX2                !
 ! A53   A(13,10,28)           110.3704         estimate D2E/DX2                !
 ! A54   A(13,10,29)           110.3079         estimate D2E/DX2                !
 ! A55   A(28,10,29)           107.2854         estimate D2E/DX2                !
 ! A56   A(2,11,8)             115.9508         estimate D2E/DX2                !
 ! A57   A(2,12,3)             116.2411         estimate D2E/DX2                !
 ! A58   A(3,13,10)            111.165          estimate D2E/DX2                !
 ! A59   A(3,13,30)            109.9547         estimate D2E/DX2                !
 ! A60   A(3,13,31)            107.9989         estimate D2E/DX2                !
 ! A61   A(10,13,30)           110.9295         estimate D2E/DX2                !
 ! A62   A(10,13,31)           109.5007         estimate D2E/DX2                !
 ! A63   A(30,13,31)           107.1633         estimate D2E/DX2                !
 ! D1    D(6,1,3,12)           -67.3082         estimate D2E/DX2                !
 ! D2    D(6,1,3,13)            53.7261         estimate D2E/DX2                !
 ! D3    D(6,1,3,17)           174.5438         estimate D2E/DX2                !
 ! D4    D(14,1,3,12)          171.2933         estimate D2E/DX2                !
 ! D5    D(14,1,3,13)          -67.6725         estimate D2E/DX2                !
 ! D6    D(14,1,3,17)           53.1452         estimate D2E/DX2                !
 ! D7    D(15,1,3,12)           51.7375         estimate D2E/DX2                !
 ! D8    D(15,1,3,13)          172.7718         estimate D2E/DX2                !
 ! D9    D(15,1,3,17)          -66.4106         estimate D2E/DX2                !
 ! D10   D(3,1,6,5)            -60.4037         estimate D2E/DX2                !
 ! D11   D(14,1,6,5)            60.7648         estimate D2E/DX2                !
 ! D12   D(15,1,6,5)           178.3111         estimate D2E/DX2                !
 ! D13   D(11,2,9,7)            51.8136         estimate D2E/DX2                !
 ! D14   D(11,2,9,26)          -68.2929         estimate D2E/DX2                !
 ! D15   D(11,2,9,27)          175.6069         estimate D2E/DX2                !
 ! D16   D(12,2,9,7)           -71.1027         estimate D2E/DX2                !
 ! D17   D(12,2,9,26)          168.7907         estimate D2E/DX2                !
 ! D18   D(12,2,9,27)           52.6905         estimate D2E/DX2                !
 ! D19   D(16,2,9,7)           168.1106         estimate D2E/DX2                !
 ! D20   D(16,2,9,26)           48.004          estimate D2E/DX2                !
 ! D21   D(16,2,9,27)          -68.0962         estimate D2E/DX2                !
 ! D22   D(9,2,11,8)           -54.9437         estimate D2E/DX2                !
 ! D23   D(12,2,11,8)           66.6715         estimate D2E/DX2                !
 ! D24   D(16,2,11,8)         -174.8748         estimate D2E/DX2                !
 ! D25   D(9,2,12,3)          -163.813          estimate D2E/DX2                !
 ! D26   D(11,2,12,3)           73.1078         estimate D2E/DX2                !
 ! D27   D(16,2,12,3)          -42.3407         estimate D2E/DX2                !
 ! D28   D(1,3,12,2)          -144.9762         estimate D2E/DX2                !
 ! D29   D(13,3,12,2)           94.1579         Frozen                          !
 ! D30   D(17,3,12,2)          -27.5675         estimate D2E/DX2                !
 ! D31   D(1,3,13,10)          -49.5168         estimate D2E/DX2                !
 ! D32   D(1,3,13,30)         -172.7534         estimate D2E/DX2                !
 ! D33   D(1,3,13,31)           70.6272         estimate D2E/DX2                !
 ! D34   D(12,3,13,10)          70.0801         estimate D2E/DX2                !
 ! D35   D(12,3,13,30)         -53.1564         estimate D2E/DX2                !
 ! D36   D(12,3,13,31)        -169.7758         estimate D2E/DX2                !
 ! D37   D(17,3,13,10)        -168.9103         estimate D2E/DX2                !
 ! D38   D(17,3,13,30)          67.8531         estimate D2E/DX2                !
 ! D39   D(17,3,13,31)         -48.7662         estimate D2E/DX2                !
 ! D40   D(8,4,7,9)             53.0181         estimate D2E/DX2                !
 ! D41   D(8,4,7,22)           -68.02           estimate D2E/DX2                !
 ! D42   D(8,4,7,23)           174.2312         estimate D2E/DX2                !
 ! D43   D(18,4,7,9)           -67.3037         estimate D2E/DX2                !
 ! D44   D(18,4,7,22)          171.6581         estimate D2E/DX2                !
 ! D45   D(18,4,7,23)           53.9094         estimate D2E/DX2                !
 ! D46   D(19,4,7,9)           173.9569         estimate D2E/DX2                !
 ! D47   D(19,4,7,22)           52.9187         estimate D2E/DX2                !
 ! D48   D(19,4,7,23)          -64.83           estimate D2E/DX2                !
 ! D49   D(7,4,8,11)           -54.7834         estimate D2E/DX2                !
 ! D50   D(7,4,8,24)          -172.4202         estimate D2E/DX2                !
 ! D51   D(7,4,8,25)            67.1832         estimate D2E/DX2                !
 ! D52   D(18,4,8,11)           65.89           estimate D2E/DX2                !
 ! D53   D(18,4,8,24)          -51.7468         estimate D2E/DX2                !
 ! D54   D(18,4,8,25)         -172.1434         estimate D2E/DX2                !
 ! D55   D(19,4,8,11)         -176.9648         estimate D2E/DX2                !
 ! D56   D(19,4,8,24)           65.3984         estimate D2E/DX2                !
 ! D57   D(19,4,8,25)          -54.9982         estimate D2E/DX2                !
 ! D58   D(10,5,6,1)            60.8259         estimate D2E/DX2                !
 ! D59   D(20,5,6,1)          -177.7547         estimate D2E/DX2                !
 ! D60   D(21,5,6,1)           -61.1555         estimate D2E/DX2                !
 ! D61   D(6,5,10,13)          -55.122          estimate D2E/DX2                !
 ! D62   D(6,5,10,28)         -176.6945         estimate D2E/DX2                !
 ! D63   D(6,5,10,29)           66.2753         estimate D2E/DX2                !
 ! D64   D(20,5,10,13)        -173.4817         estimate D2E/DX2                !
 ! D65   D(20,5,10,28)          64.9458         estimate D2E/DX2                !
 ! D66   D(20,5,10,29)         -52.0844         estimate D2E/DX2                !
 ! D67   D(21,5,10,13)          65.8656         estimate D2E/DX2                !
 ! D68   D(21,5,10,28)         -55.7069         estimate D2E/DX2                !
 ! D69   D(21,5,10,29)        -172.7371         estimate D2E/DX2                !
 ! D70   D(4,7,9,2)            -51.9345         estimate D2E/DX2                !
 ! D71   D(4,7,9,26)            66.9658         estimate D2E/DX2                !
 ! D72   D(4,7,9,27)          -174.205          estimate D2E/DX2                !
 ! D73   D(22,7,9,2)            68.829          estimate D2E/DX2                !
 ! D74   D(22,7,9,26)         -172.2708         estimate D2E/DX2                !
 ! D75   D(22,7,9,27)          -53.4415         estimate D2E/DX2                !
 ! D76   D(23,7,9,2)          -173.6381         estimate D2E/DX2                !
 ! D77   D(23,7,9,26)          -54.7379         estimate D2E/DX2                !
 ! D78   D(23,7,9,27)           64.0914         estimate D2E/DX2                !
 ! D79   D(4,8,11,2)            57.0469         estimate D2E/DX2                !
 ! D80   D(24,8,11,2)          178.2241         estimate D2E/DX2                !
 ! D81   D(25,8,11,2)          -65.6568         estimate D2E/DX2                !
 ! D82   D(5,10,13,3)           50.5262         estimate D2E/DX2                !
 ! D83   D(5,10,13,30)         173.2023         estimate D2E/DX2                !
 ! D84   D(5,10,13,31)         -68.7239         estimate D2E/DX2                !
 ! D85   D(28,10,13,3)         171.4489         estimate D2E/DX2                !
 ! D86   D(28,10,13,30)        -65.875          estimate D2E/DX2                !
 ! D87   D(28,10,13,31)         52.1988         estimate D2E/DX2                !
 ! D88   D(29,10,13,3)         -70.1677         estimate D2E/DX2                !
 ! D89   D(29,10,13,30)         52.5084         estimate D2E/DX2                !
 ! D90   D(29,10,13,31)        170.5822         estimate D2E/DX2                !
 --------------------------------------------------------------------------------
 Trust Radius=3.00D-01 FncErr=1.00D-07 GrdErr=1.00D-06 EigMax=2.50D+02 EigMin=1.00D-04
 Number of steps in this run=    186 maximum allowed number of steps=    186.
 GradGradGradGradGradGradGradGradGradGradGradGradGradGradGradGradGradGrad

                          Input orientation:                          
 ---------------------------------------------------------------------
 Center     Atomic      Atomic             Coordinates (Angstroms)
 Number     Number       Type             X           Y           Z
 ---------------------------------------------------------------------
      1          6           0       -1.712464    1.442966   -0.131944
      2          6           0        1.129802   -0.687142   -0.690776
      3          6           0       -1.061775    0.263626   -0.834323
      4          6           0        3.419231    0.515296    0.607434
      5          6           0       -3.406571    0.113187    0.834192
      6          8           0       -2.370534    1.053268    1.054572
      7          6           0        2.662952   -0.607944    1.316755
      8          6           0        2.491366    1.254123   -0.342297
      9          6           0        1.973611   -1.497453    0.280935
     10          6           0       -2.858610   -1.163220    0.215588
     11          8           0        1.869280    0.363344   -1.259488
     12          8           0        0.004852   -0.204836   -0.018852
     13          6           0       -2.086667   -0.845860   -1.067235
     14          1           0       -2.426129    1.909705   -0.806626
     15          1           0       -0.970099    2.176531    0.148636
     16          1           0        0.820902   -1.293916   -1.530585
     17          1           0       -0.662071    0.613460   -1.778130
     18          1           0        4.251508    0.100080    0.043710
     19          1           0        3.830187    1.222463    1.322379
     20          1           0       -3.857366   -0.075644    1.798924
     21          1           0       -4.157755    0.561015    0.186809
     22          1           0        1.926836   -0.182744    1.993691
     23          1           0        3.341190   -1.203769    1.919837
     24          1           0        3.032287    1.965377   -0.951131
     25          1           0        1.728947    1.793112    0.209458
     26          1           0        2.725207   -2.022975   -0.301841
     27          1           0        1.345146   -2.245181    0.752512
     28          1           0       -3.680721   -1.840922    0.004290
     29          1           0       -2.210053   -1.656615    0.933466
     30          1           0       -1.592123   -1.732225   -1.451436
     31          1           0       -2.779921   -0.507435   -1.833798
 ---------------------------------------------------------------------
                    Distance matrix (angstroms):
                    1          2          3          4          5
     1  C    0.000000
     2  C    3.595571   0.000000
     3  C    1.519071   2.393235   0.000000
     4  C    5.267024   2.893560   4.713960   0.000000
     5  C    2.360451   4.852292   2.881778   6.841395   0.000000
     6  O    1.411645   4.281077   2.429878   5.831871   1.416225
     7  C    5.044723   2.527252   4.388663   1.528647   6.131232
     8  C    4.213324   2.396623   3.721288   1.519470   6.121399
     9  C    4.733253   1.520802   3.682223   2.499515   5.643280
    10  C    2.868211   4.117715   2.523256   6.510165   1.520575
    11  O    3.907151   1.404913   2.963409   2.431221   5.681609
    12  O    2.382691   1.396286   1.422021   3.545252   3.530811
    13  C    2.500704   3.242312   1.528271   5.913728   2.505463
    14  H    1.087363   4.404734   2.138178   6.173506   2.623171
    15  H    1.080717   3.648948   2.152631   4.715550   3.265543
    16  H    3.983047   1.081144   2.540707   3.820430   5.044169
    17  H    2.121635   2.466721   1.083014   4.728380   3.821882
    18  H    6.115812   3.302156   5.387826   1.087600   7.698780
    19  H    5.734515   3.871881   5.431577   1.086332   7.337540
    20  H    3.261140   5.607529   3.855441   7.397143   1.081472
    21  H    2.618948   5.503300   3.273567   7.588790   1.088086
    22  H    4.517274   2.845355   4.138684   2.153186   5.466008
    23  H    6.062543   3.460121   5.396735   2.164180   6.960264
    24  H    4.843206   3.274613   4.435194   2.163697   6.933749
    25  H    3.475984   2.705745   3.349169   2.155982   5.439300
    26  H    5.633341   2.116846   4.455706   2.784110   6.591848
    27  H    4.871721   2.134699   3.821705   3.455880   5.305411
    28  H    3.830994   4.995544   3.462842   7.504989   2.140663
    29  H    3.315131   3.838316   2.851481   6.042544   2.138623
    30  H    3.440549   3.013250   2.155347   5.865489   3.452805
    31  H    2.799971   4.077343   2.132020   6.740555   2.809988
                    6          7          8          9         10
     6  O    0.000000
     7  C    5.307009   0.000000
     8  C    5.062574   2.499838   0.000000
     9  C    5.096694   1.529490   2.868390   0.000000
    10  C    2.419697   5.657610   5.897205   4.844207   0.000000
    11  O    4.879231   2.865370   1.421871   2.417923   5.182585
    12  O    2.894395   3.001972   2.901022   2.374183   3.028676
    13  C    2.861701   5.319670   5.088600   4.327585   1.530441
    14  H    2.049545   6.061852   4.982685   5.670029   3.267236
    15  H    2.010885   4.724073   3.615742   4.709680   3.837303
    16  H    4.730494   3.459921   3.270318   2.156796   4.074925
    17  H    3.337136   4.703820   3.523667   3.955063   3.457786
    18  H    6.766229   2.155331   2.139840   2.792347   7.223520
    19  H    6.208807   2.170912   2.136490   3.453900   7.187244
    20  H    2.009769   6.559754   6.830776   6.190810   2.165015
    21  H    2.046823   7.011796   6.706054   6.468369   2.159072
    22  H    4.569142   1.086694   2.800022   2.159671   5.198411
    23  H    6.202152   1.085690   3.446837   2.154651   6.429901
    24  H    5.834832   3.449884   1.081275   3.824915   6.771412
    25  H    4.250568   2.804201   1.084539   3.300422   5.457620
    26  H    6.104892   2.150823   3.285679   1.086599   5.673264
    27  H    4.977679   2.176127   3.841556   1.084643   4.373842
    28  H    3.346045   6.594315   6.913327   5.671505   1.086183
    29  H    2.717331   4.999280   5.674796   4.237237   1.086008
    30  H    3.826875   5.199284   5.179126   3.971232   2.169499
    31  H    3.308485   6.289750   5.754488   5.296064   2.153190
                   11         12         13         14         15
    11  O    0.000000
    12  O    2.310432   0.000000
    13  C    4.141093   2.425793   0.000000
    14  H    4.587685   3.316857   2.788600   0.000000
    15  H    3.651374   2.578661   3.443823   1.761745   0.000000
    16  H    1.979672   2.034052   2.978155   4.618497   4.251055
    17  H    2.596013   2.051695   2.159736   2.394989   2.500100
    18  H    2.728121   4.258048   6.503958   6.970556   5.620306
    19  H    3.353994   4.297589   6.708008   6.644280   5.032958
    20  H    6.507002   4.270565   3.455933   3.574764   4.016473
    21  H    6.201290   4.237466   2.800237   2.409234   3.573863
    22  H    3.299197   2.782955   5.090894   5.582869   4.166850
    23  H    3.838029   3.985917   6.205830   7.098541   5.757673
    24  H    2.003542   3.839835   5.841252   5.460612   4.156100
    25  H    2.054685   2.648854   4.811759   4.279098   2.726822
    26  H    2.710022   3.284211   5.012540   6.500542   5.611957
    27  H    3.335755   2.560156   4.128791   5.823788   5.027580
    28  H    6.103969   4.032463   2.163174   4.037176   4.848529
    29  H    5.052746   2.814316   2.162256   3.974072   4.104443
    30  H    4.050872   2.633542   1.085277   3.791438   4.269135
    31  H    4.764783   3.337747   1.087544   2.650060   3.795942
                   16         17         18         19         20
    16  H    0.000000
    17  H    2.428697   0.000000
    18  H    4.023765   5.265541   0.000000
    19  H    4.850501   5.492215   1.752783   0.000000
    20  H    5.869924   4.845626   8.298524   7.810931   0.000000
    21  H    5.583658   4.010429   8.423102   8.095323   1.759114
    22  H    3.857242   4.643599   3.047378   2.459271   5.788471
    23  H    4.273803   5.744857   2.459381   2.546110   7.287420
    24  H    3.981078   4.019936   2.440398   2.521391   7.693886
    25  H    3.658147   3.325515   3.042555   2.445290   6.101274
    26  H    2.380697   4.539149   2.637492   3.793671   7.178829
    27  H    2.528294   4.313339   3.801262   4.304037   5.733062
    28  H    4.787449   4.279399   8.166352   8.217994   2.523514
    29  H    3.922982   3.860342   6.754955   6.702600   2.441747
    30  H    2.453787   2.544399   6.304033   6.769466   4.294232
    31  H    3.698164   2.396830   7.303089   7.526455   3.813660
                   21         22         23         24         25
    21  H    0.000000
    22  H    6.390637   0.000000
    23  H    7.896330   1.745951   0.000000
    24  H    7.413760   3.808992   4.287349   0.000000
    25  H    6.014303   2.669579   3.808677   1.753664   0.000000
    26  H    7.368239   3.048494   2.446709   4.052509   3.976994
    27  H    6.202957   2.476396   2.536016   4.845373   4.092679
    28  H    2.455642   6.176728   7.306334   7.775938   6.520184
    29  H    3.044491   4.517768   5.656350   6.644747   5.285880
    30  H    3.811202   5.162641   5.998527   5.942031   5.120164
    31  H    2.668870   6.075250   7.214060   6.377747   5.458691
                   26         27         28         29         30
    26  H    0.000000
    27  H    1.750887   0.000000
    28  H    6.415822   5.097313   0.000000
    29  H    5.100686   3.608129   1.749343   0.000000
    30  H    4.477214   3.707838   2.548175   2.464815   0.000000
    31  H    5.911868   5.169617   2.442989   3.050101   1.748478
                   31
    31  H    0.000000
 Stoichiometry    C10H18O3
 Framework group  C1[X(C10H18O3)]
 Deg. of freedom    87
 Full point group                 C1      NOp   1
 Largest Abelian subgroup         C1      NOp   1
 Largest concise Abelian subgroup C1      NOp   1
                         Standard orientation:                         
 ---------------------------------------------------------------------
 Center     Atomic      Atomic             Coordinates (Angstroms)
 Number     Number       Type             X           Y           Z
 ---------------------------------------------------------------------
      1          6           0        1.712464   -1.442966   -0.131944
      2          6           0       -1.129802    0.687142   -0.690776
      3          6           0        1.061775   -0.263626   -0.834323
      4          6           0       -3.419231   -0.515296    0.607434
      5          6           0        3.406571   -0.113187    0.834192
      6          8           0        2.370534   -1.053268    1.054572
      7          6           0       -2.662952    0.607944    1.316755
      8          6           0       -2.491366   -1.254123   -0.342297
      9          6           0       -1.973611    1.497453    0.280935
     10          6           0        2.858610    1.163220    0.215588
     11          8           0       -1.869280   -0.363344   -1.259488
     12          8           0       -0.004852    0.204836   -0.018852
     13          6           0        2.086667    0.845860   -1.067235
     14          1           0        2.426129   -1.909705   -0.806626
     15          1           0        0.970099   -2.176531    0.148636
     16          1           0       -0.820902    1.293916   -1.530585
     17          1           0        0.662071   -0.613460   -1.778130
     18          1           0       -4.251508   -0.100080    0.043710
     19          1           0       -3.830187   -1.222463    1.322379
     20          1           0        3.857366    0.075644    1.798924
     21          1           0        4.157755   -0.561015    0.186809
     22          1           0       -1.926836    0.182744    1.993691
     23          1           0       -3.341190    1.203769    1.919837
     24          1           0       -3.032287   -1.965377   -0.951131
     25          1           0       -1.728947   -1.793112    0.209458
     26          1           0       -2.725207    2.022975   -0.301841
     27          1           0       -1.345146    2.245181    0.752512
     28          1           0        3.680721    1.840922    0.004290
     29          1           0        2.210053    1.656615    0.933466
     30          1           0        1.592123    1.732225   -1.451436
     31          1           0        2.779921    0.507435   -1.833798
 ---------------------------------------------------------------------
 Rotational constants (GHZ):           1.6600959           0.4514468           0.4374756
 Standard basis: 6-311++G(2d,2p) (5D, 7F)
 There are   557 symmetry adapted cartesian basis functions of A   symmetry.
 There are   531 symmetry adapted basis functions of A   symmetry.
   531 basis functions,   762 primitive gaussians,   557 cartesian basis functions
    51 alpha electrons       51 beta electrons
       nuclear repulsion energy       904.3039210995 Hartrees.
 NAtoms=   31 NActive=   31 NUniq=   31 SFac= 1.00D+00 NAtFMM=   60 NAOKFM=F Big=F
 Integral buffers will be    131072 words long.
 Raffenetti 2 integral format.
 Two-electron integral symmetry is turned on.
 ------------------------------------------------------------------------------
 Polarizable Continuum Model (PCM)
 =================================
 Model                : PCM.
 Atomic radii         : SMD-Coulomb.
 Polarization charges : Total charges.
 Charge compensation  : None.
 Solution method      : On-the-fly selection.
 Cavity type          : VdW (van der Waals Surface) (Alpha=1.000).
 Cavity algorithm     : GePol (No added spheres)
                        Default sphere list used, NSphG=   31.
                        Lebedev-Laikov grids with approx.  5.0 points / Ang**2.
                        Smoothing algorithm: York/Karplus (Gamma=1.0000).
                        Polarization charges: spherical gaussians, with
                                              point-specific exponents (IZeta= 3).
                        Self-potential: point-specific (ISelfS= 7).
                        Self-field    : sphere-specific E.n sum rule (ISelfD= 2).
 1st derivatives      : Analytical E(r).r(x)/FMM algorithm (CHGder, D1EAlg=3).
                        Cavity 1st derivative terms included.
 Solvent              : Water, Eps=  78.355300 Eps(inf)=   1.777849
 ------------------------------------------------------------------------------
 ------------------------------------------------------------------------------
 Atomic radii for non-electrostatic terms: SMD-CDS.
 ------------------------------------------------------------------------------
 Nuclear repulsion after PCM non-electrostatic terms =      904.3103669473 Hartrees.
 One-electron integrals computed using PRISM.
 NBasis=   531 RedAO= T EigKep=  4.51D-06  NBF=   531
 NBsUse=   531 1.00D-06 EigRej= -1.00D+00 NBFU=   531
 ExpMin= 3.60D-02 ExpMax= 8.59D+03 ExpMxC= 1.30D+03 IAcc=3 IRadAn=         5 AccDes= 0.00D+00
 Harris functional with IExCor= 1009 and IRadAn=       5 diagonalized for initial guess.
 HarFok:  IExCor= 1009 AccDes= 0.00D+00 IRadAn=         5 IDoV= 1 UseB2=F ITyADJ=14
 ICtDFT=  3500011 ScaDFX=  1.000000  1.000000  1.000000  1.000000
 FoFCou: FMM=F IPFlag=           0 FMFlag=      100000 FMFlg1=           0
         NFxFlg=           0 DoJE=T BraDBF=F KetDBF=T FulRan=T
         wScrn=  0.000000 ICntrl=       500 IOpCl=  0 I1Cent=   200000004 NGrid=           0
         NMat0=    1 NMatS0=      1 NMatT0=    0 NMatD0=    1 NMtDS0=    0 NMtDT0=    0
 Petite list used in FoFCou.
 Requested convergence on RMS density matrix=1.00D-08 within 128 cycles.
 Requested convergence on MAX density matrix=1.00D-06.
 Requested convergence on             energy=1.00D-06.
 No special actions if energy rises.
 Inv3:  Mode=1 IEnd=    12619803.
 Iteration    1 A*A^-1 deviation from unit magnitude is 9.33D-15 for    237.
 Iteration    1 A*A^-1 deviation from orthogonality  is 3.89D-15 for   2035    673.
 Iteration    1 A^-1*A deviation from unit magnitude is 9.10D-15 for    237.
 Iteration    1 A^-1*A deviation from orthogonality  is 4.70D-15 for   1895   1875.
 Error on total polarization charges =  0.06067
 SCF Done:  E(RM062X) =  -617.507114580     A.U. after   12 cycles
            NFock= 12  Conv=0.43D-08     -V/T= 2.0035
 SMD-CDS (non-electrostatic) energy       (kcal/mol) =       4.04
 (included in total energy above)

 **********************************************************************

            Population analysis using the SCF Density.

 **********************************************************************

 Orbital symmetries:
       Occupied  (A) (A) (A) (A) (A) (A) (A) (A) (A) (A) (A) (A)
                 (A) (A) (A) (A) (A) (A) (A) (A) (A) (A) (A) (A)
                 (A) (A) (A) (A) (A) (A) (A) (A) (A) (A) (A) (A)
                 (A) (A) (A) (A) (A) (A) (A) (A) (A) (A) (A) (A)
                 (A) (A) (A)
       Virtual   (A) (A) (A) (A) (A) (A) (A) (A) (A) (A) (A) (A)
                 (A) (A) (A) (A) (A) (A) (A) (A) (A) (A) (A) (A)
                 (A) (A) (A) (A) (A) (A) (A) (A) (A) (A) (A) (A)
                 (A) (A) (A) (A) (A) (A) (A) (A) (A) (A) (A) (A)
                 (A) (A) (A) (A) (A) (A) (A) (A) (A) (A) (A) (A)
                 (A) (A) (A) (A) (A) (A) (A) (A) (A) (A) (A) (A)
                 (A) (A) (A) (A) (A) (A) (A) (A) (A) (A) (A) (A)
                 (A) (A) (A) (A) (A) (A) (A) (A) (A) (A) (A) (A)
                 (A) (A) (A) (A) (A) (A) (A) (A) (A) (A) (A) (A)
                 (A) (A) (A) (A) (A) (A) (A) (A) (A) (A) (A) (A)
                 (A) (A) (A) (A) (A) (A) (A) (A) (A) (A) (A) (A)
                 (A) (A) (A) (A) (A) (A) (A) (A) (A) (A) (A) (A)
                 (A) (A) (A) (A) (A) (A) (A) (A) (A) (A) (A) (A)
                 (A) (A) (A) (A) (A) (A) (A) (A) (A) (A) (A) (A)
                 (A) (A) (A) (A) (A) (A) (A) (A) (A) (A) (A) (A)
                 (A) (A) (A) (A) (A) (A) (A) (A) (A) (A) (A) (A)
                 (A) (A) (A) (A) (A) (A) (A) (A) (A) (A) (A) (A)
                 (A) (A) (A) (A) (A) (A) (A) (A) (A) (A) (A) (A)
                 (A) (A) (A) (A) (A) (A) (A) (A) (A) (A) (A) (A)
                 (A) (A) (A) (A) (A) (A) (A) (A) (A) (A) (A) (A)
                 (A) (A) (A) (A) (A) (A) (A) (A) (A) (A) (A) (A)
                 (A) (A) (A) (A) (A) (A) (A) (A) (A) (A) (A) (A)
                 (A) (A) (A) (A) (A) (A) (A) (A) (A) (A) (A) (A)
                 (A) (A) (A) (A) (A) (A) (A) (A) (A) (A) (A) (A)
                 (A) (A) (A) (A) (A) (A) (A) (A) (A) (A) (A) (A)
                 (A) (A) (A) (A) (A) (A) (A) (A) (A) (A) (A) (A)
                 (A) (A) (A) (A) (A) (A) (A) (A) (A) (A) (A) (A)
                 (A) (A) (A) (A) (A) (A) (A) (A) (A) (A) (A) (A)
                 (A) (A) (A) (A) (A) (A) (A) (A) (A) (A) (A) (A)
                 (A) (A) (A) (A) (A) (A) (A) (A) (A) (A) (A) (A)
                 (A) (A) (A) (A) (A) (A) (A) (A) (A) (A) (A) (A)
                 (A) (A) (A) (A) (A) (A) (A) (A) (A) (A) (A) (A)
                 (A) (A) (A) (A) (A) (A) (A) (A) (A) (A) (A) (A)
                 (A) (A) (A) (A) (A) (A) (A) (A) (A) (A) (A) (A)
                 (A) (A) (A) (A) (A) (A) (A) (A) (A) (A) (A) (A)
                 (A) (A) (A) (A) (A) (A) (A) (A) (A) (A) (A) (A)
                 (A) (A) (A) (A) (A) (A) (A) (A) (A) (A) (A) (A)
                 (A) (A) (A) (A) (A) (A) (A) (A) (A) (A) (A) (A)
                 (A) (A) (A) (A) (A) (A) (A) (A) (A) (A) (A) (A)
                 (A) (A) (A) (A) (A) (A) (A) (A) (A) (A) (A) (A)
 The electronic state is 1-A.
 Alpha  occ. eigenvalues --  -19.62857 -19.62781 -19.62744 -10.62960 -10.58120
 Alpha  occ. eigenvalues --  -10.57333 -10.57112 -10.57071 -10.52397 -10.52319
 Alpha  occ. eigenvalues --  -10.52268 -10.52151 -10.52065  -1.20226  -1.16607
 Alpha  occ. eigenvalues --   -1.13407  -0.90341  -0.89050  -0.87033  -0.84264
 Alpha  occ. eigenvalues --   -0.74226  -0.73478  -0.72660  -0.71348  -0.65974
 Alpha  occ. eigenvalues --   -0.62213  -0.59546  -0.57979  -0.57419  -0.55163
 Alpha  occ. eigenvalues --   -0.54195  -0.53044  -0.51608  -0.51035  -0.49418
 Alpha  occ. eigenvalues --   -0.47704  -0.46596  -0.45615  -0.45260  -0.44543
 Alpha  occ. eigenvalues --   -0.42780  -0.42697  -0.41545  -0.39366  -0.38750
 Alpha  occ. eigenvalues --   -0.37840  -0.37131  -0.35553  -0.34887  -0.33174
 Alpha  occ. eigenvalues --   -0.31724
 Alpha virt. eigenvalues --    0.00330   0.01297   0.01400   0.01481   0.02689
 Alpha virt. eigenvalues --    0.02968   0.03146   0.03746   0.03874   0.05103
 Alpha virt. eigenvalues --    0.05197   0.05234   0.05901   0.06180   0.07512
 Alpha virt. eigenvalues --    0.08108   0.08449   0.08821   0.09286   0.09915
 Alpha virt. eigenvalues --    0.10010   0.11060   0.11731   0.11944   0.12529
 Alpha virt. eigenvalues --    0.12895   0.13040   0.13616   0.13763   0.14072
 Alpha virt. eigenvalues --    0.14312   0.14527   0.14821   0.15136   0.15273
 Alpha virt. eigenvalues --    0.15640   0.15869   0.16051   0.16353   0.16598
 Alpha virt. eigenvalues --    0.17045   0.17273   0.17873   0.18001   0.18280
 Alpha virt. eigenvalues --    0.18769   0.19081   0.19366   0.19396   0.20088
 Alpha virt. eigenvalues --    0.20346   0.20968   0.21244   0.21444   0.21873
 Alpha virt. eigenvalues --    0.22570   0.22951   0.23558   0.23929   0.24103
 Alpha virt. eigenvalues --    0.24728   0.25843   0.26289   0.27544   0.27904
 Alpha virt. eigenvalues --    0.28139   0.28735   0.29109   0.29445   0.29561
 Alpha virt. eigenvalues --    0.30436   0.30990   0.31190   0.31564   0.31758
 Alpha virt. eigenvalues --    0.32878   0.33825   0.34367   0.34767   0.34952
 Alpha virt. eigenvalues --    0.35247   0.35744   0.35916   0.36587   0.36755
 Alpha virt. eigenvalues --    0.37334   0.37733   0.38110   0.38537   0.38860
 Alpha virt. eigenvalues --    0.39089   0.39539   0.39849   0.40448   0.40931
 Alpha virt. eigenvalues --    0.41449   0.43064   0.43418   0.44911   0.46524
 Alpha virt. eigenvalues --    0.46802   0.48110   0.49946   0.50486   0.51854
 Alpha virt. eigenvalues --    0.52029   0.52662   0.53292   0.54719   0.55687
 Alpha virt. eigenvalues --    0.57469   0.57952   0.58855   0.59326   0.60341
 Alpha virt. eigenvalues --    0.60692   0.60885   0.61898   0.62582   0.62865
 Alpha virt. eigenvalues --    0.63538   0.63742   0.63944   0.64385   0.65227
 Alpha virt. eigenvalues --    0.65577   0.66246   0.66444   0.66829   0.67633
 Alpha virt. eigenvalues --    0.68257   0.69252   0.69354   0.69819   0.70299
 Alpha virt. eigenvalues --    0.70989   0.71319   0.72110   0.73311   0.73685
 Alpha virt. eigenvalues --    0.74207   0.74966   0.75273   0.76399   0.76721
 Alpha virt. eigenvalues --    0.77497   0.77825   0.78071   0.78774   0.79530
 Alpha virt. eigenvalues --    0.80748   0.83049   0.84788   0.85749   0.86148
 Alpha virt. eigenvalues --    0.87055   0.88147   0.88783   0.89179   0.90497
 Alpha virt. eigenvalues --    0.92022   0.92517   0.93674   0.94936   0.97602
 Alpha virt. eigenvalues --    0.98524   0.98804   1.00784   1.01384   1.02289
 Alpha virt. eigenvalues --    1.03289   1.03770   1.05466   1.05984   1.07017
 Alpha virt. eigenvalues --    1.07683   1.08728   1.09988   1.12421   1.12654
 Alpha virt. eigenvalues --    1.14157   1.15164   1.16038   1.16346   1.17376
 Alpha virt. eigenvalues --    1.18333   1.18576   1.19655   1.20615   1.21095
 Alpha virt. eigenvalues --    1.22149   1.23488   1.23964   1.24994   1.25474
 Alpha virt. eigenvalues --    1.26116   1.26294   1.26594   1.27843   1.27918
 Alpha virt. eigenvalues --    1.29198   1.30013   1.30688   1.31091   1.31808
 Alpha virt. eigenvalues --    1.32977   1.33590   1.34146   1.34548   1.35032
 Alpha virt. eigenvalues --    1.36007   1.36626   1.37021   1.37949   1.38917
 Alpha virt. eigenvalues --    1.39472   1.39681   1.40462   1.41616   1.42013
 Alpha virt. eigenvalues --    1.42757   1.43194   1.44348   1.44850   1.46172
 Alpha virt. eigenvalues --    1.46468   1.47388   1.47556   1.48049   1.48723
 Alpha virt. eigenvalues --    1.49600   1.49936   1.50450   1.51252   1.52527
 Alpha virt. eigenvalues --    1.53558   1.54774   1.55162   1.55355   1.55664
 Alpha virt. eigenvalues --    1.56408   1.57342   1.58173   1.58325   1.59671
 Alpha virt. eigenvalues --    1.60430   1.61006   1.61615   1.62372   1.63075
 Alpha virt. eigenvalues --    1.64239   1.64620   1.65674   1.66427   1.66743
 Alpha virt. eigenvalues --    1.68506   1.69052   1.71080   1.71372   1.72854
 Alpha virt. eigenvalues --    1.74486   1.74896   1.76233   1.76595   1.78895
 Alpha virt. eigenvalues --    1.79501   1.80120   1.81985   1.82931   1.84154
 Alpha virt. eigenvalues --    1.85449   1.88478   1.91944   2.00209   2.00505
 Alpha virt. eigenvalues --    2.03869   2.06879   2.14008   2.19030   2.20736
 Alpha virt. eigenvalues --    2.25164   2.27309   2.31025   2.33245   2.41238
 Alpha virt. eigenvalues --    2.41416   2.43524   2.44985   2.46119   2.50521
 Alpha virt. eigenvalues --    2.60374   2.76700   2.78501   2.79461   2.81793
 Alpha virt. eigenvalues --    2.82128   2.87469   2.92369   2.93674   2.94102
 Alpha virt. eigenvalues --    2.95477   2.98403   2.99894   3.01382   3.04003
 Alpha virt. eigenvalues --    3.06280   3.07803   3.09473   3.10388   3.11508
 Alpha virt. eigenvalues --    3.13091   3.15067   3.18637   3.20758   3.23549
 Alpha virt. eigenvalues --    3.27315   3.30592   3.32190   3.33744   3.34745
 Alpha virt. eigenvalues --    3.35744   3.37291   3.39381   3.40955   3.41334
 Alpha virt. eigenvalues --    3.43866   3.44449   3.45444   3.46327   3.47453
 Alpha virt. eigenvalues --    3.48589   3.49565   3.50762   3.52186   3.53013
 Alpha virt. eigenvalues --    3.53197   3.54205   3.54723   3.56495   3.57063
 Alpha virt. eigenvalues --    3.57826   3.58251   3.59247   3.59557   3.60365
 Alpha virt. eigenvalues --    3.61215   3.62379   3.62807   3.65502   3.65807
 Alpha virt. eigenvalues --    3.66371   3.67986   3.68437   3.69388   3.69988
 Alpha virt. eigenvalues --    3.70639   3.71457   3.72039   3.73424   3.74427
 Alpha virt. eigenvalues --    3.75034   3.75817   3.76840   3.77400   3.78289
 Alpha virt. eigenvalues --    3.79456   3.80193   3.82543   3.84150   3.84750
 Alpha virt. eigenvalues --    3.86440   3.89395   3.89680   3.92187   3.93300
 Alpha virt. eigenvalues --    3.93764   3.94486   3.95706   3.97149   3.98305
 Alpha virt. eigenvalues --    3.99963   4.01581   4.03083   4.03599   4.04357
 Alpha virt. eigenvalues --    4.06196   4.06421   4.07569   4.07898   4.08052
 Alpha virt. eigenvalues --    4.09088   4.09654   4.10157   4.10375   4.11562
 Alpha virt. eigenvalues --    4.12661   4.13143   4.14535   4.15643   4.16001
 Alpha virt. eigenvalues --    4.16730   4.17005   4.18949   4.20445   4.20607
 Alpha virt. eigenvalues --    4.22071   4.24397   4.26002   4.26422   4.27272
 Alpha virt. eigenvalues --    4.28600   4.29884   4.31750   4.32143   4.32718
 Alpha virt. eigenvalues --    4.33395   4.34567   4.34922   4.35685   4.38973
 Alpha virt. eigenvalues --    4.42625   4.43802   4.45093   4.46590   4.47798
 Alpha virt. eigenvalues --    4.58156   4.62709   4.74649   4.76610   4.82624
 Alpha virt. eigenvalues --    4.85848   4.95113   4.96434   5.01470   5.05065
 Alpha virt. eigenvalues --    5.07001   5.07609   5.08551   5.09241   5.12178
 Alpha virt. eigenvalues --    5.13020   5.14294   5.14861   5.32037   5.36834
 Alpha virt. eigenvalues --    5.44518   5.58020   5.58943   5.65871   5.86574
 Alpha virt. eigenvalues --    5.87519   6.06785   7.04084   7.05545   7.06460
 Alpha virt. eigenvalues --    7.08535   7.10482   7.12742   7.13583   7.19471
 Alpha virt. eigenvalues --    7.26780   7.36710   7.36991   7.44947   7.53575
 Alpha virt. eigenvalues --    7.54913   7.66844  23.95899  23.98715  24.06375
 Alpha virt. eigenvalues --   24.09044  24.11390  24.12685  24.15123  24.15881
 Alpha virt. eigenvalues --   24.17523  24.21224  50.16116  50.18236  50.27003
          Condensed to atoms (all electrons):
               1          2          3          4          5          6
     1  C    6.547384   0.136113  -0.829193   0.024513  -0.312744   0.085633
     2  C    0.136113   7.150884  -0.915824   0.245413  -0.007304   0.010177
     3  C   -0.829193  -0.915824   7.818625   0.032872   0.286854   0.003024
     4  C    0.024513   0.245413   0.032872   5.825390  -0.000980  -0.000694
     5  C   -0.312744  -0.007304   0.286854  -0.000980   5.484233   0.088761
     6  O    0.085633   0.010177   0.003024  -0.000694   0.088761   8.371402
     7  C   -0.028905  -0.011326  -0.013027  -0.078978  -0.001950   0.005069
     8  C   -0.019436  -0.465407   0.092572  -0.112464   0.000159   0.002431
     9  C   -0.183733  -0.983996   0.197488  -0.130101   0.017289  -0.006552
    10  C    0.150306   0.203890  -0.550617   0.001906  -0.012291   0.000804
    11  O   -0.046175   0.309373   0.038561  -0.067904   0.002584  -0.000956
    12  O   -0.113389   0.197662  -0.107834  -0.031663  -0.013222   0.026544
    13  C    0.129513  -0.046280  -0.422109  -0.026510  -0.059109   0.000453
    14  H    0.461942   0.011523  -0.067869   0.001592   0.000539  -0.048098
    15  H    0.428237   0.003556  -0.032125  -0.001373   0.003560  -0.080819
    16  H    0.015338   0.468997   0.029089   0.009647   0.002815  -0.000606
    17  H    0.035316  -0.049287   0.441037   0.000289  -0.012078   0.008148
    18  H   -0.000226   0.013219  -0.006229   0.492026   0.000079  -0.000048
    19  H    0.003272   0.000027   0.000928   0.438577  -0.000259   0.000131
    20  H    0.000471   0.000880   0.004285  -0.000227   0.443300  -0.064095
    21  H   -0.014860   0.001050   0.017059   0.000041   0.462887  -0.057748
    22  H   -0.003276  -0.024844  -0.005997  -0.074443   0.000508  -0.000639
    23  H   -0.003164   0.018029   0.006054  -0.023726  -0.000003   0.000005
    24  H   -0.001984  -0.003132   0.007140  -0.025518  -0.000008   0.000099
    25  H   -0.017780  -0.014260  -0.019490  -0.097869   0.002698  -0.001065
    26  H   -0.003499  -0.155296   0.001047  -0.017602   0.000090  -0.000109
    27  H    0.002422  -0.028794  -0.003417  -0.011661   0.003320   0.001062
    28  H   -0.002271   0.007078  -0.017202  -0.000230  -0.025116   0.010303
    29  H    0.016715  -0.002232  -0.025476   0.000976  -0.095300  -0.011238
    30  H   -0.007217   0.003686   0.004413   0.000628  -0.010227  -0.001992
    31  H   -0.011458  -0.008917  -0.070663  -0.000609  -0.009611   0.000417
               7          8          9         10         11         12
     1  C   -0.028905  -0.019436  -0.183733   0.150306  -0.046175  -0.113389
     2  C   -0.011326  -0.465407  -0.983996   0.203890   0.309373   0.197662
     3  C   -0.013027   0.092572   0.197488  -0.550617   0.038561  -0.107834
     4  C   -0.078978  -0.112464  -0.130101   0.001906  -0.067904  -0.031663
     5  C   -0.001950   0.000159   0.017289  -0.012291   0.002584  -0.013222
     6  O    0.005069   0.002431  -0.006552   0.000804  -0.000956   0.026544
     7  C    5.716858   0.032654  -0.140094   0.017796   0.001310  -0.014734
     8  C    0.032654   5.507177   0.188418  -0.004967   0.086963   0.017251
     9  C   -0.140094   0.188418   6.697430  -0.038375  -0.051925  -0.030296
    10  C    0.017796  -0.004967  -0.038375   5.750462  -0.009489   0.007838
    11  O    0.001310   0.086963  -0.051925  -0.009489   8.266501  -0.043200
    12  O   -0.014734   0.017251  -0.030296   0.007838  -0.043200   8.406751
    13  C    0.006311  -0.001055   0.029575  -0.032539   0.011217  -0.016369
    14  H   -0.000792  -0.000335   0.003864   0.027584   0.000494   0.014833
    15  H    0.006389  -0.004897  -0.012646   0.010756  -0.001618  -0.001647
    16  H   -0.001531  -0.019004  -0.094416  -0.006431  -0.048758  -0.025516
    17  H   -0.007485   0.008930  -0.010172  -0.035196  -0.005892  -0.019346
    18  H   -0.016757  -0.087699  -0.021765   0.000163  -0.001449  -0.001020
    19  H   -0.041162  -0.036022  -0.002888   0.000068   0.009996   0.000740
    20  H    0.000234   0.000003   0.000838  -0.062619  -0.000018   0.001649
    21  H   -0.000028   0.000439  -0.001528  -0.014206  -0.000083   0.001561
    22  H    0.519850   0.002575  -0.038360   0.000353   0.002309  -0.001207
    23  H    0.429085   0.011514  -0.059749  -0.000423  -0.004169   0.001031
    24  H    0.007606   0.436898  -0.001231   0.000207  -0.073132   0.001626
    25  H    0.005724   0.488185   0.037027   0.000888  -0.034185   0.017563
    26  H   -0.022288   0.014486   0.565394   0.000168  -0.007205   0.011176
    27  H   -0.036278   0.009115   0.431035  -0.004760   0.007725  -0.003240
    28  H    0.000477  -0.000028   0.000081   0.450916  -0.000185   0.001986
    29  H   -0.000824  -0.000497  -0.004042   0.520653   0.000185   0.004849
    30  H    0.000933   0.002880   0.006944  -0.007172  -0.001640  -0.002971
    31  H    0.000697   0.000077   0.003734  -0.038167   0.001190   0.004820
              13         14         15         16         17         18
     1  C    0.129513   0.461942   0.428237   0.015338   0.035316  -0.000226
     2  C   -0.046280   0.011523   0.003556   0.468997  -0.049287   0.013219
     3  C   -0.422109  -0.067869  -0.032125   0.029089   0.441037  -0.006229
     4  C   -0.026510   0.001592  -0.001373   0.009647   0.000289   0.492026
     5  C   -0.059109   0.000539   0.003560   0.002815  -0.012078   0.000079
     6  O    0.000453  -0.048098  -0.080819  -0.000606   0.008148  -0.000048
     7  C    0.006311  -0.000792   0.006389  -0.001531  -0.007485  -0.016757
     8  C   -0.001055  -0.000335  -0.004897  -0.019004   0.008930  -0.087699
     9  C    0.029575   0.003864  -0.012646  -0.094416  -0.010172  -0.021765
    10  C   -0.032539   0.027584   0.010756  -0.006431  -0.035196   0.000163
    11  O    0.011217   0.000494  -0.001618  -0.048758  -0.005892  -0.001449
    12  O   -0.016369   0.014833  -0.001647  -0.025516  -0.019346  -0.001020
    13  C    6.059892  -0.049353   0.007315  -0.004332  -0.017660   0.000335
    14  H   -0.049353   0.455645  -0.002947  -0.000941  -0.008099   0.000018
    15  H    0.007315  -0.002947   0.476286   0.003541  -0.011029   0.000255
    16  H   -0.004332  -0.000941   0.003541   0.417483  -0.001195   0.001695
    17  H   -0.017660  -0.008099  -0.011029  -0.001195   0.412267  -0.000687
    18  H    0.000335   0.000018   0.000255   0.001695  -0.000687   0.477207
    19  H   -0.000264  -0.000073   0.000405   0.000917   0.000267  -0.011055
    20  H    0.018579  -0.000444   0.000735   0.000136  -0.000217  -0.000002
    21  H   -0.045694   0.005171  -0.001383  -0.000249   0.001170  -0.000004
    22  H    0.001057   0.000005  -0.000165  -0.001722  -0.000699   0.001988
    23  H    0.000760  -0.000037   0.000363   0.001754   0.000028  -0.002867
    24  H   -0.000140   0.000069   0.001509   0.000136  -0.000929  -0.007180
    25  H    0.009522   0.000336  -0.004318  -0.001228  -0.001873   0.003057
    26  H    0.000200   0.000070  -0.000427  -0.014177   0.000156  -0.002375
    27  H    0.004793   0.000316  -0.000715  -0.005624  -0.000550  -0.002100
    28  H   -0.051553   0.000495   0.001608   0.000803  -0.001849   0.000007
    29  H   -0.028512  -0.001239  -0.001479  -0.000861   0.001382  -0.000044
    30  H    0.390786  -0.000979  -0.000301  -0.010487  -0.002518  -0.000325
    31  H    0.503353  -0.003201  -0.001644  -0.000347  -0.003293   0.000008
              19         20         21         22         23         24
     1  C    0.003272   0.000471  -0.014860  -0.003276  -0.003164  -0.001984
     2  C    0.000027   0.000880   0.001050  -0.024844   0.018029  -0.003132
     3  C    0.000928   0.004285   0.017059  -0.005997   0.006054   0.007140
     4  C    0.438577  -0.000227   0.000041  -0.074443  -0.023726  -0.025518
     5  C   -0.000259   0.443300   0.462887   0.000508  -0.000003  -0.000008
     6  O    0.000131  -0.064095  -0.057748  -0.000639   0.000005   0.000099
     7  C   -0.041162   0.000234  -0.000028   0.519850   0.429085   0.007606
     8  C   -0.036022   0.000003   0.000439   0.002575   0.011514   0.436898
     9  C   -0.002888   0.000838  -0.001528  -0.038360  -0.059749  -0.001231
    10  C    0.000068  -0.062619  -0.014206   0.000353  -0.000423   0.000207
    11  O    0.009996  -0.000018  -0.000083   0.002309  -0.004169  -0.073132
    12  O    0.000740   0.001649   0.001561  -0.001207   0.001031   0.001626
    13  C   -0.000264   0.018579  -0.045694   0.001057   0.000760  -0.000140
    14  H   -0.000073  -0.000444   0.005171   0.000005  -0.000037   0.000069
    15  H    0.000405   0.000735  -0.001383  -0.000165   0.000363   0.001509
    16  H    0.000917   0.000136  -0.000249  -0.001722   0.001754   0.000136
    17  H    0.000267  -0.000217   0.001170  -0.000699   0.000028  -0.000929
    18  H   -0.011055  -0.000002  -0.000004   0.001988  -0.002867  -0.007180
    19  H    0.479203  -0.000020   0.000025  -0.004565  -0.006309  -0.008672
    20  H   -0.000020   0.467014  -0.004019   0.000134   0.000026   0.000005
    21  H    0.000025  -0.004019   0.482549  -0.000069  -0.000020   0.000037
    22  H   -0.004565   0.000134  -0.000069   0.452592  -0.006487  -0.002279
    23  H   -0.006309   0.000026  -0.000020  -0.006487   0.460886   0.001859
    24  H   -0.008672   0.000005   0.000037  -0.002279   0.001859   0.468957
    25  H   -0.001285   0.000267  -0.000469  -0.000165  -0.002177  -0.019698
    26  H   -0.002455   0.000014  -0.000043   0.001680  -0.002201   0.000335
    27  H    0.001364   0.000168   0.000060  -0.001298  -0.009088   0.000936
    28  H   -0.000006  -0.008509   0.003107   0.000114  -0.000011   0.000003
    29  H    0.000071  -0.003420   0.000261  -0.000697   0.000226   0.000033
    30  H    0.000110   0.000211   0.000259  -0.000498   0.000080   0.000200
    31  H   -0.000005  -0.001607  -0.003169   0.000073   0.000073  -0.000035
              25         26         27         28         29         30
     1  C   -0.017780  -0.003499   0.002422  -0.002271   0.016715  -0.007217
     2  C   -0.014260  -0.155296  -0.028794   0.007078  -0.002232   0.003686
     3  C   -0.019490   0.001047  -0.003417  -0.017202  -0.025476   0.004413
     4  C   -0.097869  -0.017602  -0.011661  -0.000230   0.000976   0.000628
     5  C    0.002698   0.000090   0.003320  -0.025116  -0.095300  -0.010227
     6  O   -0.001065  -0.000109   0.001062   0.010303  -0.011238  -0.001992
     7  C    0.005724  -0.022288  -0.036278   0.000477  -0.000824   0.000933
     8  C    0.488185   0.014486   0.009115  -0.000028  -0.000497   0.002880
     9  C    0.037027   0.565394   0.431035   0.000081  -0.004042   0.006944
    10  C    0.000888   0.000168  -0.004760   0.450916   0.520653  -0.007172
    11  O   -0.034185  -0.007205   0.007725  -0.000185   0.000185  -0.001640
    12  O    0.017563   0.011176  -0.003240   0.001986   0.004849  -0.002971
    13  C    0.009522   0.000200   0.004793  -0.051553  -0.028512   0.390786
    14  H    0.000336   0.000070   0.000316   0.000495  -0.001239  -0.000979
    15  H   -0.004318  -0.000427  -0.000715   0.001608  -0.001479  -0.000301
    16  H   -0.001228  -0.014177  -0.005624   0.000803  -0.000861  -0.010487
    17  H   -0.001873   0.000156  -0.000550  -0.001849   0.001382  -0.002518
    18  H    0.003057  -0.002375  -0.002100   0.000007  -0.000044  -0.000325
    19  H   -0.001285  -0.002455   0.001364  -0.000006   0.000071   0.000110
    20  H    0.000267   0.000014   0.000168  -0.008509  -0.003420   0.000211
    21  H   -0.000469  -0.000043   0.000060   0.003107   0.000261   0.000259
    22  H   -0.000165   0.001680  -0.001298   0.000114  -0.000697  -0.000498
    23  H   -0.002177  -0.002201  -0.009088  -0.000011   0.000226   0.000080
    24  H   -0.019698   0.000335   0.000936   0.000003   0.000033   0.000200
    25  H    0.520198   0.000013   0.000183   0.000155  -0.000455  -0.000864
    26  H    0.000013   0.443444  -0.004875  -0.000034   0.000160   0.000634
    27  H    0.000183  -0.004875   0.473858   0.000089  -0.003210  -0.001362
    28  H    0.000155  -0.000034   0.000089   0.481245  -0.014698  -0.010406
    29  H   -0.000455   0.000160  -0.003210  -0.014698   0.473068   0.001262
    30  H   -0.000864   0.000634  -0.001362  -0.010406   0.001262   0.481462
    31  H   -0.000072  -0.000049  -0.000022  -0.006095   0.001955   0.000775
              31
     1  C   -0.011458
     2  C   -0.008917
     3  C   -0.070663
     4  C   -0.000609
     5  C   -0.009611
     6  O    0.000417
     7  C    0.000697
     8  C    0.000077
     9  C    0.003734
    10  C   -0.038167
    11  O    0.001190
    12  O    0.004820
    13  C    0.503353
    14  H   -0.003201
    15  H   -0.001644
    16  H   -0.000347
    17  H   -0.003293
    18  H    0.000008
    19  H   -0.000005
    20  H   -0.001607
    21  H   -0.003169
    22  H    0.000073
    23  H    0.000073
    24  H   -0.000035
    25  H   -0.000072
    26  H   -0.000049
    27  H   -0.000022
    28  H   -0.006095
    29  H    0.001955
    30  H    0.000775
    31  H    0.425815
 Mulliken charges:
               1
     1  C   -0.437866
     2  C   -0.064655
     3  C    0.106024
     4  C   -0.371318
     5  C   -0.239474
     6  O   -0.339806
     7  C   -0.334832
     8  C   -0.150914
     9  C   -0.367250
    10  C   -0.327506
    11  O   -0.340424
    12  O   -0.292228
    13  C   -0.372177
    14  H    0.199910
    15  H    0.215019
    16  H    0.285073
    17  H    0.281063
    18  H    0.171776
    19  H    0.178943
    20  H    0.206250
    21  H    0.167896
    22  H    0.184173
    23  H    0.188657
    24  H    0.216283
    25  H    0.131434
    26  H    0.193571
    27  H    0.180548
    28  H    0.179729
    29  H    0.172427
    30  H    0.163697
    31  H    0.215978
 Sum of Mulliken charges =  -0.00000
 Mulliken charges with hydrogens summed into heavy atoms:
               1
     1  C   -0.022937
     2  C    0.220418
     3  C    0.387087
     4  C   -0.020600
     5  C    0.134672
     6  O   -0.339806
     7  C    0.037998
     8  C    0.196802
     9  C    0.006869
    10  C    0.024650
    11  O   -0.340424
    12  O   -0.292228
    13  C    0.007498
 Electronic spatial extent (au):  <R**2>=           2834.5500
 Charge=             -0.0000 electrons
 Dipole moment (field-independent basis, Debye):
    X=              0.4544    Y=              1.2637    Z=             -1.6004  Tot=              2.0892
 Quadrupole moment (field-independent basis, Debye-Ang):
   XX=            -69.3596   YY=            -76.0591   ZZ=            -83.8279
   XY=              3.0962   XZ=             -8.4888   YZ=              1.6975
 Traceless Quadrupole moment (field-independent basis, Debye-Ang):
   XX=              7.0560   YY=              0.3564   ZZ=             -7.4124
   XY=              3.0962   XZ=             -8.4888   YZ=              1.6975
 Octapole moment (field-independent basis, Debye-Ang**2):
  XXX=             16.1106  YYY=             -4.8555  ZZZ=             -0.2448  XYY=             -8.5430
  XXY=              4.9701  XXZ=              2.5652  XZZ=              5.1615  YZZ=              5.0675
  YYZ=             -6.2877  XYZ=              8.8952
 Hexadecapole moment (field-independent basis, Debye-Ang**3):
 XXXX=          -2589.0774 YYYY=           -566.0828 ZZZZ=           -468.0577 XXXY=             30.9852
 XXXZ=             -4.9373 YYYX=              5.3772 YYYZ=              3.2502 ZZZX=             -3.4643
 ZZZY=              1.2473 XXYY=           -539.0750 XXZZ=           -541.3674 YYZZ=           -172.4270
 XXYZ=             20.7479 YYXZ=             -5.1116 ZZXY=              5.5491
 N-N= 9.043103669473D+02 E-N=-3.251127403367D+03  KE= 6.153657844045D+02
 D1PCM: PCM CHGder 1st derivatives, ID1Alg=3 FixD1E=F DoIter=F DoCFld=F I1PDM=0.
 Calling FoFJK, ICntrl=      2127 FMM=F ISym2X=0 I1Cent= 0 IOpClX= 0 NMat=1 NMatS=1 NMatT=0.
 ***** Axes restored to original set *****
 -------------------------------------------------------------------
 Center     Atomic                   Forces (Hartrees/Bohr)
 Number     Number              X              Y              Z
 -------------------------------------------------------------------
      1        6           0.000035563   -0.005309556   -0.003959548
      2        6           0.003688006   -0.002920335    0.005294799
      3        6          -0.003948771   -0.000649559   -0.000559529
      4        6          -0.003163336   -0.000179443    0.000569501
      5        6           0.002525960   -0.004904519   -0.004500779
      6        8           0.003618772    0.003593622    0.011172256
      7        6          -0.000109527    0.000903613   -0.004256620
      8        6           0.002766464   -0.004557194    0.005335342
      9        6          -0.000288700    0.002705790    0.001456788
     10        6          -0.000269192    0.002759716   -0.001941476
     11        8           0.001891606    0.002484969   -0.013700540
     12        8          -0.002388476    0.000981614    0.014710568
     13        6          -0.000514708    0.002055026    0.003179243
     14        1          -0.003429422    0.001759870   -0.004284431
     15        1           0.004344780    0.003026612    0.001294298
     16        1          -0.001971043   -0.004047459   -0.006086478
     17        1           0.002108849    0.002134264   -0.005389316
     18        1           0.001990406   -0.001588363   -0.002260673
     19        1           0.000906408    0.001790831    0.001868584
     20        1          -0.001754140   -0.000996822    0.004007504
     21        1          -0.003633646    0.001704539   -0.004135465
     22        1          -0.002952251    0.001778442    0.001549303
     23        1           0.001602097   -0.001504496    0.001246703
     24        1           0.002293903    0.002949060   -0.002385451
     25        1          -0.004345687    0.002646342    0.003933591
     26        1           0.002300514   -0.000963408   -0.002190343
     27        1          -0.002254123   -0.002015391    0.001364162
     28        1          -0.002008969   -0.001681792   -0.000628840
     29        1           0.002695249   -0.000923438    0.002504804
     30        1           0.002492943   -0.002554610   -0.001081635
     31        1          -0.002229530    0.001522077   -0.002126323
 -------------------------------------------------------------------
 Cartesian Forces:  Max     0.014710568 RMS     0.003645588

 GradGradGradGradGradGradGradGradGradGradGradGradGradGradGradGradGradGrad
 Berny optimization.
 FormGI is forming the generalized inverse of G from B-inverse, IUseBI=4.
 Internal  Forces:  Max     0.010448941 RMS     0.002143644
 Search for a local minimum.
 Step number   1 out of a maximum of  186
 All quantities printed in internal units (Hartrees-Bohrs-Radians)
 Mixed Optimization -- RFO/linear search
 Second derivative matrix not updated -- first step.
 ITU=  0
     Eigenvalues ---    0.00605   0.00626   0.00728   0.00741   0.01409
     Eigenvalues ---    0.01452   0.01741   0.02701   0.02808   0.03075
     Eigenvalues ---    0.03111   0.04098   0.04330   0.04631   0.04749
     Eigenvalues ---    0.04877   0.04889   0.05045   0.05139   0.05151
     Eigenvalues ---    0.05250   0.05687   0.05704   0.06170   0.06191
     Eigenvalues ---    0.06357   0.06763   0.06982   0.07595   0.07851
     Eigenvalues ---    0.07962   0.07963   0.07991   0.08124   0.08230
     Eigenvalues ---    0.08827   0.09293   0.09368   0.10700   0.11607
     Eigenvalues ---    0.11698   0.11714   0.11764   0.12404   0.12536
     Eigenvalues ---    0.14663   0.14749   0.15738   0.16490   0.17491
     Eigenvalues ---    0.19187   0.21304   0.21953   0.25000   0.28515
     Eigenvalues ---    0.28661   0.28783   0.28866   0.28949   0.28997
     Eigenvalues ---    0.30353   0.30386   0.35035   0.35091   0.35098
     Eigenvalues ---    0.35119   0.35197   0.35209   0.35240   0.35258
     Eigenvalues ---    0.35278   0.35316   0.35364   0.35439   0.35451
     Eigenvalues ---    0.35633   0.35817   0.35841   0.35856   0.35908
     Eigenvalues ---    0.40813   0.41395   0.42158   0.42229   0.43300
     Eigenvalues ---    0.462421000.000001000.000001000.000001000.00000
     Eigenvalues --- 1000.000001000.000001000.000001000.000001000.00000
     Eigenvalues --- 1000.000001000.000001000.000001000.000001000.00000
     Eigenvalues --- 1000.000001000.000001000.000001000.000001000.00000
     Eigenvalues --- 1000.000001000.000001000.000001000.000001000.00000
     Eigenvalues --- 1000.000001000.000001000.000001000.000001000.00000
     Eigenvalues --- 1000.000001000.000001000.000001000.000001000.00000
     Eigenvalues --- 1000.000001000.000001000.000001000.000001000.00000
     Eigenvalues --- 1000.000001000.000001000.000001000.000001000.00000
     Eigenvalues --- 1000.000001000.000001000.000001000.000001000.00000
     Eigenvalues --- 1000.000001000.000001000.000001000.000001000.00000
     Eigenvalues --- 1000.000001000.000001000.000001000.000001000.00000
     Eigenvalues --- 1000.000001000.000001000.000001000.000001000.00000
     Eigenvalues --- 1000.000001000.000001000.000001000.000001000.00000
     Eigenvalues --- 1000.000001000.000001000.000001000.000001000.00000
     Eigenvalues --- 1000.000001000.000001000.000001000.000001000.00000
     Eigenvalues --- 1000.000001000.000001000.000001000.000001000.00000
     Eigenvalues --- 1000.000001000.000001000.000001000.000001000.00000
     Eigenvalues --- 1000.000001000.000001000.000001000.000001000.00000
     Eigenvalues --- 1000.000001000.000001000.000001000.000001000.00000
 RFO step:  Lambda=-3.20380551D-03 EMin= 6.04804112D-03
 Linear search not attempted -- first point.
 Iteration  1 RMS(Cart)=  0.03252309 RMS(Int)=  0.00027120
 Iteration  2 RMS(Cart)=  0.00103040 RMS(Int)=  0.00003570
 Iteration  3 RMS(Cart)=  0.00000032 RMS(Int)=  0.00003570
 Iteration  1 RMS(Cart)=  0.00000165 RMS(Int)=  0.00000038
 Iteration  2 RMS(Cart)=  0.00000092 RMS(Int)=  0.00000042
 Variable       Old X    -DE/DX   Delta X   Delta X   Delta X     New X
                                 (Linear)    (Quad)   (Total)
    R1        2.87063  -0.00110   0.00000  -0.00321  -0.00319   2.86744
    R2        2.66762   0.00605   0.00000   0.01447   0.01449   2.68211
    R3        2.05482   0.00567   0.00000   0.01599   0.01599   2.07081
    R4        2.04226   0.00537   0.00000   0.01483   0.01483   2.05709
    R5        2.87390  -0.00122   0.00000  -0.00401  -0.00402   2.86988
    R6        2.65490   0.00750   0.00000   0.01691   0.01694   2.67184
    R7        2.63860   0.00671   0.00000   0.01441   0.01441   2.65301
    R8        2.04307   0.00756   0.00000   0.02090   0.02090   2.06397
    R9        2.68723   0.00418   0.00000   0.00985   0.00985   2.69708
   R10        2.88801  -0.00159   0.00000  -0.00577  -0.00580   2.88222
   R11        2.04660   0.00616   0.00000   0.01715   0.01715   2.06375
   R12        2.88872  -0.00093   0.00000  -0.00354  -0.00357   2.88515
   R13        2.87138  -0.00075   0.00000  -0.00237  -0.00236   2.86902
   R14        2.05527   0.00330   0.00000   0.00931   0.00931   2.06458
   R15        2.05287   0.00274   0.00000   0.00771   0.00771   2.06058
   R16        2.67628   0.00633   0.00000   0.01492   0.01495   2.69123
   R17        2.87347  -0.00063   0.00000  -0.00231  -0.00233   2.87114
   R18        2.04369   0.00448   0.00000   0.01239   0.01239   2.05608
   R19        2.05619   0.00567   0.00000   0.01604   0.01604   2.07223
   R20        2.89032  -0.00123   0.00000  -0.00458  -0.00460   2.88572
   R21        2.05355   0.00367   0.00000   0.01032   0.01032   2.06387
   R22        2.05166   0.00252   0.00000   0.00706   0.00706   2.05872
   R23        2.68695   0.00576   0.00000   0.01388   0.01391   2.70086
   R24        2.04331   0.00443   0.00000   0.01226   0.01226   2.05557
   R25        2.04948   0.00637   0.00000   0.01781   0.01781   2.06730
   R26        2.05337   0.00323   0.00000   0.00909   0.00909   2.06246
   R27        2.04968   0.00329   0.00000   0.00920   0.00920   2.05887
   R28        2.89211  -0.00110   0.00000  -0.00477  -0.00480   2.88732
   R29        2.05259   0.00269   0.00000   0.00757   0.00757   2.06016
   R30        2.05226   0.00369   0.00000   0.01036   0.01036   2.06261
   R31        2.05088   0.00361   0.00000   0.01012   0.01012   2.06099
   R32        2.05516   0.00339   0.00000   0.00958   0.00958   2.06473
    A1        1.95411   0.00023   0.00000   0.00024   0.00024   1.95436
    A2        1.90444  -0.00116   0.00000  -0.00482  -0.00486   1.89958
    A3        1.93133  -0.00054   0.00000  -0.00852  -0.00852   1.92281
    A4        1.91140   0.00126   0.00000   0.00997   0.00998   1.92138
    A5        1.86438  -0.00040   0.00000  -0.00167  -0.00171   1.86268
    A6        1.89713   0.00068   0.00000   0.00528   0.00525   1.90238
    A7        1.94443   0.00246   0.00000   0.00980   0.00967   1.95410
    A8        1.90032  -0.00230   0.00000  -0.01241  -0.01235   1.88797
    A9        1.93458   0.00019   0.00000   0.00484   0.00486   1.93944
   A10        1.93969  -0.00004   0.00000  -0.00570  -0.00561   1.93408
   A11        1.82926  -0.00155   0.00000  -0.00505  -0.00507   1.82419
   A12        1.91503   0.00134   0.00000   0.00921   0.00922   1.92424
   A13        1.88799  -0.00056   0.00000  -0.00617  -0.00616   1.88183
   A14        1.92498   0.00111   0.00000   0.00070   0.00058   1.92556
   A15        1.88626  -0.00017   0.00000   0.00133   0.00135   1.88761
   A16        1.92971  -0.00034   0.00000  -0.00667  -0.00665   1.92305
   A17        1.90639   0.00074   0.00000   0.00880   0.00880   1.91519
   A18        1.92751  -0.00076   0.00000   0.00212   0.00214   1.92965
   A19        1.92325  -0.00036   0.00000  -0.00462  -0.00477   1.91848
   A20        1.91620   0.00070   0.00000   0.00164   0.00170   1.91790
   A21        1.93917  -0.00054   0.00000  -0.00074  -0.00072   1.93845
   A22        1.90600  -0.00012   0.00000  -0.00140  -0.00136   1.90464
   A23        1.90269   0.00014   0.00000   0.00015   0.00019   1.90288
   A24        1.87565   0.00020   0.00000   0.00518   0.00515   1.88080
   A25        1.93573   0.00088   0.00000   0.00514   0.00506   1.94079
   A26        1.85670  -0.00088   0.00000  -0.00245  -0.00243   1.85427
   A27        1.90120   0.00086   0.00000   0.00472   0.00478   1.90597
   A28        1.94610  -0.00037   0.00000  -0.00320  -0.00319   1.94290
   A29        1.93074  -0.00101   0.00000  -0.00715  -0.00714   1.92360
   A30        1.89109   0.00056   0.00000   0.00332   0.00330   1.89438
   A31        1.97521  -0.00424   0.00000  -0.02539  -0.02533   1.94988
   A32        1.91353   0.00242   0.00000  -0.00117  -0.00123   1.91230
   A33        1.91418  -0.00106   0.00000  -0.00202  -0.00206   1.91212
   A34        1.93044  -0.00042   0.00000   0.00129   0.00134   1.93178
   A35        1.92210  -0.00088   0.00000  -0.00304  -0.00303   1.91907
   A36        1.91620  -0.00082   0.00000  -0.00024  -0.00022   1.91598
   A37        1.86698   0.00068   0.00000   0.00529   0.00528   1.87227
   A38        1.94522   0.00162   0.00000   0.00444   0.00442   1.94963
   A39        1.94583  -0.00014   0.00000  -0.00179  -0.00176   1.94407
   A40        1.93151  -0.00133   0.00000  -0.00611  -0.00614   1.92537
   A41        1.84186  -0.00106   0.00000  -0.00107  -0.00108   1.84078
   A42        1.90917   0.00040   0.00000   0.00246   0.00250   1.91167
   A43        1.88729   0.00051   0.00000   0.00239   0.00238   1.88966
   A44        1.95294  -0.00110   0.00000  -0.01209  -0.01221   1.94073
   A45        1.87422  -0.00016   0.00000   0.00127   0.00129   1.87551
   A46        1.90035   0.00039   0.00000  -0.00231  -0.00229   1.89807
   A47        1.91001   0.00109   0.00000   0.00720   0.00724   1.91725
   A48        1.94725  -0.00027   0.00000  -0.00011  -0.00018   1.94707
   A49        1.87607   0.00010   0.00000   0.00684   0.00682   1.88289
   A50        1.92698  -0.00001   0.00000  -0.00626  -0.00633   1.92065
   A51        1.90724   0.00043   0.00000   0.00231   0.00235   1.90959
   A52        1.90462  -0.00053   0.00000  -0.00171  -0.00173   1.90289
   A53        1.92633  -0.00067   0.00000  -0.00003  -0.00002   1.92631
   A54        1.92524   0.00055   0.00000   0.00065   0.00066   1.92590
   A55        1.87248   0.00025   0.00000   0.00537   0.00536   1.87785
   A56        2.02372  -0.00580   0.00000  -0.03403  -0.03393   1.98980
   A57        2.02879  -0.01045   0.00000  -0.04127  -0.04127   1.98752
   A58        1.94019   0.00099   0.00000  -0.00774  -0.00783   1.93236
   A59        1.91907  -0.00074   0.00000  -0.00807  -0.00803   1.91104
   A60        1.88494  -0.00050   0.00000   0.00304   0.00305   1.88799
   A61        1.93609  -0.00005   0.00000   0.00186   0.00179   1.93788
   A62        1.91115  -0.00018   0.00000   0.00499   0.00501   1.91616
   A63        1.87035   0.00045   0.00000   0.00658   0.00656   1.87691
    D1       -1.17475   0.00124   0.00000   0.03241   0.03240  -1.14235
    D2        0.93770   0.00114   0.00000   0.02077   0.02078   0.95848
    D3        3.04636   0.00077   0.00000   0.02462   0.02460   3.07097
    D4        2.98963   0.00030   0.00000   0.02299   0.02300   3.01263
    D5       -1.18111   0.00020   0.00000   0.01135   0.01138  -1.16973
    D6        0.92756  -0.00017   0.00000   0.01520   0.01520   0.94276
    D7        0.90299   0.00052   0.00000   0.02474   0.02474   0.92773
[...]
 1925182,-0.00080045,0.00154888,0.00151008,0.00000414,0.00001358,-0.000
 01195,-0.00000886,0.00002467,0.00001548,-0.00002199,0.00000636,0.00004
 217,-0.00028107,-0.00020957,0.00010904,0.00003558,-0.00003282,-0.00001
 016,-0.00297353,0.00287189,-0.00204036,0.00095278,-0.00070367,0.000834
 53,0.00000087,0.00000493,0.00000155,-0.00000369,-0.00000135,-0.0000011
 6,0.00031031,-0.00041249,-0.00013583,0.00008794,-0.00022150,-0.0000185
 2,0.01403950,-0.00737125,-0.00763429,-0.10055337,0.06658314,0.12792805
 ,-0.00030878,0.00008602,-0.00055807,-0.01366708,0.00598632,0.01297080,
 0.00071359,0.00047318,0.00146299,0.00092576,0.00034754,-0.00026675,0.0
 0008105,0.00001688,0.00001077,-0.00008737,-0.00003224,0.00011138,0.010
 88800,-0.00772868,-0.00838697,-0.00007075,-0.00001025,-0.00016656,-0.1
 8292833,0.08708700,0.09935151,-0.00000300,-0.00001446,-0.00004842,0.00
 133756,-0.00092707,0.00007107,-0.00482100,0.00339523,-0.00380296,-0.00
 005865,0.00012202,-0.00009323,-0.00012644,0.00016034,0.00010816,0.0000
 1978,-0.00000624,0.00001005,0.00042372,-0.00050738,0.00005537,-0.00008
 469,0.00007360,-0.00013180,-0.00014189,0.00040101,0.00000701,0.0000306
 6,0.00021609,-0.00005142,-0.00001421,0.00000019,0.00000838,-0.00000937
 ,0.00000333,-0.00000940,-0.00043437,-0.00245516,-0.00207898,0.00083113
 ,0.00056732,0.00064324,0.00003586,0.00001237,0.00002001,-0.00003678,-0
 .00001698,0.00003155,0.19931556,0.00015183,-0.00001474,0.00028589,0.01
 078961,-0.00882770,-0.01064376,-0.00002975,0.00013147,-0.00097854,0.00
 102674,0.00053357,-0.00001793,-0.00004814,-0.00000811,-0.00000434,0.00
 005505,0.00001756,-0.00006528,0.01363985,-0.00996502,-0.01098939,-0.00
 003351,-0.00008435,-0.00006497,0.08487930,-0.10334985,-0.06081903,0.00
 000691,-0.00000057,0.00002890,-0.00035862,0.00080917,-0.00000411,0.003
 10836,-0.00111411,0.00268797,0.00010114,-0.00015516,0.00010177,0.00006
 049,-0.00009000,-0.00005177,-0.00001071,0.00000069,-0.00001242,-0.0004
 5256,0.00061617,0.00019925,-0.00001930,0.00000095,0.00005124,-0.000199
 29,-0.00007068,0.00018327,-0.00019233,0.00017870,0.00005197,0.00000808
 ,-0.00000036,-0.00000512,0.00000583,-0.00000243,0.00000625,-0.00179873
 ,-0.00162238,-0.00253841,-0.00019307,0.00091398,0.00061686,0.00002088,
 -0.00004371,0.00003828,-0.00002288,0.00004584,-0.00001230,-0.09472342,
 0.11030939,-0.00025853,0.00008689,-0.00039605,-0.01426600,0.00931315,0
 .01100900,-0.00017297,0.00042937,0.00103570,0.00037992,0.00108701,0.00
 070564,0.00004821,0.00000904,0.00000357,-0.00004281,-0.00002312,0.0000
 6817,0.01587937,-0.01137582,-0.01447534,-0.00032579,-0.00010434,-0.000
 16909,0.10334067,-0.06314243,-0.12260702,-0.00000698,-0.00000411,-0.00
 003270,0.00003944,-0.00082146,0.00050669,-0.00467050,0.00331824,-0.002
 29587,-0.00004797,0.00011234,-0.00006533,-0.00010191,0.00012382,0.0000
 7050,0.00000996,-0.00000674,0.00000063,0.00036887,-0.00058809,0.000915
 16,0.00000298,0.00001172,-0.00005554,-0.00029418,-0.00017783,0.0004571
 8,-0.00025985,0.00021095,0.00002428,-0.00000974,-0.00000007,0.00000563
 ,-0.00000457,0.00000199,-0.00000555,-0.00262446,-0.00322328,-0.0021268
 1,0.00029050,0.00077046,0.00077453,0.00006715,-0.00002278,0.00006370,0
 .00001174,-0.00001306,-0.00002829,-0.10682496,0.07085857,0.13424470,0.
 00004422,-0.00000659,0.00002544,0.00977060,0.01314876,-0.00671750,0.00
 035317,-0.00019323,0.00003355,-0.00011995,-0.00165544,-0.00311452,0.00
 000610,0.,0.00001169,-0.00000074,0.00000468,-0.00000666,-0.00739115,-0
 .00784581,0.00684573,-0.00071334,-0.00036605,-0.00078969,-0.13224247,-
 0.10636663,0.06895362,-0.00000121,0.00000591,-0.00002519,-0.00048132,0
 .00464493,-0.00362868,0.00067724,0.00047364,-0.00040523,0.00000030,-0.
 00000634,0.00000988,0.00000771,-0.00001604,-0.00000338,-0.00000296,-0.
 00000214,-0.00000121,0.00044870,-0.00076861,0.00048084,0.00001644,0.00
 005335,-0.00005045,0.00018416,0.00030338,-0.00021264,-0.00018140,-0.00
 100449,0.00054712,0.00000019,0.00000094,-0.00000046,0.00000101,-0.0000
 0497,-0.00000137,0.00073209,0.00028894,-0.00022238,0.00006296,0.000445
 97,0.00028840,0.00013729,0.00003508,0.00018697,0.00005349,0.00003248,0
 .00008737,-0.01169594,-0.01584981,0.00955786,0.14025833,-0.00003889,0.
 00001833,-0.00003584,-0.01053698,-0.01234028,0.00581235,0.00010707,0.0
 0032468,-0.00002917,-0.00119501,-0.00098027,-0.00406031,0.00000415,0.0
 0000141,0.00000228,0.00000158,0.00000018,-0.00000416,-0.00975593,-0.01
 348556,0.00885944,0.00010653,0.00125151,0.00023250,-0.10245160,-0.1789
 8509,0.08510130,0.00001213,-0.00001321,0.00000381,0.00154498,-0.002555
 04,0.00338397,-0.00054880,0.00101875,-0.00051124,0.00003385,-0.0000258
 0,0.00002219,-0.00001202,0.00001210,0.00000860,0.00000066,-0.00000028,
 0.00000002,0.00040089,0.00030004,0.00001378,-0.00006098,0.00002443,-0.
 00004275,-0.00015506,0.00002814,0.00017147,-0.00056112,-0.00081501,0.0
 0071413,0.00000120,-0.00000127,-0.00000132,-0.00000079,0.00000122,-0.0
 0000036,0.00056008,0.00057558,0.00042328,0.00018071,0.00075564,-0.0000
 6492,-0.00001083,-0.00005639,0.00002178,0.00004730,-0.00009743,-0.0000
 6923,0.00756729,0.01172135,-0.00676020,0.11471726,0.19335306,0.0000313
 9,-0.00003102,0.00003548,0.01467750,0.01196128,-0.00827051,-0.00014102
 ,-0.00029055,-0.00003124,-0.00185788,-0.00279777,-0.00353407,0.0000030
 7,0.00000158,-0.00000171,-0.00000590,0.00000987,-0.00000348,-0.0132552
 4,-0.01721748,0.01235471,-0.00078289,-0.00092864,-0.00120973,0.0662890
 5,0.08659211,-0.10318227,-0.00000240,-0.00000050,0.00000063,-0.0020721
 8,0.00577935,-0.00349975,0.00075532,-0.00104267,0.00105440,-0.00003894
 ,0.00002436,-0.00001227,0.00000450,-0.00000792,-0.00001145,-0.00000057
 ,0.00000004,-0.00000078,0.00003172,-0.00071266,0.00037569,0.00003980,-
 0.00002795,0.00004357,-0.00008909,0.00004397,0.00006264,-0.00065647,-0
 .00121609,0.00060441,-0.00000072,0.00000004,0.00000087,-0.00000096,-0.
 00000035,0.00000013,0.00072584,0.00071387,0.00096873,0.00045767,0.0009
 8236,0.00084282,0.00016942,0.00013064,0.00022228,0.00008405,0.00011998
 ,0.00017569,0.00754691,0.01110338,-0.00763100,-0.07187458,-0.09319704,
 0.11065869,-0.00046932,0.00036951,0.00049513,0.00042433,-0.00017135,-0
 .00022401,-0.00004960,0.00024244,0.00373363,0.00000338,-0.00000951,-0.
 00001112,0.00940286,0.00643539,0.00161031,0.00124944,0.00370655,0.0016
 8608,-0.00000014,0.00001292,0.00000453,0.00004134,0.00005500,0.0000551
 5,-0.00004183,0.00000057,0.00004137,-0.20371442,-0.12555439,-0.0437030
 0,-0.00026552,-0.00005529,0.00004164,-0.00016531,0.00005568,0.00023566
 ,-0.01169087,-0.00938676,-0.00391082,0.00006715,-0.00001690,-0.0000546
 3,0.00008310,-0.00003235,-0.00020101,0.00000253,0.00000386,0.00002509,
 -0.00063902,-0.00078504,-0.00038086,-0.00000223,0.00000101,0.00000201,
 -0.00000596,-0.00000062,-0.00000498,0.00029429,-0.00079669,-0.00015089
 ,0.00040776,-0.00065610,-0.00052631,-0.00000003,0.00000114,0.00000244,
 -0.00000701,-0.00000265,-0.00000841,-0.00000821,-0.00000824,-0.0000033
 3,0.00000301,-0.00000261,-0.00000619,-0.00002454,0.00001286,-0.0000135
 8,0.00000345,-0.00000026,-0.00000222,0.21799548,0.00094601,0.00095159,
 -0.00134757,0.00018963,-0.00000489,-0.00016115,0.00038785,0.00093448,0
 .00203249,0.00000196,-0.00000283,-0.00000318,-0.02264964,-0.01320533,-
 0.00339708,0.00036067,-0.00766212,-0.00314938,-0.00000093,0.00000827,-
 0.00000059,0.00001688,0.00001644,0.00001671,-0.00003281,-0.00000243,0.
 00002842,-0.12321852,-0.14921844,-0.03531531,-0.00006744,-0.00003053,-
 0.00000003,-0.00025640,0.00026953,-0.00040138,-0.00442979,-0.00442203,
 -0.00050341,-0.00004974,-0.00007901,0.00018770,-0.00014149,-0.00003958
 ,0.00013587,0.00000604,-0.00000646,0.00000863,-0.00027409,-0.00023247,
 -0.00020476,-0.00000189,0.00000090,0.00000069,-0.00000265,-0.00000051,
 -0.00000203,0.00017495,0.00087734,-0.00017035,0.00019981,0.00094488,0.
 00087142,-0.00000174,0.00000042,0.00000158,-0.00000457,-0.00000144,-0.
 00000419,-0.00000453,-0.00000353,-0.00000011,-0.00000380,0.00000002,-0
 .00000041,-0.00001372,0.00000959,-0.00000925,-0.00000138,0.00000108,-0
 .00000023,0.13728505,0.16019836,0.00067073,-0.00021651,-0.00117744,-0.
 00033304,0.00011508,0.00023759,0.00187728,0.00063941,-0.00622412,-0.00
 000336,0.00000849,0.00001075,-0.01164199,-0.00471683,-0.00320667,0.000
 09696,-0.00522914,-0.00040785,0.00000220,-0.00001479,-0.00000328,-0.00
 003475,-0.00004929,-0.00005166,0.00004400,0.00000194,-0.00004130,-0.04
 428287,-0.03689107,-0.05795746,0.00020711,0.00002144,0.00000944,0.0002
 6030,-0.00037872,0.00043691,0.02271597,0.01980809,0.00602248,-0.000117
 48,-0.00001070,0.00014206,-0.00013185,0.00001731,0.00025894,-0.0000224
 6,0.00000281,-0.00002326,0.00108779,0.00130232,0.00033107,0.00000085,-
 0.00000036,-0.00000102,0.00000529,0.00000030,0.00000436,-0.00003676,0.
 00075886,0.00009104,0.00018460,0.00013455,0.00046796,0.00000200,-0.000
 00054,-0.00000034,0.00000585,0.00000291,0.00000689,0.00000684,0.000006
 18,0.00000235,-0.00000555,0.00000423,0.00000339,0.00001887,-0.00001343
 ,0.00001365,0.00000241,-0.00000234,0.00000006,0.04540391,0.03880549,0.
 06305257,-0.00023214,-0.00009387,0.00042746,0.00019023,-0.00021387,-0.
 00002426,0.00030924,0.00014844,-0.00095929,0.00000093,0.00000036,0.000
 00129,-0.01028527,0.00559040,-0.00830180,0.00193124,-0.00070491,0.0003
 7710,0.00000514,0.00000019,-0.00000367,0.00000806,0.00000780,0.0000083
 7,0.00001025,-0.00001963,0.00000877,-0.14365898,0.07269893,-0.10444970
 ,-0.00006431,-0.00002619,0.00004986,-0.00122021,-0.00038753,0.00061839
 ,0.01146022,-0.00791793,0.01176866,-0.00009714,-0.00000096,-0.00004603
 ,0.00004265,0.00000609,-0.00004047,-0.00001756,0.00000310,0.00000781,0
 .00001891,0.00020733,-0.00000805,-0.00000017,0.00000002,0.00000074,0.0
 0000002,0.00000159,-0.00000095,0.00026237,-0.00045165,-0.00002223,0.00
 032921,0.00233927,0.00153182,0.00000350,-0.00000132,0.00000055,0.00000
 080,-0.00000007,0.00000034,-0.00000014,-0.00000234,-0.00000112,0.00000
 335,0.00000032,-0.00000358,0.00000236,0.00000651,-0.00000435,0.0000607
 2,0.00002992,-0.00002389,-0.01400492,0.01135330,-0.01445655,0.15526129
 ,-0.00008698,0.00000475,-0.00001543,-0.00010775,0.00006355,0.00007353,
 0.00079782,-0.00017473,0.00029791,-0.00000283,0.00000066,0.00000044,0.
 01916795,-0.01553459,0.01810756,-0.00052292,0.00277738,0.00055739,-0.0
 0000708,-0.00000093,-0.00000011,-0.00001021,-0.00000668,-0.00000589,-0
 .00000053,0.00000511,-0.00000786,0.07014730,-0.10343472,0.07834039,0.0
 0005774,0.00002017,-0.00004527,-0.00009946,0.00018491,-0.00021376,0.00
 347806,-0.00328613,0.00386666,0.00006979,0.00004388,-0.00000679,-0.000
 01951,-0.00003688,0.00000076,0.00001195,-0.00001030,-0.00001987,-0.000
 08725,-0.00003683,-0.00004865,0.00000174,0.00000013,-0.00000066,0.0000
 0054,-0.00000041,0.00000073,-0.00077887,0.00129985,-0.00009172,0.00185
 974,-0.00425081,-0.00246195,-0.00000051,-0.00000458,-0.00000403,0.0000
 0167,0.00000128,0.00000051,0.00000195,0.00000109,-0.00000019,0.0000000
 5,-0.00000183,0.00000174,0.00000349,-0.00000471,0.00000237,-0.00003762
 ,-0.00001251,0.00001237,-0.01134751,0.01021231,-0.01316586,-0.08161815
 ,0.11103750,0.00019723,-0.00002631,-0.00013284,0.00007327,-0.00015228,
 0.00001805,-0.00135164,-0.00027096,-0.00014561,-0.00000132,-0.00000220
 ,-0.00000226,0.01029564,-0.00820818,0.00966572,0.00031928,0.00183401,0
 .00032835,0.00000394,-0.00000397,0.00000474,0.00000151,0.00000998,0.00
 001116,0.00002527,-0.00000169,-0.00001448,-0.10472864,0.07956700,-0.16
 042926,-0.00010692,-0.00002243,0.00006869,-0.00002191,-0.00043721,0.00
 104076,-0.01646538,0.01238438,-0.01991452,0.00003248,-0.00000361,-0.00
 003258,-0.00003364,0.00008832,0.00006876,-0.00000722,0.00002275,0.0000
 0731,0.00018540,-0.00002117,0.00006681,0.,0.00000044,0.00000008,-0.000
 00025,-0.00000077,-0.00000021,-0.00020630,0.00086903,0.00100649,0.0007
 7033,-0.00327653,-0.00022337,0.00000488,0.00000066,-0.00000105,0.00000
 218,0.00000087,0.00000035,-0.00000057,-0.00000191,-0.00000183,0.000001
 29,0.00000062,-0.00000296,0.00000248,-0.00000278,0.00000256,0.00002981
 ,0.00000351,-0.00000701,-0.00372154,0.00250221,-0.00455806,0.11136254,
 -0.08589046,0.17590506,-0.00427934,-0.00315297,-0.00018178,-0.00062118
 ,-0.00028039,0.00006081,0.01039401,-0.02097431,-0.01002313,-0.00000470
 ,-0.00000059,0.00000644,-0.00154423,-0.00281653,0.00330762,0.00075587,
 0.00093212,-0.00034024,0.00001898,-0.00001985,0.00000154,-0.00002415,-
 0.00002116,0.00001192,0.00002510,0.00012751,0.00004192,-0.00749922,0.0
 1365797,0.00465247,-0.00003504,-0.00010373,-0.00011827,0.00240790,0.00
 109302,0.00117581,-0.10157563,0.09883087,0.04477035,0.00004039,0.00002
 344,0.00006100,0.00055210,-0.00108545,-0.00081188,-0.00113005,-0.00005
 014,0.00005024,0.00086537,0.00115363,0.00039019,-0.00000026,-0.0000004
 3,-0.00000123,0.00000219,0.00000296,-0.00000162,-0.00012257,0.00112184
 ,0.00071472,0.00015762,-0.00032849,-0.00017415,0.00000481,-0.00000261,
 -0.00000031,0.00000672,0.00000610,0.00000967,-0.00000028,-0.00000453,-
 0.00000846,0.00000787,-0.00000122,-0.00000249,-0.00000029,-0.00001284,
 -0.00000241,0.00001215,0.00000607,-0.00000557,0.00011985,0.00008081,-0
 .00066099,0.00080142,-0.00037692,-0.00029780,0.10957591,-0.00572737,-0
 .00186069,0.00068643,-0.00021980,-0.00004456,-0.00035059,0.01207275,-0
 .02146247,-0.00863930,-0.00001089,0.00000285,-0.00000240,-0.00158496,0
 .00010540,0.00166728,0.00090822,0.00046440,-0.00039202,0.00002512,-0.0
 0004578,0.00003328,0.00002078,0.00000634,-0.00004244,-0.00009307,0.000
 11137,0.00010699,-0.00439713,0.00872310,0.00362304,-0.00000509,0.00015
 659,0.00008604,0.00092249,0.00192051,0.00113180,0.09708233,-0.22361143
 ,-0.08141140,-0.00001336,0.00025874,0.00016524,0.00067177,-0.00107420,
 -0.00112044,-0.00040552,0.00006892,0.00018604,0.00017182,0.00077963,0.
 00033756,-0.00000025,-0.00000036,-0.00000117,0.00000247,-0.00000071,0.
 00000221,-0.00021471,0.00036078,0.00033608,-0.00004009,0.00003160,0.00
 006902,-0.00000184,0.00000009,0.00000151,0.00001026,0.00000962,0.00000
 935,0.00001106,0.00000996,0.00000886,0.00000272,0.00000515,0.00000280,
 -0.00002332,0.00001194,-0.00002038,-0.00002143,-0.00002394,0.00000517,
 0.00039803,0.00032969,-0.00069407,0.00037895,0.00044226,-0.00056912,-0
 .10383035,0.24251418,-0.00109643,-0.00006798,0.00075554,-0.00022541,-0
 .00011199,0.00007143,0.00058279,-0.00580565,-0.00364090,-0.00000623,-0
 .00000050,0.00000483,0.00332182,0.00415465,-0.00403423,-0.00065615,-0.
 00004042,0.00060755,0.00000871,-0.00002107,0.00000248,-0.00000808,0.00
 000059,-0.00003509,-0.00000681,0.00000439,0.00000649,0.01246968,-0.023
 37034,-0.01093994,0.00002738,0.00013024,0.00001293,0.00110760,0.000032
 40,0.00029257,0.04436669,-0.07915552,-0.08397991,0.00024881,-0.0001803
 0,0.00007404,0.00022583,-0.00021648,0.00003195,-0.00008297,0.00003554,
 0.00006864,-0.00043162,0.00023870,0.00017903,0.00000118,-0.00000060,-0
 .00000155,0.00000312,0.00000183,-0.00000024,0.00049682,-0.00158368,-0.
 00074296,0.00011375,-0.00015854,0.00008997,-0.00000167,0.00000088,0.00
 000058,0.00000663,0.00000393,0.00000639,0.00000480,0.00000945,0.000006
 21,0.00000315,0.00000178,0.00000303,0.00000676,-0.00000547,0.00000522,
 -0.00000073,0.00000328,-0.00000223,-0.00036988,0.00029757,0.00108787,-
 0.00092149,-0.00021484,0.00115030,-0.05053784,0.08796906,0.09000667,0.
 00030438,0.00095947,0.00020303,0.00205983,-0.00085474,-0.00182954,-0.0
 1264385,0.01080945,-0.01350935,0.00002788,-0.00001190,-0.00002512,0.00
 098544,-0.00046268,-0.00031434,-0.00006014,-0.00016170,-0.00010559,0.0
 0000502,0.00006939,0.00001345,0.00012515,0.00011366,0.00015488,-0.0001
 5461,0.00004023,0.00019530,0.01123007,-0.00676043,0.01364728,-0.000600
 28,-0.00036931,0.00035840,-0.00702489,-0.00295596,-0.00263833,-0.15344
 791,0.05739985,-0.11545951,0.00042929,-0.00023635,0.00006858,0.0000392
 0,-0.00014974,0.00024208,0.00018685,0.00011131,0.00020545,0.00046895,0
 .00045128,0.00057843,-0.00000923,0.00000333,0.00000454,-0.00001876,-0.
 00000614,-0.00001028,-0.00002373,-0.00017977,-0.00018243,-0.00018293,-
 0.00000306,-0.00041928,-0.00001560,0.00001183,0.00001622,-0.00003693,-
 0.00001080,-0.00002573,-0.00003390,-0.00002079,-0.00000102,-0.00001977
 ,0.00000721,-0.00001197,-0.00009157,0.00007151,-0.00006515,0.00000014,
 0.00000660,-0.00000571,0.00099096,0.00015217,-0.00086530,-0.00112108,-
 0.00049570,0.00363557,-0.00891131,0.00391040,-0.00865022,0.16754332,0.
 00079791,0.00004429,0.00013143,0.00081655,-0.00050418,-0.00111276,-0.0
 1233011,0.00886701,-0.01504065,0.00001300,-0.00000999,-0.00001493,-0.0
 0039173,0.00008311,-0.00090688,0.00000970,-0.00005280,0.00000213,0.000
 01256,0.00002349,0.00001487,0.00006612,0.00007627,0.00006460,-0.000118
 88,0.00006297,0.00016266,0.00458551,-0.00424588,0.00659386,-0.00036929
 ,-0.00019039,0.00023714,-0.00619985,-0.00160269,-0.00248423,0.05984197
 ,-0.08114076,0.06253363,-0.00012445,-0.00040092,-0.00035969,-0.0000640
 7,0.00023179,0.00025058,-0.00009883,0.00001749,0.00021776,0.00039042,0
 .00097839,0.00053896,-0.00000396,0.00000111,0.00000283,-0.00001068,-0.
 00000253,-0.00000628,-0.00012641,0.00003598,-0.00003086,-0.00007416,0.
 00032882,0.00002540,-0.00001484,0.00000879,0.00001087,-0.00001772,-0.0
 0000164,-0.00001041,-0.00001322,-0.00000782,0.00000151,-0.00000612,0.0
 0000421,-0.00001169,-0.00006031,0.00005352,-0.00004296,-0.00000875,0.0
 0000457,-0.00000951,0.00024624,0.00015672,-0.00024573,-0.00133411,0.00
 070181,0.00160780,0.01602616,-0.00818895,0.01804909,-0.06143864,0.0846
 6821,-0.00009688,0.00047587,-0.00006412,0.00032238,-0.00026848,-0.0004
 1172,-0.00250607,0.00246493,-0.00515112,0.00000309,-0.00000792,-0.0000
 0840,-0.00125826,0.00062439,0.00099040,0.00010620,-0.00039884,-0.00027
 142,0.00001341,0.00000163,0.00001438,0.00003045,0.00004655,0.00003753,
 -0.00003915,0.00002876,0.00005279,-0.01661092,0.01022329,-0.02052544,-
 0.00022856,-0.00008390,0.00012842,-0.00114670,-0.00025035,0.00099222,-
 0.11498565,0.06094711,-0.17100487,0.00017165,-0.00020857,0.00002419,0.
 00003482,-0.00008157,0.00012886,-0.00009426,-0.00000450,0.00008785,0.0
 0000705,-0.00030039,0.00045145,-0.00000199,0.00000077,0.00000154,-0.00
 000431,-0.00000080,-0.00000360,0.00028424,-0.00001411,0.00025443,0.000
 26390,-0.00056792,0.00010312,-0.00000142,0.00000163,0.00000192,-0.0000
 0272,-0.00000149,-0.00000464,-0.00000464,-0.00000383,0.00000018,-0.000
 00048,0.00000150,-0.00000466,-0.00001782,0.00001547,-0.00001793,-0.000
 00602,0.00000117,-0.00000330,-0.00004417,-0.00021839,0.00147310,0.0031
 0372,0.00093100,-0.00387912,0.00791347,-0.00318444,0.00891335,0.124795
 64,-0.07016853,0.18769460\\0.00001915,0.00002275,-0.00002091,0.0002847
 5,0.00060769,0.00003226,0.00054359,0.00000420,-0.00070432,-0.00000355,
 0.00000306,0.00000154,-0.00002553,-0.00001071,0.00000391,-0.00000295,0
 .00000172,0.00000746,0.00000700,0.00000423,0.00001050,-0.00000123,0.00
 002324,-0.00000545,-0.00001586,0.00001021,-0.00000274,-0.00000146,-0.0
 0000369,-0.00000237,0.00000613,0.00001203,0.00000027,-0.00051803,-0.00
 082543,0.00014518,-0.00031557,0.00016008,0.00051086,0.00000066,-0.0000
 1047,0.00000981,-0.00000761,-0.00000312,-0.00000575,0.00000128,0.00000
 620,0.00001356,0.00000188,-0.00000754,0.00000885,-0.00000359,0.0000032
 5,-0.00000030,0.00000190,0.00000527,-0.00000933,0.00000066,0.00000248,
 -0.00000375,0.00000842,-0.00000306,0.00000636,0.00000525,0.00000302,-0
 .00000218,-0.00000391,0.00000647,-0.00000126,-0.00000224,0.00000051,-0
 .00000065,0.00000350,-0.00000675,-0.00001323,0.00000438,0.00000255,0.0
 0000334,0.00000941,0.00000066,0.00000059,0.00000608,-0.00000334,0.0000
 1007,0.00000153,0.00000126,-0.00000072,-0.00000490,-0.00000013,0.00000
 346,0.00000086,-0.00000663,0.00000494\\\@


 ALTHOUGH J.J. COULD DIAGNOSE THE FAULTS OF AN
 APPARATUS WITH UNCANNY ACCURACY, IT WAS JUST AS
 WELL NOT TO LET HIM HANDLE IT.
   -- GEORGE THOMPSON, ABOUT HIS FATHER
 Job cpu time:       0 days 13 hours  0 minutes  5.8 seconds.
 Elapsed time:       0 days  1 hours  5 minutes 16.2 seconds.
 File lengths (MBytes):  RWF=    723 Int=      0 D2E=      0 Chk=     34 Scr=      1
 Normal termination of Gaussian 16 at Fri Mar  8 23:23:26 2019.
