 Entering Gaussian System, Link 0=g16
 Initial command:
 /sw/Projects/G16/g16/l1.exe "/nvme/pbs/tmpdir/pbs.74203[13].flm1/Gau-27187.inp" -scrdir="/nvme/pbs/tmpdir/pbs.74203[13].flm1/"
 Entering Link 1 = /sw/Projects/G16/g16/l1.exe PID=     27190.
  
 Copyright (c) 1988-2017, Gaussian, Inc.  All Rights Reserved.
  
 This is part of the Gaussian(R) 16 program.  It is based on
 the Gaussian(R) 09 system (copyright 2009, Gaussian, Inc.),
 the Gaussian(R) 03 system (copyright 2003, Gaussian, Inc.),
 the Gaussian(R) 98 system (copyright 1998, Gaussian, Inc.),
 the Gaussian(R) 94 system (copyright 1995, Gaussian, Inc.),
 the Gaussian 92(TM) system (copyright 1992, Gaussian, Inc.),
 the Gaussian 90(TM) system (copyright 1990, Gaussian, Inc.),
 the Gaussian 88(TM) system (copyright 1988, Gaussian, Inc.),
 the Gaussian 86(TM) system (copyright 1986, Carnegie Mellon
 University), and the Gaussian 82(TM) system (copyright 1983,
 Carnegie Mellon University). Gaussian is a federally registered
 trademark of Gaussian, Inc.
  
 This software contains proprietary and confidential information,
 including trade secrets, belonging to Gaussian, Inc.
  
 This software is provided under written license and may be
 used, copied, transmitted, or stored only in accord with that
 written license.
  
 The following legend is applicable only to US Government
 contracts under FAR:
  
                    RESTRICTED RIGHTS LEGEND
  
 Use, reproduction and disclosure by the US Government is
 subject to restrictions as set forth in subparagraphs (a)
 and (c) of the Commercial Computer Software - Restricted
 Rights clause in FAR 52.227-19.
  
 Gaussian, Inc.
 340 Quinnipiac St., Bldg. 40, Wallingford CT 06492
  
  
 ---------------------------------------------------------------
 Warning -- This program may not be used in any manner that
 competes with the business of Gaussian, Inc. or will provide
 assistance to any competitor of Gaussian, Inc.  The licensee
 of this program is prohibited from giving any competitor of
 Gaussian, Inc. access to this program.  By using this program,
 the user acknowledges that Gaussian, Inc. is engaged in the
 business of creating and licensing software in the field of
 computational chemistry and represents and warrants to the
 licensee that it is not a competitor of Gaussian, Inc. and that
 it will not use this program in any manner prohibited above.
 ---------------------------------------------------------------
  

 Cite this work as:
 Gaussian 16, Revision B.01,
 M. J. Frisch, G. W. Trucks, H. B. Schlegel, G. E. Scuseria, 
 M. A. Robb, J. R. Cheeseman, G. Scalmani, V. Barone, 
 G. A. Petersson, H. Nakatsuji, X. Li, M. Caricato, A. V. Marenich, 
 J. Bloino, B. G. Janesko, R. Gomperts, B. Mennucci, H. P. Hratchian, 
 J. V. Ortiz, A. F. Izmaylov, J. L. Sonnenberg, D. Williams-Young, 
 F. Ding, F. Lipparini, F. Egidi, J. Goings, B. Peng, A. Petrone, 
 T. Henderson, D. Ranasinghe, V. G. Zakrzewski, J. Gao, N. Rega, 
 G. Zheng, W. Liang, M. Hada, M. Ehara, K. Toyota, R. Fukuda, 
 J. Hasegawa, M. Ishida, T. Nakajima, Y. Honda, O. Kitao, H. Nakai, 
 T. Vreven, K. Throssell, J. A. Montgomery, Jr., J. E. Peralta, 
 F. Ogliaro, M. J. Bearpark, J. J. Heyd, E. N. Brothers, K. N. Kudin, 
 V. N. Staroverov, T. A. Keith, R. Kobayashi, J. Normand, 
 K. Raghavachari, A. P. Rendell, J. C. Burant, S. S. Iyengar, 
 J. Tomasi, M. Cossi, J. M. Millam, M. Klene, C. Adamo, R. Cammi, 
 J. W. Ochterski, R. L. Martin, K. Morokuma, O. Farkas, 
 J. B. Foresman, and D. J. Fox, Gaussian, Inc., Wallingford CT, 2016.
 
 ******************************************
 Gaussian 16:  ES64L-G16RevB.01 20-Dec-2017
                 9-Mar-2019 
 ******************************************
 %mem=20gb
 %nproc=12
 Will use up to   12 processors via shared memory.
 %chk=4c1_a1_a4_4c1_PSI.inp_extract_13.chk
 ----------------------------------------------------------------------
 #M062X/6-311++G(2d,2p) opt=ModRedundant freq=noraman SCRF=(SMD,solvent
 =water)
 ----------------------------------------------------------------------
 1/18=120,19=15,26=3,38=1/1,3;
 2/9=110,12=2,17=6,18=5,40=1/2;
 3/5=4,6=6,7=1212,11=2,25=1,30=1,70=32201,71=1,72=1,74=-55/1,2,3;
 4//1;
 5/5=2,38=5,53=1/2;
 6/7=2,8=2,9=2,10=2,28=1/1;
 7//1,2,3,16;
 1/18=20,19=15,26=3/3(2);
 2/9=110/2;
 99//99;
 2/9=110/2;
 3/5=4,6=6,7=1212,11=2,25=1,30=1,70=32205,71=1,72=1,74=-55/1,2,3;
 4/5=5,16=3,69=1/1;
 5/5=2,38=5,53=1/2;
 7//1,2,3,16;
 1/18=20,19=15,26=3/3(-5);
 2/9=110/2;
 6/7=2,8=2,9=2,10=2,19=2,28=1/1;
 99/9=1/99;
 --------------------------------
 4c1_a1_a4_4c1_PSI.inp_extract_13
 --------------------------------
 Symbolic Z-matrix:
 Charge =  0 Multiplicity = 1
 C                    -2.0506   -1.36812   0.42709 
 C                     0.72454  -0.36075  -0.42859 
 C                    -1.16656  -0.37145   1.17181 
 C                     3.45801   0.54718  -0.0992 
 C                    -3.13068   0.28659  -0.86461 
 O                    -2.43458  -0.94553  -0.86361 
 C                     3.11237  -0.91017   0.20612 
 C                     2.23388   1.42645   0.09465 
 C                     1.88712  -1.32773  -0.60818 
 C                    -2.24341   1.40247  -0.33822 
 O                     1.13252   0.96197  -0.67357 
 O                     0.22098  -0.49449   0.87016 
 C                    -1.72282   1.05329   1.05948 
 H                    -2.94484  -1.53162   1.02385 
 H                    -1.54058  -2.31427   0.3095 
 H                    -0.04583  -0.55664  -1.15361 
 H                    -1.19604  -0.65952   2.21402 
 H                     3.80329   0.63599  -1.12674 
 H                     4.2567    0.90379   0.54518 
 H                    -3.4299    0.46744  -1.88803 
 H                    -4.02856   0.18755  -0.25775 
 H                     2.91265  -1.02408   1.26834 
 H                     3.95006  -1.55938  -0.02982 
 H                     2.416     2.43805  -0.24136 
 H                     1.95306   1.46497   1.14171 
 H                     2.14231  -1.33546  -1.66464 
 H                     1.55565  -2.32662  -0.34559 
 H                    -2.81393   2.32613  -0.29967 
 H                    -1.42481   1.55963  -1.03112 
 H                    -0.97397   1.76391   1.39158 
 H                    -2.55367   1.11788   1.75825 
 
 The following ModRedundant input section has been read:
 D      13       3      12       2 F                                           
 

 GradGradGradGradGradGradGradGradGradGradGradGradGradGradGradGradGradGrad
 Berny optimization.
 Initialization pass.
                           ----------------------------
                           !    Initial Parameters    !
                           ! (Angstroms and Degrees)  !
 --------------------------                            --------------------------
 ! Name  Definition              Value          Derivative Info.                !
 --------------------------------------------------------------------------------
 ! R1    R(1,3)                  1.5263         estimate D2E/DX2                !
 ! R2    R(1,6)                  1.4114         estimate D2E/DX2                !
 ! R3    R(1,14)                 1.0874         estimate D2E/DX2                !
 ! R4    R(1,15)                 1.0813         estimate D2E/DX2                !
 ! R5    R(2,9)                  1.5228         estimate D2E/DX2                !
 ! R6    R(2,11)                 1.4057         estimate D2E/DX2                !
 ! R7    R(2,12)                 1.3994         estimate D2E/DX2                !
 ! R8    R(2,16)                 1.0759         estimate D2E/DX2                !
 ! R9    R(3,12)                 1.4253         estimate D2E/DX2                !
 ! R10   R(3,13)                 1.5336         estimate D2E/DX2                !
 ! R11   R(3,17)                 1.0817         estimate D2E/DX2                !
 ! R12   R(4,7)                  1.5286         estimate D2E/DX2                !
 ! R13   R(4,8)                  1.5196         estimate D2E/DX2                !
 ! R14   R(4,18)                 1.0876         estimate D2E/DX2                !
 ! R15   R(4,19)                 1.0864         estimate D2E/DX2                !
 ! R16   R(5,6)                  1.4152         estimate D2E/DX2                !
 ! R17   R(5,10)                 1.5197         estimate D2E/DX2                !
 ! R18   R(5,20)                 1.0815         estimate D2E/DX2                !
 ! R19   R(5,21)                 1.0882         estimate D2E/DX2                !
 ! R20   R(7,9)                  1.5293         estimate D2E/DX2                !
 ! R21   R(7,22)                 1.0868         estimate D2E/DX2                !
 ! R22   R(7,23)                 1.0858         estimate D2E/DX2                !
 ! R23   R(8,11)                 1.4209         estimate D2E/DX2                !
 ! R24   R(8,24)                 1.0814         estimate D2E/DX2                !
 ! R25   R(8,25)                 1.0848         estimate D2E/DX2                !
 ! R26   R(9,26)                 1.0869         estimate D2E/DX2                !
 ! R27   R(9,27)                 1.0847         estimate D2E/DX2                !
 ! R28   R(10,13)                1.5318         estimate D2E/DX2                !
 ! R29   R(10,28)                1.0863         estimate D2E/DX2                !
 ! R30   R(10,29)                1.0839         estimate D2E/DX2                !
 ! R31   R(13,30)                1.0844         estimate D2E/DX2                !
 ! R32   R(13,31)                1.0875         estimate D2E/DX2                !
 ! A1    A(3,1,6)              114.0967         estimate D2E/DX2                !
 ! A2    A(3,1,14)             107.8623         estimate D2E/DX2                !
 ! A3    A(3,1,15)             110.5647         estimate D2E/DX2                !
 ! A4    A(6,1,14)             108.854          estimate D2E/DX2                !
 ! A5    A(6,1,15)             106.9105         estimate D2E/DX2                !
 ! A6    A(14,1,15)            108.4208         estimate D2E/DX2                !
 ! A7    A(9,2,11)             110.8168         estimate D2E/DX2                !
 ! A8    A(9,2,12)             108.8746         estimate D2E/DX2                !
 ! A9    A(9,2,16)             110.5828         estimate D2E/DX2                !
 ! A10   A(11,2,12)            110.8617         estimate D2E/DX2                !
 ! A11   A(11,2,16)            105.1712         estimate D2E/DX2                !
 ! A12   A(12,2,16)            110.5102         estimate D2E/DX2                !
 ! A13   A(1,3,12)             113.8439         estimate D2E/DX2                !
 ! A14   A(1,3,13)             111.1512         estimate D2E/DX2                !
 ! A15   A(1,3,17)             106.2859         estimate D2E/DX2                !
 ! A16   A(12,3,13)            114.6963         estimate D2E/DX2                !
 ! A17   A(12,3,17)            101.9735         estimate D2E/DX2                !
 ! A18   A(13,3,17)            107.9448         estimate D2E/DX2                !
 ! A19   A(7,4,8)              110.1223         estimate D2E/DX2                !
 ! A20   A(7,4,18)             109.7755         estimate D2E/DX2                !
 ! A21   A(7,4,19)             111.1437         estimate D2E/DX2                !
 ! A22   A(8,4,18)             109.2083         estimate D2E/DX2                !
 ! A23   A(8,4,19)             109.0642         estimate D2E/DX2                !
 ! A24   A(18,4,19)            107.4676         estimate D2E/DX2                !
 ! A25   A(6,5,10)             110.6016         estimate D2E/DX2                !
 ! A26   A(6,5,20)             106.4004         estimate D2E/DX2                !
 ! A27   A(6,5,21)             109.0393         estimate D2E/DX2                !
 ! A28   A(10,5,20)            111.5014         estimate D2E/DX2                !
 ! A29   A(10,5,21)            110.8167         estimate D2E/DX2                !
 ! A30   A(20,5,21)            108.3397         estimate D2E/DX2                !
 ! A31   A(1,6,5)              113.2761         estimate D2E/DX2                !
 ! A32   A(4,7,9)              109.5804         estimate D2E/DX2                !
 ! A33   A(4,7,22)             109.6763         estimate D2E/DX2                !
 ! A34   A(4,7,23)             110.6225         estimate D2E/DX2                !
 ! A35   A(9,7,22)             110.1556         estimate D2E/DX2                !
 ! A36   A(9,7,23)             109.8265         estimate D2E/DX2                !
 ! A37   A(22,7,23)            106.9475         estimate D2E/DX2                !
 ! A38   A(4,8,11)             111.4871         estimate D2E/DX2                !
 ! A39   A(4,8,24)             111.4673         estimate D2E/DX2                !
 ! A40   A(4,8,25)             110.6229         estimate D2E/DX2                !
 ! A41   A(11,8,24)            105.5667         estimate D2E/DX2                !
 ! A42   A(11,8,25)            109.44           estimate D2E/DX2                !
 ! A43   A(24,8,25)            108.0777         estimate D2E/DX2                !
 ! A44   A(2,9,7)              112.0546         estimate D2E/DX2                !
 ! A45   A(2,9,26)             107.3625         estimate D2E/DX2                !
 ! A46   A(2,9,27)             108.8391         estimate D2E/DX2                !
 ! A47   A(7,9,26)             109.3536         estimate D2E/DX2                !
 ! A48   A(7,9,27)             111.5535         estimate D2E/DX2                !
 ! A49   A(26,9,27)            107.4882         estimate D2E/DX2                !
 ! A50   A(5,10,13)            110.3091         estimate D2E/DX2                !
 ! A51   A(5,10,28)            109.2676         estimate D2E/DX2                !
 ! A52   A(5,10,29)            109.0239         estimate D2E/DX2                !
 ! A53   A(13,10,28)           109.8717         estimate D2E/DX2                !
 ! A54   A(13,10,29)           111.0798         estimate D2E/DX2                !
 ! A55   A(28,10,29)           107.2196         estimate D2E/DX2                !
 ! A56   A(2,11,8)             115.9981         estimate D2E/DX2                !
 ! A57   A(2,12,3)             122.5815         estimate D2E/DX2                !
 ! A58   A(3,13,10)            113.6951         estimate D2E/DX2                !
 ! A59   A(3,13,30)            109.6254         estimate D2E/DX2                !
 ! A60   A(3,13,31)            106.5716         estimate D2E/DX2                !
 ! A61   A(10,13,30)           111.3905         estimate D2E/DX2                !
 ! A62   A(10,13,31)           108.2453         estimate D2E/DX2                !
 ! A63   A(30,13,31)           106.9697         estimate D2E/DX2                !
 ! D1    D(6,1,3,12)           -85.3364         estimate D2E/DX2                !
 ! D2    D(6,1,3,13)            46.0236         estimate D2E/DX2                !
 ! D3    D(6,1,3,17)           163.23           estimate D2E/DX2                !
 ! D4    D(14,1,3,12)          153.5947         estimate D2E/DX2                !
 ! D5    D(14,1,3,13)          -75.0453         estimate D2E/DX2                !
 ! D6    D(14,1,3,17)           42.1611         estimate D2E/DX2                !
 ! D7    D(15,1,3,12)           35.203          estimate D2E/DX2                !
 ! D8    D(15,1,3,13)          166.5629         estimate D2E/DX2                !
 ! D9    D(15,1,3,17)          -76.2306         estimate D2E/DX2                !
 ! D10   D(3,1,6,5)            -57.979          estimate D2E/DX2                !
 ! D11   D(14,1,6,5)            62.5377         estimate D2E/DX2                !
 ! D12   D(15,1,6,5)           179.4623         estimate D2E/DX2                !
 ! D13   D(11,2,9,7)            52.2735         estimate D2E/DX2                !
 ! D14   D(11,2,9,26)          -67.8126         estimate D2E/DX2                !
 ! D15   D(11,2,9,27)          176.1247         estimate D2E/DX2                !
 ! D16   D(12,2,9,7)           -69.9089         estimate D2E/DX2                !
 ! D17   D(12,2,9,26)          170.0049         estimate D2E/DX2                !
 ! D18   D(12,2,9,27)           53.9423         estimate D2E/DX2                !
 ! D19   D(16,2,9,7)           168.4954         estimate D2E/DX2                !
 ! D20   D(16,2,9,26)           48.4093         estimate D2E/DX2                !
 ! D21   D(16,2,9,27)          -67.6534         estimate D2E/DX2                !
 ! D22   D(9,2,11,8)           -55.4718         estimate D2E/DX2                !
 ! D23   D(12,2,11,8)           65.5433         estimate D2E/DX2                !
 ! D24   D(16,2,11,8)         -174.9958         estimate D2E/DX2                !
 ! D25   D(9,2,12,3)          -144.4639         estimate D2E/DX2                !
 ! D26   D(11,2,12,3)           93.3809         estimate D2E/DX2                !
 ! D27   D(16,2,12,3)          -22.824          estimate D2E/DX2                !
 ! D28   D(1,3,12,2)            58.7609         estimate D2E/DX2                !
 ! D29   D(13,3,12,2)          -70.842          Frozen                          !
 ! D30   D(17,3,12,2)          172.7867         estimate D2E/DX2                !
 ! D31   D(1,3,13,10)          -41.6421         estimate D2E/DX2                !
 ! D32   D(1,3,13,30)         -167.0476         estimate D2E/DX2                !
 ! D33   D(1,3,13,31)           77.5226         estimate D2E/DX2                !
 ! D34   D(12,3,13,10)          89.2778         estimate D2E/DX2                !
 ! D35   D(12,3,13,30)         -36.1276         estimate D2E/DX2                !
 ! D36   D(12,3,13,31)        -151.5575         estimate D2E/DX2                !
 ! D37   D(17,3,13,10)        -157.8328         estimate D2E/DX2                !
 ! D38   D(17,3,13,30)          76.7617         estimate D2E/DX2                !
 ! D39   D(17,3,13,31)         -38.6681         estimate D2E/DX2                !
 ! D40   D(8,4,7,9)             52.806          estimate D2E/DX2                !
 ! D41   D(8,4,7,22)           -68.2309         estimate D2E/DX2                !
 ! D42   D(8,4,7,23)           174.0373         estimate D2E/DX2                !
 ! D43   D(18,4,7,9)           -67.4645         estimate D2E/DX2                !
 ! D44   D(18,4,7,22)          171.4986         estimate D2E/DX2                !
 ! D45   D(18,4,7,23)           53.7668         estimate D2E/DX2                !
 ! D46   D(19,4,7,9)           173.7814         estimate D2E/DX2                !
 ! D47   D(19,4,7,22)           52.7445         estimate D2E/DX2                !
 ! D48   D(19,4,7,23)          -64.9873         estimate D2E/DX2                !
 ! D49   D(7,4,8,11)           -54.6932         estimate D2E/DX2                !
 ! D50   D(7,4,8,24)          -172.3845         estimate D2E/DX2                !
 ! D51   D(7,4,8,25)            67.3332         estimate D2E/DX2                !
 ! D52   D(18,4,8,11)           65.9189         estimate D2E/DX2                !
 ! D53   D(18,4,8,24)          -51.7723         estimate D2E/DX2                !
 ! D54   D(18,4,8,25)         -172.0547         estimate D2E/DX2                !
 ! D55   D(19,4,8,11)         -176.9062         estimate D2E/DX2                !
 ! D56   D(19,4,8,24)           65.4025         estimate D2E/DX2                !
 ! D57   D(19,4,8,25)          -54.8798         estimate D2E/DX2                !
 ! D58   D(10,5,6,1)            62.669          estimate D2E/DX2                !
 ! D59   D(20,5,6,1)          -176.0785         estimate D2E/DX2                !
 ! D60   D(21,5,6,1)           -59.428          estimate D2E/DX2                !
 ! D61   D(6,5,10,13)          -56.1957         estimate D2E/DX2                !
 ! D62   D(6,5,10,28)         -177.0811         estimate D2E/DX2                !
 ! D63   D(6,5,10,29)           66.0311         estimate D2E/DX2                !
 ! D64   D(20,5,10,13)        -174.3783         estimate D2E/DX2                !
 ! D65   D(20,5,10,28)          64.7363         estimate D2E/DX2                !
 ! D66   D(20,5,10,29)         -52.1515         estimate D2E/DX2                !
 ! D67   D(21,5,10,13)          64.8527         estimate D2E/DX2                !
 ! D68   D(21,5,10,28)         -56.0327         estimate D2E/DX2                !
 ! D69   D(21,5,10,29)        -172.9206         estimate D2E/DX2                !
 ! D70   D(4,7,9,2)            -52.212          estimate D2E/DX2                !
 ! D71   D(4,7,9,26)            66.7063         estimate D2E/DX2                !
 ! D72   D(4,7,9,27)          -174.5304         estimate D2E/DX2                !
 ! D73   D(22,7,9,2)            68.5346         estimate D2E/DX2                !
 ! D74   D(22,7,9,26)         -172.5471         estimate D2E/DX2                !
 ! D75   D(22,7,9,27)          -53.7838         estimate D2E/DX2                !
 ! D76   D(23,7,9,2)          -173.9224         estimate D2E/DX2                !
 ! D77   D(23,7,9,26)          -55.0041         estimate D2E/DX2                !
 ! D78   D(23,7,9,27)           63.7592         estimate D2E/DX2                !
 ! D79   D(4,8,11,2)            57.5308         estimate D2E/DX2                !
 ! D80   D(24,8,11,2)          178.7252         estimate D2E/DX2                !
 ! D81   D(25,8,11,2)          -65.176          estimate D2E/DX2                !
 ! D82   D(5,10,13,3)           47.1081         estimate D2E/DX2                !
 ! D83   D(5,10,13,30)         171.5683         estimate D2E/DX2                !
 ! D84   D(5,10,13,31)         -71.0974         estimate D2E/DX2                !
 ! D85   D(28,10,13,3)         167.632          estimate D2E/DX2                !
 ! D86   D(28,10,13,30)        -67.9079         estimate D2E/DX2                !
 ! D87   D(28,10,13,31)         49.4264         estimate D2E/DX2                !
 ! D88   D(29,10,13,3)         -73.8996         estimate D2E/DX2                !
 ! D89   D(29,10,13,30)         50.5605         estimate D2E/DX2                !
 ! D90   D(29,10,13,31)        167.8948         estimate D2E/DX2                !
 --------------------------------------------------------------------------------
 Trust Radius=3.00D-01 FncErr=1.00D-07 GrdErr=1.00D-06 EigMax=2.50D+02 EigMin=1.00D-04
 Number of steps in this run=    186 maximum allowed number of steps=    186.
 GradGradGradGradGradGradGradGradGradGradGradGradGradGradGradGradGradGrad

                          Input orientation:                          
 ---------------------------------------------------------------------
 Center     Atomic      Atomic             Coordinates (Angstroms)
 Number     Number       Type             X           Y           Z
 ---------------------------------------------------------------------
      1          6           0       -2.050603   -1.368119    0.427090
      2          6           0        0.724539   -0.360747   -0.428585
      3          6           0       -1.166560   -0.371449    1.171809
      4          6           0        3.458009    0.547181   -0.099199
      5          6           0       -3.130682    0.286590   -0.864610
      6          8           0       -2.434581   -0.945525   -0.863614
      7          6           0        3.112369   -0.910168    0.206120
      8          6           0        2.233876    1.426454    0.094645
      9          6           0        1.887117   -1.327728   -0.608184
     10          6           0       -2.243408    1.402471   -0.338222
     11          8           0        1.132520    0.961968   -0.673566
     12          8           0        0.220983   -0.494488    0.870160
     13          6           0       -1.722817    1.053289    1.059481
     14          1           0       -2.944839   -1.531624    1.023851
     15          1           0       -1.540583   -2.314274    0.309499
     16          1           0       -0.045832   -0.556643   -1.153610
     17          1           0       -1.196040   -0.659522    2.214017
     18          1           0        3.803294    0.635989   -1.126744
     19          1           0        4.256695    0.903787    0.545178
     20          1           0       -3.429902    0.467436   -1.888034
     21          1           0       -4.028561    0.187553   -0.257750
     22          1           0        2.912647   -1.024085    1.268340
     23          1           0        3.950057   -1.559375   -0.029820
     24          1           0        2.416003    2.438051   -0.241356
     25          1           0        1.953056    1.464966    1.141713
     26          1           0        2.142313   -1.335459   -1.664636
     27          1           0        1.555645   -2.326616   -0.345594
     28          1           0       -2.813933    2.326128   -0.299669
     29          1           0       -1.424814    1.559625   -1.031124
     30          1           0       -0.973972    1.763905    1.391575
     31          1           0       -2.553666    1.117877    1.758247
 ---------------------------------------------------------------------
                    Distance matrix (angstroms):
                    1          2          3          4          5
     1  C    0.000000
     2  C    3.073824   0.000000
     3  C    1.526267   2.477424   0.000000
     4  C    5.855780   2.899084   4.883235   0.000000
     5  C    2.360746   3.933433   2.904788   6.638118   0.000000
     6  O    1.411362   3.242107   2.465844   6.126591   1.415155
     7  C    5.187950   2.531096   4.419503   1.528579   6.446269
     8  C    5.126102   2.397072   3.994459   1.519605   5.567580
     9  C    4.071739   1.522792   3.661665   2.498410   5.277318
    10  C    2.880806   3.453377   2.566435   5.770165   1.519714
    11  O    4.095488   1.405717   3.235611   2.431017   4.320593
    12  O    2.473792   1.399355   1.425274   3.535968   3.853981
    13  C    2.524001   3.194275   1.533596   5.332883   2.504404
    14  H    1.087435   4.116413   2.128420   6.824891   2.628065
    15  H    1.081276   3.080879   2.158249   5.774156   3.266717
    16  H    2.678845   1.075875   2.588030   3.821925   3.211053
    17  H    2.103686   3.280432   1.081690   5.335473   3.757115
    18  H    6.379574   3.310535   5.567560   1.087638   6.947720
    19  H    6.705036   3.876001   5.606299   1.086411   7.545977
    20  H    3.260602   4.480542   3.897318   7.116854   1.081496
    21  H    2.607957   4.787669   3.247641   7.496879   1.088244
    22  H    5.045782   2.847348   4.132213   2.153244   6.541343
    23  H    6.021069   3.464057   5.388400   2.164371   7.364871
    24  H    5.906295   3.275573   4.767083   2.163648   5.981885
    25  H    4.956444   2.703390   3.620128   2.155708   5.590912
    26  H    4.685822   2.118483   4.463561   2.779565   5.574546
    27  H    3.810614   2.135946   3.679075   3.455200   5.390722
    28  H    3.841655   4.444851   3.486547   6.522430   2.139907
    29  H    3.330118   2.944588   2.940860   5.073016   2.135025
    30  H    3.449484   3.272930   2.155255   4.831695   3.453148
    31  H    2.864477   4.208942   2.118033   6.317914   2.811292
                    6          7          8          9         10
     6  O    0.000000
     7  C    5.649269   0.000000
     8  C    5.323442   2.498796   0.000000
     9  C    4.346078   1.529278   2.863517   0.000000
    10  C    2.413642   5.859092   4.498224   4.958639   0.000000
    11  O    4.049550   2.863310   1.420873   2.411721   3.421022
    12  O    3.203346   2.995639   2.888456   2.378191   3.336445
    13  C    2.863592   5.287950   4.089692   4.634865   1.531834
    14  H    2.041176   6.143668   6.035954   5.104205   3.310009
    15  H    2.012188   4.861292   5.318435   3.683007   3.837668
    16  H    2.437509   3.456599   3.269233   2.151361   3.054886
    17  H    3.329804   4.759922   4.539533   4.232868   3.444230
    18  H    6.440614   2.155111   2.140023   2.792279   6.145882
    19  H    7.083631   2.171376   2.137278   3.453231   6.578786
    20  H    2.009119   7.006039   6.076933   5.755981   2.164249
    21  H    2.047366   7.239686   6.393526   6.116709   2.160850
    22  H    5.757104   1.086820   2.800613   2.159920   5.920652
    23  H    6.468047   1.085753   3.446149   2.154968   6.872165
    24  H    5.946760   3.449019   1.081386   3.820389   4.774088
    25  H    5.392881   2.803677   1.084755   3.296305   4.450216
    26  H    4.662794   2.149793   3.275915   1.086865   5.337620
    27  H    4.254135   2.175799   3.839185   1.084714   5.323434
    28  H    3.341505   6.771299   5.142497   5.962023   1.086337
    29  H    2.706190   5.311937   3.830288   4.414133   1.083931
    30  H    3.815792   5.025351   3.476520   4.662946   2.175845
    31  H    3.338557   6.214983   5.077731   5.594777   2.138326
                   11         12         13         14         15
    11  O    0.000000
    12  O    2.309817   0.000000
    13  C    3.341368   2.491950   0.000000
    14  H    5.071891   3.334921   2.859437   0.000000
    15  H    4.341159   2.594046   3.454875   1.759197   0.000000
    16  H    1.981195   2.042229   3.209662   3.754486   2.732075
    17  H    4.048402   1.959883   2.131706   2.288090   2.546390
    18  H    2.728492   4.254240   5.957485   7.406815   6.270875
    19  H    3.353981   4.283428   6.003451   7.617247   6.634749
    20  H    4.747124   4.675670   3.456184   3.565193   4.017037
    21  H    5.235397   4.449268   2.793036   2.402608   3.573646
    22  H    3.299130   2.772016   5.083958   5.884515   4.734472
    23  H    3.835374   3.981198   6.339881   6.974997   5.552669
    24  H    2.003236   3.827971   4.554072   6.789528   6.208269
    25  H    2.054635   2.629311   3.699768   5.743067   5.213516
    26  H    2.698161   3.289974   5.297750   5.757218   4.291737
    27  H    3.331874   2.572173   4.913889   4.770927   3.164795
    28  H    4.192281   4.305240   2.158227   4.080575   4.850344
    29  H    2.650471   3.246985   2.171592   4.011137   4.100947
    30  H    3.056995   2.607706   1.084449   3.857467   4.257168
    31  H    4.418822   3.329729   1.087546   2.777086   3.860682
                   16         17         18         19         20
    16  H    0.000000
    17  H    3.560123   0.000000
    18  H    4.029747   6.150803   0.000000
    19  H    4.850822   5.912806   1.752887   0.000000
    20  H    3.611100   4.804893   7.275101   8.074323   0.000000
    21  H    4.149521   3.853614   7.892667   8.354828   1.759134
    22  H    3.851875   4.231846   3.047216   2.458886   7.239838
    23  H    4.270305   5.685671   2.458537   2.547904   7.875577
    24  H    3.982591   5.354500   2.440474   2.522052   6.385098
    25  H    3.653897   3.947162   3.042446   2.444898   6.257050
    26  H    2.378167   5.161922   2.633399   3.790529   5.860880
    27  H    2.520005   4.111275   3.799888   4.304027   5.919588
    28  H    4.086804   4.224962   6.879558   7.261584   2.521321
    29  H    2.528870   3.938006   5.309930   5.932486   2.438760
    30  H    3.567121   2.568798   5.516919   5.368060   4.297471
    31  H    4.191916   2.282547   6.997595   6.920866   3.806078
                   21         22         23         24         25
    21  H    0.000000
    22  H    7.209534   0.000000
    23  H    8.170805   1.745845   0.000000
    24  H    6.826230   3.809491   4.286897   0.000000
    25  H    6.274554   2.670622   3.808824   1.753309   0.000000
    26  H    6.509883   3.048396   2.447591   4.042278   3.969105
    27  H    6.124714   2.478472   2.534084   4.842843   4.092201
    28  H    2.459793   6.817353   7.805223   5.231458   5.054045
    29  H    3.043056   5.547672   6.294443   4.018363   4.017485
    30  H    3.812568   4.784755   6.108242   3.822678   2.952844
    31  H    2.665532   5.891399   7.256947   5.517144   4.561922
                   26         27         28         29         30
    26  H    0.000000
    27  H    1.751126   0.000000
    28  H    6.311476   6.383052   0.000000
    29  H    4.637590   4.945296   1.747056   0.000000
    30  H    5.353290   5.113617   2.561612   2.472743   0.000000
    31  H    6.307710   5.759958   2.400547   3.041388   1.745633
                   31
    31  H    0.000000
 Stoichiometry    C10H18O3
 Framework group  C1[X(C10H18O3)]
 Deg. of freedom    87
 Full point group                 C1      NOp   1
 Largest Abelian subgroup         C1      NOp   1
 Largest concise Abelian subgroup C1      NOp   1
                         Standard orientation:                         
 ---------------------------------------------------------------------
 Center     Atomic      Atomic             Coordinates (Angstroms)
 Number     Number       Type             X           Y           Z
 ---------------------------------------------------------------------
      1          6           0       -2.050603   -1.368119    0.427090
      2          6           0        0.724539   -0.360747   -0.428585
      3          6           0       -1.166560   -0.371449    1.171809
      4          6           0        3.458009    0.547181   -0.099199
      5          6           0       -3.130682    0.286590   -0.864610
      6          8           0       -2.434581   -0.945525   -0.863614
      7          6           0        3.112369   -0.910168    0.206120
      8          6           0        2.233876    1.426454    0.094645
      9          6           0        1.887117   -1.327728   -0.608184
     10          6           0       -2.243408    1.402471   -0.338222
     11          8           0        1.132520    0.961968   -0.673566
     12          8           0        0.220983   -0.494488    0.870160
     13          6           0       -1.722817    1.053289    1.059481
     14          1           0       -2.944839   -1.531624    1.023851
     15          1           0       -1.540583   -2.314274    0.309499
     16          1           0       -0.045832   -0.556643   -1.153610
     17          1           0       -1.196040   -0.659522    2.214017
     18          1           0        3.803294    0.635989   -1.126744
     19          1           0        4.256695    0.903787    0.545178
     20          1           0       -3.429902    0.467436   -1.888034
     21          1           0       -4.028561    0.187553   -0.257750
     22          1           0        2.912647   -1.024085    1.268340
     23          1           0        3.950057   -1.559375   -0.029820
     24          1           0        2.416003    2.438051   -0.241356
     25          1           0        1.953056    1.464966    1.141713
     26          1           0        2.142313   -1.335459   -1.664636
     27          1           0        1.555645   -2.326616   -0.345594
     28          1           0       -2.813933    2.326128   -0.299669
     29          1           0       -1.424814    1.559625   -1.031124
     30          1           0       -0.973972    1.763905    1.391575
     31          1           0       -2.553666    1.117877    1.758247
 ---------------------------------------------------------------------
 Rotational constants (GHZ):           1.6692268           0.5036576           0.4618241
 Standard basis: 6-311++G(2d,2p) (5D, 7F)
 There are   557 symmetry adapted cartesian basis functions of A   symmetry.
 There are   531 symmetry adapted basis functions of A   symmetry.
   531 basis functions,   762 primitive gaussians,   557 cartesian basis functions
    51 alpha electrons       51 beta electrons
       nuclear repulsion energy       915.8471310540 Hartrees.
 NAtoms=   31 NActive=   31 NUniq=   31 SFac= 1.00D+00 NAtFMM=   60 NAOKFM=F Big=F
 Integral buffers will be    131072 words long.
 Raffenetti 2 integral format.
 Two-electron integral symmetry is turned on.
 ------------------------------------------------------------------------------
 Polarizable Continuum Model (PCM)
 =================================
 Model                : PCM.
 Atomic radii         : SMD-Coulomb.
 Polarization charges : Total charges.
 Charge compensation  : None.
 Solution method      : On-the-fly selection.
 Cavity type          : VdW (van der Waals Surface) (Alpha=1.000).
 Cavity algorithm     : GePol (No added spheres)
                        Default sphere list used, NSphG=   31.
                        Lebedev-Laikov grids with approx.  5.0 points / Ang**2.
                        Smoothing algorithm: York/Karplus (Gamma=1.0000).
                        Polarization charges: spherical gaussians, with
                                              point-specific exponents (IZeta= 3).
                        Self-potential: point-specific (ISelfS= 7).
                        Self-field    : sphere-specific E.n sum rule (ISelfD= 2).
 1st derivatives      : Analytical E(r).r(x)/FMM algorithm (CHGder, D1EAlg=3).
                        Cavity 1st derivative terms included.
 Solvent              : Water, Eps=  78.355300 Eps(inf)=   1.777849
 ------------------------------------------------------------------------------
 ------------------------------------------------------------------------------
 Atomic radii for non-electrostatic terms: SMD-CDS.
 ------------------------------------------------------------------------------
 Nuclear repulsion after PCM non-electrostatic terms =      915.8533994606 Hartrees.
 One-electron integrals computed using PRISM.
 NBasis=   531 RedAO= T EigKep=  4.09D-06  NBF=   531
 NBsUse=   531 1.00D-06 EigRej= -1.00D+00 NBFU=   531
 ExpMin= 3.60D-02 ExpMax= 8.59D+03 ExpMxC= 1.30D+03 IAcc=3 IRadAn=         5 AccDes= 0.00D+00
 Harris functional with IExCor= 1009 and IRadAn=       5 diagonalized for initial guess.
 HarFok:  IExCor= 1009 AccDes= 0.00D+00 IRadAn=         5 IDoV= 1 UseB2=F ITyADJ=14
 ICtDFT=  3500011 ScaDFX=  1.000000  1.000000  1.000000  1.000000
 FoFCou: FMM=F IPFlag=           0 FMFlag=      100000 FMFlg1=           0
         NFxFlg=           0 DoJE=T BraDBF=F KetDBF=T FulRan=T
         wScrn=  0.000000 ICntrl=       500 IOpCl=  0 I1Cent=   200000004 NGrid=           0
         NMat0=    1 NMatS0=      1 NMatT0=    0 NMatD0=    1 NMtDS0=    0 NMtDT0=    0
 Petite list used in FoFCou.
 Requested convergence on RMS density matrix=1.00D-08 within 128 cycles.
 Requested convergence on MAX density matrix=1.00D-06.
 Requested convergence on             energy=1.00D-06.
 No special actions if energy rises.
 Inv3:  Mode=1 IEnd=    12216972.
 Iteration    1 A*A^-1 deviation from unit magnitude is 4.44D-15 for   2014.
 Iteration    1 A*A^-1 deviation from orthogonality  is 1.80D-15 for   1697    267.
 Iteration    1 A^-1*A deviation from unit magnitude is 4.44D-15 for   2014.
 Iteration    1 A^-1*A deviation from orthogonality  is 1.61D-14 for   1332   1293.
 Error on total polarization charges =  0.05987
 SCF Done:  E(RM062X) =  -617.499495205     A.U. after   13 cycles
            NFock= 13  Conv=0.17D-08     -V/T= 2.0035
 SMD-CDS (non-electrostatic) energy       (kcal/mol) =       3.93
 (included in total energy above)

 **********************************************************************

            Population analysis using the SCF Density.

 **********************************************************************

 Orbital symmetries:
       Occupied  (A) (A) (A) (A) (A) (A) (A) (A) (A) (A) (A) (A)
                 (A) (A) (A) (A) (A) (A) (A) (A) (A) (A) (A) (A)
                 (A) (A) (A) (A) (A) (A) (A) (A) (A) (A) (A) (A)
                 (A) (A) (A) (A) (A) (A) (A) (A) (A) (A) (A) (A)
                 (A) (A) (A)
       Virtual   (A) (A) (A) (A) (A) (A) (A) (A) (A) (A) (A) (A)
                 (A) (A) (A) (A) (A) (A) (A) (A) (A) (A) (A) (A)
                 (A) (A) (A) (A) (A) (A) (A) (A) (A) (A) (A) (A)
                 (A) (A) (A) (A) (A) (A) (A) (A) (A) (A) (A) (A)
                 (A) (A) (A) (A) (A) (A) (A) (A) (A) (A) (A) (A)
                 (A) (A) (A) (A) (A) (A) (A) (A) (A) (A) (A) (A)
                 (A) (A) (A) (A) (A) (A) (A) (A) (A) (A) (A) (A)
                 (A) (A) (A) (A) (A) (A) (A) (A) (A) (A) (A) (A)
                 (A) (A) (A) (A) (A) (A) (A) (A) (A) (A) (A) (A)
                 (A) (A) (A) (A) (A) (A) (A) (A) (A) (A) (A) (A)
                 (A) (A) (A) (A) (A) (A) (A) (A) (A) (A) (A) (A)
                 (A) (A) (A) (A) (A) (A) (A) (A) (A) (A) (A) (A)
                 (A) (A) (A) (A) (A) (A) (A) (A) (A) (A) (A) (A)
                 (A) (A) (A) (A) (A) (A) (A) (A) (A) (A) (A) (A)
                 (A) (A) (A) (A) (A) (A) (A) (A) (A) (A) (A) (A)
                 (A) (A) (A) (A) (A) (A) (A) (A) (A) (A) (A) (A)
                 (A) (A) (A) (A) (A) (A) (A) (A) (A) (A) (A) (A)
                 (A) (A) (A) (A) (A) (A) (A) (A) (A) (A) (A) (A)
                 (A) (A) (A) (A) (A) (A) (A) (A) (A) (A) (A) (A)
                 (A) (A) (A) (A) (A) (A) (A) (A) (A) (A) (A) (A)
                 (A) (A) (A) (A) (A) (A) (A) (A) (A) (A) (A) (A)
                 (A) (A) (A) (A) (A) (A) (A) (A) (A) (A) (A) (A)
                 (A) (A) (A) (A) (A) (A) (A) (A) (A) (A) (A) (A)
                 (A) (A) (A) (A) (A) (A) (A) (A) (A) (A) (A) (A)
                 (A) (A) (A) (A) (A) (A) (A) (A) (A) (A) (A) (A)
                 (A) (A) (A) (A) (A) (A) (A) (A) (A) (A) (A) (A)
                 (A) (A) (A) (A) (A) (A) (A) (A) (A) (A) (A) (A)
                 (A) (A) (A) (A) (A) (A) (A) (A) (A) (A) (A) (A)
                 (A) (A) (A) (A) (A) (A) (A) (A) (A) (A) (A) (A)
                 (A) (A) (A) (A) (A) (A) (A) (A) (A) (A) (A) (A)
                 (A) (A) (A) (A) (A) (A) (A) (A) (A) (A) (A) (A)
                 (A) (A) (A) (A) (A) (A) (A) (A) (A) (A) (A) (A)
                 (A) (A) (A) (A) (A) (A) (A) (A) (A) (A) (A) (A)
                 (A) (A) (A) (A) (A) (A) (A) (A) (A) (A) (A) (A)
                 (A) (A) (A) (A) (A) (A) (A) (A) (A) (A) (A) (A)
                 (A) (A) (A) (A) (A) (A) (A) (A) (A) (A) (A) (A)
                 (A) (A) (A) (A) (A) (A) (A) (A) (A) (A) (A) (A)
                 (A) (A) (A) (A) (A) (A) (A) (A) (A) (A) (A) (A)
                 (A) (A) (A) (A) (A) (A) (A) (A) (A) (A) (A) (A)
                 (A) (A) (A) (A) (A) (A) (A) (A) (A) (A) (A) (A)
 The electronic state is 1-A.
 Alpha  occ. eigenvalues --  -19.62683 -19.62630 -19.62608 -10.62736 -10.58442
 Alpha  occ. eigenvalues --  -10.57433 -10.57103 -10.57010 -10.52495 -10.52235
 Alpha  occ. eigenvalues --  -10.52161 -10.52093 -10.52021  -1.19733  -1.16555
 Alpha  occ. eigenvalues --   -1.13216  -0.90193  -0.88926  -0.86985  -0.84400
 Alpha  occ. eigenvalues --   -0.74794  -0.73700  -0.72833  -0.70712  -0.66079
 Alpha  occ. eigenvalues --   -0.62114  -0.59098  -0.58357  -0.56735  -0.54843
 Alpha  occ. eigenvalues --   -0.54464  -0.52532  -0.51535  -0.50623  -0.49931
 Alpha  occ. eigenvalues --   -0.48344  -0.46081  -0.45467  -0.45093  -0.44853
 Alpha  occ. eigenvalues --   -0.43031  -0.42504  -0.40692  -0.39665  -0.39045
 Alpha  occ. eigenvalues --   -0.37653  -0.37158  -0.36421  -0.33915  -0.32895
 Alpha  occ. eigenvalues --   -0.31216
 Alpha virt. eigenvalues --    0.00273   0.01215   0.01387   0.01609   0.02763
 Alpha virt. eigenvalues --    0.03007   0.03109   0.03720   0.03898   0.05095
 Alpha virt. eigenvalues --    0.05190   0.05525   0.05917   0.06130   0.07676
 Alpha virt. eigenvalues --    0.08034   0.08615   0.08689   0.09104   0.10062
 Alpha virt. eigenvalues --    0.10188   0.10942   0.11179   0.11916   0.12425
 Alpha virt. eigenvalues --    0.13080   0.13209   0.13544   0.13987   0.14166
 Alpha virt. eigenvalues --    0.14250   0.14412   0.15008   0.15223   0.15483
 Alpha virt. eigenvalues --    0.15625   0.15866   0.16273   0.16357   0.16992
 Alpha virt. eigenvalues --    0.17047   0.17359   0.17825   0.17962   0.18428
 Alpha virt. eigenvalues --    0.18518   0.18736   0.19604   0.19921   0.20097
 Alpha virt. eigenvalues --    0.20458   0.20611   0.21096   0.21193   0.21531
 Alpha virt. eigenvalues --    0.22693   0.23023   0.24075   0.24532   0.24974
 Alpha virt. eigenvalues --    0.25376   0.25719   0.26811   0.27136   0.27718
 Alpha virt. eigenvalues --    0.28109   0.28765   0.29068   0.29697   0.29717
 Alpha virt. eigenvalues --    0.30522   0.30675   0.32010   0.32209   0.32519
 Alpha virt. eigenvalues --    0.33123   0.33986   0.34293   0.35351   0.35594
 Alpha virt. eigenvalues --    0.35799   0.36113   0.36371   0.36638   0.36878
 Alpha virt. eigenvalues --    0.37388   0.37518   0.38017   0.38458   0.38622
 Alpha virt. eigenvalues --    0.39256   0.39800   0.40272   0.40906   0.41416
 Alpha virt. eigenvalues --    0.41970   0.42727   0.43716   0.44165   0.45734
 Alpha virt. eigenvalues --    0.47268   0.48139   0.49781   0.50507   0.51275
 Alpha virt. eigenvalues --    0.52806   0.53378   0.54349   0.55431   0.56657
 Alpha virt. eigenvalues --    0.57272   0.57904   0.58736   0.59451   0.60593
 Alpha virt. eigenvalues --    0.60750   0.61029   0.61126   0.61986   0.62674
 Alpha virt. eigenvalues --    0.63009   0.63332   0.63953   0.64585   0.65105
 Alpha virt. eigenvalues --    0.65999   0.66278   0.67644   0.67802   0.68002
 Alpha virt. eigenvalues --    0.68455   0.69539   0.70106   0.70860   0.71223
 Alpha virt. eigenvalues --    0.71527   0.72295   0.73275   0.73700   0.73771
 Alpha virt. eigenvalues --    0.74568   0.74893   0.75358   0.76218   0.77042
 Alpha virt. eigenvalues --    0.77470   0.77813   0.78384   0.78960   0.79800
 Alpha virt. eigenvalues --    0.80833   0.82511   0.84436   0.85931   0.86299
 Alpha virt. eigenvalues --    0.87356   0.87980   0.88757   0.89546   0.89996
 Alpha virt. eigenvalues --    0.90887   0.94525   0.95304   0.96127   0.96690
 Alpha virt. eigenvalues --    0.97061   0.99588   1.01025   1.02130   1.02283
 Alpha virt. eigenvalues --    1.03961   1.04305   1.05130   1.05978   1.07071
 Alpha virt. eigenvalues --    1.07347   1.09677   1.10510   1.11417   1.12707
 Alpha virt. eigenvalues --    1.14196   1.15298   1.16294   1.16793   1.17301
 Alpha virt. eigenvalues --    1.17554   1.18254   1.19144   1.20525   1.21348
 Alpha virt. eigenvalues --    1.21399   1.22148   1.22515   1.24495   1.25023
 Alpha virt. eigenvalues --    1.25759   1.26529   1.27141   1.27750   1.27920
 Alpha virt. eigenvalues --    1.28358   1.29794   1.31142   1.32720   1.33147
 Alpha virt. eigenvalues --    1.33550   1.34164   1.35013   1.35399   1.35989
 Alpha virt. eigenvalues --    1.37174   1.37716   1.38453   1.39273   1.39668
 Alpha virt. eigenvalues --    1.39959   1.40457   1.41018   1.41588   1.41730
 Alpha virt. eigenvalues --    1.44142   1.45079   1.45401   1.45560   1.46192
 Alpha virt. eigenvalues --    1.46438   1.47323   1.48209   1.48598   1.49374
 Alpha virt. eigenvalues --    1.50109   1.51186   1.52235   1.52524   1.53099
 Alpha virt. eigenvalues --    1.54185   1.54793   1.55193   1.55901   1.57017
 Alpha virt. eigenvalues --    1.57947   1.58449   1.58780   1.59577   1.59911
 Alpha virt. eigenvalues --    1.60847   1.61143   1.61727   1.62318   1.63455
 Alpha virt. eigenvalues --    1.64685   1.65655   1.66068   1.66421   1.68711
 Alpha virt. eigenvalues --    1.69123   1.70245   1.71147   1.71447   1.72910
 Alpha virt. eigenvalues --    1.74637   1.75723   1.77318   1.78045   1.78670
 Alpha virt. eigenvalues --    1.79458   1.80456   1.81936   1.84331   1.85348
 Alpha virt. eigenvalues --    1.87049   1.89989   1.90484   1.94675   1.96561
 Alpha virt. eigenvalues --    2.02376   2.06963   2.14064   2.17642   2.21854
 Alpha virt. eigenvalues --    2.23306   2.25605   2.29999   2.34500   2.40146
 Alpha virt. eigenvalues --    2.41620   2.43145   2.46633   2.48315   2.54631
 Alpha virt. eigenvalues --    2.61375   2.77037   2.79219   2.81353   2.82598
 Alpha virt. eigenvalues --    2.86829   2.88878   2.93242   2.94289   2.95362
 Alpha virt. eigenvalues --    2.95812   2.97319   2.98582   3.01427   3.04210
 Alpha virt. eigenvalues --    3.07781   3.08981   3.09934   3.10915   3.12585
 Alpha virt. eigenvalues --    3.13962   3.16064   3.16906   3.21074   3.22054
 Alpha virt. eigenvalues --    3.26909   3.28721   3.30287   3.34461   3.34887
 Alpha virt. eigenvalues --    3.35768   3.36756   3.38927   3.41474   3.41987
 Alpha virt. eigenvalues --    3.42819   3.45048   3.45872   3.46706   3.47395
 Alpha virt. eigenvalues --    3.48653   3.49858   3.50417   3.51965   3.53632
 Alpha virt. eigenvalues --    3.54242   3.55073   3.55850   3.56162   3.56605
 Alpha virt. eigenvalues --    3.57209   3.57444   3.58618   3.60131   3.60636
 Alpha virt. eigenvalues --    3.60772   3.61531   3.63464   3.65313   3.65797
 Alpha virt. eigenvalues --    3.67303   3.68081   3.69215   3.70572   3.70928
 Alpha virt. eigenvalues --    3.71647   3.72708   3.73762   3.74431   3.75465
 Alpha virt. eigenvalues --    3.75823   3.76209   3.76652   3.77898   3.78642
 Alpha virt. eigenvalues --    3.79852   3.81195   3.83459   3.83769   3.85956
 Alpha virt. eigenvalues --    3.87019   3.87247   3.90563   3.91035   3.91713
 Alpha virt. eigenvalues --    3.93363   3.94214   3.96202   3.96790   4.00117
 Alpha virt. eigenvalues --    4.00830   4.01904   4.02638   4.03877   4.05512
 Alpha virt. eigenvalues --    4.06417   4.07056   4.07802   4.08256   4.08982
 Alpha virt. eigenvalues --    4.09552   4.09663   4.11023   4.11664   4.12560
 Alpha virt. eigenvalues --    4.12735   4.13703   4.14578   4.15796   4.16591
 Alpha virt. eigenvalues --    4.17720   4.19135   4.19401   4.19843   4.20982
 Alpha virt. eigenvalues --    4.22284   4.24130   4.26005   4.27457   4.28644
 Alpha virt. eigenvalues --    4.29763   4.30641   4.31106   4.32906   4.33352
 Alpha virt. eigenvalues --    4.34425   4.35154   4.37209   4.38495   4.40283
 Alpha virt. eigenvalues --    4.42443   4.43524   4.45789   4.46975   4.48658
 Alpha virt. eigenvalues --    4.58567   4.61479   4.73951   4.76189   4.81199
 Alpha virt. eigenvalues --    4.86430   4.94023   4.96348   5.01688   5.04520
 Alpha virt. eigenvalues --    5.07678   5.08076   5.08633   5.09874   5.12515
 Alpha virt. eigenvalues --    5.12794   5.14749   5.16735   5.35422   5.40334
 Alpha virt. eigenvalues --    5.41963   5.59622   5.61817   5.66651   5.85508
 Alpha virt. eigenvalues --    5.88251   6.01137   7.01409   7.04248   7.06892
 Alpha virt. eigenvalues --    7.07654   7.11263   7.12224   7.14357   7.18658
 Alpha virt. eigenvalues --    7.28253   7.37745   7.43200   7.46973   7.53498
 Alpha virt. eigenvalues --    7.54209   7.63648  23.97637  23.98287  24.06740
 Alpha virt. eigenvalues --   24.09166  24.10039  24.12543  24.14025  24.15935
 Alpha virt. eigenvalues --   24.16608  24.20836  50.16570  50.18987  50.27015
          Condensed to atoms (all electrons):
               1          2          3          4          5          6
     1  C    6.283452   0.040922  -1.054845  -0.011723  -0.210750   0.099616
     2  C    0.040922   7.801538  -0.649939   0.443071   0.066604   0.001392
     3  C   -1.054845  -0.649939   7.840979  -0.029988   0.123767   0.069737
     4  C   -0.011723   0.443071  -0.029988   5.660634   0.001565   0.001089
     5  C   -0.210750   0.066604   0.123767   0.001565   5.584425   0.077160
     6  O    0.099616   0.001392   0.069737   0.001089   0.077160   8.357905
     7  C   -0.004256  -0.248697   0.076141   0.015821   0.002277  -0.003198
     8  C    0.011097  -0.439708   0.059562  -0.057134  -0.007655   0.002812
     9  C   -0.004705  -1.671613   0.005726  -0.288114   0.012200   0.000522
    10  C   -0.050633  -0.070449   0.176734   0.004418  -0.112174   0.035245
    11  O   -0.011716   0.152644   0.029746  -0.069638  -0.016163   0.000096
    12  O    0.018143   0.278940  -0.095525  -0.006943  -0.012341  -0.014651
    13  C    0.562872   0.169689  -1.228521   0.002092   0.037259  -0.053950
    14  H    0.439404   0.001408   0.008176  -0.000791  -0.011737  -0.049995
    15  H    0.418855   0.034089  -0.058481   0.003125   0.012446  -0.072174
    16  H   -0.037676   0.500352   0.000297   0.027162   0.005950  -0.006845
    17  H   -0.030973  -0.022689   0.481573  -0.002130  -0.012308   0.004633
    18  H   -0.001618  -0.029117  -0.000998   0.488288  -0.000221   0.000038
    19  H    0.000541   0.018326   0.002637   0.446116  -0.000147   0.000033
    20  H   -0.012929   0.007626   0.015116  -0.000351   0.450989  -0.066702
    21  H   -0.042203  -0.008919   0.089856   0.000113   0.458078  -0.056627
    22  H    0.000584  -0.055002   0.000804  -0.073546   0.000887  -0.000259
    23  H   -0.000645   0.005595   0.003474  -0.015091   0.000019  -0.000060
    24  H    0.002484   0.006419  -0.000662  -0.030603  -0.000137  -0.000211
    25  H   -0.003054  -0.043476  -0.015854  -0.059751   0.001711   0.000020
    26  H    0.005184  -0.151822  -0.006115  -0.022127   0.002977  -0.000997
    27  H   -0.003946  -0.029699   0.018097  -0.007737  -0.000991   0.001326
    28  H   -0.006629   0.012706   0.011612   0.000317  -0.016182   0.009553
    29  H    0.025273  -0.052475   0.027262  -0.001545  -0.094328  -0.008529
    30  H   -0.008029   0.005126  -0.034796  -0.001118  -0.003398  -0.001754
    31  H   -0.003626  -0.007732  -0.065252  -0.000117  -0.020055   0.000196
               7          8          9         10         11         12
     1  C   -0.004256   0.011097  -0.004705  -0.050633  -0.011716   0.018143
     2  C   -0.248697  -0.439708  -1.671613  -0.070449   0.152644   0.278940
     3  C    0.076141   0.059562   0.005726   0.176734   0.029746  -0.095525
     4  C    0.015821  -0.057134  -0.288114   0.004418  -0.069638  -0.006943
     5  C    0.002277  -0.007655   0.012200  -0.112174  -0.016163  -0.012341
     6  O   -0.003198   0.002812   0.000522   0.035245   0.000096  -0.014651
     7  C    5.695392  -0.037444   0.007531  -0.006862   0.014801  -0.027974
     8  C   -0.037444   5.542906   0.172050   0.020183   0.061185  -0.003231
     9  C    0.007531   0.172050   7.628772  -0.179198   0.005073  -0.083845
    10  C   -0.006862   0.020183  -0.179198   5.808978   0.003388  -0.028859
    11  O    0.014801   0.061185   0.005073   0.003388   8.316838  -0.068587
    12  O   -0.027974  -0.003231  -0.083845  -0.028859  -0.068587   8.378476
    13  C    0.000103  -0.018014   0.121429  -0.318569   0.034541   0.067278
    14  H    0.000511   0.000561   0.004103   0.016179  -0.000479  -0.006081
    15  H   -0.003499  -0.001237  -0.021832   0.004889   0.000912   0.012638
    16  H   -0.034398  -0.039650  -0.060180  -0.006713  -0.068138  -0.014390
    17  H    0.008437   0.000477  -0.001572   0.009005   0.006732  -0.052974
    18  H   -0.013136  -0.085662   0.010455   0.000090   0.002533   0.000280
    19  H   -0.054092  -0.037206  -0.012217   0.000588   0.008226  -0.000031
    20  H    0.000608  -0.000180   0.005188  -0.065733   0.000673  -0.000925
    21  H   -0.000115   0.000642  -0.001483   0.000585   0.000285  -0.001420
    22  H    0.534244   0.002111  -0.031958  -0.000955   0.001733   0.001811
    23  H    0.411699   0.007374  -0.032990  -0.001148  -0.003384  -0.000264
    24  H    0.009443   0.437936  -0.008860  -0.000816  -0.072255   0.001442
    25  H   -0.010404   0.486355   0.047191  -0.008224  -0.034869   0.007706
    26  H    0.001137   0.017974   0.527879  -0.004892  -0.004044   0.009260
    27  H   -0.036967   0.005483   0.421648   0.003119   0.009293  -0.003031
    28  H   -0.000374  -0.001455  -0.004553   0.422314   0.001007  -0.001282
    29  H    0.001191   0.011750  -0.027201   0.559661  -0.006080  -0.000111
    30  H   -0.005974  -0.001874   0.015814  -0.042288  -0.008932   0.002058
    31  H    0.000891   0.001579  -0.002370  -0.022502   0.001113   0.002400
              13         14         15         16         17         18
     1  C    0.562872   0.439404   0.418855  -0.037676  -0.030973  -0.001618
     2  C    0.169689   0.001408   0.034089   0.500352  -0.022689  -0.029117
     3  C   -1.228521   0.008176  -0.058481   0.000297   0.481573  -0.000998
     4  C    0.002092  -0.000791   0.003125   0.027162  -0.002130   0.488288
     5  C    0.037259  -0.011737   0.012446   0.005950  -0.012308  -0.000221
     6  O   -0.053950  -0.049995  -0.072174  -0.006845   0.004633   0.000038
     7  C    0.000103   0.000511  -0.003499  -0.034398   0.008437  -0.013136
     8  C   -0.018014   0.000561  -0.001237  -0.039650   0.000477  -0.085662
     9  C    0.121429   0.004103  -0.021832  -0.060180  -0.001572   0.010455
    10  C   -0.318569   0.016179   0.004889  -0.006713   0.009005   0.000090
    11  O    0.034541  -0.000479   0.000912  -0.068138   0.006732   0.002533
    12  O    0.067278  -0.006081   0.012638  -0.014390  -0.052974   0.000280
    13  C    6.598464  -0.047571   0.002164  -0.004231  -0.052810   0.000774
    14  H   -0.047571   0.451744  -0.004756  -0.001069  -0.001461  -0.000012
    15  H    0.002164  -0.004756   0.471842  -0.003291  -0.012702  -0.000079
    16  H   -0.004231  -0.001069  -0.003291   0.442550  -0.006975   0.000902
    17  H   -0.052810  -0.001461  -0.012702  -0.006975   0.431564   0.000078
    18  H    0.000774  -0.000012  -0.000079   0.000902   0.000078   0.475936
    19  H   -0.001592  -0.000013   0.000077   0.001229  -0.000112  -0.011756
    20  H    0.015678  -0.000392   0.001617  -0.003368   0.000271   0.000066
    21  H   -0.087086   0.004335  -0.002368  -0.000015   0.004208  -0.000011
    22  H    0.001262  -0.000061  -0.000171  -0.003762  -0.000474   0.001540
    23  H   -0.000177   0.000061  -0.000292   0.001510   0.000406  -0.000324
    24  H    0.001770  -0.000057   0.000179   0.000009  -0.000065  -0.004867
    25  H    0.012606   0.000071  -0.000210   0.001284  -0.002196   0.002881
    26  H    0.005720  -0.000251   0.000997  -0.017459  -0.000420  -0.001907
    27  H   -0.009111   0.000477  -0.002012  -0.007244   0.001194  -0.001372
    28  H   -0.055423   0.000070   0.001131  -0.001171  -0.000159   0.000094
    29  H   -0.087863  -0.000432  -0.001629  -0.005300   0.003935  -0.000568
    30  H    0.447835  -0.000658  -0.000029   0.006130  -0.011420   0.000271
    31  H    0.484643  -0.002366  -0.001554   0.000392  -0.004333  -0.000034
              19         20         21         22         23         24
     1  C    0.000541  -0.012929  -0.042203   0.000584  -0.000645   0.002484
     2  C    0.018326   0.007626  -0.008919  -0.055002   0.005595   0.006419
     3  C    0.002637   0.015116   0.089856   0.000804   0.003474  -0.000662
     4  C    0.446116  -0.000351   0.000113  -0.073546  -0.015091  -0.030603
     5  C   -0.000147   0.450989   0.458078   0.000887   0.000019  -0.000137
     6  O    0.000033  -0.066702  -0.056627  -0.000259  -0.000060  -0.000211
     7  C   -0.054092   0.000608  -0.000115   0.534244   0.411699   0.009443
     8  C   -0.037206  -0.000180   0.000642   0.002111   0.007374   0.437936
     9  C   -0.012217   0.005188  -0.001483  -0.031958  -0.032990  -0.008860
    10  C    0.000588  -0.065733   0.000585  -0.000955  -0.001148  -0.000816
    11  O    0.008226   0.000673   0.000285   0.001733  -0.003384  -0.072255
    12  O   -0.000031  -0.000925  -0.001420   0.001811  -0.000264   0.001442
    13  C   -0.001592   0.015678  -0.087086   0.001262  -0.000177   0.001770
    14  H   -0.000013  -0.000392   0.004335  -0.000061   0.000061  -0.000057
    15  H    0.000077   0.001617  -0.002368  -0.000171  -0.000292   0.000179
    16  H    0.001229  -0.003368  -0.000015  -0.003762   0.001510   0.000009
    17  H   -0.000112   0.000271   0.004208  -0.000474   0.000406  -0.000065
    18  H   -0.011756   0.000066  -0.000011   0.001540  -0.000324  -0.004867
    19  H    0.479140  -0.000037   0.000017  -0.004067  -0.009134  -0.009144
    20  H   -0.000037   0.470403  -0.006282   0.000013   0.000024  -0.000118
    21  H    0.000017  -0.006282   0.475541  -0.000024  -0.000007  -0.000000
    22  H   -0.004067   0.000013  -0.000024   0.451576  -0.005267  -0.001852
    23  H   -0.009134   0.000024  -0.000007  -0.005267   0.461491   0.000703
    24  H   -0.009144  -0.000118  -0.000000  -0.001852   0.000703   0.465883
    25  H    0.000801   0.000195  -0.000115  -0.000857  -0.000940  -0.008944
    26  H   -0.002369  -0.000186  -0.000045   0.002598  -0.002927   0.000187
    27  H    0.001453   0.000094   0.000082  -0.001264  -0.009749   0.001096
    28  H   -0.000046  -0.007913   0.005400  -0.000020  -0.000048  -0.000278
    29  H    0.000476  -0.007268   0.001691   0.000064  -0.000190   0.000134
    30  H    0.000063  -0.000035  -0.001054  -0.000127   0.000242  -0.000753
    31  H    0.000009  -0.001256  -0.004558   0.000124  -0.000032   0.000270
              25         26         27         28         29         30
     1  C   -0.003054   0.005184  -0.003946  -0.006629   0.025273  -0.008029
     2  C   -0.043476  -0.151822  -0.029699   0.012706  -0.052475   0.005126
     3  C   -0.015854  -0.006115   0.018097   0.011612   0.027262  -0.034796
     4  C   -0.059751  -0.022127  -0.007737   0.000317  -0.001545  -0.001118
     5  C    0.001711   0.002977  -0.000991  -0.016182  -0.094328  -0.003398
     6  O    0.000020  -0.000997   0.001326   0.009553  -0.008529  -0.001754
     7  C   -0.010404   0.001137  -0.036967  -0.000374   0.001191  -0.005974
     8  C    0.486355   0.017974   0.005483  -0.001455   0.011750  -0.001874
     9  C    0.047191   0.527879   0.421648  -0.004553  -0.027201   0.015814
    10  C   -0.008224  -0.004892   0.003119   0.422314   0.559661  -0.042288
    11  O   -0.034869  -0.004044   0.009293   0.001007  -0.006080  -0.008932
    12  O    0.007706   0.009260  -0.003031  -0.001282  -0.000111   0.002058
    13  C    0.012606   0.005720  -0.009111  -0.055423  -0.087863   0.447835
    14  H    0.000071  -0.000251   0.000477   0.000070  -0.000432  -0.000658
    15  H   -0.000210   0.000997  -0.002012   0.001131  -0.001629  -0.000029
    16  H    0.001284  -0.017459  -0.007244  -0.001171  -0.005300   0.006130
    17  H   -0.002196  -0.000420   0.001194  -0.000159   0.003935  -0.011420
    18  H    0.002881  -0.001907  -0.001372   0.000094  -0.000568   0.000271
    19  H    0.000801  -0.002369   0.001453  -0.000046   0.000476   0.000063
    20  H    0.000195  -0.000186   0.000094  -0.007913  -0.007268  -0.000035
    21  H   -0.000115  -0.000045   0.000082   0.005400   0.001691  -0.001054
    22  H   -0.000857   0.002598  -0.001264  -0.000020   0.000064  -0.000127
    23  H   -0.000940  -0.002927  -0.009749  -0.000048  -0.000190   0.000242
    24  H   -0.008944   0.000187   0.001096  -0.000278   0.000134  -0.000753
    25  H    0.474750  -0.000392  -0.000502   0.000198  -0.001635   0.000681
    26  H   -0.000392   0.447086  -0.004357  -0.000167   0.000632  -0.000280
    27  H   -0.000502  -0.004357   0.475364   0.000098  -0.000124  -0.000280
    28  H    0.000198  -0.000167   0.000098   0.444425  -0.010313  -0.006463
    29  H   -0.001635   0.000632  -0.000124  -0.010313   0.478926  -0.004730
    30  H    0.000681  -0.000280  -0.000280  -0.006463  -0.004730   0.481117
    31  H   -0.000177   0.000208  -0.000097  -0.009531   0.002919   0.001704
              31
     1  C   -0.003626
     2  C   -0.007732
     3  C   -0.065252
     4  C   -0.000117
     5  C   -0.020055
     6  O    0.000196
     7  C    0.000891
     8  C    0.001579
     9  C   -0.002370
    10  C   -0.022502
    11  O    0.001113
    12  O    0.002400
    13  C    0.484643
    14  H   -0.002366
    15  H   -0.001554
    16  H    0.000392
    17  H   -0.004333
    18  H   -0.000034
    19  H    0.000009
    20  H   -0.001256
    21  H   -0.004558
    22  H    0.000124
    23  H   -0.000032
    24  H    0.000270
    25  H   -0.000177
    26  H    0.000208
    27  H   -0.000097
    28  H   -0.009531
    29  H    0.002919
    30  H    0.001704
    31  H    0.410618
 Mulliken charges:
               1
     1  C   -0.408474
     2  C   -0.065112
     3  C    0.199680
     4  C   -0.415362
     5  C   -0.319729
     6  O   -0.325421
     7  C   -0.292837
     8  C   -0.111587
     9  C   -0.552888
    10  C   -0.145361
    11  O   -0.286530
    12  O   -0.357969
    13  C   -0.601260
    14  H    0.201084
    15  H    0.221355
    16  H    0.334108
    17  H    0.263259
    18  H    0.167455
    19  H    0.182232
    20  H    0.205113
    21  H    0.171498
    22  H    0.180313
    23  H    0.190070
    24  H    0.211666
    25  H    0.155151
    26  H    0.198917
    27  H    0.179658
    28  H    0.213083
    29  H    0.196407
    30  H    0.172950
    31  H    0.238529
 Sum of Mulliken charges =  -0.00000
 Mulliken charges with hydrogens summed into heavy atoms:
               1
     1  C    0.013965
     2  C    0.268996
     3  C    0.462939
     4  C   -0.065674
     5  C    0.056882
     6  O   -0.325421
     7  C    0.077547
     8  C    0.255230
     9  C   -0.174313
    10  C    0.264130
    11  O   -0.286530
    12  O   -0.357969
    13  C   -0.189782
 Electronic spatial extent (au):  <R**2>=           2661.6395
 Charge=              0.0000 electrons
 Dipole moment (field-independent basis, Debye):
    X=             -0.5230    Y=              0.4021    Z=              1.8434  Tot=              1.9579
 Quadrupole moment (field-independent basis, Debye-Ang):
   XX=            -68.7770   YY=            -78.6247   ZZ=            -81.0533
   XY=             -2.9637   XZ=             -4.5615   YZ=             -0.1418
 Traceless Quadrupole moment (field-independent basis, Debye-Ang):
   XX=              7.3746   YY=             -2.4730   ZZ=             -4.9016
   XY=             -2.9637   XZ=             -4.5615   YZ=             -0.1418
 Octapole moment (field-independent basis, Debye-Ang**2):
  XXX=             -3.2747  YYY=             -1.1026  ZZZ=              1.8883  XYY=              2.8017
  XXY=             14.9864  XXZ=              8.5877  XZZ=             -5.5104  YZZ=              0.8872
  YYZ=              4.3351  XYZ=             12.1611
 Hexadecapole moment (field-independent basis, Debye-Ang**3):
 XXXX=          -2417.1089 YYYY=           -621.2383 ZZZZ=           -371.6730 XXXY=            -14.2262
 XXXZ=            -10.7966 YYYX=             15.5210 YYYZ=             -4.2098 ZZZX=             -1.1809
 ZZZY=             -4.2142 XXYY=           -517.4613 XXZZ=           -476.8907 YYZZ=           -177.5971
 XXYZ=            -16.6405 YYXZ=             -9.2304 ZZXY=             -3.7958
 N-N= 9.158533994606D+02 E-N=-3.274246133113D+03  KE= 6.153495282516D+02
 D1PCM: PCM CHGder 1st derivatives, ID1Alg=3 FixD1E=F DoIter=F DoCFld=F I1PDM=0.
 Calling FoFJK, ICntrl=      2127 FMM=F ISym2X=0 I1Cent= 0 IOpClX= 0 NMat=1 NMatS=1 NMatT=0.
 ***** Axes restored to original set *****
 -------------------------------------------------------------------
 Center     Atomic                   Forces (Hartrees/Bohr)
 Number     Number              X              Y              Z
 -------------------------------------------------------------------
      1        6           0.001807009    0.006464425    0.003275215
      2        6           0.004615484   -0.002786269    0.001290515
      3        6          -0.003150065    0.003169336   -0.004460730
      4        6          -0.002322186   -0.001045910    0.001840657
      5        6           0.003735445    0.004403494    0.004007032
      6        8           0.003173596   -0.005801779   -0.010752504
      7        6          -0.002367066    0.002663898   -0.002345406
      8        6           0.004884936   -0.005656132    0.000241101
      9        6           0.001039007    0.001521557    0.002208294
     10        6          -0.001289549   -0.002625605    0.002802950
     11        8          -0.006422590    0.009431042   -0.009278836
     12        8           0.006566364   -0.005056013    0.009902124
     13        6          -0.001361661   -0.003155461   -0.004979605
     14        1          -0.004506885   -0.000496906    0.003905513
     15        1           0.003441182   -0.004196796   -0.000446545
     16        1          -0.006776474   -0.001343976   -0.005809423
     17        1          -0.000784441   -0.001294140    0.005212239
     18        1           0.000287354    0.000129808   -0.003389072
     19        1           0.001910697    0.000856615    0.001736191
     20        1          -0.001059472    0.000920151   -0.004228576
     21        1          -0.004266790    0.000096251    0.003895909
     22        1          -0.001441287    0.000145854    0.003506559
     23        1           0.001881260   -0.001524865   -0.000704649
     24        1           0.000868832    0.004126142   -0.001349820
     25        1          -0.001109394   -0.000442976    0.006045168
     26        1           0.000728828    0.000672102   -0.003241292
     27        1          -0.001401328   -0.002855529    0.001054314
     28        1          -0.001374472    0.002380357    0.000100693
     29        1           0.004183340   -0.000417444   -0.002986494
     30        1           0.003396055    0.001825839    0.000950858
     31        1          -0.002885729   -0.000107070    0.001997620
 -------------------------------------------------------------------
 Cartesian Forces:  Max     0.010752504 RMS     0.003703186

 GradGradGradGradGradGradGradGradGradGradGradGradGradGradGradGradGradGrad
 Berny optimization.
 FormGI is forming the generalized inverse of G from B-inverse, IUseBI=4.
 Internal  Forces:  Max     0.020457335 RMS     0.002552909
 Search for a local minimum.
 Step number   1 out of a maximum of  186
 All quantities printed in internal units (Hartrees-Bohrs-Radians)
 Mixed Optimization -- RFO/linear search
 Second derivative matrix not updated -- first step.
 ITU=  0
     Eigenvalues ---    0.00503   0.00625   0.00687   0.00720   0.01410
     Eigenvalues ---    0.01412   0.01700   0.02702   0.02759   0.02935
     Eigenvalues ---    0.03076   0.03911   0.04089   0.04487   0.04671
     Eigenvalues ---    0.04745   0.04891   0.04952   0.05077   0.05136
     Eigenvalues ---    0.05259   0.05517   0.05689   0.06164   0.06175
     Eigenvalues ---    0.06315   0.06509   0.07034   0.07613   0.07844
     Eigenvalues ---    0.07951   0.07975   0.08122   0.08247   0.08511
     Eigenvalues ---    0.08832   0.09235   0.09942   0.10953   0.11601
     Eigenvalues ---    0.11698   0.11765   0.11880   0.12398   0.12683
     Eigenvalues ---    0.14669   0.15305   0.16465   0.16484   0.18269
     Eigenvalues ---    0.19086   0.21582   0.21945   0.25000   0.28292
     Eigenvalues ---    0.28599   0.28615   0.28812   0.28841   0.28938
     Eigenvalues ---    0.30108   0.30262   0.35016   0.35087   0.35098
     Eigenvalues ---    0.35111   0.35177   0.35183   0.35231   0.35239
     Eigenvalues ---    0.35308   0.35426   0.35431   0.35462   0.35524
     Eigenvalues ---    0.35791   0.35814   0.35827   0.35841   0.36497
     Eigenvalues ---    0.40942   0.41516   0.41676   0.42306   0.43173
     Eigenvalues ---    0.457281000.000001000.000001000.000001000.00000
     Eigenvalues --- 1000.000001000.000001000.000001000.000001000.00000
     Eigenvalues --- 1000.000001000.000001000.000001000.000001000.00000
     Eigenvalues --- 1000.000001000.000001000.000001000.000001000.00000
     Eigenvalues --- 1000.000001000.000001000.000001000.000001000.00000
     Eigenvalues --- 1000.000001000.000001000.000001000.000001000.00000
     Eigenvalues --- 1000.000001000.000001000.000001000.000001000.00000
     Eigenvalues --- 1000.000001000.000001000.000001000.000001000.00000
     Eigenvalues --- 1000.000001000.000001000.000001000.000001000.00000
     Eigenvalues --- 1000.000001000.000001000.000001000.000001000.00000
     Eigenvalues --- 1000.000001000.000001000.000001000.000001000.00000
     Eigenvalues --- 1000.000001000.000001000.000001000.000001000.00000
     Eigenvalues --- 1000.000001000.000001000.000001000.000001000.00000
     Eigenvalues --- 1000.000001000.000001000.000001000.000001000.00000
     Eigenvalues --- 1000.000001000.000001000.000001000.000001000.00000
     Eigenvalues --- 1000.000001000.000001000.000001000.000001000.00000
     Eigenvalues --- 1000.000001000.000001000.000001000.000001000.00000
     Eigenvalues --- 1000.000001000.000001000.000001000.000001000.00000
     Eigenvalues --- 1000.000001000.000001000.000001000.000001000.00000
     Eigenvalues --- 1000.000001000.000001000.000001000.000001000.00000
 RFO step:  Lambda=-5.36313436D-03 EMin= 5.03216300D-03
 Linear search not attempted -- first point.
 Iteration  1 RMS(Cart)=  0.11790489 RMS(Int)=  0.00251032
 Iteration  2 RMS(Cart)=  0.00659204 RMS(Int)=  0.00009224
 Iteration  3 RMS(Cart)=  0.00001310 RMS(Int)=  0.00009200
 Iteration  4 RMS(Cart)=  0.00000000 RMS(Int)=  0.00009200
 Iteration  1 RMS(Cart)=  0.00010982 RMS(Int)=  0.00002406
 Iteration  2 RMS(Cart)=  0.00006107 RMS(Int)=  0.00002686
 Iteration  3 RMS(Cart)=  0.00003396 RMS(Int)=  0.00003041
 Iteration  4 RMS(Cart)=  0.00001889 RMS(Int)=  0.00003280
 Iteration  5 RMS(Cart)=  0.00001050 RMS(Int)=  0.00003423
 Iteration  6 RMS(Cart)=  0.00000584 RMS(Int)=  0.00003505
 Iteration  7 RMS(Cart)=  0.00000325 RMS(Int)=  0.00003552
 Iteration  8 RMS(Cart)=  0.00000181 RMS(Int)=  0.00003578
 Iteration  9 RMS(Cart)=  0.00000100 RMS(Int)=  0.00003592
 Iteration 10 RMS(Cart)=  0.00000056 RMS(Int)=  0.00003601
 Variable       Old X    -DE/DX   Delta X   Delta X   Delta X     New X
                                 (Linear)    (Quad)   (Total)
    R1        2.88423  -0.00142   0.00000  -0.00373  -0.00361   2.88061
    R2        2.66709   0.00636   0.00000   0.01552   0.01558   2.68267
    R3        2.05495   0.00592   0.00000   0.01662   0.01662   2.07157
    R4        2.04332   0.00534   0.00000   0.01469   0.01469   2.05801
    R5        2.87766  -0.00106   0.00000  -0.00357  -0.00357   2.87409
    R6        2.65642   0.00782   0.00000   0.01758   0.01762   2.67404
    R7        2.64440   0.00598   0.00000   0.01293   0.01293   2.65733
    R8        2.03311   0.00901   0.00000   0.02434   0.02434   2.05745
    R9        2.69338   0.00066   0.00000   0.00157   0.00157   2.69494
   R10        2.89808  -0.00223   0.00000  -0.00852  -0.00844   2.88964
   R11        2.04410   0.00539   0.00000   0.01483   0.01483   2.05893
   R12        2.88860  -0.00070   0.00000  -0.00272  -0.00276   2.88584
   R13        2.87164  -0.00064   0.00000  -0.00190  -0.00189   2.86975
   R14        2.05534   0.00331   0.00000   0.00928   0.00928   2.06462
   R15        2.05302   0.00271   0.00000   0.00759   0.00759   2.06061
   R16        2.67426   0.00578   0.00000   0.01390   0.01381   2.68807
   R17        2.87184  -0.00065   0.00000  -0.00279  -0.00290   2.86894
   R18        2.04373   0.00445   0.00000   0.01223   0.01223   2.05596
   R19        2.05648   0.00569   0.00000   0.01599   0.01599   2.07248
   R20        2.88992  -0.00116   0.00000  -0.00456  -0.00459   2.88532
   R21        2.05379   0.00367   0.00000   0.01028   0.01028   2.06408
   R22        2.05177   0.00252   0.00000   0.00702   0.00702   2.05880
   R23        2.68506   0.00586   0.00000   0.01415   0.01418   2.69924
   R24        2.04352   0.00443   0.00000   0.01217   0.01217   2.05569
   R25        2.04989   0.00611   0.00000   0.01698   0.01698   2.06687
   R26        2.05388   0.00332   0.00000   0.00929   0.00929   2.06317
   R27        2.04981   0.00331   0.00000   0.00921   0.00921   2.05902
   R28        2.89475  -0.00110   0.00000  -0.00547  -0.00554   2.88921
   R29        2.05288   0.00275   0.00000   0.00769   0.00769   2.06057
   R30        2.04833   0.00501   0.00000   0.01388   0.01388   2.06222
   R31        2.04931   0.00383   0.00000   0.01065   0.01065   2.05996
   R32        2.05516   0.00348   0.00000   0.00977   0.00977   2.06494
    A1        1.99136   0.00002   0.00000   0.00103   0.00119   1.99255
    A2        1.88255  -0.00104   0.00000  -0.00102  -0.00108   1.88147
    A3        1.92972  -0.00049   0.00000  -0.01155  -0.01166   1.91806
    A4        1.89986   0.00167   0.00000   0.01401   0.01395   1.91381
    A5        1.86594  -0.00067   0.00000  -0.00655  -0.00669   1.85925
    A6        1.89230   0.00061   0.00000   0.00478   0.00479   1.89709
    A7        1.93412   0.00250   0.00000   0.01249   0.01242   1.94654
    A8        1.90022  -0.00147   0.00000  -0.00664  -0.00658   1.89364
    A9        1.93003   0.00038   0.00000   0.00629   0.00629   1.93633
   A10        1.93490  -0.00030   0.00000  -0.00534  -0.00528   1.92962
   A11        1.83558  -0.00169   0.00000  -0.00802  -0.00808   1.82751
   A12        1.92877   0.00063   0.00000   0.00148   0.00147   1.93024
   A13        1.98695  -0.00078   0.00000  -0.01485  -0.01549   1.97146
   A14        1.93995   0.00153   0.00000   0.00009  -0.00046   1.93950
   A15        1.85504  -0.00038   0.00000   0.01220   0.01218   1.86722
   A16        2.00183  -0.00248   0.00000  -0.02906  -0.02939   1.97244
   A17        1.77977   0.00221   0.00000   0.02980   0.03012   1.80989
   A18        1.88399   0.00014   0.00000   0.00986   0.01008   1.89407
   A19        1.92200  -0.00024   0.00000  -0.00321  -0.00335   1.91865
   A20        1.91594   0.00063   0.00000   0.00169   0.00174   1.91768
   A21        1.93982  -0.00054   0.00000  -0.00130  -0.00128   1.93855
   A22        1.90605  -0.00010   0.00000  -0.00101  -0.00096   1.90508
   A23        1.90353   0.00004   0.00000  -0.00076  -0.00073   1.90280
   A24        1.87566   0.00022   0.00000   0.00476   0.00474   1.88040
   A25        1.93036   0.00023   0.00000   0.00377   0.00367   1.93404
   A26        1.85704  -0.00082   0.00000  -0.00314  -0.00308   1.85395
   A27        1.90310   0.00124   0.00000   0.00594   0.00597   1.90907
   A28        1.94607  -0.00019   0.00000  -0.00267  -0.00264   1.94343
   A29        1.93412  -0.00091   0.00000  -0.00704  -0.00704   1.92708
   A30        1.89088   0.00051   0.00000   0.00353   0.00350   1.89439
   A31        1.97704  -0.00368   0.00000  -0.02248  -0.02242   1.95462
   A32        1.91254   0.00243   0.00000  -0.00073  -0.00080   1.91174
   A33        1.91421  -0.00107   0.00000  -0.00167  -0.00170   1.91251
   A34        1.93073  -0.00041   0.00000   0.00089   0.00094   1.93167
   A35        1.92258  -0.00085   0.00000  -0.00269  -0.00267   1.91991
   A36        1.91683  -0.00086   0.00000  -0.00067  -0.00065   1.91618
   A37        1.86659   0.00068   0.00000   0.00495   0.00494   1.87153
   A38        1.94582   0.00149   0.00000   0.00478   0.00481   1.95063
   A39        1.94547  -0.00008   0.00000  -0.00188  -0.00186   1.94361
   A40        1.93073  -0.00132   0.00000  -0.00606  -0.00609   1.92464
   A41        1.84249  -0.00102   0.00000  -0.00165  -0.00167   1.84082
   A42        1.91009   0.00046   0.00000   0.00301   0.00302   1.91311
   A43        1.88631   0.00048   0.00000   0.00207   0.00206   1.88838
   A44        1.95572  -0.00124   0.00000  -0.01255  -0.01263   1.94309
   A45        1.87383  -0.00004   0.00000   0.00228   0.00229   1.87611
   A46        1.89960   0.00036   0.00000  -0.00279  -0.00277   1.89683
   A47        1.90858   0.00106   0.00000   0.00666   0.00670   1.91528
   A48        1.94698  -0.00016   0.00000   0.00071   0.00063   1.94761
   A49        1.87602   0.00007   0.00000   0.00652   0.00650   1.88252
   A50        1.92526   0.00031   0.00000  -0.00600  -0.00617   1.91908
   A51        1.90708   0.00031   0.00000   0.00176   0.00178   1.90886
   A52        1.90283  -0.00059   0.00000  -0.00110  -0.00104   1.90179
   A53        1.91762  -0.00080   0.00000   0.00006   0.00012   1.91774
   A54        1.93871   0.00041   0.00000  -0.00043  -0.00042   1.93829
   A55        1.87134   0.00037   0.00000   0.00609   0.00607   1.87740
   A56        2.02455  -0.00580   0.00000  -0.03269  -0.03257   1.99198
   A57        2.13945  -0.02046   0.00000  -0.08011  -0.08011   2.05934
   A58        1.98435   0.00067   0.00000  -0.01188  -0.01191   1.97245
   A59        1.91333  -0.00073   0.00000  -0.01141  -0.01162   1.90171
   A60        1.86003  -0.00022   0.00000   0.01009   0.01016   1.87019
   A61        1.94413  -0.00025   0.00000  -0.00429  -0.00453   1.93960
   A62        1.88924   0.00012   0.00000   0.01193   0.01193   1.90117
[...]
 0823110,-0.02373693,0.00125838,0.00090604,0.00256808,-0.00006310,-0.00
 004671,-0.00000752,0.00001920,0.00001051,0.00000769,-0.00000417,-0.000
 00547,-0.00000374,-0.00012600,-0.00036472,0.00016109,-0.00007996,0.000
 00246,-0.00002636,0.00067607,-0.00011056,0.00123046,0.00060989,-0.0002
 4515,0.00029016,-0.00000144,0.00000184,-0.00000015,-0.00001110,-0.0000
 0696,-0.00000246,-0.00006154,-0.00053240,-0.00010594,0.00003110,-0.000
 07401,0.00014002,0.00376757,0.00107363,-0.00744338,-0.07069541,-0.0010
 0428,0.31488363,0.00003986,0.00002204,0.00014506,-0.00477535,-0.003468
 84,0.02434772,0.00165181,0.00068222,0.00078831,0.00112804,0.00095999,-
 0.00000262,0.00006544,-0.00003612,0.00000515,-0.00010427,0.00001816,-0
 .00015758,0.00524471,0.00002001,-0.02824183,-0.00035772,-0.00001015,-0
 .00008004,-0.06208228,0.00048334,0.06106371,-0.00001718,0.00003886,0.0
 0005322,0.00101742,-0.00080282,-0.00099849,-0.00724311,0.00357589,0.00
 372656,-0.00040420,-0.00007603,0.00016972,-0.00008577,-0.00003871,-0.0
 0005372,-0.00001677,-0.00000678,-0.00001741,0.00069832,-0.00077737,-0.
 00024147,-0.00042666,0.00000695,0.00015301,-0.00006225,-0.00000065,0.0
 0046989,-0.00008273,0.00026519,0.00021241,-0.00001500,0.00000166,-0.00
 001134,-0.00001029,0.00000418,0.00000542,-0.00391949,-0.00230634,-0.00
 314805,0.00137285,0.00054232,0.00079060,0.00008953,-0.00001889,-0.0000
 0431,-0.00001165,-0.00001874,0.00000837,0.07117283,0.00001181,-0.00008
 885,-0.00010731,0.00291064,-0.00074782,-0.01967926,-0.00069840,-0.0000
 8953,-0.00068368,0.00046421,0.00038126,-0.00080156,-0.00003094,0.00001
 943,-0.00000302,0.00004409,-0.00001119,0.00006937,0.00219995,-0.000610
 00,-0.00850478,0.00010487,0.00002748,-0.00004370,-0.00191210,-0.050503
 15,0.00802153,0.00000862,-0.00002300,-0.00002310,-0.00000009,0.0006933
 7,0.00037334,0.00472348,-0.00090426,-0.00159884,0.00012331,0.00003528,
 -0.00004499,0.00004810,0.00003420,0.00003570,-0.00001418,0.00002189,0.
 00000905,-0.00047659,0.00062084,0.00041993,0.00030161,0.00000213,-0.00
 010436,-0.00009048,0.00009743,0.00004252,0.00000210,0.00007188,0.00006
 970,0.00000766,-0.00000090,0.00000525,0.00000508,-0.00000160,-0.000003
 19,-0.00126071,0.00039728,-0.00108571,0.00009907,0.00027212,0.00052785
 ,-0.00000462,-0.00002705,-0.00000506,-0.00001363,0.00003033,0.00003330
 ,0.00038910,0.04933955,0.00000885,-0.00002033,-0.00007890,-0.00033381,
 0.00189297,-0.00559999,-0.00082068,-0.00024272,0.00001346,0.00070423,0
 .00052635,0.00069326,-0.00002726,0.00001735,-0.00000511,0.00005504,-0.
 00000195,0.00003912,0.00285996,0.00038958,-0.01849504,-0.00020471,-0.0
 0010924,0.00000021,0.06358065,0.00441964,-0.29572027,0.00000386,-0.000
 01885,-0.00001683,-0.00051207,-0.00004086,0.00092304,0.00205120,-0.000
 26080,0.00050419,0.00016104,0.00003564,-0.00006400,0.00003439,0.000019
 91,0.00002074,0.00000135,-0.00000413,0.00000570,0.00020879,-0.00025016
 ,0.00064547,0.00010756,-0.00001287,-0.00005264,0.00000195,-0.00054631,
 0.00022285,-0.00019134,0.00001703,0.00027311,0.00000695,-0.00000114,0.
 00000675,0.00000536,-0.00000253,-0.00000137,-0.00320149,-0.00118492,-0
 .00075552,0.00007613,0.00028723,0.00087914,0.00005753,-0.00005782,-0.0
 0000533,-0.00002133,0.00003731,-0.00001364,-0.06613117,-0.00531783,0.3
 2251539,0.00000899,0.00007191,0.00000643,0.00828414,0.02147715,-0.0055
 3130,0.00000449,-0.00024290,-0.00014321,-0.00417858,-0.00050341,-0.004
 28167,0.00000175,0.00000368,0.00001194,-0.00002437,-0.00001690,-0.0000
 0208,-0.00640157,-0.02454648,0.00783110,-0.00167601,-0.00018189,-0.000
 71157,-0.06998868,-0.07190295,0.01920207,-0.00000290,-0.00000545,-0.00
 001200,-0.00272673,0.00784108,0.00098362,0.00107773,0.00035074,-0.0009
 0865,0.00003873,-0.00002112,-0.00000688,0.00000774,-0.00002726,-0.0000
 0289,0.00007001,-0.00008447,-0.00002322,0.00069667,-0.00107544,-0.0003
 5453,-0.00000198,-0.00000025,0.00000498,0.00003199,0.00031987,0.000006
 32,-0.00017431,-0.00192245,0.00008843,-0.00000183,-0.00000259,-0.00000
 096,-0.00000404,-0.00000255,-0.00000092,0.00114751,0.00063261,0.000059
 68,0.00077252,0.00057259,0.00079882,0.00034152,-0.00000844,0.00013566,
 0.00017802,0.00001302,0.00011035,-0.00276138,-0.00697938,0.00147713,0.
 07527627,0.00006380,-0.00012655,0.00001020,-0.00871241,-0.01786208,0.0
 0544897,0.00014287,0.00039256,-0.00006961,-0.00147027,0.00126156,-0.00
 150353,0.00000537,-0.00000039,-0.00001954,0.00009982,0.00002558,-0.000
 03371,-0.00166535,-0.00633768,0.00145575,0.00080285,0.00103662,0.00101
 668,-0.06854697,-0.28080192,0.05814893,-0.00000797,0.00000555,0.000029
 57,0.00348448,-0.00500210,-0.00059464,-0.00086757,0.00172988,0.0006353
 1,-0.00009617,-0.00000256,0.00005478,0.00000680,0.00001572,0.00000701,
 0.00005486,-0.00001103,-0.00002261,0.00025725,0.00055583,-0.00007979,0
 .00005496,-0.00000099,-0.00001644,0.00000369,0.00001706,0.00011340,0.0
 0003679,-0.00053442,0.00024055,0.00000076,-0.00000015,0.00000166,0.000
 00747,0.00000279,0.00000283,0.00014177,0.00028680,-0.00014567,-0.00025
 746,0.00043047,-0.00012544,-0.00009373,-0.00008328,-0.00005465,-0.0000
 7973,-0.00005563,-0.00016916,0.00037697,0.00104361,0.00049361,0.076259
 70,0.30397459,-0.00000272,-0.00000751,-0.00001748,-0.00024884,-0.00498
 374,-0.00194577,-0.00006505,0.00002999,0.00012758,-0.00319143,-0.00032
 308,-0.00174045,-0.00000272,0.00000410,0.00000024,0.00000018,-0.000006
 51,-0.00000431,-0.00468247,-0.01881029,0.00422086,-0.00020789,0.000288
 34,-0.00003120,0.01831797,0.06223409,-0.06327768,-0.00000020,0.0000000
 2,-0.00000209,0.00032476,-0.00059620,0.00122418,0.00005369,-0.00106851
 ,0.00043832,0.00000655,0.00001381,-0.00001183,-0.00000090,0.00000908,0
 .00000079,-0.00003613,0.00002592,0.00000966,-0.00002705,0.00008325,0.0
 0005172,-0.00002055,-0.00000248,-0.00000177,-0.00007170,-0.00025806,0.
 00024033,-0.00033249,-0.00096661,0.00031639,-0.00000004,0.00000115,0.0
 0000021,0.00000059,-0.00000169,-0.00000102,0.00097297,0.00015228,0.000
 76004,0.00060632,0.00058760,0.00049019,0.00007067,0.00000960,0.0000436
 5,0.00005809,0.00000624,0.00000650,0.00724618,0.02835056,-0.00596237,-
 0.01876579,-0.06477168,0.06506640,-0.00058234,0.00002890,-0.00089856,0
 .00032056,-0.00023233,0.00005185,0.00080841,-0.00085736,-0.00233700,-0
 .00005572,-0.00002407,-0.00007018,0.01131436,-0.01591652,0.00116857,-0
 .00094110,-0.00625594,-0.00170023,-0.00002538,0.00002579,0.00003699,0.
 00009399,0.00019402,0.00019517,-0.00004465,-0.00009001,-0.00006607,-0.
 11329448,0.11526130,0.00282544,-0.00094861,0.00007556,-0.00003763,0.00
 002960,-0.00013677,0.00032466,-0.00501348,0.00874070,0.00066642,0.0000
 4342,-0.00003944,0.00012221,0.00007007,0.00000545,0.00022277,-0.000082
 50,-0.00006844,-0.00014588,-0.00016016,0.00080973,-0.00002643,0.000001
 07,-0.00000058,0.00000667,-0.00003271,0.00001437,-0.00000058,0.0006155
 3,0.00088738,-0.00002229,0.00054655,0.00091963,0.00066059,0.00000047,-
 0.00000006,-0.00000448,-0.00002348,-0.00000101,-0.00001377,-0.00002089
 ,-0.00002229,-0.00000494,-0.00001468,-0.00000285,-0.00003230,-0.000014
 01,0.00001030,0.00000954,-0.00000954,0.00001456,0.00000242,0.11766788,
 -0.00025312,0.00098943,-0.00154051,-0.00023295,-0.00005418,0.00029843,
 -0.00056857,0.00168701,0.00147685,-0.00000001,0.00000249,0.00000627,0.
 01444059,-0.01723920,0.00111333,-0.00292285,-0.00650439,-0.00150256,-0
 .00000659,-0.00000937,-0.00000900,-0.00005135,-0.00001611,-0.00002785,
 0.00000405,0.00001538,-0.00004145,0.11225030,-0.25136172,-0.00386458,0
 .00008150,0.00010148,-0.00004317,0.00055908,-0.00020725,-0.00028286,0.
 00246394,-0.00503710,0.00039409,-0.00002427,-0.00006761,0.00019775,0.0
 0008841,-0.00007413,0.00012526,-0.00012626,0.00001578,0.00001930,0.000
 19298,-0.00039501,-0.00009195,0.00000142,0.00000040,-0.00000277,0.0000
 0487,0.00000101,0.00000004,0.00004863,0.00070987,-0.00030961,-0.000163
 63,0.00083101,0.00053665,-0.00000081,0.00000094,-0.00000195,0.00000771
 ,0.00000037,0.00000203,0.00001022,0.00000880,0.00000311,0.00000354,0.0
 0000148,0.00000320,0.00002230,-0.00001057,-0.00000824,0.00000175,0.000
 00065,-0.00000137,-0.12431485,0.27228879,-0.00063598,-0.00032616,-0.00
 111371,0.00013071,0.00014667,-0.00076779,-0.00041857,-0.00090025,-0.00
 637783,0.00002010,0.00000963,0.00001910,0.00766869,-0.00717381,-0.0011
 1735,-0.00158908,-0.00436058,0.00049918,0.00001984,-0.00000089,-0.0000
 0393,0.00004703,-0.00005637,-0.00002797,0.00000372,-0.00001009,0.00013
 032,0.00297759,-0.00554047,-0.04556691,0.00017105,-0.00024506,0.000280
 15,-0.00108718,0.00054949,0.00072052,-0.01500089,0.02993277,-0.0008779
 2,0.00007556,-0.00001635,0.00016451,0.00008187,0.00002192,0.00025322,0
 .00000644,0.00003541,0.00013948,-0.00036862,0.00165251,-0.00027940,-0.
 00000171,-0.00000010,0.00000083,0.00000622,-0.00000683,-0.00000077,0.0
 0036591,0.00064855,0.00004340,-0.00010664,0.00016871,0.00035652,0.0000
 0193,-0.00000064,0.00000520,-0.00000261,0.00000034,0.00000179,-0.00000
 322,-0.00000051,-0.00000097,0.00000110,0.00000480,0.00000776,-0.000039
 22,0.00001861,0.00001376,0.00000310,-0.00000962,0.00000066,-0.00105044
 ,0.00404182,0.05092105,-0.00010600,-0.00005380,-0.00022328,-0.00040962
 ,0.00037399,-0.00001024,0.00004504,0.00002866,0.00063664,-0.00007951,0
 .00001094,-0.00000927,-0.01924245,-0.00189579,0.01234805,0.00246353,0.
 00117534,-0.00014518,-0.00003998,-0.00000892,0.00000599,-0.00023109,0.
 00003976,-0.00001305,-0.00003856,-0.00014261,0.00002717,-0.20721885,-0
 .01714917,0.13136427,-0.00150221,0.00079554,-0.00069221,0.00024479,-0.
 00019177,0.00015245,0.01085422,0.00024842,-0.00780450,-0.00009036,0.00
 004431,-0.00001731,0.00001390,-0.00001056,0.00003870,-0.00009914,0.000
 13975,-0.00015432,-0.00001979,-0.00010484,0.00003489,0.00000130,-0.000
 00289,-0.00000039,-0.00000804,0.00000524,-0.00000136,0.00078750,0.0005
 9003,-0.00010575,-0.00127495,-0.00320294,-0.00169155,-0.00000088,-0.00
 000005,-0.00000314,-0.00000214,-0.00000301,-0.00000502,0.00000719,-0.0
 0000983,0.00001448,0.00003071,0.00001846,0.00003176,-0.00000283,-0.000
 00191,-0.00000187,0.00000975,-0.00001333,-0.00000232,-0.01099213,-0.00
 134286,0.00802535,0.22613389,0.00013433,-0.00012610,0.00021930,0.00110
 081,-0.00094001,0.00023631,-0.00054989,-0.00011917,-0.00013150,-0.0000
 5393,-0.00004111,-0.00007011,-0.02112823,-0.00450221,0.01491420,0.0006
 0318,0.00298629,0.00030246,0.00000864,0.00000768,0.00002176,0.00013050
 ,0.00021111,0.00018855,0.00000108,0.00000903,-0.00004252,-0.01457080,-
 0.05163153,0.01411584,-0.00052396,-0.00000399,-0.00000861,-0.00011748,
 0.00019539,-0.00011344,-0.00575459,-0.00081361,0.00398555,-0.00001316,
 0.00005438,-0.00003316,-0.00000005,-0.00001362,0.00000009,0.00045508,-
 0.00055247,0.00006778,0.00002224,0.00000655,-0.00004459,0.00000313,0.0
 0000013,0.00000545,-0.00003522,0.00001680,0.00000151,0.00105674,0.0008
 7880,0.00001230,-0.00304821,-0.00293351,-0.00144233,-0.00000074,0.0000
 0075,-0.00000326,-0.00001295,0.00000314,-0.00000594,-0.00002472,-0.000
 02836,-0.00000648,-0.00002608,-0.00001166,-0.00004347,-0.00000604,0.00
 000608,0.00000264,-0.00001334,0.00001882,0.00000263,0.02165737,0.00366
 281,-0.01768303,0.02025557,0.05261702,-0.00022946,0.00017075,-0.000346
 25,-0.00032848,0.00083289,-0.00060900,0.00088490,-0.00039299,0.0005194
 5,0.00012385,0.00005425,0.00012815,-0.01117958,-0.00131977,0.00780427,
 0.00035156,0.00132221,0.00000486,0.00005831,-0.00003651,-0.00005827,-0
 .00009226,-0.00041121,-0.00034688,0.00004078,0.00009582,0.00021930,0.1
 2981629,0.01463249,-0.15346086,0.00157529,-0.00047315,0.00080392,-0.00
 085433,0.00025234,0.00045013,0.02331486,0.00114142,-0.01995009,-0.0000
 0730,0.00000828,-0.00002255,0.00006788,0.00008022,0.00006313,0.0001439
 3,0.00015897,0.00020181,-0.00024221,0.00007576,0.00009831,-0.00000179,
 0.00000165,-0.00001060,0.00006248,-0.00002895,-0.00000039,0.00031408,0
 .00080531,0.00086847,-0.00152912,-0.00262046,0.00024407,-0.00000171,-0
 .00000129,0.00001211,0.00003391,-0.00000111,0.00002202,0.00001845,0.00
 003843,0.00001143,0.00001146,0.00000882,0.00005282,-0.00001346,0.00000
 451,-0.00000173,0.00002080,-0.00003803,-0.00000236,-0.00025426,-0.0007
 2335,-0.00033662,-0.13969840,-0.01519725,0.16716789,-0.00061068,0.0025
 1877,-0.00027906,-0.00008623,-0.00006017,0.00010295,0.00636528,0.00952
 345,0.00438754,-0.00003640,0.00001687,0.00001788,0.00046450,0.00195524
 ,-0.00214120,0.00004816,-0.00072004,0.00019833,0.00000761,-0.00001132,
 -0.00000228,0.00016924,-0.00001161,0.00017403,0.00000313,0.00001131,-0
 .00001697,-0.00605950,-0.00501973,-0.00154056,-0.00037185,0.00002156,0
 .00038105,0.00239201,-0.00005126,-0.00013007,-0.18413558,-0.12371076,-
 0.05964783,0.00003527,0.00005978,0.00003006,0.00040747,0.00041088,0.00
 031931,0.00003259,0.00003542,-0.00001417,0.00011424,-0.00071344,0.0000
 2038,-0.00001048,0.00000166,-0.00000454,0.00000205,0.00000355,-0.00000
 317,-0.00021222,-0.00072646,-0.00031887,0.00023186,0.00022881,0.000133
 74,-0.00000080,0.00000091,-0.00000416,0.00000153,0.00000072,0.00000120
 ,0.00003092,-0.00003618,-0.00001046,0.00001444,0.00001515,-0.00010191,
 0.00000837,-0.00000574,-0.00000255,0.00000271,0.00000588,-0.00000498,-
 0.00005905,0.00013563,0.00013557,0.00054430,0.00029186,-0.00000875,0.1
 9726589,0.00505071,-0.00467870,0.00282680,0.00022148,-0.00021909,-0.00
 020791,-0.02357035,-0.02287794,-0.01005648,-0.00002227,-0.00000946,0.0
 0002241,0.00107666,-0.00036735,0.00204321,-0.00062159,0.00107560,-0.00
 059260,0.00000718,-0.00000893,-0.00000186,0.00014330,0.00002018,-0.000
 04445,-0.00000862,0.00000962,0.00000223,0.00695605,0.00645995,0.001936
 25,-0.00012312,0.00012020,0.00010382,-0.00129360,0.00363126,0.00015083
 ,-0.12027138,-0.15339310,-0.05130525,-0.00012007,0.00018386,0.00014439
 ,-0.00109721,-0.00113286,-0.00121230,-0.00003929,-0.00000088,0.0000798
 7,0.00011967,0.00071082,0.00028098,-0.00001054,0.00000299,0.00000020,-
 0.00000111,0.00000340,-0.00000230,0.00026742,0.00042894,0.00036732,-0.
 00007353,-0.00008045,0.00003319,0.00000237,-0.00000368,0.00000063,0.00
 000142,0.00000239,0.00000317,0.00001308,-0.00003147,0.00000100,0.00000
 958,-0.00000350,-0.00000288,-0.00000431,-0.00000665,0.00000387,-0.0000
 0027,-0.00000345,0.00000394,-0.00010137,0.00026283,-0.00072740,-0.0003
 2929,0.00028662,-0.00042848,0.13103796,0.16717709,-0.00028536,0.000861
 74,0.00020486,-0.00003647,-0.00014460,-0.00031941,0.00300436,-0.000432
 43,-0.00000634,-0.00000068,-0.00000560,0.00000479,-0.00142490,0.004485
 76,-0.00578426,0.00062271,-0.00048423,0.00081635,0.00000755,-0.0000073
 2,0.00000309,-0.00000425,0.00005483,0.00005801,0.00001062,0.00001836,0
 .00005904,-0.02223137,-0.02064647,-0.00910782,-0.00004509,-0.00003222,
 -0.00007557,-0.00025524,0.00011602,0.00040169,-0.05834198,-0.04980334,
 -0.07169086,-0.00025414,-0.00013327,-0.00002398,0.00005452,0.00010486,
 0.00030236,0.00002264,0.00001721,0.00003653,0.00027256,-0.00036367,0.0
 0001896,-0.00000439,0.00000350,-0.00000005,-0.00000421,0.00000094,-0.0
 0000046,-0.00108609,-0.00163142,-0.00069905,-0.00012195,-0.00003133,0.
 00012503,0.00000036,0.00000083,0.00000011,0.00000022,0.00000299,0.0000
 0197,-0.00000651,-0.00000054,-0.00000158,0.00002930,-0.00001772,-0.000
 01385,-0.00000927,0.00000982,0.00000214,-0.00000077,0.00000151,0.00000
 078,0.00034466,0.00030620,0.00113070,0.00073319,-0.00037860,0.00156462
 ,0.06570525,0.05458162,0.07662204,-0.00040944,-0.00027657,0.00009395,0
 .00062045,0.00038330,-0.00135199,-0.00925446,-0.00056760,0.00589880,-0
 .00001742,-0.00000362,-0.00002481,0.00100405,0.00012850,-0.00012586,0.
 00000253,0.00016947,0.00007514,0.00002806,0.00002092,0.00003023,0.0002
 0452,0.00007874,0.00011342,-0.00006065,-0.00009447,0.00022869,0.008176
 85,-0.00107813,-0.00768010,-0.00043331,-0.00033840,0.00033586,-0.00181
 101,0.00375822,0.00064939,-0.20632466,0.01822208,0.12723882,0.00028590
 ,-0.00011443,-0.00000782,0.00013027,0.00021963,-0.00003685,-0.00002684
 ,-0.00001448,0.00008724,0.00031201,-0.00024735,-0.00024577,-0.00000453
 ,-0.00000269,0.00000280,-0.00001949,0.00000045,-0.00000275,0.00011098,
 0.00017472,0.00011834,-0.00004163,0.00026840,0.00032281,0.00000323,-0.
 00000205,0.00000234,-0.00002611,0.00000080,-0.00000993,-0.00002142,-0.
 00002293,-0.00000152,0.00000061,-0.00000085,-0.00001073,-0.00009626,0.
 00003477,0.00003677,0.00000138,-0.00000969,0.00000288,0.00080298,-0.00
 030881,0.00056236,0.00022241,0.00015883,-0.00239772,-0.01655878,0.0027
 8104,0.01330471,0.22319977,-0.00105044,0.00017096,0.00024986,-0.000614
 15,-0.00105685,0.00191442,0.02365204,-0.00141637,-0.01821911,-0.000006
 26,-0.00001221,0.00002237,0.00029209,-0.00020274,-0.00059622,-0.000004
 37,-0.00007999,0.00004701,-0.00003851,-0.00003731,-0.00003868,-0.00007
 564,-0.00000977,-0.00000996,0.00009761,0.00014382,-0.00042633,-0.00616
 606,-0.00026544,0.00654547,-0.00003486,0.00054852,0.00001464,0.0052829
 8,-0.00586716,-0.00097555,0.01634360,-0.05074137,-0.01630307,-0.000254
 86,-0.00050095,-0.00026718,0.00000997,0.00008401,0.00031030,0.00000488
 ,0.00005168,-0.00011653,0.00054891,0.00142551,0.00001396,-0.00000018,0
 .00000405,-0.00000915,0.00001426,0.00000885,-0.00000100,0.00003974,-0.
 00006392,-0.00003132,0.00007934,0.00011527,-0.00015364,-0.00001016,0.0
 0000311,-0.00000969,0.00003230,0.00000274,0.00001141,0.00002451,0.0000
 1510,0.00000307,0.00004733,-0.00000676,-0.00000877,0.00016259,-0.00006
 960,-0.00006241,-0.00000655,0.00002415,-0.00000486,-0.00058117,0.00039
 610,-0.00017308,0.00073755,0.00075595,0.00198845,-0.01520869,0.0024417
 6,0.01354656,-0.02331780,0.05413887,0.00033331,0.00000585,-0.00015364,
 -0.00028113,0.00045091,-0.00022275,-0.00216888,0.00067719,-0.00024297,
 0.00000704,0.00000652,0.00001318,0.00135431,0.00042270,0.00126445,-0.0
 0010798,-0.00033103,-0.00012135,0.00001466,-0.00000382,-0.00000095,0.0
 0001362,-0.00003103,-0.00001207,-0.00001605,-0.00000426,0.00013787,0.0
 2377173,-0.00093129,-0.02364912,0.00004129,-0.00010632,0.00011178,-0.0
 0154091,0.00123381,0.00126659,0.12772126,-0.01692654,-0.14674386,-0.00
 006352,-0.00005591,0.00001416,-0.00004460,-0.00008961,0.00000350,-0.00
 003091,0.00004721,0.00007699,-0.00079592,0.00008427,0.00101707,-0.0000
 0206,-0.00000097,-0.00000221,0.00000572,-0.00000303,-0.00000053,-0.000
 31679,0.00017507,0.00024334,-0.00049777,-0.00041482,0.00024575,0.00000
 154,-0.00000085,-0.00000006,0.00000159,-0.00000034,0.00000068,0.000002
 83,0.00000108,0.00000356,0.00001805,-0.00000349,0.00000551,-0.00003534
 ,0.00001536,0.00001446,0.00000604,-0.00000663,-0.00000016,0.00002709,-
 0.00007314,0.00178301,-0.00283379,0.00112789,-0.00509117,-0.00737576,0
 .00199618,0.00637017,-0.13720868,0.01273903,0.16366878\\-0.00001033,0.
 00000258,-0.00000081,-0.00027194,-0.00205864,-0.00031268,-0.00069368,-
 0.00141143,-0.00272085,-0.00000138,0.00000055,0.00000348,0.00000491,0.
 00000382,0.00000078,0.00000295,-0.00000187,0.00000014,0.00000116,-0.00
 000184,0.00000032,0.00000598,-0.00000167,0.00000521,-0.00000556,0.0000
 0013,0.00000194,-0.00000348,-0.00000088,0.00000089,-0.00000667,-0.0000
 0640,-0.00000199,0.00058523,0.00317997,0.00124258,0.00038422,0.0002995
 7,0.00179392,-0.00000068,-0.00000175,-0.00000185,0.00000288,0.00000258
 ,-0.00000207,-0.00000019,0.00000083,-0.00000192,-0.00000044,0.00000231
 ,-0.00000177,0.00000052,-0.00000136,-0.00000012,0.00000116,-0.00000199
 ,0.00000051,0.00000069,-0.00000207,-0.00000126,0.00000011,0.00000209,-
 0.00000020,-0.00000062,-0.00000076,0.00000167,-0.00000152,-0.00000106,
 0.00000009,-0.00000037,-0.00000232,-0.00000163,-0.00000094,-0.00000109
 ,0.00000038,0.00000080,-0.00000153,-0.00000125,0.00000029,-0.00000097,
 0.00000098,0.00000274,0.00000214,-0.00000130,0.00000214,0.00000077,-0.
 00000245,0.00000258,-0.00000140,0.00000134,-0.00000056,0.00000169,-0.0
 0000211\\\@


 A MAN THINKING OR WORKING IS ALWAYS ALONE, 
 LET HIM BE WHERE HE WILL.

                                    -- THOREAU
 Job cpu time:       0 days 13 hours 25 minutes 50.3 seconds.
 Elapsed time:       0 days  1 hours  7 minutes 25.5 seconds.
 File lengths (MBytes):  RWF=    720 Int=      0 D2E=      0 Chk=     34 Scr=      1
 Normal termination of Gaussian 16 at Sat Mar  9 02:55:41 2019.
