 Entering Gaussian System, Link 0=g16
 Initial command:
 /sw/Projects/G16/g16/l1.exe "/nvme/pbs/tmpdir/pbs.74203[14].flm1/Gau-895.inp" -scrdir="/nvme/pbs/tmpdir/pbs.74203[14].flm1/"
 Entering Link 1 = /sw/Projects/G16/g16/l1.exe PID=       896.
  
 Copyright (c) 1988-2017, Gaussian, Inc.  All Rights Reserved.
  
 This is part of the Gaussian(R) 16 program.  It is based on
 the Gaussian(R) 09 system (copyright 2009, Gaussian, Inc.),
 the Gaussian(R) 03 system (copyright 2003, Gaussian, Inc.),
 the Gaussian(R) 98 system (copyright 1998, Gaussian, Inc.),
 the Gaussian(R) 94 system (copyright 1995, Gaussian, Inc.),
 the Gaussian 92(TM) system (copyright 1992, Gaussian, Inc.),
 the Gaussian 90(TM) system (copyright 1990, Gaussian, Inc.),
 the Gaussian 88(TM) system (copyright 1988, Gaussian, Inc.),
 the Gaussian 86(TM) system (copyright 1986, Carnegie Mellon
 University), and the Gaussian 82(TM) system (copyright 1983,
 Carnegie Mellon University). Gaussian is a federally registered
 trademark of Gaussian, Inc.
  
 This software contains proprietary and confidential information,
 including trade secrets, belonging to Gaussian, Inc.
  
 This software is provided under written license and may be
 used, copied, transmitted, or stored only in accord with that
 written license.
  
 The following legend is applicable only to US Government
 contracts under FAR:
  
                    RESTRICTED RIGHTS LEGEND
  
 Use, reproduction and disclosure by the US Government is
 subject to restrictions as set forth in subparagraphs (a)
 and (c) of the Commercial Computer Software - Restricted
 Rights clause in FAR 52.227-19.
  
 Gaussian, Inc.
 340 Quinnipiac St., Bldg. 40, Wallingford CT 06492
  
  
 ---------------------------------------------------------------
 Warning -- This program may not be used in any manner that
 competes with the business of Gaussian, Inc. or will provide
 assistance to any competitor of Gaussian, Inc.  The licensee
 of this program is prohibited from giving any competitor of
 Gaussian, Inc. access to this program.  By using this program,
 the user acknowledges that Gaussian, Inc. is engaged in the
 business of creating and licensing software in the field of
 computational chemistry and represents and warrants to the
 licensee that it is not a competitor of Gaussian, Inc. and that
 it will not use this program in any manner prohibited above.
 ---------------------------------------------------------------
  

 Cite this work as:
 Gaussian 16, Revision B.01,
 M. J. Frisch, G. W. Trucks, H. B. Schlegel, G. E. Scuseria, 
 M. A. Robb, J. R. Cheeseman, G. Scalmani, V. Barone, 
 G. A. Petersson, H. Nakatsuji, X. Li, M. Caricato, A. V. Marenich, 
 J. Bloino, B. G. Janesko, R. Gomperts, B. Mennucci, H. P. Hratchian, 
 J. V. Ortiz, A. F. Izmaylov, J. L. Sonnenberg, D. Williams-Young, 
 F. Ding, F. Lipparini, F. Egidi, J. Goings, B. Peng, A. Petrone, 
 T. Henderson, D. Ranasinghe, V. G. Zakrzewski, J. Gao, N. Rega, 
 G. Zheng, W. Liang, M. Hada, M. Ehara, K. Toyota, R. Fukuda, 
 J. Hasegawa, M. Ishida, T. Nakajima, Y. Honda, O. Kitao, H. Nakai, 
 T. Vreven, K. Throssell, J. A. Montgomery, Jr., J. E. Peralta, 
 F. Ogliaro, M. J. Bearpark, J. J. Heyd, E. N. Brothers, K. N. Kudin, 
 V. N. Staroverov, T. A. Keith, R. Kobayashi, J. Normand, 
 K. Raghavachari, A. P. Rendell, J. C. Burant, S. S. Iyengar, 
 J. Tomasi, M. Cossi, J. M. Millam, M. Klene, C. Adamo, R. Cammi, 
 J. W. Ochterski, R. L. Martin, K. Morokuma, O. Farkas, 
 J. B. Foresman, and D. J. Fox, Gaussian, Inc., Wallingford CT, 2016.
 
 ******************************************
 Gaussian 16:  ES64L-G16RevB.01 20-Dec-2017
                 9-Mar-2019 
 ******************************************
 %mem=20gb
 %nproc=12
 Will use up to   12 processors via shared memory.
 %chk=4c1_a1_a4_4c1_PSI.inp_extract_14.chk
 ----------------------------------------------------------------------
 #M062X/6-311++G(2d,2p) opt=ModRedundant freq=noraman SCRF=(SMD,solvent
 =water)
 ----------------------------------------------------------------------
 1/18=120,19=15,26=3,38=1/1,3;
 2/9=110,12=2,17=6,18=5,40=1/2;
 3/5=4,6=6,7=1212,11=2,25=1,30=1,70=32201,71=1,72=1,74=-55/1,2,3;
 4//1;
 5/5=2,38=5,53=1/2;
 6/7=2,8=2,9=2,10=2,28=1/1;
 7//1,2,3,16;
 1/18=20,19=15,26=3/3(2);
 2/9=110/2;
 99//99;
 2/9=110/2;
 3/5=4,6=6,7=1212,11=2,25=1,30=1,70=32205,71=1,72=1,74=-55/1,2,3;
 4/5=5,16=3,69=1/1;
 5/5=2,38=5,53=1/2;
 7//1,2,3,16;
 1/18=20,19=15,26=3/3(-5);
 2/9=110/2;
 6/7=2,8=2,9=2,10=2,19=2,28=1/1;
 99/9=1/99;
 --------------------------------
 4c1_a1_a4_4c1_PSI.inp_extract_14
 --------------------------------
 Symbolic Z-matrix:
 Charge =  0 Multiplicity = 1
 C                    -2.11219  -1.30369   0.59175 
 C                     0.71625  -0.32159  -0.45887 
 C                    -1.14419  -0.28444   1.18348 
 C                     3.46933   0.49101  -0.05802 
 C                    -3.1429    0.23797  -0.86326 
 O                    -2.49495  -1.01391  -0.73559 
 C                     3.08708  -0.97627   0.1366 
 C                     2.26622   1.38391   0.1963 
 C                     1.8544   -1.3021   -0.70795 
 C                    -2.20626   1.37121  -0.47623 
 O                     1.15798   1.00377  -0.60727 
 O                     0.21043  -0.5474    0.8255 
 C                    -1.64248   1.1447    0.93077 
 H                    -3.00131  -1.33357   1.21765 
 H                    -1.66564  -2.28822   0.583 
 H                    -0.05604  -0.44758  -1.19788 
 H                    -1.13428  -0.45179   2.25214 
 H                     3.8219    0.64748  -1.07496 
 H                     4.27334   0.77877   0.61358 
 H                    -3.45479   0.31811  -1.89571 
 H                    -4.03212   0.241    -0.23612 
 H                     2.88183  -1.16475   1.18699 
 H                     3.90954  -1.62605  -0.14665 
 H                     2.47461   2.41244  -0.06454 
 H                     1.98138   1.35292   1.24253 
 H                     2.11233  -1.23764  -1.76176 
 H                     1.49775  -2.30922  -0.52081 
 H                    -2.75228   2.30988  -0.50466 
 H                    -1.41212   1.44324  -1.21017 
 H                    -0.85972   1.85759   1.16214 
 H                    -2.44364   1.31338   1.64659 
 
 The following ModRedundant input section has been read:
 D      13       3      12       2 F                                           
 

 GradGradGradGradGradGradGradGradGradGradGradGradGradGradGradGradGradGrad
 Berny optimization.
 Initialization pass.
                           ----------------------------
                           !    Initial Parameters    !
                           ! (Angstroms and Degrees)  !
 --------------------------                            --------------------------
 ! Name  Definition              Value          Derivative Info.                !
 --------------------------------------------------------------------------------
 ! R1    R(1,3)                  1.5251         estimate D2E/DX2                !
 ! R2    R(1,6)                  1.4115         estimate D2E/DX2                !
 ! R3    R(1,14)                 1.0877         estimate D2E/DX2                !
 ! R4    R(1,15)                 1.0811         estimate D2E/DX2                !
 ! R5    R(2,9)                  1.5228         estimate D2E/DX2                !
 ! R6    R(2,11)                 1.4049         estimate D2E/DX2                !
 ! R7    R(2,12)                 1.3987         estimate D2E/DX2                !
 ! R8    R(2,16)                 1.0763         estimate D2E/DX2                !
 ! R9    R(3,12)                 1.4256         estimate D2E/DX2                !
 ! R10   R(3,13)                 1.5345         estimate D2E/DX2                !
 ! R11   R(3,17)                 1.0817         estimate D2E/DX2                !
 ! R12   R(4,7)                  1.5287         estimate D2E/DX2                !
 ! R13   R(4,8)                  1.5197         estimate D2E/DX2                !
 ! R14   R(4,18)                 1.0876         estimate D2E/DX2                !
 ! R15   R(4,19)                 1.0864         estimate D2E/DX2                !
 ! R16   R(5,6)                  1.4154         estimate D2E/DX2                !
 ! R17   R(5,10)                 1.5203         estimate D2E/DX2                !
 ! R18   R(5,20)                 1.0815         estimate D2E/DX2                !
 ! R19   R(5,21)                 1.0881         estimate D2E/DX2                !
 ! R20   R(7,9)                  1.5294         estimate D2E/DX2                !
 ! R21   R(7,22)                 1.0867         estimate D2E/DX2                !
 ! R22   R(7,23)                 1.0858         estimate D2E/DX2                !
 ! R23   R(8,11)                 1.4207         estimate D2E/DX2                !
 ! R24   R(8,24)                 1.0814         estimate D2E/DX2                !
 ! R25   R(8,25)                 1.0847         estimate D2E/DX2                !
 ! R26   R(9,26)                 1.0868         estimate D2E/DX2                !
 ! R27   R(9,27)                 1.0847         estimate D2E/DX2                !
 ! R28   R(10,13)                1.5326         estimate D2E/DX2                !
 ! R29   R(10,28)                1.0863         estimate D2E/DX2                !
 ! R30   R(10,29)                1.0838         estimate D2E/DX2                !
 ! R31   R(13,30)                1.0837         estimate D2E/DX2                !
 ! R32   R(13,31)                1.0875         estimate D2E/DX2                !
 ! A1    A(3,1,6)              113.5634         estimate D2E/DX2                !
 ! A2    A(3,1,14)             108.2953         estimate D2E/DX2                !
 ! A3    A(3,1,15)             110.4623         estimate D2E/DX2                !
 ! A4    A(6,1,14)             108.9703         estimate D2E/DX2                !
 ! A5    A(6,1,15)             106.9391         estimate D2E/DX2                !
 ! A6    A(14,1,15)            108.498          estimate D2E/DX2                !
 ! A7    A(9,2,11)             110.8033         estimate D2E/DX2                !
 ! A8    A(9,2,12)             108.4536         estimate D2E/DX2                !
 ! A9    A(9,2,16)             110.4027         estimate D2E/DX2                !
 ! A10   A(11,2,12)            111.2845         estimate D2E/DX2                !
 ! A11   A(11,2,16)            105.2786         estimate D2E/DX2                !
 ! A12   A(12,2,16)            110.6157         estimate D2E/DX2                !
 ! A13   A(1,3,12)             112.4823         estimate D2E/DX2                !
 ! A14   A(1,3,13)             110.6361         estimate D2E/DX2                !
 ! A15   A(1,3,17)             106.6016         estimate D2E/DX2                !
 ! A16   A(12,3,13)            116.0406         estimate D2E/DX2                !
 ! A17   A(12,3,17)            102.1713         estimate D2E/DX2                !
 ! A18   A(13,3,17)            108.045          estimate D2E/DX2                !
 ! A19   A(7,4,8)              110.1627         estimate D2E/DX2                !
 ! A20   A(7,4,18)             109.7657         estimate D2E/DX2                !
 ! A21   A(7,4,19)             111.136          estimate D2E/DX2                !
 ! A22   A(8,4,18)             109.183          estimate D2E/DX2                !
 ! A23   A(8,4,19)             109.0754         estimate D2E/DX2                !
 ! A24   A(18,4,19)            107.4573         estimate D2E/DX2                !
 ! A25   A(6,5,10)             110.7498         estimate D2E/DX2                !
 ! A26   A(6,5,20)             106.4794         estimate D2E/DX2                !
 ! A27   A(6,5,21)             108.9402         estimate D2E/DX2                !
 ! A28   A(10,5,20)            111.4359         estimate D2E/DX2                !
 ! A29   A(10,5,21)            110.7733         estimate D2E/DX2                !
 ! A30   A(20,5,21)            108.3205         estimate D2E/DX2                !
 ! A31   A(1,6,5)              112.9885         estimate D2E/DX2                !
 ! A32   A(4,7,9)              109.617          estimate D2E/DX2                !
 ! A33   A(4,7,22)             109.6797         estimate D2E/DX2                !
 ! A34   A(4,7,23)             110.5967         estimate D2E/DX2                !
 ! A35   A(9,7,22)             110.156          estimate D2E/DX2                !
 ! A36   A(9,7,23)             109.8151         estimate D2E/DX2                !
 ! A37   A(22,7,23)            106.9429         estimate D2E/DX2                !
 ! A38   A(4,8,11)             111.4503         estimate D2E/DX2                !
 ! A39   A(4,8,24)             111.464          estimate D2E/DX2                !
 ! A40   A(4,8,25)             110.6408         estimate D2E/DX2                !
 ! A41   A(11,8,24)            105.5685         estimate D2E/DX2                !
 ! A42   A(11,8,25)            109.4539         estimate D2E/DX2                !
 ! A43   A(24,8,25)            108.0849         estimate D2E/DX2                !
 ! A44   A(2,9,7)              112.0192         estimate D2E/DX2                !
 ! A45   A(2,9,26)             107.3252         estimate D2E/DX2                !
 ! A46   A(2,9,27)             108.8975         estimate D2E/DX2                !
 ! A47   A(7,9,26)             109.3614         estimate D2E/DX2                !
 ! A48   A(7,9,27)             111.5655         estimate D2E/DX2                !
 ! A49   A(26,9,27)            107.4817         estimate D2E/DX2                !
 ! A50   A(5,10,13)            110.4987         estimate D2E/DX2                !
 ! A51   A(5,10,28)            109.1331         estimate D2E/DX2                !
 ! A52   A(5,10,29)            109.1837         estimate D2E/DX2                !
 ! A53   A(13,10,28)           109.6722         estimate D2E/DX2                !
 ! A54   A(13,10,29)           111.2227         estimate D2E/DX2                !
 ! A55   A(28,10,29)           107.0473         estimate D2E/DX2                !
 ! A56   A(2,11,8)             115.9728         estimate D2E/DX2                !
 ! A57   A(2,12,3)             122.9856         estimate D2E/DX2                !
 ! A58   A(3,13,10)            114.0979         estimate D2E/DX2                !
 ! A59   A(3,13,30)            110.0566         estimate D2E/DX2                !
 ! A60   A(3,13,31)            105.9788         estimate D2E/DX2                !
 ! A61   A(10,13,30)           111.376          estimate D2E/DX2                !
 ! A62   A(10,13,31)           108.0805         estimate D2E/DX2                !
 ! A63   A(30,13,31)           106.8307         estimate D2E/DX2                !
 ! D1    D(6,1,3,12)           -83.6645         estimate D2E/DX2                !
 ! D2    D(6,1,3,13)            47.9065         estimate D2E/DX2                !
 ! D3    D(6,1,3,17)           165.1439         estimate D2E/DX2                !
 ! D4    D(14,1,3,12)          155.1557         estimate D2E/DX2                !
 ! D5    D(14,1,3,13)          -73.2733         estimate D2E/DX2                !
 ! D6    D(14,1,3,17)           43.964          estimate D2E/DX2                !
 ! D7    D(15,1,3,12)           36.468          estimate D2E/DX2                !
 ! D8    D(15,1,3,13)          168.0389         estimate D2E/DX2                !
 ! D9    D(15,1,3,17)          -74.7237         estimate D2E/DX2                !
 ! D10   D(3,1,6,5)            -60.0188         estimate D2E/DX2                !
 ! D11   D(14,1,6,5)            60.7821         estimate D2E/DX2                !
 ! D12   D(15,1,6,5)           177.873          estimate D2E/DX2                !
 ! D13   D(11,2,9,7)            52.36           estimate D2E/DX2                !
 ! D14   D(11,2,9,26)          -67.6905         estimate D2E/DX2                !
 ! D15   D(11,2,9,27)          176.2443         estimate D2E/DX2                !
 ! D16   D(12,2,9,7)           -70.0617         estimate D2E/DX2                !
 ! D17   D(12,2,9,26)          169.8878         estimate D2E/DX2                !
 ! D18   D(12,2,9,27)           53.8226         estimate D2E/DX2                !
 ! D19   D(16,2,9,7)           168.5963         estimate D2E/DX2                !
 ! D20   D(16,2,9,26)           48.5458         estimate D2E/DX2                !
 ! D21   D(16,2,9,27)          -67.5194         estimate D2E/DX2                !
 ! D22   D(9,2,11,8)           -55.6847         estimate D2E/DX2                !
 ! D23   D(12,2,11,8)           65.0732         estimate D2E/DX2                !
 ! D24   D(16,2,11,8)         -175.0501         estimate D2E/DX2                !
 ! D25   D(9,2,12,3)          -151.2711         estimate D2E/DX2                !
 ! D26   D(11,2,12,3)           86.6004         estimate D2E/DX2                !
 ! D27   D(16,2,12,3)          -30.0602         estimate D2E/DX2                !
 ! D28   D(1,3,12,2)            72.9669         estimate D2E/DX2                !
 ! D29   D(13,3,12,2)          -55.8422         Frozen                          !
 ! D30   D(17,3,12,2)         -173.1051         estimate D2E/DX2                !
 ! D31   D(1,3,13,10)          -42.0055         estimate D2E/DX2                !
 ! D32   D(1,3,13,30)         -168.0461         estimate D2E/DX2                !
 ! D33   D(1,3,13,31)           76.7925         estimate D2E/DX2                !
 ! D34   D(12,3,13,10)          87.6963         estimate D2E/DX2                !
 ! D35   D(12,3,13,30)         -38.3444         estimate D2E/DX2                !
 ! D36   D(12,3,13,31)        -153.5057         estimate D2E/DX2                !
 ! D37   D(17,3,13,10)        -158.3512         estimate D2E/DX2                !
 ! D38   D(17,3,13,30)          75.6081         estimate D2E/DX2                !
 ! D39   D(17,3,13,31)         -39.5533         estimate D2E/DX2                !
 ! D40   D(8,4,7,9)             52.6675         estimate D2E/DX2                !
 ! D41   D(8,4,7,22)           -68.3951         estimate D2E/DX2                !
 ! D42   D(8,4,7,23)           173.892          estimate D2E/DX2                !
 ! D43   D(18,4,7,9)           -67.5907         estimate D2E/DX2                !
 ! D44   D(18,4,7,22)          171.3466         estimate D2E/DX2                !
 ! D45   D(18,4,7,23)           53.6338         estimate D2E/DX2                !
 ! D46   D(19,4,7,9)           173.679          estimate D2E/DX2                !
 ! D47   D(19,4,7,22)           52.6163         estimate D2E/DX2                !
 ! D48   D(19,4,7,23)          -65.0965         estimate D2E/DX2                !
 ! D49   D(7,4,8,11)           -54.6163         estimate D2E/DX2                !
 ! D50   D(7,4,8,24)          -172.2837         estimate D2E/DX2                !
 ! D51   D(7,4,8,25)            67.415          estimate D2E/DX2                !
 ! D52   D(18,4,8,11)           65.9927         estimate D2E/DX2                !
 ! D53   D(18,4,8,24)          -51.6747         estimate D2E/DX2                !
 ! D54   D(18,4,8,25)         -171.976          estimate D2E/DX2                !
 ! D55   D(19,4,8,11)         -176.8527         estimate D2E/DX2                !
 ! D56   D(19,4,8,24)           65.4798         estimate D2E/DX2                !
 ! D57   D(19,4,8,25)          -54.8215         estimate D2E/DX2                !
 ! D58   D(10,5,6,1)            62.9273         estimate D2E/DX2                !
 ! D59   D(20,5,6,1)          -175.7655         estimate D2E/DX2                !
 ! D60   D(21,5,6,1)           -59.1453         estimate D2E/DX2                !
 ! D61   D(6,5,10,13)          -54.7129         estimate D2E/DX2                !
 ! D62   D(6,5,10,28)         -175.3842         estimate D2E/DX2                !
 ! D63   D(6,5,10,29)           67.9203         estimate D2E/DX2                !
 ! D64   D(20,5,10,13)        -173.0487         estimate D2E/DX2                !
 ! D65   D(20,5,10,28)          66.28           estimate D2E/DX2                !
 ! D66   D(20,5,10,29)         -50.4155         estimate D2E/DX2                !
 ! D67   D(21,5,10,13)          66.2807         estimate D2E/DX2                !
 ! D68   D(21,5,10,28)         -54.3906         estimate D2E/DX2                !
 ! D69   D(21,5,10,29)        -171.0861         estimate D2E/DX2                !
 ! D70   D(4,7,9,2)            -52.12           estimate D2E/DX2                !
 ! D71   D(4,7,9,26)            66.7348         estimate D2E/DX2                !
 ! D72   D(4,7,9,27)          -174.4975         estimate D2E/DX2                !
 ! D73   D(22,7,9,2)            68.6545         estimate D2E/DX2                !
 ! D74   D(22,7,9,26)         -172.4907         estimate D2E/DX2                !
 ! D75   D(22,7,9,27)          -53.723          estimate D2E/DX2                !
 ! D76   D(23,7,9,2)          -173.8147         estimate D2E/DX2                !
 ! D77   D(23,7,9,26)          -54.9599         estimate D2E/DX2                !
 ! D78   D(23,7,9,27)           63.8078         estimate D2E/DX2                !
 ! D79   D(4,8,11,2)            57.6404         estimate D2E/DX2                !
 ! D80   D(24,8,11,2)          178.8112         estimate D2E/DX2                !
 ! D81   D(25,8,11,2)          -65.0741         estimate D2E/DX2                !
 ! D82   D(5,10,13,3)           45.8823         estimate D2E/DX2                !
 ! D83   D(5,10,13,30)         171.2284         estimate D2E/DX2                !
 ! D84   D(5,10,13,31)         -71.7149         estimate D2E/DX2                !
 ! D85   D(28,10,13,3)         166.2314         estimate D2E/DX2                !
 ! D86   D(28,10,13,30)        -68.4225         estimate D2E/DX2                !
 ! D87   D(28,10,13,31)         48.6342         estimate D2E/DX2                !
 ! D88   D(29,10,13,3)         -75.5516         estimate D2E/DX2                !
 ! D89   D(29,10,13,30)         49.7945         estimate D2E/DX2                !
 ! D90   D(29,10,13,31)        166.8512         estimate D2E/DX2                !
 --------------------------------------------------------------------------------
 Trust Radius=3.00D-01 FncErr=1.00D-07 GrdErr=1.00D-06 EigMax=2.50D+02 EigMin=1.00D-04
 Number of steps in this run=    186 maximum allowed number of steps=    186.
 GradGradGradGradGradGradGradGradGradGradGradGradGradGradGradGradGradGrad

                          Input orientation:                          
 ---------------------------------------------------------------------
 Center     Atomic      Atomic             Coordinates (Angstroms)
 Number     Number       Type             X           Y           Z
 ---------------------------------------------------------------------
      1          6           0       -2.112186   -1.303689    0.591754
      2          6           0        0.716250   -0.321587   -0.458866
      3          6           0       -1.144191   -0.284435    1.183479
      4          6           0        3.469327    0.491009   -0.058022
      5          6           0       -3.142901    0.237970   -0.863258
      6          8           0       -2.494950   -1.013911   -0.735588
      7          6           0        3.087079   -0.976266    0.136599
      8          6           0        2.266218    1.383908    0.196301
      9          6           0        1.854404   -1.302097   -0.707950
     10          6           0       -2.206258    1.371206   -0.476229
     11          8           0        1.157980    1.003769   -0.607266
     12          8           0        0.210429   -0.547398    0.825499
     13          6           0       -1.642478    1.144702    0.930771
     14          1           0       -3.001314   -1.333567    1.217646
     15          1           0       -1.665642   -2.288220    0.583001
     16          1           0       -0.056041   -0.447579   -1.197879
     17          1           0       -1.134282   -0.451789    2.252137
     18          1           0        3.821898    0.647475   -1.074956
     19          1           0        4.273337    0.778772    0.613580
     20          1           0       -3.454789    0.318114   -1.895710
     21          1           0       -4.032124    0.241001   -0.236117
     22          1           0        2.881829   -1.164755    1.186987
     23          1           0        3.909540   -1.626047   -0.146649
     24          1           0        2.474610    2.412442   -0.064541
     25          1           0        1.981381    1.352918    1.242526
     26          1           0        2.112335   -1.237635   -1.761755
     27          1           0        1.497752   -2.309215   -0.520805
     28          1           0       -2.752279    2.309876   -0.504660
     29          1           0       -1.412116    1.443243   -1.210168
     30          1           0       -0.859716    1.857587    1.162141
     31          1           0       -2.443636    1.313381    1.646586
 ---------------------------------------------------------------------
                    Distance matrix (angstroms):
                    1          2          3          4          5
     1  C    0.000000
     2  C    3.173071   0.000000
     3  C    1.525133   2.481918   0.000000
     4  C    5.898850   2.898348   4.840164   0.000000
     5  C    2.357148   3.920419   2.908072   6.665883   0.000000
     6  O    1.411494   3.296618   2.457540   6.188415   1.415396
     7  C    5.229410   2.530615   4.413415   1.528688   6.425475
     8  C    5.152667   2.395904   3.922853   1.519678   5.629779
     9  C    4.174095   1.522773   3.688457   2.499122   5.231537
    10  C    2.881753   3.377411   2.573667   5.758638   1.520301
    11  O    4.178037   1.404890   3.188452   2.430415   4.376021
    12  O    2.453804   1.398728   1.425586   3.532607   3.835821
    13  C    2.515984   3.105590   1.534465   5.247435   2.508380
    14  H    1.087742   4.201795   2.133249   6.842923   2.611501
    15  H    1.081101   3.259838   2.155838   5.873920   3.264291
    16  H    2.857174   1.076312   2.623271   3.822099   3.179725
    17  H    2.106870   3.284959   1.081728   5.236308   3.770412
    18  H    6.465162   3.311147   5.534530   1.087632   6.980038
    19  H    6.716549   3.874764   5.550208   1.086411   7.581168
    20  H    3.258881   4.457724   3.896580   7.165917   1.081506
    21  H    2.599538   4.786771   3.260597   7.507729   1.088133
    22  H    5.031281   2.847718   4.121142   2.153313   6.516787
    23  H    6.075388   3.463553   5.395309   2.164155   7.329735
    24  H    5.939617   3.274483   4.682566   2.163656   6.076406
    25  H    4.923246   2.701714   3.528968   2.155991   5.651168
    26  H    4.836315   2.117951   4.493101   2.780709   5.531927
    27  H    3.909031   2.136644   3.739543   3.455797   5.304817
    28  H    3.830104   4.354008   3.488009   6.497395   2.138685
    29  H    3.358967   2.865139   2.964153   5.105162   2.137439
    30  H    3.447853   3.140085   2.160935   4.700739   3.455189
    31  H    2.841054   4.134118   2.110934   6.208471   2.818652
                    6          7          8          9         10
     6  O    0.000000
     7  C    5.649883   0.000000
     8  C    5.411716   2.499560   0.000000
     9  C    4.358979   1.529352   2.863893   0.000000
    10  C    2.416484   5.822851   4.522776   4.867157   0.000000
    11  O    4.175092   2.862743   1.420710   2.410843   3.386780
    12  O    3.158117   2.988917   2.890000   2.371432   3.349017
    13  C    2.857109   5.243846   3.984290   4.571697   1.532580
    14  H    2.042965   6.193937   6.014541   5.223687   3.288940
    15  H    2.012534   4.950642   5.393847   3.876818   3.847809
    16  H    2.546119   3.455365   3.269705   2.149426   2.907265
    17  H    3.330751   4.750838   4.377173   4.291548   3.452017
    18  H    6.540485   2.155078   2.139759   2.794022   6.100895
    19  H    7.130475   2.171377   2.137484   3.453649   6.597258
    20  H    2.010339   6.971495   6.184040   5.676565   2.163968
    21  H    2.046260   7.232130   6.415788   6.103687   2.160741
    22  H    5.712163   1.086725   2.802877   2.159919   5.923345
    23  H    6.460577   1.085766   3.446440   2.154898   6.818734
    24  H    6.073444   3.449481   1.081364   3.820528   4.812919
    25  H    5.436208   2.805484   1.084748   3.296905   4.526674
    26  H    4.725478   2.149927   3.275691   1.086825   5.206618
    27  H    4.203048   2.175981   3.839784   1.084671   5.221798
    28  H    3.341722   6.731125   5.151124   5.857406   1.086300
    29  H    2.726786   5.283045   3.938504   4.296425   1.083751
    30  H    3.810625   4.965848   3.305856   4.565883   2.175775
    31  H    3.330717   6.173439   4.928593   5.554972   2.136828
                   11         12         13         14         15
    11  O    0.000000
    12  O    2.314473   0.000000
    13  C    3.198122   2.511483   0.000000
    14  H    5.108147   3.329735   2.840871   0.000000
    15  H    4.497418   2.570780   3.450570   1.760158   0.000000
    16  H    1.982191   2.043289   3.095689   3.910802   3.024948
    17  H    3.943260   1.962826   2.133789   2.309440   2.537880
    18  H    2.728028   4.252312   5.842053   7.465706   6.440514
    19  H    3.353586   4.279119   5.935603   7.599172   6.684224
    20  H    4.838166   4.646279   3.457848   3.553403   4.017217
    21  H    5.258968   4.443856   2.808685   2.378079   3.559234
    22  H    3.300530   2.765535   5.086118   5.885644   4.722972
    23  H    3.833951   3.973912   6.297840   7.050301   5.661583
    24  H    2.003104   3.831363   4.421337   6.757391   6.297398
    25  H    2.054659   2.630852   3.643199   5.660837   5.195540
    26  H    2.695836   3.284442   5.198447   5.919074   4.568886
    27  H    3.331484   2.563929   4.888523   4.920945   3.350506
    28  H    4.123902   4.325619   2.156328   4.037701   4.848327
    29  H    2.676195   3.277079   2.173894   4.016280   4.147716
    30  H    2.816186   2.653769   1.083722   3.843564   4.262937
    31  H    4.259970   3.343762   1.087519   2.738855   3.835103
                   16         17         18         19         20
    16  H    0.000000
    17  H    3.614586   0.000000
    18  H    4.031459   6.069732   0.000000
    19  H    4.850653   5.782862   1.752766   0.000000
    20  H    3.553131   4.814783   7.330231   8.138346   0.000000
    21  H    4.148297   3.881862   7.909142   8.366114   1.758838
    22  H    3.851364   4.215686   3.047014   2.458127   7.201017
    23  H    4.268455   5.707293   2.457303   2.548225   7.814878
    24  H    3.983512   5.157026   2.439515   2.522726   6.549593
    25  H    3.653554   3.739470   3.042347   2.445052   6.361705
    26  H    2.375710   5.222012   2.635894   3.791839   5.781969
    27  H    2.517616   4.250511   3.801415   4.304226   5.772424
    28  H    3.918394   4.224291   6.805044   7.276951   2.528963
    29  H    2.326864   3.956753   5.295888   6.007658   2.430719
    30  H    3.395494   2.568403   5.327897   5.273803   4.295909
    31  H    4.110057   2.279677   6.863464   6.816937   3.815868
                   21         22         23         24         25
    21  H    0.000000
    22  H    7.197508   0.000000
    23  H    8.158670   1.745728   0.000000
    24  H    6.861646   3.811625   4.286626   0.000000
    25  H    6.291660   2.674429   3.810753   1.753365   0.000000
    26  H    6.501408   3.048362   2.447320   4.041638   3.969108
    27  H    6.096243   2.478308   2.534449   4.843188   4.093220
    28  H    2.447522   6.832123   7.745934   5.246389   5.135754
    29  H    3.042795   5.566504   6.234712   4.166347   4.188041
    30  H    3.825264   4.809816   6.049334   3.595879   2.886691
    31  H    2.686608   5.891771   7.226256   5.322127   4.443602
                   26         27         28         29         30
    26  H    0.000000
    27  H    1.750986   0.000000
    28  H    6.150577   6.276864   0.000000
    29  H    4.462411   4.798280   1.744944   0.000000
    30  H    5.192558   5.074663   2.562145   2.470764   0.000000
    31  H    6.235491   5.775407   2.390841   3.040056   1.743459
                   31
    31  H    0.000000
 Stoichiometry    C10H18O3
 Framework group  C1[X(C10H18O3)]
 Deg. of freedom    87
 Full point group                 C1      NOp   1
 Largest Abelian subgroup         C1      NOp   1
 Largest concise Abelian subgroup C1      NOp   1
                         Standard orientation:                         
 ---------------------------------------------------------------------
 Center     Atomic      Atomic             Coordinates (Angstroms)
 Number     Number       Type             X           Y           Z
 ---------------------------------------------------------------------
      1          6           0       -2.112186   -1.303689    0.591754
      2          6           0        0.716250   -0.321587   -0.458866
      3          6           0       -1.144191   -0.284435    1.183479
      4          6           0        3.469327    0.491009   -0.058022
      5          6           0       -3.142901    0.237970   -0.863258
      6          8           0       -2.494950   -1.013911   -0.735588
      7          6           0        3.087079   -0.976266    0.136599
      8          6           0        2.266218    1.383908    0.196301
      9          6           0        1.854404   -1.302097   -0.707950
     10          6           0       -2.206258    1.371206   -0.476229
     11          8           0        1.157980    1.003769   -0.607266
     12          8           0        0.210429   -0.547398    0.825499
     13          6           0       -1.642478    1.144702    0.930771
     14          1           0       -3.001314   -1.333567    1.217646
     15          1           0       -1.665642   -2.288220    0.583001
     16          1           0       -0.056041   -0.447579   -1.197879
     17          1           0       -1.134282   -0.451789    2.252137
     18          1           0        3.821898    0.647475   -1.074956
     19          1           0        4.273337    0.778772    0.613580
     20          1           0       -3.454789    0.318114   -1.895710
     21          1           0       -4.032124    0.241001   -0.236117
     22          1           0        2.881829   -1.164755    1.186987
     23          1           0        3.909540   -1.626047   -0.146649
     24          1           0        2.474610    2.412442   -0.064541
     25          1           0        1.981381    1.352918    1.242526
     26          1           0        2.112335   -1.237635   -1.761755
     27          1           0        1.497752   -2.309215   -0.520805
     28          1           0       -2.752279    2.309876   -0.504660
     29          1           0       -1.412116    1.443243   -1.210168
     30          1           0       -0.859716    1.857587    1.162141
     31          1           0       -2.443636    1.313381    1.646586
 ---------------------------------------------------------------------
 Rotational constants (GHZ):           1.6839469           0.5035655           0.4609053
 Standard basis: 6-311++G(2d,2p) (5D, 7F)
 There are   557 symmetry adapted cartesian basis functions of A   symmetry.
 There are   531 symmetry adapted basis functions of A   symmetry.
   531 basis functions,   762 primitive gaussians,   557 cartesian basis functions
    51 alpha electrons       51 beta electrons
       nuclear repulsion energy       916.4165658807 Hartrees.
 NAtoms=   31 NActive=   31 NUniq=   31 SFac= 1.00D+00 NAtFMM=   60 NAOKFM=F Big=F
 Integral buffers will be    131072 words long.
 Raffenetti 2 integral format.
 Two-electron integral symmetry is turned on.
 ------------------------------------------------------------------------------
 Polarizable Continuum Model (PCM)
 =================================
 Model                : PCM.
 Atomic radii         : SMD-Coulomb.
 Polarization charges : Total charges.
 Charge compensation  : None.
 Solution method      : On-the-fly selection.
 Cavity type          : VdW (van der Waals Surface) (Alpha=1.000).
 Cavity algorithm     : GePol (No added spheres)
                        Default sphere list used, NSphG=   31.
                        Lebedev-Laikov grids with approx.  5.0 points / Ang**2.
                        Smoothing algorithm: York/Karplus (Gamma=1.0000).
                        Polarization charges: spherical gaussians, with
                                              point-specific exponents (IZeta= 3).
                        Self-potential: point-specific (ISelfS= 7).
                        Self-field    : sphere-specific E.n sum rule (ISelfD= 2).
 1st derivatives      : Analytical E(r).r(x)/FMM algorithm (CHGder, D1EAlg=3).
                        Cavity 1st derivative terms included.
 Solvent              : Water, Eps=  78.355300 Eps(inf)=   1.777849
 ------------------------------------------------------------------------------
 ------------------------------------------------------------------------------
 Atomic radii for non-electrostatic terms: SMD-CDS.
 ------------------------------------------------------------------------------
 Nuclear repulsion after PCM non-electrostatic terms =      916.4228463120 Hartrees.
 One-electron integrals computed using PRISM.
 NBasis=   531 RedAO= T EigKep=  4.12D-06  NBF=   531
 NBsUse=   531 1.00D-06 EigRej= -1.00D+00 NBFU=   531
 ExpMin= 3.60D-02 ExpMax= 8.59D+03 ExpMxC= 1.30D+03 IAcc=3 IRadAn=         5 AccDes= 0.00D+00
 Harris functional with IExCor= 1009 and IRadAn=       5 diagonalized for initial guess.
 HarFok:  IExCor= 1009 AccDes= 0.00D+00 IRadAn=         5 IDoV= 1 UseB2=F ITyADJ=14
 ICtDFT=  3500011 ScaDFX=  1.000000  1.000000  1.000000  1.000000
 FoFCou: FMM=F IPFlag=           0 FMFlag=      100000 FMFlg1=           0
         NFxFlg=           0 DoJE=T BraDBF=F KetDBF=T FulRan=T
         wScrn=  0.000000 ICntrl=       500 IOpCl=  0 I1Cent=   200000004 NGrid=           0
         NMat0=    1 NMatS0=      1 NMatT0=    0 NMatD0=    1 NMtDS0=    0 NMtDT0=    0
 Petite list used in FoFCou.
 Requested convergence on RMS density matrix=1.00D-08 within 128 cycles.
 Requested convergence on MAX density matrix=1.00D-06.
 Requested convergence on             energy=1.00D-06.
 No special actions if energy rises.
 Inv3:  Mode=1 IEnd=    12108243.
 Iteration    1 A*A^-1 deviation from unit magnitude is 6.55D-15 for    251.
 Iteration    1 A*A^-1 deviation from orthogonality  is 5.23D-15 for   2006    590.
 Iteration    1 A^-1*A deviation from unit magnitude is 5.44D-15 for    251.
 Iteration    1 A^-1*A deviation from orthogonality  is 1.63D-14 for   1715   1667.
 Error on total polarization charges =  0.05992
 SCF Done:  E(RM062X) =  -617.500051564     A.U. after   13 cycles
            NFock= 13  Conv=0.17D-08     -V/T= 2.0035
 SMD-CDS (non-electrostatic) energy       (kcal/mol) =       3.94
 (included in total energy above)

 **********************************************************************

            Population analysis using the SCF Density.

 **********************************************************************

 Orbital symmetries:
       Occupied  (A) (A) (A) (A) (A) (A) (A) (A) (A) (A) (A) (A)
                 (A) (A) (A) (A) (A) (A) (A) (A) (A) (A) (A) (A)
                 (A) (A) (A) (A) (A) (A) (A) (A) (A) (A) (A) (A)
                 (A) (A) (A) (A) (A) (A) (A) (A) (A) (A) (A) (A)
                 (A) (A) (A)
       Virtual   (A) (A) (A) (A) (A) (A) (A) (A) (A) (A) (A) (A)
                 (A) (A) (A) (A) (A) (A) (A) (A) (A) (A) (A) (A)
                 (A) (A) (A) (A) (A) (A) (A) (A) (A) (A) (A) (A)
                 (A) (A) (A) (A) (A) (A) (A) (A) (A) (A) (A) (A)
                 (A) (A) (A) (A) (A) (A) (A) (A) (A) (A) (A) (A)
                 (A) (A) (A) (A) (A) (A) (A) (A) (A) (A) (A) (A)
                 (A) (A) (A) (A) (A) (A) (A) (A) (A) (A) (A) (A)
                 (A) (A) (A) (A) (A) (A) (A) (A) (A) (A) (A) (A)
                 (A) (A) (A) (A) (A) (A) (A) (A) (A) (A) (A) (A)
                 (A) (A) (A) (A) (A) (A) (A) (A) (A) (A) (A) (A)
                 (A) (A) (A) (A) (A) (A) (A) (A) (A) (A) (A) (A)
                 (A) (A) (A) (A) (A) (A) (A) (A) (A) (A) (A) (A)
                 (A) (A) (A) (A) (A) (A) (A) (A) (A) (A) (A) (A)
                 (A) (A) (A) (A) (A) (A) (A) (A) (A) (A) (A) (A)
                 (A) (A) (A) (A) (A) (A) (A) (A) (A) (A) (A) (A)
                 (A) (A) (A) (A) (A) (A) (A) (A) (A) (A) (A) (A)
                 (A) (A) (A) (A) (A) (A) (A) (A) (A) (A) (A) (A)
                 (A) (A) (A) (A) (A) (A) (A) (A) (A) (A) (A) (A)
                 (A) (A) (A) (A) (A) (A) (A) (A) (A) (A) (A) (A)
                 (A) (A) (A) (A) (A) (A) (A) (A) (A) (A) (A) (A)
                 (A) (A) (A) (A) (A) (A) (A) (A) (A) (A) (A) (A)
                 (A) (A) (A) (A) (A) (A) (A) (A) (A) (A) (A) (A)
                 (A) (A) (A) (A) (A) (A) (A) (A) (A) (A) (A) (A)
                 (A) (A) (A) (A) (A) (A) (A) (A) (A) (A) (A) (A)
                 (A) (A) (A) (A) (A) (A) (A) (A) (A) (A) (A) (A)
                 (A) (A) (A) (A) (A) (A) (A) (A) (A) (A) (A) (A)
                 (A) (A) (A) (A) (A) (A) (A) (A) (A) (A) (A) (A)
                 (A) (A) (A) (A) (A) (A) (A) (A) (A) (A) (A) (A)
                 (A) (A) (A) (A) (A) (A) (A) (A) (A) (A) (A) (A)
                 (A) (A) (A) (A) (A) (A) (A) (A) (A) (A) (A) (A)
                 (A) (A) (A) (A) (A) (A) (A) (A) (A) (A) (A) (A)
                 (A) (A) (A) (A) (A) (A) (A) (A) (A) (A) (A) (A)
                 (A) (A) (A) (A) (A) (A) (A) (A) (A) (A) (A) (A)
                 (A) (A) (A) (A) (A) (A) (A) (A) (A) (A) (A) (A)
                 (A) (A) (A) (A) (A) (A) (A) (A) (A) (A) (A) (A)
                 (A) (A) (A) (A) (A) (A) (A) (A) (A) (A) (A) (A)
                 (A) (A) (A) (A) (A) (A) (A) (A) (A) (A) (A) (A)
                 (A) (A) (A) (A) (A) (A) (A) (A) (A) (A) (A) (A)
                 (A) (A) (A) (A) (A) (A) (A) (A) (A) (A) (A) (A)
                 (A) (A) (A) (A) (A) (A) (A) (A) (A) (A) (A) (A)
 The electronic state is 1-A.
 Alpha  occ. eigenvalues --  -19.62702 -19.62651 -19.62622 -10.62774 -10.58427
 Alpha  occ. eigenvalues --  -10.57286 -10.57115 -10.57020 -10.52578 -10.52234
 Alpha  occ. eigenvalues --  -10.52171 -10.52145 -10.52026  -1.19757  -1.16553
 Alpha  occ. eigenvalues --   -1.13210  -0.90222  -0.88886  -0.87089  -0.84334
 Alpha  occ. eigenvalues --   -0.74795  -0.73678  -0.72818  -0.70705  -0.66136
 Alpha  occ. eigenvalues --   -0.62054  -0.59211  -0.58330  -0.56641  -0.54751
 Alpha  occ. eigenvalues --   -0.54386  -0.52601  -0.51824  -0.50624  -0.49874
 Alpha  occ. eigenvalues --   -0.48244  -0.46139  -0.45529  -0.45051  -0.44821
 Alpha  occ. eigenvalues --   -0.43248  -0.42509  -0.40376  -0.39670  -0.38870
 Alpha  occ. eigenvalues --   -0.37659  -0.37131  -0.36397  -0.34359  -0.32883
 Alpha  occ. eigenvalues --   -0.31090
 Alpha virt. eigenvalues --    0.00276   0.01213   0.01375   0.01616   0.02756
 Alpha virt. eigenvalues --    0.03026   0.03103   0.03674   0.03915   0.05121
 Alpha virt. eigenvalues --    0.05200   0.05475   0.05978   0.06124   0.07711
 Alpha virt. eigenvalues --    0.08034   0.08326   0.08658   0.09224   0.10143
 Alpha virt. eigenvalues --    0.10263   0.11032   0.11425   0.11683   0.12447
 Alpha virt. eigenvalues --    0.13095   0.13351   0.13529   0.13840   0.14112
 Alpha virt. eigenvalues --    0.14189   0.14413   0.14928   0.15246   0.15377
 Alpha virt. eigenvalues --    0.15595   0.15734   0.16169   0.16363   0.16942
 Alpha virt. eigenvalues --    0.17022   0.17670   0.18032   0.18132   0.18499
 Alpha virt. eigenvalues --    0.18800   0.18969   0.19441   0.19815   0.20063
 Alpha virt. eigenvalues --    0.20397   0.20689   0.20982   0.21325   0.21416
 Alpha virt. eigenvalues --    0.22768   0.23131   0.24072   0.24307   0.24997
 Alpha virt. eigenvalues --    0.25245   0.25677   0.26832   0.27327   0.28158
 Alpha virt. eigenvalues --    0.28241   0.28867   0.29407   0.29612   0.29868
 Alpha virt. eigenvalues --    0.30696   0.30717   0.31385   0.32027   0.32740
 Alpha virt. eigenvalues --    0.33090   0.34098   0.34509   0.35133   0.35552
 Alpha virt. eigenvalues --    0.35679   0.35825   0.36536   0.36769   0.37031
 Alpha virt. eigenvalues --    0.37245   0.37652   0.38150   0.38422   0.38611
 Alpha virt. eigenvalues --    0.39030   0.39512   0.40171   0.41076   0.41241
 Alpha virt. eigenvalues --    0.42233   0.43130   0.43843   0.44147   0.45155
 Alpha virt. eigenvalues --    0.47520   0.47729   0.49819   0.50778   0.51310
 Alpha virt. eigenvalues --    0.52530   0.53140   0.54277   0.55178   0.56817
 Alpha virt. eigenvalues --    0.57605   0.58124   0.58846   0.59124   0.60531
 Alpha virt. eigenvalues --    0.60892   0.60996   0.61236   0.61926   0.62746
 Alpha virt. eigenvalues --    0.62929   0.63421   0.64076   0.64762   0.65403
 Alpha virt. eigenvalues --    0.65845   0.66561   0.67641   0.67757   0.68208
 Alpha virt. eigenvalues --    0.68705   0.69166   0.69692   0.70710   0.71200
 Alpha virt. eigenvalues --    0.71668   0.72290   0.73128   0.73764   0.74117
 Alpha virt. eigenvalues --    0.74592   0.74792   0.75114   0.76459   0.76854
 Alpha virt. eigenvalues --    0.77269   0.77409   0.78520   0.79203   0.79344
 Alpha virt. eigenvalues --    0.80777   0.82838   0.84008   0.85901   0.86439
 Alpha virt. eigenvalues --    0.87411   0.87826   0.88822   0.89500   0.90524
 Alpha virt. eigenvalues --    0.91438   0.94570   0.95082   0.96488   0.96661
 Alpha virt. eigenvalues --    0.97112   1.00102   1.00320   1.01773   1.03124
 Alpha virt. eigenvalues --    1.03985   1.04622   1.05208   1.06471   1.07679
 Alpha virt. eigenvalues --    1.08270   1.08895   1.10998   1.11516   1.12985
 Alpha virt. eigenvalues --    1.13627   1.14919   1.15624   1.16969   1.17845
 Alpha virt. eigenvalues --    1.18238   1.18621   1.19683   1.20152   1.21172
 Alpha virt. eigenvalues --    1.21655   1.22339   1.22737   1.23648   1.24949
 Alpha virt. eigenvalues --    1.25635   1.26556   1.27270   1.27449   1.28278
 Alpha virt. eigenvalues --    1.29094   1.30176   1.31727   1.32194   1.33168
 Alpha virt. eigenvalues --    1.33563   1.34683   1.34974   1.35049   1.35792
 Alpha virt. eigenvalues --    1.36856   1.38028   1.38406   1.39058   1.39782
 Alpha virt. eigenvalues --    1.40177   1.40743   1.41009   1.41916   1.42345
 Alpha virt. eigenvalues --    1.43869   1.44337   1.44412   1.45489   1.45936
 Alpha virt. eigenvalues --    1.46808   1.47725   1.48508   1.48904   1.49245
 Alpha virt. eigenvalues --    1.50334   1.51431   1.51600   1.52451   1.53559
 Alpha virt. eigenvalues --    1.53791   1.54469   1.55666   1.56242   1.57085
 Alpha virt. eigenvalues --    1.57631   1.58278   1.59115   1.59444   1.59934
 Alpha virt. eigenvalues --    1.60522   1.60937   1.61992   1.62468   1.63816
 Alpha virt. eigenvalues --    1.64553   1.65241   1.65930   1.67071   1.68070
 Alpha virt. eigenvalues --    1.69193   1.70447   1.70702   1.72209   1.72760
 Alpha virt. eigenvalues --    1.75378   1.76050   1.78156   1.78411   1.79381
 Alpha virt. eigenvalues --    1.79560   1.80237   1.82099   1.83699   1.85745
 Alpha virt. eigenvalues --    1.87233   1.89519   1.92274   1.95927   1.98047
 Alpha virt. eigenvalues --    2.01608   2.07353   2.13442   2.17482   2.22773
 Alpha virt. eigenvalues --    2.23545   2.25042   2.31324   2.35361   2.38445
 Alpha virt. eigenvalues --    2.42067   2.43421   2.46769   2.47820   2.54301
 Alpha virt. eigenvalues --    2.61813   2.77149   2.78864   2.80014   2.81435
 Alpha virt. eigenvalues --    2.88220   2.89526   2.92836   2.94238   2.95075
 Alpha virt. eigenvalues --    2.95579   2.97887   2.98670   3.01439   3.04293
 Alpha virt. eigenvalues --    3.07623   3.09619   3.09930   3.10593   3.12731
 Alpha virt. eigenvalues --    3.14418   3.15820   3.17602   3.20956   3.25159
 Alpha virt. eigenvalues --    3.26105   3.28683   3.31367   3.34327   3.34636
 Alpha virt. eigenvalues --    3.36031   3.37222   3.38853   3.41494   3.42288
 Alpha virt. eigenvalues --    3.43668   3.45237   3.45572   3.46772   3.47606
 Alpha virt. eigenvalues --    3.48534   3.48949   3.50719   3.52262   3.52971
 Alpha virt. eigenvalues --    3.54063   3.54578   3.55588   3.56009   3.56837
 Alpha virt. eigenvalues --    3.57136   3.57807   3.59004   3.59868   3.60384
 Alpha virt. eigenvalues --    3.61169   3.61981   3.64470   3.65412   3.66599
 Alpha virt. eigenvalues --    3.67510   3.67967   3.68923   3.70864   3.71546
 Alpha virt. eigenvalues --    3.71701   3.73055   3.73619   3.74187   3.75447
 Alpha virt. eigenvalues --    3.76190   3.76402   3.76861   3.77657   3.79338
 Alpha virt. eigenvalues --    3.80167   3.81805   3.82787   3.85188   3.85698
 Alpha virt. eigenvalues --    3.86590   3.86876   3.90332   3.91168   3.91986
 Alpha virt. eigenvalues --    3.93353   3.94042   3.95862   3.96508   3.99878
 Alpha virt. eigenvalues --    4.00780   4.02026   4.02223   4.03833   4.05095
 Alpha virt. eigenvalues --    4.06302   4.06854   4.07953   4.08530   4.09156
 Alpha virt. eigenvalues --    4.09896   4.10282   4.11367   4.11730   4.12033
 Alpha virt. eigenvalues --    4.12740   4.13991   4.15401   4.16286   4.16623
 Alpha virt. eigenvalues --    4.18363   4.18599   4.19176   4.20077   4.21263
 Alpha virt. eigenvalues --    4.22376   4.24232   4.25775   4.26602   4.28594
 Alpha virt. eigenvalues --    4.29752   4.30739   4.32106   4.32549   4.33675
 Alpha virt. eigenvalues --    4.34528   4.35377   4.37187   4.38017   4.40053
 Alpha virt. eigenvalues --    4.40621   4.43651   4.45020   4.47198   4.49533
 Alpha virt. eigenvalues --    4.58737   4.61576   4.73762   4.76150   4.81296
 Alpha virt. eigenvalues --    4.86331   4.94287   4.96320   5.01918   5.04755
 Alpha virt. eigenvalues --    5.07656   5.07872   5.08607   5.10036   5.12217
 Alpha virt. eigenvalues --    5.13132   5.14740   5.16703   5.34364   5.40517
 Alpha virt. eigenvalues --    5.41293   5.59738   5.61289   5.67326   5.85345
 Alpha virt. eigenvalues --    5.88003   6.01402   7.01637   7.04816   7.07386
 Alpha virt. eigenvalues --    7.08046   7.10699   7.12282   7.14042   7.19047
 Alpha virt. eigenvalues --    7.28444   7.37409   7.42092   7.48838   7.53339
 Alpha virt. eigenvalues --    7.54220   7.63343  23.97553  23.98065  24.07154
 Alpha virt. eigenvalues --   24.08991  24.10045  24.12449  24.14376  24.15781
 Alpha virt. eigenvalues --   24.16667  24.21549  50.16304  50.18710  50.27941
          Condensed to atoms (all electrons):
               1          2          3          4          5          6
     1  C    6.182987   0.080342  -0.972579  -0.004409  -0.245154   0.107809
     2  C    0.080342   7.709143  -0.721221   0.466137   0.078480   0.009854
     3  C   -0.972579  -0.721221   7.794613  -0.013019   0.125919   0.029809
     4  C   -0.004409   0.466137  -0.013019   5.680702   0.002481   0.000891
     5  C   -0.245154   0.078480   0.125919   0.002481   5.611538   0.083344
     6  O    0.107809   0.009854   0.029809   0.000891   0.083344   8.362503
     7  C   -0.003921  -0.257605   0.098359   0.038630   0.003191  -0.001956
     8  C    0.005661  -0.489887   0.045843  -0.075823  -0.014455   0.002961
     9  C   -0.040705  -1.629565  -0.015022  -0.340570   0.024189  -0.003149
    10  C   -0.027322  -0.105099   0.265840   0.012971  -0.157704   0.036076
    11  O   -0.012002   0.194049   0.015638  -0.074633  -0.008494   0.000724
    12  O   -0.013028   0.300602  -0.087673  -0.008862  -0.015870  -0.002206
    13  C    0.522196   0.219063  -1.227453  -0.020895   0.079392  -0.028463
    14  H    0.441334   0.002362   0.004309  -0.000768  -0.011796  -0.055374
    15  H    0.431472   0.019296  -0.056170   0.002764   0.007669  -0.071790
    16  H   -0.034386   0.512951   0.009929   0.023141   0.006982  -0.015817
    17  H   -0.019095  -0.020225   0.470670  -0.001795  -0.011953   0.006296
    18  H   -0.001579  -0.023779  -0.001611   0.485790  -0.000061   0.000018
    19  H    0.001045   0.017548   0.002531   0.450769  -0.000288   0.000020
    20  H   -0.013075   0.006622   0.012256  -0.000468   0.452829  -0.067761
    21  H   -0.029244  -0.008048   0.074295   0.000205   0.450121  -0.058127
    22  H    0.000546  -0.050521   0.001864  -0.071068   0.000866  -0.000279
    23  H   -0.000382   0.008320   0.003756  -0.014689   0.000158  -0.000044
    24  H    0.002510   0.004119   0.000180  -0.026433  -0.000633  -0.000106
    25  H   -0.003166  -0.039156  -0.027073  -0.062118   0.001933  -0.000198
    26  H    0.002029  -0.145212  -0.001718  -0.020206   0.002979  -0.000677
    27  H   -0.005865  -0.038287   0.015266  -0.007515  -0.002135   0.000891
    28  H   -0.005218   0.012488   0.016605   0.000096  -0.017657   0.009375
    29  H    0.028182  -0.058053   0.024420   0.001060  -0.101756  -0.008628
    30  H   -0.009399   0.013089  -0.029711  -0.004407  -0.003515  -0.002543
    31  H   -0.004586  -0.011784  -0.052107  -0.000043  -0.017007   0.000782
               7          8          9         10         11         12
     1  C   -0.003921   0.005661  -0.040705  -0.027322  -0.012002  -0.013028
     2  C   -0.257605  -0.489887  -1.629565  -0.105099   0.194049   0.300602
     3  C    0.098359   0.045843  -0.015022   0.265840   0.015638  -0.087673
     4  C    0.038630  -0.075823  -0.340570   0.012971  -0.074633  -0.008862
     5  C    0.003191  -0.014455   0.024189  -0.157704  -0.008494  -0.015870
     6  O   -0.001956   0.002961  -0.003149   0.036076   0.000724  -0.002206
     7  C    5.720586  -0.054924  -0.017126   0.000610   0.011799  -0.032648
     8  C   -0.054924   5.569367   0.226227   0.017279   0.067121  -0.004804
     9  C   -0.017126   0.226227   7.756849  -0.205539  -0.014843  -0.081312
    10  C    0.000610   0.017279  -0.205539   5.877646  -0.003814  -0.027989
    11  O    0.011799   0.067121  -0.014843  -0.003814   8.323604  -0.073357
    12  O   -0.032648  -0.004804  -0.081312  -0.027989  -0.073357   8.363730
    13  C   -0.020627   0.022181   0.132874  -0.427737   0.017195   0.084586
    14  H    0.000514   0.001001   0.003628   0.023538  -0.000756  -0.005513
    15  H   -0.000944  -0.002830  -0.018423   0.006442   0.000852   0.010882
    16  H   -0.039813  -0.037625  -0.062362  -0.013807  -0.080329  -0.016186
    17  H    0.008836   0.002297  -0.007801   0.014443   0.005157  -0.051191
    18  H   -0.014993  -0.085219   0.008239  -0.000027   0.003459   0.000538
    19  H   -0.055626  -0.039468  -0.012173   0.000842   0.007991  -0.000220
    20  H    0.000511  -0.000018   0.005478  -0.066202   0.000389  -0.000819
    21  H   -0.000090   0.000382  -0.001675   0.011449   0.000434  -0.000746
    22  H    0.532165   0.000885  -0.033922  -0.001016   0.001456   0.001363
    23  H    0.413856   0.007715  -0.037119  -0.001227  -0.004127  -0.000311
    24  H    0.011106   0.434758  -0.009458  -0.000333  -0.071547   0.001691
    25  H   -0.014388   0.485518   0.048230  -0.010706  -0.031811   0.007845
    26  H    0.002345   0.014607   0.522745  -0.004919  -0.004110   0.008232
    27  H   -0.041697   0.008882   0.430138   0.003947   0.009648  -0.000955
    28  H   -0.000338  -0.000422  -0.005729   0.428630  -0.001238  -0.001036
    29  H    0.002385   0.009888  -0.031385   0.565828  -0.000442  -0.001331
    30  H   -0.008819  -0.002966   0.023637  -0.051073  -0.005904   0.000023
    31  H    0.001162   0.002702  -0.002218  -0.021326   0.002037   0.002175
              13         14         15         16         17         18
     1  C    0.522196   0.441334   0.431472  -0.034386  -0.019095  -0.001579
     2  C    0.219063   0.002362   0.019296   0.512951  -0.020225  -0.023779
     3  C   -1.227453   0.004309  -0.056170   0.009929   0.470670  -0.001611
     4  C   -0.020895  -0.000768   0.002764   0.023141  -0.001795   0.485790
     5  C    0.079392  -0.011796   0.007669   0.006982  -0.011953  -0.000061
     6  O   -0.028463  -0.055374  -0.071790  -0.015817   0.006296   0.000018
     7  C   -0.020627   0.000514  -0.000944  -0.039813   0.008836  -0.014993
     8  C    0.022181   0.001001  -0.002830  -0.037625   0.002297  -0.085219
     9  C    0.132874   0.003628  -0.018423  -0.062362  -0.007801   0.008239
    10  C   -0.427737   0.023538   0.006442  -0.013807   0.014443  -0.000027
    11  O    0.017195  -0.000756   0.000852  -0.080329   0.005157   0.003459
    12  O    0.084586  -0.005513   0.010882  -0.016186  -0.051191   0.000538
    13  C    6.653500  -0.053440   0.005948  -0.008485  -0.057078   0.000674
    14  H   -0.053440   0.459314  -0.001527  -0.000489  -0.003178  -0.000022
    15  H    0.005948  -0.001527   0.466261   0.000357  -0.010631  -0.000019
    16  H   -0.008485  -0.000489   0.000357   0.466986  -0.008243   0.000633
    17  H   -0.057078  -0.003178  -0.010631  -0.008243   0.432341  -0.000061
    18  H    0.000674  -0.000022  -0.000019   0.000633  -0.000061   0.476028
    19  H   -0.001262   0.000009   0.000038   0.001443   0.000089  -0.011495
    20  H    0.018739  -0.000033   0.001453  -0.003092  -0.000036   0.000057
    21  H   -0.087443   0.005028  -0.002303  -0.000913   0.004161  -0.000007
    22  H    0.000720  -0.000067  -0.000216  -0.003647  -0.000224   0.001694
    23  H   -0.000871   0.000060  -0.000183   0.001208   0.000352  -0.000851
    24  H    0.003135  -0.000047   0.000111  -0.000452   0.000098  -0.005501
    25  H    0.023610  -0.000053  -0.000032   0.002365  -0.003785   0.003617
    26  H    0.004806  -0.000246   0.000649  -0.019240  -0.000209  -0.001509
    27  H   -0.005455   0.000411  -0.001981  -0.008314   0.000810  -0.001479
    28  H   -0.064240   0.000860   0.001300  -0.000051  -0.000453   0.000034
    29  H   -0.085123  -0.001384  -0.001513  -0.012789   0.004930  -0.000422
    30  H    0.447773   0.000034  -0.000354   0.008198  -0.011104   0.000388
    31  H    0.466918  -0.002947  -0.001399  -0.001003  -0.004462  -0.000016
              19         20         21         22         23         24
     1  C    0.001045  -0.013075  -0.029244   0.000546  -0.000382   0.002510
     2  C    0.017548   0.006622  -0.008048  -0.050521   0.008320   0.004119
     3  C    0.002531   0.012256   0.074295   0.001864   0.003756   0.000180
     4  C    0.450769  -0.000468   0.000205  -0.071068  -0.014689  -0.026433
     5  C   -0.000288   0.452829   0.450121   0.000866   0.000158  -0.000633
     6  O    0.000020  -0.067761  -0.058127  -0.000279  -0.000044  -0.000106
     7  C   -0.055626   0.000511  -0.000090   0.532165   0.413856   0.011106
     8  C   -0.039468  -0.000018   0.000382   0.000885   0.007715   0.434758
     9  C   -0.012173   0.005478  -0.001675  -0.033922  -0.037119  -0.009458
    10  C    0.000842  -0.066202   0.011449  -0.001016  -0.001227  -0.000333
    11  O    0.007991   0.000389   0.000434   0.001456  -0.004127  -0.071547
    12  O   -0.000220  -0.000819  -0.000746   0.001363  -0.000311   0.001691
    13  C   -0.001262   0.018739  -0.087443   0.000720  -0.000871   0.003135
    14  H    0.000009  -0.000033   0.005028  -0.000067   0.000060  -0.000047
    15  H    0.000038   0.001453  -0.002303  -0.000216  -0.000183   0.000111
    16  H    0.001443  -0.003092  -0.000913  -0.003647   0.001208  -0.000452
    17  H    0.000089  -0.000036   0.004161  -0.000224   0.000352   0.000098
    18  H   -0.011495   0.000057  -0.000007   0.001694  -0.000851  -0.005501
    19  H    0.477824  -0.000034   0.000013  -0.004280  -0.008593  -0.009045
    20  H   -0.000034   0.470475  -0.007028   0.000020   0.000022  -0.000080
    21  H    0.000013  -0.007028   0.475502  -0.000025  -0.000006  -0.000001
    22  H   -0.004280   0.000020  -0.000025   0.451634  -0.005312  -0.001989
    23  H   -0.008593   0.000022  -0.000006  -0.005312   0.459184   0.000953
    24  H   -0.009045  -0.000080  -0.000001  -0.001989   0.000953   0.465568
    25  H    0.000349   0.000153  -0.000156  -0.000456  -0.001249  -0.009156
    26  H   -0.002552  -0.000211  -0.000010   0.002093  -0.002893   0.000085
    27  H    0.001347   0.000217   0.000033  -0.001394  -0.009380   0.001098
    28  H    0.000008  -0.007620   0.005967  -0.000029  -0.000055  -0.000072
    29  H    0.000391  -0.007270   0.002281   0.000111  -0.000205   0.000203
    30  H   -0.000143   0.000273  -0.001618  -0.000279   0.000230  -0.002242
    31  H   -0.000017  -0.000999  -0.004052   0.000137  -0.000039   0.000358
              25         26         27         28         29         30
     1  C   -0.003166   0.002029  -0.005865  -0.005218   0.028182  -0.009399
     2  C   -0.039156  -0.145212  -0.038287   0.012488  -0.058053   0.013089
     3  C   -0.027073  -0.001718   0.015266   0.016605   0.024420  -0.029711
     4  C   -0.062118  -0.020206  -0.007515   0.000096   0.001060  -0.004407
     5  C    0.001933   0.002979  -0.002135  -0.017657  -0.101756  -0.003515
     6  O   -0.000198  -0.000677   0.000891   0.009375  -0.008628  -0.002543
     7  C   -0.014388   0.002345  -0.041697  -0.000338   0.002385  -0.008819
     8  C    0.485518   0.014607   0.008882  -0.000422   0.009888  -0.002966
     9  C    0.048230   0.522745   0.430138  -0.005729  -0.031385   0.023637
    10  C   -0.010706  -0.004919   0.003947   0.428630   0.565828  -0.051073
    11  O   -0.031811  -0.004110   0.009648  -0.001238  -0.000442  -0.005904
    12  O    0.007845   0.008232  -0.000955  -0.001036  -0.001331   0.000023
    13  C    0.023610   0.004806  -0.005455  -0.064240  -0.085123   0.447773
    14  H   -0.000053  -0.000246   0.000411   0.000860  -0.001384   0.000034
    15  H   -0.000032   0.000649  -0.001981   0.001300  -0.001513  -0.000354
    16  H    0.002365  -0.019240  -0.008314  -0.000051  -0.012789   0.008198
    17  H   -0.003785  -0.000209   0.000810  -0.000453   0.004930  -0.011104
    18  H    0.003617  -0.001509  -0.001479   0.000034  -0.000422   0.000388
    19  H    0.000349  -0.002552   0.001347   0.000008   0.000391  -0.000143
    20  H    0.000153  -0.000211   0.000217  -0.007620  -0.007270   0.000273
    21  H   -0.000156  -0.000010   0.000033   0.005967   0.002281  -0.001618
    22  H   -0.000456   0.002093  -0.001394  -0.000029   0.000111  -0.000279
    23  H   -0.001249  -0.002893  -0.009380  -0.000055  -0.000205   0.000230
    24  H   -0.009156   0.000085   0.001098  -0.000072   0.000203  -0.002242
    25  H    0.476760  -0.000068  -0.000649   0.000036  -0.001771   0.000882
    26  H   -0.000068   0.444990  -0.003335  -0.000221   0.001077  -0.000319
    27  H   -0.000649  -0.003335   0.472358   0.000155  -0.000452  -0.000315
    28  H    0.000036  -0.000221   0.000155   0.450606  -0.013590  -0.006696
    29  H   -0.001771   0.001077  -0.000452  -0.013590   0.483943  -0.007638
    30  H    0.000882  -0.000319  -0.000315  -0.006696  -0.007638   0.482965
    31  H    0.000271   0.000234  -0.000059  -0.011577   0.003954  -0.000896
              31
     1  C   -0.004586
     2  C   -0.011784
     3  C   -0.052107
     4  C   -0.000043
     5  C   -0.017007
     6  O    0.000782
     7  C    0.001162
     8  C    0.002702
     9  C   -0.002218
    10  C   -0.021326
    11  O    0.002037
    12  O    0.002175
    13  C    0.466918
    14  H   -0.002947
    15  H   -0.001399
    16  H   -0.001003
    17  H   -0.004462
    18  H   -0.000016
    19  H   -0.000017
    20  H   -0.000999
    21  H   -0.004052
    22  H    0.000137
    23  H   -0.000039
    24  H    0.000358
    25  H    0.000271
    26  H    0.000234
    27  H   -0.000059
    28  H   -0.011577
    29  H    0.003954
    30  H   -0.000896
    31  H    0.402754
 Mulliken charges:
               1
     1  C   -0.360999
     2  C   -0.056023
     3  C    0.193252
     4  C   -0.417917
     5  C   -0.323593
     6  O   -0.334233
     7  C   -0.280539
     8  C   -0.116835
     9  C   -0.612139
    10  C   -0.139699
    11  O   -0.274145
    12  O   -0.355611
    13  C   -0.614739
    14  H    0.195238
    15  H    0.214818
    16  H    0.332850
    17  H    0.261041
    18  H    0.167482
    19  H    0.182939
    20  H    0.205254
    21  H    0.171623
    22  H    0.179171
    23  H    0.191722
    24  H    0.211122
    25  H    0.154423
    26  H    0.200787
    27  H    0.184066
    28  H    0.210081
    29  H    0.205099
    30  H    0.172450
    31  H    0.253052
 Sum of Mulliken charges =  -0.00000
 Mulliken charges with hydrogens summed into heavy atoms:
               1
     1  C    0.049058
     2  C    0.276827
     3  C    0.454294
     4  C   -0.067497
     5  C    0.053284
     6  O   -0.334233
     7  C    0.090354
     8  C    0.248711
     9  C   -0.227285
    10  C    0.275481
    11  O   -0.274145
    12  O   -0.355611
    13  C   -0.189237
 Electronic spatial extent (au):  <R**2>=           2660.6170
 Charge=             -0.0000 electrons
 Dipole moment (field-independent basis, Debye):
    X=             -0.4111    Y=              0.8600    Z=              1.7109  Tot=              1.9585
 Quadrupole moment (field-independent basis, Debye-Ang):
   XX=            -69.2423   YY=            -79.9646   ZZ=            -79.6706
   XY=             -3.8460   XZ=             -4.0782   YZ=              0.1584
 Traceless Quadrupole moment (field-independent basis, Debye-Ang):
   XX=              7.0502   YY=             -3.6721   ZZ=             -3.3781
   XY=             -3.8460   XZ=             -4.0782   YZ=              0.1584
 Octapole moment (field-independent basis, Debye-Ang**2):
  XXX=             -1.3133  YYY=             -0.0770  ZZZ=              1.5650  XYY=              3.8262
  XXY=             16.6134  XXZ=              8.3834  XZZ=             -6.7420  YZZ=              0.3842
  YYZ=              5.0259  XYZ=             12.2772
 Hexadecapole moment (field-independent basis, Debye-Ang**3):
 XXXX=          -2425.3219 YYYY=           -619.1307 ZZZZ=           -365.9165 XXXY=            -19.1595
 XXXZ=             -8.5774 YYYX=             12.9485 YYYZ=             -4.2644 ZZZX=              0.2990
 ZZZY=             -2.5130 XXYY=           -522.6600 XXZZ=           -472.0404 YYZZ=           -177.2513
 XXYZ=            -14.7567 YYXZ=             -9.4008 ZZXY=             -2.1194
 N-N= 9.164228463120D+02 E-N=-3.275367057893D+03  KE= 6.153459315555D+02
 D1PCM: PCM CHGder 1st derivatives, ID1Alg=3 FixD1E=F DoIter=F DoCFld=F I1PDM=0.
 Calling FoFJK, ICntrl=      2127 FMM=F ISym2X=0 I1Cent= 0 IOpClX= 0 NMat=1 NMatS=1 NMatT=0.
 ***** Axes restored to original set *****
 -------------------------------------------------------------------
 Center     Atomic                   Forces (Hartrees/Bohr)
 Number     Number              X              Y              Z
 -------------------------------------------------------------------
      1        6           0.001868230    0.006338906    0.002488861
      2        6           0.004015305   -0.004103801    0.000707830
      3        6          -0.003743734    0.002145291   -0.006291375
      4        6          -0.002308676   -0.001142653    0.001723319
      5        6           0.004034943    0.004632468    0.003375520
      6        8           0.002911871   -0.007054503   -0.009975109
      7        6          -0.002266009    0.002928910   -0.002126766
      8        6           0.004634672   -0.005667796   -0.000183759
      9        6           0.001034629    0.001243885    0.002389602
     10        6          -0.000996406   -0.002296507    0.003110414
     11        8          -0.006258602    0.010264391   -0.008765840
     12        8           0.006872182   -0.004598985    0.010386263
     13        6          -0.001139109   -0.003454934   -0.003502982
     14        1          -0.004469239    0.000369660    0.004004276
     15        1           0.002968425   -0.004311583    0.000056626
     16        1          -0.006725536   -0.000495405   -0.005931435
     17        1          -0.000540512   -0.000619223    0.005345053
     18        1           0.000301725    0.000372016   -0.003366498
     19        1           0.001911026    0.000668460    0.001805616
     20        1          -0.001098710    0.000496477   -0.004280145
     21        1          -0.004178762    0.000654688    0.003947115
     22        1          -0.001448658   -0.000100471    0.003510024
     23        1           0.001841121   -0.001513348   -0.000823984
     24        1           0.000976258    0.004196323   -0.001025324
     25        1          -0.001177055   -0.000861759    0.006010552
     26        1           0.000717034    0.000920215   -0.003150150
     27        1          -0.001416913   -0.002851812    0.000832071
     28        1          -0.001360548    0.002442940   -0.000073401
     29        1           0.004135488   -0.000719542   -0.002994170
     30        1           0.003734406    0.001954519    0.000671247
     31        1          -0.002828847    0.000163172    0.002126550
 -------------------------------------------------------------------
 Cartesian Forces:  Max     0.010386263 RMS     0.003722726

 GradGradGradGradGradGradGradGradGradGradGradGradGradGradGradGradGradGrad
 Berny optimization.
 FormGI is forming the generalized inverse of G from B-inverse, IUseBI=4.
 Internal  Forces:  Max     0.022025300 RMS     0.002640364
 Search for a local minimum.
 Step number   1 out of a maximum of  186
 All quantities printed in internal units (Hartrees-Bohrs-Radians)
 Mixed Optimization -- RFO/linear search
 Second derivative matrix not updated -- first step.
 ITU=  0
     Eigenvalues ---    0.00496   0.00623   0.00686   0.00719   0.01414
     Eigenvalues ---    0.01421   0.01709   0.02703   0.02765   0.02911
     Eigenvalues ---    0.03077   0.03920   0.04086   0.04454   0.04738
     Eigenvalues ---    0.04745   0.04892   0.04933   0.05070   0.05141
     Eigenvalues ---    0.05280   0.05493   0.05690   0.06153   0.06174
     Eigenvalues ---    0.06313   0.06548   0.07069   0.07619   0.07849
     Eigenvalues ---    0.07958   0.08001   0.08160   0.08242   0.08583
     Eigenvalues ---    0.08827   0.09188   0.09900   0.10892   0.11596
     Eigenvalues ---    0.11704   0.11764   0.11836   0.12397   0.12697
     Eigenvalues ---    0.14654   0.15214   0.16465   0.16518   0.18135
     Eigenvalues ---    0.19070   0.21583   0.21951   0.25000   0.28255
     Eigenvalues ---    0.28544   0.28611   0.28805   0.28836   0.28930
     Eigenvalues ---    0.30121   0.30258   0.35029   0.35075   0.35088
     Eigenvalues ---    0.35101   0.35182   0.35194   0.35231   0.35244
     Eigenvalues ---    0.35307   0.35427   0.35436   0.35545   0.35548
     Eigenvalues ---    0.35786   0.35813   0.35830   0.35862   0.36444
     Eigenvalues ---    0.40964   0.41482   0.41630   0.42238   0.43293
     Eigenvalues ---    0.458321000.000001000.000001000.000001000.00000
     Eigenvalues --- 1000.000001000.000001000.000001000.000001000.00000
     Eigenvalues --- 1000.000001000.000001000.000001000.000001000.00000
     Eigenvalues --- 1000.000001000.000001000.000001000.000001000.00000
     Eigenvalues --- 1000.000001000.000001000.000001000.000001000.00000
     Eigenvalues --- 1000.000001000.000001000.000001000.000001000.00000
     Eigenvalues --- 1000.000001000.000001000.000001000.000001000.00000
     Eigenvalues --- 1000.000001000.000001000.000001000.000001000.00000
     Eigenvalues --- 1000.000001000.000001000.000001000.000001000.00000
     Eigenvalues --- 1000.000001000.000001000.000001000.000001000.00000
     Eigenvalues --- 1000.000001000.000001000.000001000.000001000.00000
     Eigenvalues --- 1000.000001000.000001000.000001000.000001000.00000
     Eigenvalues --- 1000.000001000.000001000.000001000.000001000.00000
     Eigenvalues --- 1000.000001000.000001000.000001000.000001000.00000
     Eigenvalues --- 1000.000001000.000001000.000001000.000001000.00000
     Eigenvalues --- 1000.000001000.000001000.000001000.000001000.00000
     Eigenvalues --- 1000.000001000.000001000.000001000.000001000.00000
     Eigenvalues --- 1000.000001000.000001000.000001000.000001000.00000
     Eigenvalues --- 1000.000001000.000001000.000001000.000001000.00000
     Eigenvalues --- 1000.000001000.000001000.000001000.000001000.00000
 RFO step:  Lambda=-5.97813112D-03 EMin= 4.96048468D-03
 Linear search not attempted -- first point.
 Iteration  1 RMS(Cart)=  0.13053754 RMS(Int)=  0.00301061
 Iteration  2 RMS(Cart)=  0.00832131 RMS(Int)=  0.00011248
 Iteration  3 RMS(Cart)=  0.00002056 RMS(Int)=  0.00011194
 Iteration  4 RMS(Cart)=  0.00000000 RMS(Int)=  0.00011194
 Iteration  1 RMS(Cart)=  0.00013710 RMS(Int)=  0.00002939
 Iteration  2 RMS(Cart)=  0.00007612 RMS(Int)=  0.00003282
 Iteration  3 RMS(Cart)=  0.00004227 RMS(Int)=  0.00003715
 Iteration  4 RMS(Cart)=  0.00002347 RMS(Int)=  0.00004006
 Iteration  5 RMS(Cart)=  0.00001303 RMS(Int)=  0.00004180
 Iteration  6 RMS(Cart)=  0.00000724 RMS(Int)=  0.00004280
 Iteration  7 RMS(Cart)=  0.00000402 RMS(Int)=  0.00004336
 Iteration  8 RMS(Cart)=  0.00000223 RMS(Int)=  0.00004368
 Iteration  9 RMS(Cart)=  0.00000124 RMS(Int)=  0.00004385
 Iteration 10 RMS(Cart)=  0.00000069 RMS(Int)=  0.00004395
 Variable       Old X    -DE/DX   Delta X   Delta X   Delta X     New X
                                 (Linear)    (Quad)   (Total)
    R1        2.88208  -0.00137   0.00000  -0.00326  -0.00314   2.87895
    R2        2.66734   0.00633   0.00000   0.01538   0.01545   2.68279
    R3        2.05553   0.00595   0.00000   0.01667   0.01667   2.07221
    R4        2.04298   0.00515   0.00000   0.01413   0.01413   2.05711
    R5        2.87762  -0.00109   0.00000  -0.00371  -0.00372   2.87391
    R6        2.65486   0.00782   0.00000   0.01749   0.01753   2.67238
    R7        2.64321   0.00610   0.00000   0.01313   0.01313   2.65634
    R8        2.03393   0.00896   0.00000   0.02418   0.02418   2.05811
    R9        2.69397   0.00031   0.00000   0.00073   0.00073   2.69469
   R10        2.89972  -0.00253   0.00000  -0.00927  -0.00916   2.89056
   R11        2.04417   0.00537   0.00000   0.01476   0.01476   2.05893
   R12        2.88880  -0.00066   0.00000  -0.00256  -0.00259   2.88621
   R13        2.87177  -0.00057   0.00000  -0.00164  -0.00163   2.87015
   R14        2.05533   0.00330   0.00000   0.00925   0.00925   2.06457
   R15        2.05302   0.00271   0.00000   0.00756   0.00756   2.06057
   R16        2.67471   0.00584   0.00000   0.01388   0.01378   2.68849
   R17        2.87295  -0.00047   0.00000  -0.00252  -0.00265   2.87031
   R18        2.04375   0.00444   0.00000   0.01219   0.01219   2.05594
   R19        2.05627   0.00569   0.00000   0.01598   0.01598   2.07225
   R20        2.89006  -0.00113   0.00000  -0.00437  -0.00440   2.88566
   R21        2.05361   0.00368   0.00000   0.01029   0.01029   2.06391
   R22        2.05180   0.00252   0.00000   0.00701   0.00701   2.05881
   R23        2.68475   0.00579   0.00000   0.01391   0.01394   2.69869
   R24        2.04348   0.00443   0.00000   0.01215   0.01215   2.05563
   R25        2.04988   0.00613   0.00000   0.01702   0.01702   2.06689
   R26        2.05380   0.00328   0.00000   0.00916   0.00916   2.06296
   R27        2.04973   0.00326   0.00000   0.00904   0.00904   2.05877
   R28        2.89616  -0.00136   0.00000  -0.00631  -0.00638   2.88978
   R29        2.05281   0.00280   0.00000   0.00780   0.00780   2.06061
   R30        2.04799   0.00501   0.00000   0.01387   0.01387   2.06186
   R31        2.04794   0.00413   0.00000   0.01142   0.01142   2.05936
   R32        2.05511   0.00351   0.00000   0.00983   0.00983   2.06494
    A1        1.98206  -0.00063   0.00000  -0.00094  -0.00077   1.98129
    A2        1.89011  -0.00105   0.00000  -0.00097  -0.00103   1.88908
    A3        1.92793  -0.00013   0.00000  -0.01039  -0.01052   1.91742
    A4        1.90189   0.00197   0.00000   0.01497   0.01493   1.91682
    A5        1.86644  -0.00060   0.00000  -0.00688  -0.00705   1.85939
    A6        1.89365   0.00054   0.00000   0.00487   0.00489   1.89853
    A7        1.93388   0.00260   0.00000   0.01285   0.01277   1.94665
    A8        1.89287  -0.00160   0.00000  -0.00695  -0.00690   1.88598
    A9        1.92689   0.00056   0.00000   0.00802   0.00803   1.93492
   A10        1.94228  -0.00025   0.00000  -0.00513  -0.00507   1.93721
   A11        1.83746  -0.00193   0.00000  -0.01076  -0.01082   1.82664
   A12        1.93061   0.00070   0.00000   0.00236   0.00234   1.93295
   A13        1.96319   0.00013   0.00000  -0.01137  -0.01226   1.95093
   A14        1.93096   0.00212   0.00000  -0.00037  -0.00102   1.92995
   A15        1.86055  -0.00039   0.00000   0.01339   0.01332   1.87387
   A16        2.02529  -0.00374   0.00000  -0.03705  -0.03734   1.98795
   A17        1.78323   0.00237   0.00000   0.03279   0.03314   1.81636
   A18        1.88574  -0.00030   0.00000   0.01115   0.01146   1.89720
   A19        1.92270  -0.00022   0.00000  -0.00282  -0.00295   1.91975
   A20        1.91577   0.00063   0.00000   0.00165   0.00169   1.91747
   A21        1.93969  -0.00055   0.00000  -0.00151  -0.00149   1.93820
   A22        1.90560  -0.00010   0.00000  -0.00104  -0.00099   1.90461
   A23        1.90372   0.00004   0.00000  -0.00085  -0.00082   1.90290
   A24        1.87548   0.00022   0.00000   0.00473   0.00471   1.88020
   A25        1.93295   0.00032   0.00000   0.00470   0.00460   1.93755
   A26        1.85842  -0.00083   0.00000  -0.00311  -0.00305   1.85537
   A27        1.90137   0.00117   0.00000   0.00520   0.00523   1.90659
   A28        1.94492  -0.00025   0.00000  -0.00261  -0.00258   1.94234
   A29        1.93336  -0.00088   0.00000  -0.00732  -0.00732   1.92603
   A30        1.89055   0.00052   0.00000   0.00352   0.00349   1.89404
   A31        1.97202  -0.00343   0.00000  -0.02155  -0.02149   1.95053
   A32        1.91318   0.00243   0.00000  -0.00027  -0.00032   1.91285
   A33        1.91427  -0.00106   0.00000  -0.00165  -0.00168   1.91259
   A34        1.93028  -0.00041   0.00000   0.00082   0.00087   1.93115
   A35        1.92258  -0.00086   0.00000  -0.00283  -0.00280   1.91978
   A36        1.91663  -0.00086   0.00000  -0.00081  -0.00080   1.91583
   A37        1.86651   0.00068   0.00000   0.00480   0.00479   1.87130
   A38        1.94517   0.00147   0.00000   0.00454   0.00457   1.94975
   A39        1.94541  -0.00005   0.00000  -0.00176  -0.00174   1.94367
   A40        1.93105  -0.00132   0.00000  -0.00591  -0.00595   1.92509
   A41        1.84252  -0.00101   0.00000  -0.00149  -0.00151   1.84101
   A42        1.91033   0.00045   0.00000   0.00283   0.00284   1.91317
   A43        1.88644   0.00048   0.00000   0.00207   0.00206   1.88850
   A44        1.95510  -0.00131   0.00000  -0.01281  -0.01288   1.94222
   A45        1.87318  -0.00006   0.00000   0.00195   0.00196   1.87513
   A46        1.90062   0.00042   0.00000  -0.00226  -0.00224   1.89838
   A47        1.90872   0.00108   0.00000   0.00683   0.00686   1.91558
   A48        1.94719  -0.00015   0.00000   0.00059   0.00051   1.94769
   A49        1.87591   0.00006   0.00000   0.00655   0.00652   1.88243
   A50        1.92857   0.00021   0.00000  -0.00626  -0.00646   1.92211
   A51        1.90473   0.00033   0.00000   0.00142   0.00143   1.90616
   A52        1.90561  -0.00049   0.00000   0.00022   0.00031   1.90592
   A53        1.91414  -0.00074   0.00000   0.00013   0.00020   1.91435
   A54        1.94120   0.00034   0.00000  -0.00110  -0.00108   1.94012
   A55        1.86833   0.00035   0.00000   0.00603   0.00600   1.87433
   A56        2.02411  -0.00583   0.00000  -0.03260  -0.03248   1.99163
   A57        2.14650  -0.02203   0.00000  -0.08604  -0.08604   2.06046
   A58        1.99138   0.00047   0.00000  -0.01170  -0.01171   1.97967
   A59        1.92085  -0.00063   0.00000  -0.01208  -0.01235   1.90850
   A60        1.84968  -0.00023   0.00000   0.01042   0.01050   1.86018
   A61        1.94388  -0.00025   0.00000  -0.00539  -0.00566   1.93822
   A62        1.88636   0.00027   0.00000   0.01329   0.01326   1.89962
[...]
 .00000677,-0.00000391,-0.00000865,-0.00000449,-0.00015656,-0.00037693,
 0.00012883,-0.00009249,-0.00001151,-0.00005783,0.00089966,-0.00032222,
 0.00113716,0.00056989,-0.00022653,0.00031252,-0.00000143,0.00000240,-0
 .00000065,-0.00001294,-0.00000988,-0.00000082,-0.00005416,-0.00049866,
 -0.00011922,0.00002833,-0.00007830,0.00014290,0.00317669,0.00150540,-0
 .00522033,-0.07048518,-0.01892378,0.31293794,0.00003567,0.00008416,0.0
 0016248,-0.00479477,-0.00514239,0.02366832,0.00161855,0.00033204,0.000
 90875,0.00117845,0.00095531,0.00009841,0.00006452,-0.00004096,0.000008
 24,-0.00010220,-0.00000004,-0.00015425,0.00527614,0.00214208,-0.028349
 09,-0.00033790,0.00000783,-0.00007273,-0.06169878,-0.00403648,0.060590
 45,-0.00000883,0.00003857,0.00004467,0.00100931,-0.00081961,-0.0010273
 3,-0.00708335,0.00365991,0.00377279,-0.00031630,-0.00005164,0.00016780
 ,-0.00009600,-0.00004419,-0.00005140,-0.00000636,-0.00001716,-0.000014
 57,0.00066676,-0.00073836,-0.00027357,-0.00050342,0.00006049,0.0002045
 8,-0.00007276,-0.00004996,0.00046647,-0.00007745,0.00025505,0.00023402
 ,-0.00001497,0.00000139,-0.00001127,-0.00000981,0.00000470,0.00000514,
 -0.00402448,-0.00197740,-0.00334568,0.00139274,0.00045798,0.00083444,0
 .00008786,-0.00002177,-0.00000637,-0.00001340,-0.00002017,0.00000403,0
 .07071983,0.00002743,-0.00009771,-0.00013086,0.00305331,0.00059366,-0.
 01975155,-0.00060914,0.00017911,-0.00074049,0.00041982,0.00040713,-0.0
 0078494,-0.00003389,0.00002115,-0.00000354,0.00003321,-0.00000620,0.00
 007012,0.00193647,-0.00013992,-0.00657860,0.00011988,0.00002137,-0.000
 05298,-0.00659940,-0.05255504,0.02520163,0.00000647,-0.00002354,-0.000
 02066,0.00004220,0.00075612,0.00034547,0.00462104,-0.00125296,-0.00165
 557,0.00006028,0.00003836,-0.00002706,0.00005653,0.00003789,0.00003565
 ,-0.00000507,0.00001340,0.00000315,-0.00049502,0.00062592,0.00042947,0
 .00033145,-0.00003150,-0.00013238,-0.00012159,0.00010596,0.00002484,0.
 00001763,0.00006235,0.00005348,0.00000740,-0.00000087,0.00000494,0.000
 00468,-0.00000169,-0.00000335,-0.00093019,0.00061763,-0.00092020,0.000
 08135,0.00020704,0.00046824,-0.00000952,-0.00002137,-0.00000565,-0.000
 01331,0.00002489,0.00003922,0.00497664,0.05151005,0.00002544,-0.000048
 77,-0.00009159,-0.00007174,0.00235277,-0.00699361,-0.00090716,-0.00004
 216,-0.00001822,0.00075682,0.00049043,0.00068373,-0.00003201,0.0000173
 5,-0.00000655,0.00004502,0.00000293,0.00004371,0.00299067,0.00175170,-
 0.01892350,-0.00020155,-0.00011149,-0.00001543,0.06298711,0.02155943,-
 0.29406250,0.00000595,-0.00002841,-0.00001381,-0.00054417,-0.00001140,
 0.00094896,0.00242265,-0.00058673,0.00029595,0.00013299,0.00002255,-0.
 00005345,0.00004289,0.00002435,0.00002190,-0.00000376,0.00000321,0.000
 00584,0.00017430,-0.00024880,0.00067323,0.00014037,-0.00002434,-0.0000
 6779,-0.00003803,-0.00056855,0.00017244,-0.00018780,0.00000614,0.00027
 631,0.00000747,-0.00000063,0.00000724,0.00000523,-0.00000170,-0.000001
 34,-0.00330899,-0.00101630,-0.00090622,0.00009227,0.00023554,0.0009396
 0,0.00005602,-0.00005924,-0.00001121,-0.00001848,0.00004070,-0.0000082
 9,-0.06558249,-0.02454137,0.32081820,0.00002281,0.00005924,-0.00001703
 ,0.00865041,0.02119299,-0.00394343,0.00000596,-0.00020854,-0.00021285,
 -0.00425263,-0.00006123,-0.00434737,0.00000289,0.00000510,0.00000686,-
 0.00002406,-0.00002551,-0.00000285,-0.00688786,-0.02503173,0.00601196,
 -0.00167084,-0.00007273,-0.00070420,-0.07267964,-0.07725969,0.01472381
 ,-0.00000296,-0.00001093,0.00000092,-0.00250777,0.00768955,0.00156879,
 0.00102794,0.00039371,-0.00070043,0.00002157,-0.00000999,0.00000778,0.
 00000256,-0.00002772,0.00000162,0.00006441,-0.00007743,-0.00002303,0.0
 0064678,-0.00101008,-0.00043270,0.00002354,0.00000247,-0.00000964,0.00
 003883,0.00031281,0.00003758,-0.00021675,-0.00193344,-0.00005863,-0.00
 000217,-0.00000171,-0.00000043,-0.00000319,-0.00000391,0.00000013,0.00
 121178,0.00061511,0.00012388,0.00077442,0.00050803,0.00084449,0.000339
 09,-0.00002674,0.00012939,0.00017632,-0.00000137,0.00010802,-0.0028118
 0,-0.00700211,0.00096604,0.07804568,0.00005267,-0.00006834,-0.00001266
 ,-0.00919827,-0.01790874,0.00434774,0.00018734,0.00041647,-0.00002498,
 -0.00111153,0.00140978,-0.00117195,-0.00000156,-0.00000181,-0.00001728
 ,0.00010550,0.00001447,-0.00003048,-0.00125995,-0.00444282,0.00062990,
 0.00088941,0.00092636,0.00112059,-0.07386538,-0.28626015,0.04118551,-0
 .00000266,0.00000284,0.00001834,0.00336859,-0.00512413,-0.00108258,-0.
 00090682,0.00171185,0.00077937,-0.00009799,-0.00000677,0.00005995,0.00
 001064,0.00000757,0.00000391,0.00004730,-0.00004332,-0.00002918,0.0002
 8181,0.00053602,-0.00003084,0.00003466,-0.00000453,-0.00001091,0.00000
 848,0.00001796,0.00009632,0.00005410,-0.00043127,0.00018006,0.00000192
 ,0.00000050,0.00000341,0.00000822,0.00000419,0.00000201,0.00005384,0.0
 0027820,-0.00018530,-0.00030822,0.00039001,-0.00014320,-0.00010846,-0.
 00007722,-0.00006694,-0.00008715,-0.00004265,-0.00017943,-0.00017722,-
 0.00102682,0.00084606,0.08201081,0.30966015,0.00000343,-0.00001759,-0.
 00000261,-0.00112964,-0.00621480,-0.00191221,-0.00007590,0.00004373,0.
 00014690,-0.00331208,-0.00001676,-0.00185096,-0.00000387,0.00000289,-0
 .00000220,0.00000156,-0.00000208,-0.00000786,-0.00512499,-0.01933931,0
 .00284969,-0.00014495,0.00036571,0.00007052,0.01419224,0.04520345,-0.0
 5546538,0.00000192,-0.00000173,0.00000258,0.00057850,-0.00105669,0.001
 07698,0.00004909,-0.00090177,0.00035914,0.00000163,0.00001224,-0.00000
 840,0.00000007,0.00000997,-0.00000244,-0.00002434,0.00002717,0.0000096
 6,0.00000253,0.00012371,0.00005019,-0.00002717,-0.00000529,0.00000483,
 -0.00007909,-0.00028039,0.00022374,-0.00034892,-0.00101609,0.00025122,
 0.00000003,0.00000114,0.00000011,0.00000126,-0.00000076,-0.00000083,0.
 00099974,0.00009751,0.00077795,0.00060003,0.00057049,0.00052607,0.0000
 6395,-0.00000103,0.00004064,0.00005355,-0.00000042,-0.00000603,0.00782
 390,0.02862426,-0.00374474,-0.01409951,-0.04622862,0.05661855,-0.00060
 626,0.00000786,-0.00097058,0.00035046,-0.00001034,0.00023840,0.0005552
 5,-0.00118347,-0.00226823,-0.00005140,-0.00000988,-0.00006814,0.011425
 92,-0.01696397,0.00232797,-0.00141800,-0.00670482,-0.00102467,-0.00004
 208,0.00005073,0.00005580,0.00011873,0.00016613,0.00019724,-0.00010250
 ,-0.00012837,-0.00014375,-0.10749569,0.11152048,-0.00505961,-0.0007662
 5,0.00001660,-0.00009956,-0.00001170,-0.00007330,0.00022846,-0.0051747
 6,0.00980185,-0.00003637,0.00005089,-0.00002018,0.00013551,0.00007821,
 0.00002962,0.00023600,-0.00019922,-0.00012017,-0.00023199,-0.00010316,
 0.00082482,-0.00011219,-0.00000054,-0.00000117,0.00000821,-0.00003212,
 0.00001113,0.00000029,0.00055960,0.00088332,-0.00017204,0.00073270,0.0
 0094597,0.00058513,-0.00000016,-0.00000023,-0.00000773,-0.00003578,-0.
 00000214,-0.00002171,-0.00002515,-0.00002503,-0.00000984,-0.00001887,-
 0.00000017,-0.00003179,-0.00001503,0.00001083,0.00001310,-0.00000739,0
 .00001693,0.00000409,0.11182553,-0.00023943,0.00077203,-0.00166405,-0.
 00026944,-0.00000363,0.00021280,-0.00047547,0.00171447,0.00080123,0.00
 000467,0.00000524,0.00001262,0.01424648,-0.01795834,0.00206280,-0.0033
 9645,-0.00653983,-0.00066919,-0.00000472,-0.00000889,-0.00001232,-0.00
 005209,-0.00003108,-0.00004251,0.00000281,0.00001869,-0.00002485,0.108
 51390,-0.25632305,0.01107112,0.00016575,0.00006143,0.00000313,0.000395
 41,-0.00018274,-0.00021303,0.00119357,-0.00258939,0.00047570,-0.000018
 64,-0.00004201,0.00021094,0.00009182,-0.00006219,0.00015107,-0.0001217
 7,0.00004211,0.00003928,0.00014478,-0.00028002,-0.00008376,0.00000156,
 0.00000060,-0.00000313,0.00000756,-0.00000098,0.00000007,0.00001587,0.
 00061661,-0.00037514,-0.00007296,0.00095613,0.00050435,-0.00000046,0.0
 0000094,-0.00000103,0.00000783,-0.00000019,0.00000255,0.00001080,0.000
 00933,0.00000372,0.00000461,0.00000133,0.00000584,0.00001807,-0.000008
 85,-0.00000791,0.00000189,-0.00000142,-0.00000178,-0.11981697,0.277733
 62,-0.00059982,-0.00049778,-0.00082595,0.00016893,-0.00003585,-0.00085
 667,-0.00089106,-0.00166350,-0.00612375,0.00001410,0.00000208,0.000016
 30,0.00577216,-0.00537646,-0.00090359,-0.00135007,-0.00314911,0.001069
 71,0.00003214,-0.00001996,-0.00001516,0.00004567,-0.00003732,-0.000023
 58,0.00004765,0.00001132,0.00017005,-0.00458361,0.00910653,-0.04588371
 ,0.00004000,-0.00022223,0.00027584,-0.00096317,0.00074731,0.00067980,-
 0.01412783,0.03013584,-0.00348127,0.00007855,0.00000214,0.00012793,0.0
 0007529,0.00005236,0.00023327,0.00007286,0.00009242,0.00022938,-0.0002
 9710,0.00158238,-0.00042012,-0.00000119,0.00000015,0.00000068,0.000004
 42,-0.00000395,-0.00000124,0.00031848,0.00057068,-0.00002498,-0.000082
 58,0.00011992,0.00032127,0.00000126,-0.00000081,0.00000673,0.00000495,
 0.00000238,0.00000729,-0.00000194,-0.00000003,0.00000072,-0.00000001,0
 .00000392,0.00000670,-0.00003762,0.00001825,0.00001309,0.00000067,-0.0
 0000964,-0.00000081,0.00742249,-0.01195919,0.05145139,-0.00010623,-0.0
 0000966,-0.00030820,-0.00130670,0.00140976,0.00006633,0.00003016,0.000
 11973,0.00062702,-0.00002051,0.00004636,0.00004519,-0.01950312,0.00006
 669,0.01354704,0.00226554,0.00081129,-0.00022936,-0.00007302,0.0000215
 0,0.00000956,-0.00034677,-0.00010127,-0.00015982,-0.00012757,-0.000196
 71,-0.00002143,-0.19931958,-0.00204685,0.13447001,-0.00159535,0.000548
 64,-0.00064837,0.00027544,-0.00015272,0.00019284,0.01032378,-0.0005975
 7,-0.00785293,-0.00008788,0.00004711,-0.00001634,0.00002151,-0.0000111
 8,0.00003660,-0.00073875,0.00090333,-0.00038868,-0.00004524,-0.0000952
 5,0.00004243,-0.00000272,-0.00000171,-0.00000317,0.00002128,-0.0000129
 4,-0.00000229,0.00087854,0.00061336,-0.00015684,-0.00159254,-0.0035523
 6,-0.00134248,-0.00000081,-0.00000098,-0.00000328,-0.00000838,-0.00000
 898,-0.00000968,0.00002034,0.00000770,0.00001750,0.00006299,0.00001773
 ,0.00006559,-0.00000193,-0.00000262,0.00000122,0.00002163,-0.00002998,
 -0.00000218,-0.01037730,-0.00023621,0.00814495,0.22081058,0.00009148,-
 0.00010063,0.00022669,0.00157677,-0.00099438,0.00030581,-0.00056835,-0
 .00015004,-0.00000189,-0.00005710,-0.00004001,-0.00008124,-0.02098961,
 -0.00210019,0.01621069,0.00102196,0.00292241,-0.00013186,0.00000603,0.
 00001895,0.00003434,0.00014352,0.00020053,0.00022741,-0.00001152,-0.00
 000568,-0.00007012,0.00015533,-0.04951598,0.00217922,-0.00064335,-0.00
 012983,-0.00024072,-0.00021474,0.00018371,-0.00024631,-0.00369731,-0.0
 0042674,0.00243413,-0.00001390,0.00005978,-0.00004371,0.00000246,0.000
 00206,0.00000430,0.00143834,-0.00173793,0.00013139,0.00001450,0.000012
 18,-0.00003668,0.00000142,-0.00000023,0.00000789,-0.00004140,0.0000185
 1,0.00000279,0.00113632,0.00093436,0.00001469,-0.00328053,-0.00298170,
 -0.00100504,-0.00000172,0.00000005,-0.00000505,-0.00001965,0.00000440,
 -0.00001021,-0.00003488,-0.00003225,-0.00001674,-0.00003226,-0.0000088
 6,-0.00005083,-0.00001202,0.00000884,0.00000473,-0.00001417,0.00002363
 ,0.00000559,0.02146137,0.00144046,-0.01885532,0.00232808,0.05118489,-0
 .00025142,0.00011730,-0.00034826,-0.00005413,0.00051912,-0.00085425,0.
 00103831,-0.00044180,0.00024180,0.00012305,0.00003632,0.00014368,-0.00
 871299,-0.00001723,0.00635307,0.00038851,0.00102576,-0.00019488,0.0000
 8775,-0.00006984,-0.00008463,-0.00015429,-0.00041289,-0.00041042,0.000
 13764,0.00011415,0.00032556,0.13270876,0.00268839,-0.16396181,0.001647
 05,-0.00051975,0.00046049,-0.00089831,0.00047282,0.00051402,0.02301976
 ,-0.00144812,-0.02088313,-0.00002629,0.00000516,-0.00001874,0.00007267
 ,0.00008391,0.00005377,0.00024924,0.00007062,0.00054307,-0.00026910,0.
 00014221,0.00008576,-0.00000032,0.00000337,-0.00001193,0.00006568,-0.0
 0002825,-0.00000341,0.00022281,0.00075598,0.00085241,-0.00136626,-0.00
 217163,0.00069098,-0.00000209,-0.00000222,0.00001664,0.00005163,-0.000
 00068,0.00003311,0.00002939,0.00004236,0.00001849,0.00001826,0.0000053
 2,0.00006929,-0.00001247,0.00000254,-0.00000478,0.00001958,-0.00004389
 ,-0.00000598,-0.00170929,-0.00089035,0.00106691,-0.14395085,-0.0012516
 1,0.17893556,-0.00027716,0.00235955,-0.00051490,-0.00017000,-0.0003047
 3,0.00022806,0.00676881,0.00853791,0.00311333,-0.00007998,0.00001915,-
 0.00001319,0.00047645,0.00189813,-0.00234561,0.00002098,-0.00066911,0.
 00032039,0.00001845,-0.00001774,0.00000407,0.00035801,0.00011382,0.000
 48719,0.00001815,0.00007230,-0.00002992,-0.00692957,-0.00543691,-0.001
 20321,-0.00192554,0.00068155,0.00163495,0.00212574,-0.00079509,-0.0003
 7183,-0.19720647,-0.12950863,-0.04576486,0.00005501,0.00007716,0.00001
 607,0.00040868,0.00041456,0.00020595,0.00003069,0.00005002,-0.00000132
 ,0.00006379,-0.00069032,0.00011826,-0.00000682,-0.00000017,-0.00000923
 ,-0.00000724,0.00001341,-0.00000645,-0.00027638,-0.00076872,-0.0002220
 2,0.00020741,0.00021059,0.00012681,-0.00000157,0.00000167,-0.00000509,
 0.,-0.00000055,0.00000300,0.00004078,-0.00007108,-0.00002689,0.0000308
 0,0.00000811,-0.00017595,0.00001422,-0.00001013,-0.00000284,-0.0000065
 5,0.00002057,-0.00000523,-0.00004065,0.00016763,0.00012834,0.00047980,
 0.00028152,0.00002323,0.21253258,0.00480813,-0.00480977,0.00328595,0.0
 0023126,-0.00060606,-0.00016866,-0.02519933,-0.02243470,-0.00694298,-0
 .00004606,-0.00001851,0.00001698,0.00091227,0.00008753,0.00148685,-0.0
 0048774,0.00102492,-0.00062954,0.00000705,-0.00000992,0.00000288,0.000
 35484,0.00006464,0.00006456,0.00000809,0.00003754,-0.00004050,0.005031
 87,0.00441409,0.00044016,-0.00047063,0.00047541,0.00038676,-0.00080206
 ,0.00360498,-0.00029086,-0.12583405,-0.15395251,-0.03688663,-0.0001181
 7,0.00020534,0.00012411,-0.00121423,-0.00123160,-0.00104368,-0.0000208
 3,0.00000233,0.00005421,0.00017201,0.00080881,0.00019282,-0.00001316,0
 .00000538,0.00000106,-0.00000957,0.00000848,-0.00000329,0.00017185,0.0
 0031788,0.00026773,-0.00010366,-0.00008914,0.00004216,0.00000248,-0.00
 000341,-0.00000088,-0.00000135,0.00000281,0.00000334,0.00001235,-0.000
 05950,-0.00000645,0.00001813,-0.00001800,-0.00000588,0.00000614,-0.000
 00829,-0.00000008,-0.00000610,0.00000879,0.00000076,-0.00008089,0.0002
 1911,-0.00063952,-0.00031234,0.00023043,-0.00027414,0.13784207,0.16712
 556,-0.00073467,0.00140407,-0.00017969,-0.00001512,-0.00029297,-0.0003
 5910,0.00544977,0.00150579,0.00058897,-0.00000921,-0.00000250,-0.00000
 497,-0.00148307,0.00389433,-0.00619294,0.00068544,-0.00049876,0.000945
 90,0.00000668,-0.00000748,0.00000620,0.00016720,0.00007613,0.00010625,
 0.00002069,0.00001883,0.00005809,-0.02348981,-0.02084177,-0.00653856,0
 .00018789,-0.00019709,-0.00046676,-0.00018898,-0.00023750,0.00029144,-
 0.04395720,-0.03481585,-0.05955957,-0.00027432,-0.00013045,-0.00000841
 ,0.00018504,0.00027145,0.00039989,0.00003868,0.00002636,0.00003187,0.0
 0028403,-0.00042118,0.00004416,-0.00000667,0.00000392,0.00000137,-0.00
 000949,0.00000373,0.,-0.00115953,-0.00163351,-0.00052531,-0.00012608,-
 0.00002676,0.00011012,-0.00000061,0.00000145,-0.00000092,-0.00000214,0
 .00000429,0.00000138,-0.00000297,-0.00000411,-0.00000872,0.00000147,-0
 .00001000,-0.00003231,-0.00001061,0.00001204,0.00000344,-0.00000580,0.
 00000624,0.00000178,0.00038878,0.00035580,0.00110760,0.00072510,-0.000
 28950,0.00153078,0.04925621,0.03816868,0.06421704,-0.00039381,-0.00039
 301,0.00015291,0.00063842,0.00001057,-0.00122605,-0.00864934,0.0006569
 5,0.00548688,-0.00003591,-0.00001126,-0.00004220,0.00099699,0.00003418
 ,-0.00006329,0.00001033,0.00021089,0.00003344,0.00002680,0.00001312,0.
 00003283,0.00032024,0.00011992,0.00020367,-0.00002956,-0.00007263,0.00
 015789,0.00844850,-0.00219942,-0.00840906,-0.00084923,-0.00012919,0.00
 057161,-0.00110661,0.00345926,0.00024950,-0.19598814,0.03568036,0.1249
 2476,0.00030950,-0.00018123,-0.00004877,0.00015454,0.00019854,-0.00009
 477,-0.00002441,-0.00001663,0.00007227,0.00028194,-0.00021652,-0.00021
 168,-0.00000458,-0.00000287,0.00000195,-0.00002763,0.00000804,-0.00000
 365,0.00009448,0.00019071,0.00011281,-0.00004201,0.00028489,0.00031089
 ,0.00000170,-0.00000152,0.00000156,-0.00002608,0.00000338,-0.00000902,
 -0.00002476,-0.00003055,-0.00000494,0.00000604,-0.00000601,-0.00002436
 ,-0.00007453,0.00002538,0.00003346,-0.00000301,0.00000238,0.00000037,0
 .00082673,-0.00029039,0.00056307,0.00004284,-0.00002660,-0.00249549,-0
 .01672243,0.00514165,0.01407931,0.21184300,-0.00100455,0.00036551,0.00
 012168,-0.00089757,-0.00110492,0.00194498,0.02358924,-0.00479344,-0.01
 884461,-0.00001544,-0.00001755,0.00000899,0.00036993,-0.00021465,-0.00
 041193,-0.00002847,-0.00015085,0.00006626,-0.00003272,-0.00003774,-0.0
 0003712,-0.00000192,0.00002239,0.00004376,0.00008163,0.00018160,-0.000
 35887,-0.00387723,0.00018644,0.00448726,-0.00036971,0.00071776,0.00028
 523,0.00466592,-0.00640624,-0.00030467,0.03410905,-0.05739081,-0.03216
 463,-0.00033872,-0.00054334,-0.00020854,0.00003124,0.00015735,0.000323
 12,0.00000720,0.00006754,-0.00012707,0.00055037,0.00133237,-0.00002324
 ,0.00000031,0.00000467,-0.00000914,0.00000976,0.00001151,-0.00000087,0
 .00000299,-0.00004933,-0.00000119,0.00004286,0.00004761,-0.00011867,-0
 .00000927,0.00000408,-0.00001173,0.00003196,0.00000265,0.00000991,0.00
 002355,0.00001048,0.00000247,0.00005456,-0.00001025,-0.00002247,0.0001
 4900,-0.00005612,-0.00006005,-0.00000658,0.00003120,-0.00000352,-0.000
 60652,0.00044049,0.00002297,0.00042805,0.00097927,0.00148707,-0.014496
 55,0.00459736,0.01365630,-0.04246237,0.06161496,0.00047680,-0.00001791
 ,-0.00022601,-0.00019414,0.00057259,-0.00042880,-0.00409576,0.00115687
 ,0.00136334,0.00000939,0.00000621,0.00001580,0.00124350,0.00046503,0.0
 0113413,-0.00017715,-0.00034178,-0.00012001,0.00002097,-0.00000621,-0.
 00000208,0.00002101,-0.00003462,-0.00002057,-0.00000982,-0.00001681,0.
 00017696,0.02300520,-0.00402487,-0.02445956,-0.00001422,-0.00012801,0.
 00017335,-0.00189141,0.00194656,0.00127888,0.12558765,-0.03272807,-0.1
 4963288,-0.00008908,0.00001006,0.00004845,-0.00006830,-0.00011024,0.00
 000415,-0.00005247,0.00009127,0.00011653,-0.00086303,0.00013859,0.0010
 5058,-0.00000252,-0.00000087,-0.00000223,0.00000575,-0.00000375,-0.000
 00103,-0.00031855,0.00018838,0.00020808,-0.00048851,-0.00038796,0.0002
 8188,0.00000280,-0.00000090,0.00000142,0.00000173,-0.00000020,0.000001
 59,0.00000318,0.00000069,0.00000458,0.00001835,-0.00000320,0.00000991,
 -0.00004505,0.00001588,0.00001941,0.00000639,-0.00001154,-0.00000011,0
 .00012601,0.00003525,0.00177615,-0.00289549,0.00054718,-0.00515314,-0.
 00496735,0.00239408,0.00443099,-0.13435591,0.03024832,0.16795024\\0.00
 001151,-0.00001265,0.00000906,-0.00002993,-0.00007718,-0.00002548,-0.0
 0003251,-0.00005361,-0.00008192,-0.00000080,-0.00000136,0.00000337,-0.
 00000927,0.00000468,-0.00000703,-0.00000765,0.00000759,0.00000767,0.00
 001366,-0.00000815,-0.00000585,0.00000199,0.00000477,-0.00000153,-0.00
 000619,0.00000238,0.00000847,0.00000536,-0.00000585,0.00000489,-0.0000
 0319,-0.00000267,0.00000783,0.00002967,0.00010841,0.00005392,0.0000172
 2,0.00002495,0.00004610,0.00000047,0.00000397,-0.00000453,-0.00000076,
 -0.00000582,0.00000304,-0.00000545,0.00000386,-0.00000034,0.00000040,0
 .00000612,-0.00000117,0.00000046,-0.00000278,-0.00000437,-0.00000029,-
 0.00000199,-0.00000445,-0.00000121,-0.00000085,-0.00000112,0.00000100,
 -0.00000073,0.00000120,0.00000009,-0.00000013,0.00000039,0.00000008,-0
 .00000062,0.00000370,0.00000377,0.00000173,-0.00000249,-0.00000305,-0.
 00000165,-0.00000255,0.00000199,-0.00000222,-0.00000211,0.00000119,0.0
 0000123,-0.00000116,0.00000112,-0.00000051,0.00000105,0.00000362,0.000
 00294,-0.00000325,0.00000326,0.00000438,-0.00000113,0.00000344,0.00000
 175,-0.00000024\\\@


 ALMOST ALL THE CHEMICAL PROCESSES WHICH OCCUR IN NATURE,
 WHETHER IN ANIMAL OR VEGETABLE ORGANISMS,
 OR IN THE NON-LIVING SURFACE OF THE EARTH ... 
 TAKE PLACE BETWEEN SUBSTANCES IN SOLUTION

                                    -- W. OSTWALD, 1890
 Job cpu time:       0 days 13 hours 38 minutes 53.4 seconds.
 Elapsed time:       0 days  1 hours  8 minutes 19.7 seconds.
 File lengths (MBytes):  RWF=    718 Int=      0 D2E=      0 Chk=     34 Scr=      1
 Normal termination of Gaussian 16 at Sat Mar  9 03:18:01 2019.
