 Entering Gaussian System, Link 0=g16
 Initial command:
 /sw/Projects/G16/g16/l1.exe "/nvme/pbs/tmpdir/pbs.74203[6].flm1/Gau-30101.inp" -scrdir="/nvme/pbs/tmpdir/pbs.74203[6].flm1/"
 Entering Link 1 = /sw/Projects/G16/g16/l1.exe PID=     30102.
  
 Copyright (c) 1988-2017, Gaussian, Inc.  All Rights Reserved.
  
 This is part of the Gaussian(R) 16 program.  It is based on
 the Gaussian(R) 09 system (copyright 2009, Gaussian, Inc.),
 the Gaussian(R) 03 system (copyright 2003, Gaussian, Inc.),
 the Gaussian(R) 98 system (copyright 1998, Gaussian, Inc.),
 the Gaussian(R) 94 system (copyright 1995, Gaussian, Inc.),
 the Gaussian 92(TM) system (copyright 1992, Gaussian, Inc.),
 the Gaussian 90(TM) system (copyright 1990, Gaussian, Inc.),
 the Gaussian 88(TM) system (copyright 1988, Gaussian, Inc.),
 the Gaussian 86(TM) system (copyright 1986, Carnegie Mellon
 University), and the Gaussian 82(TM) system (copyright 1983,
 Carnegie Mellon University). Gaussian is a federally registered
 trademark of Gaussian, Inc.
  
 This software contains proprietary and confidential information,
 including trade secrets, belonging to Gaussian, Inc.
  
 This software is provided under written license and may be
 used, copied, transmitted, or stored only in accord with that
 written license.
  
 The following legend is applicable only to US Government
 contracts under FAR:
  
                    RESTRICTED RIGHTS LEGEND
  
 Use, reproduction and disclosure by the US Government is
 subject to restrictions as set forth in subparagraphs (a)
 and (c) of the Commercial Computer Software - Restricted
 Rights clause in FAR 52.227-19.
  
 Gaussian, Inc.
 340 Quinnipiac St., Bldg. 40, Wallingford CT 06492
  
  
 ---------------------------------------------------------------
 Warning -- This program may not be used in any manner that
 competes with the business of Gaussian, Inc. or will provide
 assistance to any competitor of Gaussian, Inc.  The licensee
 of this program is prohibited from giving any competitor of
 Gaussian, Inc. access to this program.  By using this program,
 the user acknowledges that Gaussian, Inc. is engaged in the
 business of creating and licensing software in the field of
 computational chemistry and represents and warrants to the
 licensee that it is not a competitor of Gaussian, Inc. and that
 it will not use this program in any manner prohibited above.
 ---------------------------------------------------------------
  

 Cite this work as:
 Gaussian 16, Revision B.01,
 M. J. Frisch, G. W. Trucks, H. B. Schlegel, G. E. Scuseria, 
 M. A. Robb, J. R. Cheeseman, G. Scalmani, V. Barone, 
 G. A. Petersson, H. Nakatsuji, X. Li, M. Caricato, A. V. Marenich, 
 J. Bloino, B. G. Janesko, R. Gomperts, B. Mennucci, H. P. Hratchian, 
 J. V. Ortiz, A. F. Izmaylov, J. L. Sonnenberg, D. Williams-Young, 
 F. Ding, F. Lipparini, F. Egidi, J. Goings, B. Peng, A. Petrone, 
 T. Henderson, D. Ranasinghe, V. G. Zakrzewski, J. Gao, N. Rega, 
 G. Zheng, W. Liang, M. Hada, M. Ehara, K. Toyota, R. Fukuda, 
 J. Hasegawa, M. Ishida, T. Nakajima, Y. Honda, O. Kitao, H. Nakai, 
 T. Vreven, K. Throssell, J. A. Montgomery, Jr., J. E. Peralta, 
 F. Ogliaro, M. J. Bearpark, J. J. Heyd, E. N. Brothers, K. N. Kudin, 
 V. N. Staroverov, T. A. Keith, R. Kobayashi, J. Normand, 
 K. Raghavachari, A. P. Rendell, J. C. Burant, S. S. Iyengar, 
 J. Tomasi, M. Cossi, J. M. Millam, M. Klene, C. Adamo, R. Cammi, 
 J. W. Ochterski, R. L. Martin, K. Morokuma, O. Farkas, 
 J. B. Foresman, and D. J. Fox, Gaussian, Inc., Wallingford CT, 2016.
 
 ******************************************
 Gaussian 16:  ES64L-G16RevB.01 20-Dec-2017
                 8-Mar-2019 
 ******************************************
 %mem=20gb
 %nproc=12
 Will use up to   12 processors via shared memory.
 %chk=4c1_a1_a4_4c1_PSI.inp_extract_6.chk
 ----------------------------------------------------------------------
 #M062X/6-311++G(2d,2p) opt=ModRedundant freq=noraman SCRF=(SMD,solvent
 =water)
 ----------------------------------------------------------------------
 1/18=120,19=15,26=3,38=1/1,3;
 2/9=110,12=2,17=6,18=5,40=1/2;
 3/5=4,6=6,7=1212,11=2,25=1,30=1,70=32201,71=1,72=1,74=-55/1,2,3;
 4//1;
 5/5=2,38=5,53=1/2;
 6/7=2,8=2,9=2,10=2,28=1/1;
 7//1,2,3,16;
 1/18=20,19=15,26=3/3(2);
 2/9=110/2;
 99//99;
 2/9=110/2;
 3/5=4,6=6,7=1212,11=2,25=1,30=1,70=32205,71=1,72=1,74=-55/1,2,3;
 4/5=5,16=3,69=1/1;
 5/5=2,38=5,53=1/2;
 7//1,2,3,16;
 1/18=20,19=15,26=3/3(-5);
 2/9=110/2;
 6/7=2,8=2,9=2,10=2,19=2,28=1/1;
 99/9=1/99;
 -------------------------------
 4c1_a1_a4_4c1_PSI.inp_extract_6
 -------------------------------
 Symbolic Z-matrix:
 Charge =  0 Multiplicity = 1
 C                    -1.74138   0.01375  -1.34061 
 C                     1.11726  -0.61854  -0.81724 
 C                    -1.22924  -1.11955  -0.45796 
 C                     3.01577   1.00104   0.65318 
 C                    -2.88565   1.08356   0.42684 
 O                    -1.94181   1.20949  -0.62062 
 C                     2.91823  -0.49424   0.95482 
 C                     1.6898    1.51204   0.11517 
 C                     2.40323  -1.23273  -0.28129 
 C                    -2.44085   0.03651   1.43459 
 O                     1.2631    0.7633   -1.01525 
 O                     0.0733   -0.8989    0.06856 
 C                    -2.16877  -1.2947    0.73161 
 H                    -2.68247  -0.30882  -1.78085 
 H                    -1.0598    0.24344  -2.14463 
 H                     0.8858   -1.02297  -1.79261 
 H                    -1.20465  -2.02454  -1.05772 
 H                     3.79459   1.1777   -0.08518 
 H                     3.27724   1.56451   1.54443 
 H                    -2.96951   2.06145   0.88103 
 H                    -3.85191   0.81952   0.0019 
 H                     2.2462   -0.65515   1.79378 
 H                     3.88672  -0.89065   1.24399 
 H                     1.76859   2.53433  -0.22801 
 H                     0.92531   1.47186   0.88324 
 H                     3.14607  -1.17325  -1.07232 
 H                     2.22969  -2.28344  -0.07511 
 H                    -3.21423  -0.08814   2.18707 
 H                    -1.54775   0.38571   1.94368 
 H                    -1.75253  -2.02125   1.42184 
 H                    -3.10446  -1.70426   0.35938 
 
 The following ModRedundant input section has been read:
 D      13       3      12       2 F                                           
 

 GradGradGradGradGradGradGradGradGradGradGradGradGradGradGradGradGradGrad
 Berny optimization.
 Initialization pass.
                           ----------------------------
                           !    Initial Parameters    !
                           ! (Angstroms and Degrees)  !
 --------------------------                            --------------------------
 ! Name  Definition              Value          Derivative Info.                !
 --------------------------------------------------------------------------------
 ! R1    R(1,3)                  1.525          estimate D2E/DX2                !
 ! R2    R(1,6)                  1.4101         estimate D2E/DX2                !
 ! R3    R(1,14)                 1.0879         estimate D2E/DX2                !
 ! R4    R(1,15)                 1.0788         estimate D2E/DX2                !
 ! R5    R(2,9)                  1.5226         estimate D2E/DX2                !
 ! R6    R(2,11)                 1.4035         estimate D2E/DX2                !
 ! R7    R(2,12)                 1.3975         estimate D2E/DX2                !
 ! R8    R(2,16)                 1.081          estimate D2E/DX2                !
 ! R9    R(3,12)                 1.4221         estimate D2E/DX2                !
 ! R10   R(3,13)                 1.5259         estimate D2E/DX2                !
 ! R11   R(3,17)                 1.086          estimate D2E/DX2                !
 ! R12   R(4,7)                  1.5285         estimate D2E/DX2                !
 ! R13   R(4,8)                  1.5195         estimate D2E/DX2                !
 ! R14   R(4,18)                 1.0876         estimate D2E/DX2                !
 ! R15   R(4,19)                 1.0864         estimate D2E/DX2                !
 ! R16   R(5,6)                  1.4156         estimate D2E/DX2                !
 ! R17   R(5,10)                 1.5198         estimate D2E/DX2                !
 ! R18   R(5,20)                 1.0815         estimate D2E/DX2                !
 ! R19   R(5,21)                 1.0881         estimate D2E/DX2                !
 ! R20   R(7,9)                  1.5292         estimate D2E/DX2                !
 ! R21   R(7,22)                 1.0869         estimate D2E/DX2                !
 ! R22   R(7,23)                 1.0857         estimate D2E/DX2                !
 ! R23   R(8,11)                 1.4215         estimate D2E/DX2                !
 ! R24   R(8,24)                 1.0812         estimate D2E/DX2                !
 ! R25   R(8,25)                 1.0844         estimate D2E/DX2                !
 ! R26   R(9,26)                 1.0868         estimate D2E/DX2                !
 ! R27   R(9,27)                 1.0847         estimate D2E/DX2                !
 ! R28   R(10,13)                1.5298         estimate D2E/DX2                !
 ! R29   R(10,28)                1.0862         estimate D2E/DX2                !
 ! R30   R(10,29)                1.0857         estimate D2E/DX2                !
 ! R31   R(13,30)                1.0851         estimate D2E/DX2                !
 ! R32   R(13,31)                1.0871         estimate D2E/DX2                !
 ! A1    A(3,1,6)              112.4813         estimate D2E/DX2                !
 ! A2    A(3,1,14)             107.7205         estimate D2E/DX2                !
 ! A3    A(3,1,15)             112.1736         estimate D2E/DX2                !
 ! A4    A(6,1,14)             109.5788         estimate D2E/DX2                !
 ! A5    A(6,1,15)             106.8462         estimate D2E/DX2                !
 ! A6    A(14,1,15)            107.9434         estimate D2E/DX2                !
 ! A7    A(9,2,11)             111.0422         estimate D2E/DX2                !
 ! A8    A(9,2,12)             109.0802         estimate D2E/DX2                !
 ! A9    A(9,2,16)             110.3371         estimate D2E/DX2                !
 ! A10   A(11,2,12)            111.3797         estimate D2E/DX2                !
 ! A11   A(11,2,16)            105.2664         estimate D2E/DX2                !
 ! A12   A(12,2,16)            109.6883         estimate D2E/DX2                !
 ! A13   A(1,3,12)             113.9887         estimate D2E/DX2                !
 ! A14   A(1,3,13)             109.2522         estimate D2E/DX2                !
 ! A15   A(1,3,17)             107.8932         estimate D2E/DX2                !
 ! A16   A(12,3,13)            107.0447         estimate D2E/DX2                !
 ! A17   A(12,3,17)            108.2418         estimate D2E/DX2                !
 ! A18   A(13,3,17)            110.4154         estimate D2E/DX2                !
 ! A19   A(7,4,8)              110.0703         estimate D2E/DX2                !
 ! A20   A(7,4,18)             109.789          estimate D2E/DX2                !
 ! A21   A(7,4,19)             111.1523         estimate D2E/DX2                !
 ! A22   A(8,4,18)             109.2625         estimate D2E/DX2                !
 ! A23   A(8,4,19)             109.0314         estimate D2E/DX2                !
 ! A24   A(18,4,19)            107.4787         estimate D2E/DX2                !
 ! A25   A(6,5,10)             110.9037         estimate D2E/DX2                !
 ! A26   A(6,5,20)             106.3806         estimate D2E/DX2                !
 ! A27   A(6,5,21)             108.9475         estimate D2E/DX2                !
 ! A28   A(10,5,20)            111.5414         estimate D2E/DX2                !
 ! A29   A(10,5,21)            110.5903         estimate D2E/DX2                !
 ! A30   A(20,5,21)            108.3359         estimate D2E/DX2                !
 ! A31   A(1,6,5)              113.3999         estimate D2E/DX2                !
 ! A32   A(4,7,9)              109.5352         estimate D2E/DX2                !
 ! A33   A(4,7,22)             109.6704         estimate D2E/DX2                !
 ! A34   A(4,7,23)             110.6594         estimate D2E/DX2                !
 ! A35   A(9,7,22)             110.1335         estimate D2E/DX2                !
 ! A36   A(9,7,23)             109.8394         estimate D2E/DX2                !
 ! A37   A(22,7,23)            106.9724         estimate D2E/DX2                !
 ! A38   A(4,8,11)             111.4939         estimate D2E/DX2                !
 ! A39   A(4,8,24)             111.5161         estimate D2E/DX2                !
 ! A40   A(4,8,25)             110.6075         estimate D2E/DX2                !
 ! A41   A(11,8,24)            105.515          estimate D2E/DX2                !
 ! A42   A(11,8,25)            109.3969         estimate D2E/DX2                !
 ! A43   A(24,8,25)            108.1312         estimate D2E/DX2                !
 ! A44   A(2,9,7)              111.9728         estimate D2E/DX2                !
 ! A45   A(2,9,26)             107.399          estimate D2E/DX2                !
 ! A46   A(2,9,27)             108.8158         estimate D2E/DX2                !
 ! A47   A(7,9,26)             109.374          estimate D2E/DX2                !
 ! A48   A(7,9,27)             111.593          estimate D2E/DX2                !
 ! A49   A(26,9,27)            107.5006         estimate D2E/DX2                !
 ! A50   A(5,10,13)            110.2952         estimate D2E/DX2                !
 ! A51   A(5,10,28)            109.2703         estimate D2E/DX2                !
 ! A52   A(5,10,29)            109.2742         estimate D2E/DX2                !
 ! A53   A(13,10,28)           110.1885         estimate D2E/DX2                !
 ! A54   A(13,10,29)           110.4294         estimate D2E/DX2                !
 ! A55   A(28,10,29)           107.3234         estimate D2E/DX2                !
 ! A56   A(2,11,8)             115.9503         estimate D2E/DX2                !
 ! A57   A(2,12,3)             118.7275         estimate D2E/DX2                !
 ! A58   A(3,13,10)            111.5831         estimate D2E/DX2                !
 ! A59   A(3,13,30)            109.6668         estimate D2E/DX2                !
 ! A60   A(3,13,31)            107.8347         estimate D2E/DX2                !
 ! A61   A(10,13,30)           111.0105         estimate D2E/DX2                !
 ! A62   A(10,13,31)           109.3955         estimate D2E/DX2                !
 ! A63   A(30,13,31)           107.1997         estimate D2E/DX2                !
 ! D1    D(6,1,3,12)           -65.813          estimate D2E/DX2                !
 ! D2    D(6,1,3,13)            53.8734         estimate D2E/DX2                !
 ! D3    D(6,1,3,17)           173.9415         estimate D2E/DX2                !
 ! D4    D(14,1,3,12)          173.3257         estimate D2E/DX2                !
 ! D5    D(14,1,3,13)          -66.988          estimate D2E/DX2                !
 ! D6    D(14,1,3,17)           53.0801         estimate D2E/DX2                !
 ! D7    D(15,1,3,12)           54.6742         estimate D2E/DX2                !
 ! D8    D(15,1,3,13)          174.3606         estimate D2E/DX2                !
 ! D9    D(15,1,3,17)          -65.5713         estimate D2E/DX2                !
 ! D10   D(3,1,6,5)            -60.1311         estimate D2E/DX2                !
 ! D11   D(14,1,6,5)            59.658          estimate D2E/DX2                !
 ! D12   D(15,1,6,5)           176.3593         estimate D2E/DX2                !
 ! D13   D(11,2,9,7)            52.1782         estimate D2E/DX2                !
 ! D14   D(11,2,9,26)          -67.908          estimate D2E/DX2                !
 ! D15   D(11,2,9,27)          176.0073         estimate D2E/DX2                !
 ! D16   D(12,2,9,7)           -70.9399         estimate D2E/DX2                !
 ! D17   D(12,2,9,26)          168.9739         estimate D2E/DX2                !
 ! D18   D(12,2,9,27)           52.8892         estimate D2E/DX2                !
 ! D19   D(16,2,9,7)           168.5034         estimate D2E/DX2                !
 ! D20   D(16,2,9,26)           48.4172         estimate D2E/DX2                !
 ! D21   D(16,2,9,27)          -67.6675         estimate D2E/DX2                !
 ! D22   D(9,2,11,8)           -55.2695         estimate D2E/DX2                !
 ! D23   D(12,2,11,8)           66.5158         estimate D2E/DX2                !
 ! D24   D(16,2,11,8)         -174.6756         estimate D2E/DX2                !
 ! D25   D(9,2,12,3)          -145.6471         estimate D2E/DX2                !
 ! D26   D(11,2,12,3)           91.4364         estimate D2E/DX2                !
 ! D27   D(16,2,12,3)          -24.6933         estimate D2E/DX2                !
 ! D28   D(1,3,12,2)           -54.9179         estimate D2E/DX2                !
 ! D29   D(13,3,12,2)         -175.8423         Frozen                          !
 ! D30   D(17,3,12,2)           65.1319         estimate D2E/DX2                !
 ! D31   D(1,3,13,10)          -50.2196         estimate D2E/DX2                !
 ! D32   D(1,3,13,30)         -173.6444         estimate D2E/DX2                !
 ! D33   D(1,3,13,31)           69.9412         estimate D2E/DX2                !
 ! D34   D(12,3,13,10)          73.6636         estimate D2E/DX2                !
 ! D35   D(12,3,13,30)         -49.7612         estimate D2E/DX2                !
 ! D36   D(12,3,13,31)        -166.1756         estimate D2E/DX2                !
 ! D37   D(17,3,13,10)        -168.7255         estimate D2E/DX2                !
 ! D38   D(17,3,13,30)          67.8497         estimate D2E/DX2                !
 ! D39   D(17,3,13,31)         -48.5648         estimate D2E/DX2                !
 ! D40   D(8,4,7,9)             53.0236         estimate D2E/DX2                !
 ! D41   D(8,4,7,22)           -67.9539         estimate D2E/DX2                !
 ! D42   D(8,4,7,23)           174.2651         estimate D2E/DX2                !
 ! D43   D(18,4,7,9)           -67.2897         estimate D2E/DX2                !
 ! D44   D(18,4,7,22)          171.7329         estimate D2E/DX2                !
 ! D45   D(18,4,7,23)           53.9519         estimate D2E/DX2                !
 ! D46   D(19,4,7,9)           173.9285         estimate D2E/DX2                !
 ! D47   D(19,4,7,22)           52.951          estimate D2E/DX2                !
 ! D48   D(19,4,7,23)          -64.83           estimate D2E/DX2                !
 ! D49   D(7,4,8,11)           -54.8426         estimate D2E/DX2                !
 ! D50   D(7,4,8,24)          -172.5051         estimate D2E/DX2                !
 ! D51   D(7,4,8,25)            67.1228         estimate D2E/DX2                !
 ! D52   D(18,4,8,11)           65.788          estimate D2E/DX2                !
 ! D53   D(18,4,8,24)          -51.8746         estimate D2E/DX2                !
 ! D54   D(18,4,8,25)         -172.2467         estimate D2E/DX2                !
 ! D55   D(19,4,8,11)         -177.0117         estimate D2E/DX2                !
 ! D56   D(19,4,8,24)           65.3258         estimate D2E/DX2                !
 ! D57   D(19,4,8,25)          -55.0463         estimate D2E/DX2                !
 ! D58   D(10,5,6,1)            59.9783         estimate D2E/DX2                !
 ! D59   D(20,5,6,1)          -178.5591         estimate D2E/DX2                !
 ! D60   D(21,5,6,1)           -61.9696         estimate D2E/DX2                !
 ! D61   D(6,5,10,13)          -54.8087         estimate D2E/DX2                !
 ! D62   D(6,5,10,28)         -176.0796         estimate D2E/DX2                !
 ! D63   D(6,5,10,29)           66.7638         estimate D2E/DX2                !
 ! D64   D(20,5,10,13)        -173.1891         estimate D2E/DX2                !
 ! D65   D(20,5,10,28)          65.54           estimate D2E/DX2                !
 ! D66   D(20,5,10,29)         -51.6167         estimate D2E/DX2                !
 ! D67   D(21,5,10,13)          66.1744         estimate D2E/DX2                !
 ! D68   D(21,5,10,28)         -55.0965         estimate D2E/DX2                !
 ! D69   D(21,5,10,29)        -172.2532         estimate D2E/DX2                !
 ! D70   D(4,7,9,2)            -52.2301         estimate D2E/DX2                !
 ! D71   D(4,7,9,26)            66.6959         estimate D2E/DX2                !
 ! D72   D(4,7,9,27)          -174.4878         estimate D2E/DX2                !
 ! D73   D(22,7,9,2)            68.4665         estimate D2E/DX2                !
 ! D74   D(22,7,9,26)         -172.6074         estimate D2E/DX2                !
 ! D75   D(22,7,9,27)          -53.7912         estimate D2E/DX2                !
 ! D76   D(23,7,9,2)          -173.9656         estimate D2E/DX2                !
 ! D77   D(23,7,9,26)          -55.0395         estimate D2E/DX2                !
 ! D78   D(23,7,9,27)           63.7767         estimate D2E/DX2                !
 ! D79   D(4,8,11,2)            57.4039         estimate D2E/DX2                !
 ! D80   D(24,8,11,2)          178.6289         estimate D2E/DX2                !
 ! D81   D(25,8,11,2)          -65.2582         estimate D2E/DX2                !
 ! D82   D(5,10,13,3)           51.4612         estimate D2E/DX2                !
 ! D83   D(5,10,13,30)         174.1202         estimate D2E/DX2                !
 ! D84   D(5,10,13,31)         -67.7779         estimate D2E/DX2                !
 ! D85   D(28,10,13,3)         172.184          estimate D2E/DX2                !
 ! D86   D(28,10,13,30)        -65.157          estimate D2E/DX2                !
 ! D87   D(28,10,13,31)         52.9449         estimate D2E/DX2                !
 ! D88   D(29,10,13,3)         -69.4233         estimate D2E/DX2                !
 ! D89   D(29,10,13,30)         53.2357         estimate D2E/DX2                !
 ! D90   D(29,10,13,31)        171.3376         estimate D2E/DX2                !
 --------------------------------------------------------------------------------
 Trust Radius=3.00D-01 FncErr=1.00D-07 GrdErr=1.00D-06 EigMax=2.50D+02 EigMin=1.00D-04
 Number of steps in this run=    186 maximum allowed number of steps=    186.
 GradGradGradGradGradGradGradGradGradGradGradGradGradGradGradGradGradGrad

                          Input orientation:                          
 ---------------------------------------------------------------------
 Center     Atomic      Atomic             Coordinates (Angstroms)
 Number     Number       Type             X           Y           Z
 ---------------------------------------------------------------------
      1          6           0       -1.741380    0.013749   -1.340608
      2          6           0        1.117261   -0.618535   -0.817241
      3          6           0       -1.229239   -1.119549   -0.457958
      4          6           0        3.015769    1.001044    0.653175
      5          6           0       -2.885654    1.083561    0.426841
      6          8           0       -1.941805    1.209494   -0.620623
      7          6           0        2.918226   -0.494239    0.954820
      8          6           0        1.689804    1.512036    0.115172
      9          6           0        2.403231   -1.232726   -0.281291
     10          6           0       -2.440847    0.036505    1.434592
     11          8           0        1.263095    0.763297   -1.015249
     12          8           0        0.073295   -0.898901    0.068555
     13          6           0       -2.168766   -1.294705    0.731606
     14          1           0       -2.682473   -0.308822   -1.780847
     15          1           0       -1.059802    0.243437   -2.144629
     16          1           0        0.885804   -1.022968   -1.792606
     17          1           0       -1.204652   -2.024542   -1.057720
     18          1           0        3.794594    1.177699   -0.085178
     19          1           0        3.277235    1.564508    1.544428
     20          1           0       -2.969507    2.061446    0.881032
     21          1           0       -3.851910    0.819516    0.001895
     22          1           0        2.246198   -0.655151    1.793775
     23          1           0        3.886721   -0.890645    1.243989
     24          1           0        1.768589    2.534330   -0.228006
     25          1           0        0.925308    1.471863    0.883235
     26          1           0        3.146070   -1.173249   -1.072317
     27          1           0        2.229689   -2.283445   -0.075114
     28          1           0       -3.214227   -0.088139    2.187067
     29          1           0       -1.547747    0.385708    1.943679
     30          1           0       -1.752534   -2.021246    1.421842
     31          1           0       -3.104462   -1.704259    0.359380
 ---------------------------------------------------------------------
                    Distance matrix (angstroms):
                    1          2          3          4          5
     1  C    0.000000
     2  C    2.974143   0.000000
     3  C    1.525032   2.426141   0.000000
     4  C    5.251703   2.896462   4.873564   0.000000
     5  C    2.361723   4.524179   2.894870   5.906338   0.000000
     6  O    1.410090   3.569066   2.441035   5.122846   1.415589
     7  C    5.219097   2.529649   4.425881   1.528521   6.037652
     8  C    4.017111   2.395106   3.971716   1.519455   4.606033
     9  C    4.455744   1.522561   3.638524   2.497630   5.817125
    10  C    2.862081   4.261451   2.527093   5.596035   1.519783
    11  O    3.113607   1.403544   3.172918   2.431466   4.403897
    12  O    2.472188   1.397535   1.422145   3.551017   3.579651
    13  C    2.487726   3.695146   1.525927   5.670628   2.502591
    14  H    1.087896   3.932231   2.125842   6.333259   2.617995
    15  H    1.078775   2.691572   2.175155   5.001195   3.263740
    16  H    2.860276   1.080960   2.502802   3.822986   4.856676
    17  H    2.126672   2.725063   1.085970   5.467475   3.832753
    18  H    5.794643   3.306128   5.536715   1.087631   6.700503
    19  H    5.992894   3.874099   5.614447   1.086365   6.281840
    20  H    3.261448   5.173790   3.865250   6.082754   1.081471
    21  H    2.627910   5.237522   3.293910   6.900879   1.088094
    22  H    5.115913   2.844863   4.167089   2.153181   5.588160
    23  H    6.258881   3.463036   5.396487   2.164742   7.101428
    24  H    4.462185   3.272917   4.731879   2.164002   4.918896
    25  H    3.766006   2.701523   3.627160   2.155139   3.857785
    26  H    5.036677   2.118688   4.418557   2.778822   6.612289
    27  H    4.758988   2.135456   3.669524   3.454880   6.144544
    28  H    3.824154   5.298016   3.464122   6.507841   2.139915
    29  H    3.310950   3.966541   2.852211   4.782229   2.139577
    30  H    3.431102   3.900874   2.149545   5.697526   3.451639
    31  H    2.774798   4.515106   2.127531   6.697926   2.797207
                    6          7          8          9         10
     6  O    0.000000
     7  C    5.385594   0.000000
     8  C    3.717729   2.497833   0.000000
     9  C    4.995891   1.529233   2.863543   0.000000
    10  C    2.418441   5.406619   4.580430   5.293420   0.000000
    11  O    3.259786   2.863918   1.421458   2.413030   4.499904
    12  O    2.996819   3.007133   2.903083   2.379587   3.010308
    13  C    2.855004   5.154421   4.811065   4.683264   1.529816
    14  H    2.049388   6.235871   5.101688   5.382068   3.242943
    15  H    2.008430   5.096612   3.778409   4.200438   3.841995
    16  H    3.788509   3.458127   3.272962   2.151896   4.754356
    17  H    3.345659   4.836349   4.718150   3.774471   3.462328
    18  H    5.761422   2.155225   2.140575   2.790072   6.518646
    19  H    5.661436   2.171397   2.136694   3.452774   5.919740
    20  H    2.009219   6.418907   4.753690   6.408500   2.164785
    21  H    2.046488   6.961951   5.585965   6.589285   2.157968
    22  H    5.181273   1.086904   2.797138   2.159665   4.751399
    23  H    6.469859   1.085697   3.445802   2.155050   6.397973
    24  H    3.959339   3.448619   1.081232   3.820513   5.169402
    25  H    3.248194   2.800429   1.084430   3.294720   3.700709
    26  H    5.636308   2.149942   3.277437   1.086770   6.241934
    27  H    5.468049   2.176259   3.838406   1.084729   5.429115
    28  H    3.344553   6.268200   5.559031   6.241691   1.086219
    29  H    2.722049   4.658011   3.885073   4.814566   1.085698
    30  H    3.826901   4.936179   5.103054   4.559913   2.169856
    31  H    3.286660   6.171829   5.778337   5.564844   2.150982
                   11         12         13         14         15
    11  O    0.000000
    12  O    2.313689   0.000000
    13  C    4.366296   2.371315   0.000000
    14  H    4.159698   3.370866   2.747413   0.000000
    15  H    2.634692   2.736243   3.445056   1.752252   0.000000
    16  H    1.984282   2.034572   3.971887   3.639058   2.347996
    17  H    3.723389   2.041742   2.159598   2.377091   2.519143
    18  H    2.728598   4.264266   6.507041   6.858384   5.355310
    19  H    3.354198   4.302536   6.204410   7.077071   5.845020
    20  H    4.816222   4.322316   3.453587   3.575774   4.013322
    21  H    5.215460   4.285398   2.799175   2.412239   3.568655
    22  H    3.296832   2.785194   4.585754   6.098333   5.219973
    23  H    3.837068   3.990480   6.090544   7.255512   6.102210
    24  H    2.002956   3.840449   5.575404   5.505160   4.113567
    25  H    2.054363   2.647669   4.153334   4.825376   3.823304
    26  H    2.701678   3.289195   5.613944   5.934742   4.565765
    27  H    3.331785   2.566639   4.579826   5.562194   4.635599
    28  H    5.570115   3.994149   2.160360   4.009464   4.849235
    29  H    4.098617   2.791789   2.163001   3.955006   4.119781
    30  H    4.773585   2.534698   1.085144   3.748920   4.281166
    31  H    5.201345   3.291097   1.087113   2.589573   3.774151
                   16         17         18         19         20
    16  H    0.000000
    17  H    2.431710   0.000000
    18  H    4.027320   6.016032   0.000000
    19  H    4.852811   6.303948   1.752968   0.000000
    20  H    5.614746   4.854768   6.889676   6.301494   0.000000
    21  H    5.390818   4.027335   7.655384   7.332062   1.758951
    22  H    3.853322   4.681305   3.047513   2.460101   5.951183
    23  H    4.271290   5.701374   2.460329   2.547452   7.473583
    24  H    3.985179   5.505625   2.442446   2.521525   4.889084
    25  H    3.658670   4.530881   3.042558   2.444856   3.939187
    26  H    2.377016   4.433249   2.630966   3.789442   7.188818
    27  H    2.518851   3.581514   3.798493   4.304301   6.842801
    28  H    5.789815   4.279800   7.475896   6.729287   2.527119
    29  H    4.676148   3.864636   5.769239   4.982913   2.441049
    30  H    4.276688   2.539373   6.578373   6.178287   4.294400
    31  H    4.584476   2.391659   7.490013   7.267409   3.804059
                   21         22         23         24         25
    21  H    0.000000
    22  H    6.524753   0.000000
    23  H    8.022086   1.746149   0.000000
    24  H    5.880770   3.806376   4.287622   0.000000
    25  H    4.901441   2.664211   3.805464   1.753515   0.000000
    26  H    7.355050   3.048389   2.448204   4.044312   3.968953
    27  H    6.827895   2.478782   2.534892   4.842205   4.089276
    28  H    2.450603   5.503855   7.208112   6.126857   4.611869
    29  H    3.044320   3.936988   5.626019   4.508977   2.901771
    30  H    3.807041   4.241982   5.754223   5.989456   4.434269
    31  H    2.656297   5.638056   7.093740   6.485159   5.157637
                   26         27         28         29         30
    26  H    0.000000
    27  H    1.751200   0.000000
    28  H    7.228722   6.290712   0.000000
    29  H    5.792970   5.046675   1.749550   0.000000
    30  H    5.562036   4.262362   2.541460   2.471372   0.000000
    31  H    6.434351   5.383067   2.442198   3.049808   1.748432
                   31
    31  H    0.000000
 Stoichiometry    C10H18O3
 Framework group  C1[X(C10H18O3)]
 Deg. of freedom    87
 Full point group                 C1      NOp   1
 Largest Abelian subgroup         C1      NOp   1
 Largest concise Abelian subgroup C1      NOp   1
                         Standard orientation:                         
 ---------------------------------------------------------------------
 Center     Atomic      Atomic             Coordinates (Angstroms)
 Number     Number       Type             X           Y           Z
 ---------------------------------------------------------------------
      1          6           0       -1.741380    0.013749   -1.340608
      2          6           0        1.117261   -0.618535   -0.817241
      3          6           0       -1.229239   -1.119549   -0.457958
      4          6           0        3.015769    1.001044    0.653175
      5          6           0       -2.885654    1.083561    0.426841
      6          8           0       -1.941805    1.209494   -0.620623
      7          6           0        2.918226   -0.494239    0.954820
      8          6           0        1.689804    1.512036    0.115172
      9          6           0        2.403231   -1.232726   -0.281291
     10          6           0       -2.440847    0.036505    1.434592
     11          8           0        1.263095    0.763297   -1.015249
     12          8           0        0.073295   -0.898901    0.068555
     13          6           0       -2.168766   -1.294705    0.731606
     14          1           0       -2.682473   -0.308822   -1.780847
     15          1           0       -1.059802    0.243437   -2.144629
     16          1           0        0.885804   -1.022968   -1.792606
     17          1           0       -1.204652   -2.024542   -1.057720
     18          1           0        3.794594    1.177699   -0.085178
     19          1           0        3.277235    1.564508    1.544428
     20          1           0       -2.969507    2.061446    0.881032
     21          1           0       -3.851910    0.819516    0.001895
     22          1           0        2.246198   -0.655151    1.793775
     23          1           0        3.886721   -0.890645    1.243989
     24          1           0        1.768589    2.534330   -0.228006
     25          1           0        0.925308    1.471863    0.883235
     26          1           0        3.146070   -1.173249   -1.072317
     27          1           0        2.229689   -2.283445   -0.075114
     28          1           0       -3.214227   -0.088139    2.187067
     29          1           0       -1.547747    0.385708    1.943679
     30          1           0       -1.752534   -2.021246    1.421842
     31          1           0       -3.104462   -1.704259    0.359380
 ---------------------------------------------------------------------
 Rotational constants (GHZ):           1.5032600           0.5260333           0.4948145
 Standard basis: 6-311++G(2d,2p) (5D, 7F)
 There are   557 symmetry adapted cartesian basis functions of A   symmetry.
 There are   531 symmetry adapted basis functions of A   symmetry.
   531 basis functions,   762 primitive gaussians,   557 cartesian basis functions
    51 alpha electrons       51 beta electrons
       nuclear repulsion energy       919.4821108499 Hartrees.
 NAtoms=   31 NActive=   31 NUniq=   31 SFac= 1.00D+00 NAtFMM=   60 NAOKFM=F Big=F
 Integral buffers will be    131072 words long.
 Raffenetti 2 integral format.
 Two-electron integral symmetry is turned on.
 ------------------------------------------------------------------------------
 Polarizable Continuum Model (PCM)
 =================================
 Model                : PCM.
 Atomic radii         : SMD-Coulomb.
 Polarization charges : Total charges.
 Charge compensation  : None.
 Solution method      : On-the-fly selection.
 Cavity type          : VdW (van der Waals Surface) (Alpha=1.000).
 Cavity algorithm     : GePol (No added spheres)
                        Default sphere list used, NSphG=   31.
                        Lebedev-Laikov grids with approx.  5.0 points / Ang**2.
                        Smoothing algorithm: York/Karplus (Gamma=1.0000).
                        Polarization charges: spherical gaussians, with
                                              point-specific exponents (IZeta= 3).
                        Self-potential: point-specific (ISelfS= 7).
                        Self-field    : sphere-specific E.n sum rule (ISelfD= 2).
 1st derivatives      : Analytical E(r).r(x)/FMM algorithm (CHGder, D1EAlg=3).
                        Cavity 1st derivative terms included.
 Solvent              : Water, Eps=  78.355300 Eps(inf)=   1.777849
 ------------------------------------------------------------------------------
 ------------------------------------------------------------------------------
 Atomic radii for non-electrostatic terms: SMD-CDS.
 ------------------------------------------------------------------------------
 Nuclear repulsion after PCM non-electrostatic terms =      919.4884293812 Hartrees.
 One-electron integrals computed using PRISM.
 NBasis=   531 RedAO= T EigKep=  4.32D-06  NBF=   531
 NBsUse=   531 1.00D-06 EigRej= -1.00D+00 NBFU=   531
 ExpMin= 3.60D-02 ExpMax= 8.59D+03 ExpMxC= 1.30D+03 IAcc=3 IRadAn=         5 AccDes= 0.00D+00
 Harris functional with IExCor= 1009 and IRadAn=       5 diagonalized for initial guess.
 HarFok:  IExCor= 1009 AccDes= 0.00D+00 IRadAn=         5 IDoV= 1 UseB2=F ITyADJ=14
 ICtDFT=  3500011 ScaDFX=  1.000000  1.000000  1.000000  1.000000
 FoFCou: FMM=F IPFlag=           0 FMFlag=      100000 FMFlg1=           0
         NFxFlg=           0 DoJE=T BraDBF=F KetDBF=T FulRan=T
         wScrn=  0.000000 ICntrl=       500 IOpCl=  0 I1Cent=   200000004 NGrid=           0
         NMat0=    1 NMatS0=      1 NMatT0=    0 NMatD0=    1 NMtDS0=    0 NMtDT0=    0
 Petite list used in FoFCou.
 Requested convergence on RMS density matrix=1.00D-08 within 128 cycles.
 Requested convergence on MAX density matrix=1.00D-06.
 Requested convergence on             energy=1.00D-06.
 No special actions if energy rises.
 Inv3:  Mode=1 IEnd=    12180675.
 Iteration    1 A*A^-1 deviation from unit magnitude is 7.22D-15 for    153.
 Iteration    1 A*A^-1 deviation from orthogonality  is 3.75D-15 for   1981    572.
 Iteration    1 A^-1*A deviation from unit magnitude is 7.11D-15 for    195.
 Iteration    1 A^-1*A deviation from orthogonality  is 3.78D-13 for   1132   1110.
 Error on total polarization charges =  0.05956
 SCF Done:  E(RM062X) =  -617.506270031     A.U. after   12 cycles
            NFock= 12  Conv=0.64D-08     -V/T= 2.0035
 SMD-CDS (non-electrostatic) energy       (kcal/mol) =       3.96
 (included in total energy above)

 **********************************************************************

            Population analysis using the SCF Density.

 **********************************************************************

 Orbital symmetries:
       Occupied  (A) (A) (A) (A) (A) (A) (A) (A) (A) (A) (A) (A)
                 (A) (A) (A) (A) (A) (A) (A) (A) (A) (A) (A) (A)
                 (A) (A) (A) (A) (A) (A) (A) (A) (A) (A) (A) (A)
                 (A) (A) (A) (A) (A) (A) (A) (A) (A) (A) (A) (A)
                 (A) (A) (A)
       Virtual   (A) (A) (A) (A) (A) (A) (A) (A) (A) (A) (A) (A)
                 (A) (A) (A) (A) (A) (A) (A) (A) (A) (A) (A) (A)
                 (A) (A) (A) (A) (A) (A) (A) (A) (A) (A) (A) (A)
                 (A) (A) (A) (A) (A) (A) (A) (A) (A) (A) (A) (A)
                 (A) (A) (A) (A) (A) (A) (A) (A) (A) (A) (A) (A)
                 (A) (A) (A) (A) (A) (A) (A) (A) (A) (A) (A) (A)
                 (A) (A) (A) (A) (A) (A) (A) (A) (A) (A) (A) (A)
                 (A) (A) (A) (A) (A) (A) (A) (A) (A) (A) (A) (A)
                 (A) (A) (A) (A) (A) (A) (A) (A) (A) (A) (A) (A)
                 (A) (A) (A) (A) (A) (A) (A) (A) (A) (A) (A) (A)
                 (A) (A) (A) (A) (A) (A) (A) (A) (A) (A) (A) (A)
                 (A) (A) (A) (A) (A) (A) (A) (A) (A) (A) (A) (A)
                 (A) (A) (A) (A) (A) (A) (A) (A) (A) (A) (A) (A)
                 (A) (A) (A) (A) (A) (A) (A) (A) (A) (A) (A) (A)
                 (A) (A) (A) (A) (A) (A) (A) (A) (A) (A) (A) (A)
                 (A) (A) (A) (A) (A) (A) (A) (A) (A) (A) (A) (A)
                 (A) (A) (A) (A) (A) (A) (A) (A) (A) (A) (A) (A)
                 (A) (A) (A) (A) (A) (A) (A) (A) (A) (A) (A) (A)
                 (A) (A) (A) (A) (A) (A) (A) (A) (A) (A) (A) (A)
                 (A) (A) (A) (A) (A) (A) (A) (A) (A) (A) (A) (A)
                 (A) (A) (A) (A) (A) (A) (A) (A) (A) (A) (A) (A)
                 (A) (A) (A) (A) (A) (A) (A) (A) (A) (A) (A) (A)
                 (A) (A) (A) (A) (A) (A) (A) (A) (A) (A) (A) (A)
                 (A) (A) (A) (A) (A) (A) (A) (A) (A) (A) (A) (A)
                 (A) (A) (A) (A) (A) (A) (A) (A) (A) (A) (A) (A)
                 (A) (A) (A) (A) (A) (A) (A) (A) (A) (A) (A) (A)
                 (A) (A) (A) (A) (A) (A) (A) (A) (A) (A) (A) (A)
                 (A) (A) (A) (A) (A) (A) (A) (A) (A) (A) (A) (A)
                 (A) (A) (A) (A) (A) (A) (A) (A) (A) (A) (A) (A)
                 (A) (A) (A) (A) (A) (A) (A) (A) (A) (A) (A) (A)
                 (A) (A) (A) (A) (A) (A) (A) (A) (A) (A) (A) (A)
                 (A) (A) (A) (A) (A) (A) (A) (A) (A) (A) (A) (A)
                 (A) (A) (A) (A) (A) (A) (A) (A) (A) (A) (A) (A)
                 (A) (A) (A) (A) (A) (A) (A) (A) (A) (A) (A) (A)
                 (A) (A) (A) (A) (A) (A) (A) (A) (A) (A) (A) (A)
                 (A) (A) (A) (A) (A) (A) (A) (A) (A) (A) (A) (A)
                 (A) (A) (A) (A) (A) (A) (A) (A) (A) (A) (A) (A)
                 (A) (A) (A) (A) (A) (A) (A) (A) (A) (A) (A) (A)
                 (A) (A) (A) (A) (A) (A) (A) (A) (A) (A) (A) (A)
                 (A) (A) (A) (A) (A) (A) (A) (A) (A) (A) (A) (A)
 The electronic state is 1-A.
 Alpha  occ. eigenvalues --  -19.62906 -19.62752 -19.62697 -10.62945 -10.58363
 Alpha  occ. eigenvalues --  -10.57271 -10.57113 -10.57050 -10.52531 -10.52276
 Alpha  occ. eigenvalues --  -10.52235 -10.52183 -10.52042  -1.20081  -1.16535
 Alpha  occ. eigenvalues --   -1.13510  -0.90438  -0.89169  -0.86648  -0.84509
 Alpha  occ. eigenvalues --   -0.74422  -0.73575  -0.72656  -0.71208  -0.65818
 Alpha  occ. eigenvalues --   -0.62254  -0.59846  -0.57909  -0.57275  -0.55526
 Alpha  occ. eigenvalues --   -0.53866  -0.52660  -0.52497  -0.50075  -0.49571
 Alpha  occ. eigenvalues --   -0.47822  -0.46836  -0.45565  -0.45081  -0.44918
 Alpha  occ. eigenvalues --   -0.43301  -0.42122  -0.40661  -0.39847  -0.38656
 Alpha  occ. eigenvalues --   -0.37800  -0.37249  -0.35833  -0.34825  -0.32901
 Alpha  occ. eigenvalues --   -0.31690
 Alpha virt. eigenvalues --    0.00302   0.01301   0.01323   0.01573   0.02725
 Alpha virt. eigenvalues --    0.03019   0.03217   0.03623   0.03671   0.05221
 Alpha virt. eigenvalues --    0.05312   0.05425   0.05928   0.06222   0.07521
 Alpha virt. eigenvalues --    0.08039   0.08279   0.08919   0.09464   0.09753
 Alpha virt. eigenvalues --    0.10570   0.11243   0.11547   0.11982   0.12703
 Alpha virt. eigenvalues --    0.12994   0.13202   0.13451   0.13838   0.13998
 Alpha virt. eigenvalues --    0.14129   0.14393   0.14888   0.15008   0.15168
 Alpha virt. eigenvalues --    0.15520   0.15890   0.16334   0.16387   0.16703
 Alpha virt. eigenvalues --    0.17072   0.17515   0.17800   0.17995   0.18373
 Alpha virt. eigenvalues --    0.18793   0.18979   0.19505   0.19854   0.19986
 Alpha virt. eigenvalues --    0.20413   0.20679   0.20842   0.21663   0.21970
 Alpha virt. eigenvalues --    0.22048   0.22882   0.23268   0.23701   0.24546
 Alpha virt. eigenvalues --    0.25509   0.25680   0.26765   0.26989   0.27918
 Alpha virt. eigenvalues --    0.28159   0.28791   0.29178   0.29831   0.30454
 Alpha virt. eigenvalues --    0.30788   0.31248   0.31608   0.32263   0.32430
 Alpha virt. eigenvalues --    0.32658   0.33493   0.33794   0.34654   0.35018
 Alpha virt. eigenvalues --    0.35688   0.35800   0.36162   0.36405   0.36494
 Alpha virt. eigenvalues --    0.37013   0.37597   0.38195   0.38636   0.39021
 Alpha virt. eigenvalues --    0.39269   0.39513   0.39871   0.40603   0.41047
 Alpha virt. eigenvalues --    0.41240   0.43164   0.43671   0.44658   0.45870
 Alpha virt. eigenvalues --    0.46907   0.47821   0.50103   0.50265   0.51359
 Alpha virt. eigenvalues --    0.52419   0.53685   0.53971   0.55743   0.56344
 Alpha virt. eigenvalues --    0.57421   0.58802   0.58960   0.60322   0.60456
 Alpha virt. eigenvalues --    0.61164   0.61377   0.62046   0.62229   0.62833
 Alpha virt. eigenvalues --    0.63233   0.63475   0.64391   0.64592   0.65422
 Alpha virt. eigenvalues --    0.66145   0.66373   0.67140   0.67526   0.67990
 Alpha virt. eigenvalues --    0.68180   0.68972   0.69670   0.70149   0.70734
 Alpha virt. eigenvalues --    0.71491   0.71748   0.72569   0.73702   0.74029
 Alpha virt. eigenvalues --    0.74590   0.75229   0.75895   0.76618   0.77028
 Alpha virt. eigenvalues --    0.77501   0.78016   0.78489   0.79069   0.79971
 Alpha virt. eigenvalues --    0.80543   0.81910   0.83673   0.84777   0.85636
 Alpha virt. eigenvalues --    0.87137   0.87515   0.88630   0.90392   0.90673
 Alpha virt. eigenvalues --    0.91472   0.93737   0.94821   0.95522   0.97202
 Alpha virt. eigenvalues --    0.98480   1.00276   1.00765   1.01262   1.02696
 Alpha virt. eigenvalues --    1.03589   1.04728   1.05039   1.05920   1.07100
 Alpha virt. eigenvalues --    1.08376   1.10534   1.11517   1.11804   1.12313
 Alpha virt. eigenvalues --    1.14030   1.15057   1.15988   1.16714   1.17825
 Alpha virt. eigenvalues --    1.18254   1.19088   1.19506   1.20064   1.21085
 Alpha virt. eigenvalues --    1.22385   1.23184   1.23361   1.23954   1.25241
 Alpha virt. eigenvalues --    1.25459   1.26500   1.27267   1.28084   1.28546
 Alpha virt. eigenvalues --    1.29422   1.30128   1.31525   1.31741   1.32118
 Alpha virt. eigenvalues --    1.33531   1.33780   1.34506   1.35381   1.36437
 Alpha virt. eigenvalues --    1.36910   1.37551   1.38105   1.38759   1.39176
 Alpha virt. eigenvalues --    1.39902   1.40564   1.41103   1.41584   1.42694
 Alpha virt. eigenvalues --    1.43311   1.43628   1.44469   1.44765   1.45711
 Alpha virt. eigenvalues --    1.46632   1.47024   1.47641   1.48191   1.49152
 Alpha virt. eigenvalues --    1.49719   1.50517   1.51217   1.51709   1.52405
 Alpha virt. eigenvalues --    1.53380   1.54679   1.55628   1.55912   1.56079
 Alpha virt. eigenvalues --    1.57238   1.57692   1.58221   1.58764   1.59853
 Alpha virt. eigenvalues --    1.60302   1.60754   1.62179   1.62890   1.64085
 Alpha virt. eigenvalues --    1.64562   1.65808   1.66353   1.66869   1.68934
 Alpha virt. eigenvalues --    1.69310   1.69630   1.70903   1.71939   1.73659
 Alpha virt. eigenvalues --    1.74493   1.75826   1.77085   1.77417   1.79373
 Alpha virt. eigenvalues --    1.79591   1.81329   1.81365   1.83569   1.84672
 Alpha virt. eigenvalues --    1.85963   1.91493   1.96709   1.97589   1.99858
 Alpha virt. eigenvalues --    2.04730   2.08856   2.14942   2.19735   2.23275
 Alpha virt. eigenvalues --    2.25270   2.26714   2.31180   2.35351   2.40367
 Alpha virt. eigenvalues --    2.42097   2.44729   2.45904   2.48013   2.52041
 Alpha virt. eigenvalues --    2.59343   2.76654   2.78471   2.80772   2.84105
 Alpha virt. eigenvalues --    2.85480   2.87621   2.92760   2.94232   2.94643
 Alpha virt. eigenvalues --    2.96471   2.98848   3.00385   3.02521   3.04628
 Alpha virt. eigenvalues --    3.07562   3.08518   3.10552   3.10911   3.12432
 Alpha virt. eigenvalues --    3.13130   3.15565   3.17329   3.20905   3.22284
 Alpha virt. eigenvalues --    3.25023   3.29504   3.33604   3.34076   3.34273
 Alpha virt. eigenvalues --    3.35746   3.37988   3.39702   3.40844   3.42042
 Alpha virt. eigenvalues --    3.42259   3.44361   3.45919   3.46595   3.47464
 Alpha virt. eigenvalues --    3.48832   3.49735   3.51885   3.52471   3.53148
 Alpha virt. eigenvalues --    3.54582   3.54818   3.55383   3.56429   3.56680
 Alpha virt. eigenvalues --    3.57802   3.58718   3.59129   3.59778   3.60763
 Alpha virt. eigenvalues --    3.61664   3.62376   3.63168   3.65836   3.66644
 Alpha virt. eigenvalues --    3.67107   3.67604   3.68923   3.69623   3.70159
 Alpha virt. eigenvalues --    3.70474   3.72040   3.73404   3.74331   3.75152
 Alpha virt. eigenvalues --    3.75564   3.75853   3.76447   3.77941   3.79339
 Alpha virt. eigenvalues --    3.80782   3.81568   3.82428   3.83493   3.84299
 Alpha virt. eigenvalues --    3.89172   3.89632   3.90161   3.90857   3.92886
 Alpha virt. eigenvalues --    3.93370   3.94594   3.95273   3.97386   3.98067
 Alpha virt. eigenvalues --    4.00352   4.01627   4.02851   4.03892   4.04528
 Alpha virt. eigenvalues --    4.05993   4.06992   4.07938   4.08274   4.08704
 Alpha virt. eigenvalues --    4.09375   4.09917   4.10311   4.11310   4.12030
 Alpha virt. eigenvalues --    4.12679   4.13882   4.15124   4.16802   4.17061
 Alpha virt. eigenvalues --    4.17586   4.18225   4.19248   4.20624   4.21733
 Alpha virt. eigenvalues --    4.22766   4.23578   4.24946   4.27789   4.28427
 Alpha virt. eigenvalues --    4.29006   4.30718   4.31319   4.32524   4.32857
 Alpha virt. eigenvalues --    4.33701   4.34312   4.34612   4.36766   4.38344
 Alpha virt. eigenvalues --    4.38459   4.42493   4.45773   4.47207   4.48639
 Alpha virt. eigenvalues --    4.58769   4.61698   4.74913   4.76498   4.82563
 Alpha virt. eigenvalues --    4.86032   4.94488   4.96342   5.00752   5.03785
 Alpha virt. eigenvalues --    5.07187   5.08119   5.08931   5.09595   5.12282
 Alpha virt. eigenvalues --    5.13564   5.14796   5.15079   5.32763   5.41151
 Alpha virt. eigenvalues --    5.45458   5.58756   5.61384   5.67509   5.86917
 Alpha virt. eigenvalues --    5.88734   6.07136   7.02854   7.04607   7.07037
 Alpha virt. eigenvalues --    7.08884   7.10613   7.13024   7.15170   7.20695
 Alpha virt. eigenvalues --    7.26560   7.36321   7.42376   7.45079   7.52928
 Alpha virt. eigenvalues --    7.55020   7.63816  23.97442  23.97926  24.07073
 Alpha virt. eigenvalues --   24.09210  24.11400  24.12721  24.15044  24.16467
 Alpha virt. eigenvalues --   24.17561  24.22435  50.17441  50.18796  50.28803
          Condensed to atoms (all electrons):
               1          2          3          4          5          6
     1  C    6.169152   0.226208  -0.825134  -0.015766  -0.297338   0.157250
     2  C    0.226208   6.925276  -0.673632   0.204590   0.013111  -0.036570
     3  C   -0.825134  -0.673632   7.954633   0.047097   0.293237  -0.085480
     4  C   -0.015766   0.204590   0.047097   5.804043  -0.014377   0.006733
     5  C   -0.297338   0.013111   0.293237  -0.014377   5.564479   0.055133
     6  O    0.157250  -0.036570  -0.085480   0.006733   0.055133   8.339582
     7  C   -0.008728  -0.198135  -0.038106  -0.045413   0.006463   0.005735
     8  C    0.032521  -0.331504   0.035472  -0.117147   0.021801  -0.019548
     9  C   -0.195368  -0.941918   0.269171  -0.119583   0.003112   0.006252
    10  C    0.156698   0.014762  -0.179946   0.029489  -0.084903   0.024853
    11  O   -0.002382   0.261767  -0.034584  -0.081829  -0.000940   0.027417
    12  O   -0.066902   0.096908  -0.032213  -0.020650  -0.028718   0.052217
    13  C    0.311860   0.170734  -1.256864  -0.031333  -0.058245   0.052226
    14  H    0.467247  -0.002962  -0.013100  -0.000321  -0.009591  -0.047654
    15  H    0.374453  -0.007535  -0.006939   0.007685  -0.000950  -0.074571
    16  H    0.014025   0.502506   0.015223   0.009813   0.004205  -0.003192
    17  H   -0.018024  -0.008462   0.426118   0.000709  -0.009231   0.003902
    18  H    0.001865   0.015843  -0.006852   0.488357  -0.000043   0.000261
    19  H    0.000947   0.002509   0.003043   0.452737   0.000250  -0.000382
    20  H   -0.007105  -0.001616   0.015456  -0.000539   0.453962  -0.068424
    21  H   -0.020161   0.001055   0.040623   0.000393   0.462357  -0.057750
    22  H   -0.000725  -0.024506   0.004369  -0.074684   0.001815   0.000496
    23  H   -0.002301   0.007448   0.005465  -0.017901   0.000047   0.000255
    24  H   -0.001020  -0.003907   0.007925  -0.018064   0.001048  -0.003418
    25  H   -0.007857  -0.013001  -0.053303  -0.088489   0.003765   0.008649
    26  H   -0.002292  -0.162297   0.006418  -0.011403  -0.000534   0.000236
    27  H   -0.001346  -0.014155  -0.007119  -0.008228   0.001371  -0.000255
    28  H   -0.000578   0.003012  -0.013818   0.000514  -0.029589   0.011961
    29  H    0.029437  -0.000004   0.015671   0.008104  -0.087061  -0.018036
    30  H   -0.003202  -0.007408  -0.024992  -0.000582   0.003675   0.000845
    31  H   -0.000730  -0.007013  -0.075043  -0.000109  -0.014942   0.000039
               7          8          9         10         11         12
     1  C   -0.008728   0.032521  -0.195368   0.156698  -0.002382  -0.066902
     2  C   -0.198135  -0.331504  -0.941918   0.014762   0.261767   0.096908
     3  C   -0.038106   0.035472   0.269171  -0.179946  -0.034584  -0.032213
     4  C   -0.045413  -0.117147  -0.119583   0.029489  -0.081829  -0.020650
     5  C    0.006463   0.021801   0.003112  -0.084903  -0.000940  -0.028718
     6  O    0.005735  -0.019548   0.006252   0.024853   0.027417   0.052217
     7  C    5.714132  -0.008658  -0.026598  -0.025710   0.009161   0.014976
     8  C   -0.008658   5.550462   0.113766  -0.028503   0.092725   0.011792
     9  C   -0.026598   0.113766   6.753564  -0.000282  -0.068386  -0.014673
    10  C   -0.025710  -0.028503  -0.000282   5.669831   0.001999  -0.022827
    11  O    0.009161   0.092725  -0.068386   0.001999   8.318372  -0.037492
    12  O    0.014976   0.011792  -0.014673  -0.022827  -0.037492   8.410584
    13  C    0.042892   0.008236  -0.102066  -0.145562  -0.015206  -0.013793
    14  H   -0.000533   0.000899  -0.000447   0.027681   0.000355   0.006837
    15  H   -0.002069  -0.003881   0.010311   0.013584  -0.014411  -0.010835
    16  H   -0.009735  -0.014425  -0.071479  -0.005750  -0.051068  -0.033858
    17  H   -0.004821  -0.000453   0.001701  -0.007509  -0.001696  -0.020924
    18  H   -0.016430  -0.088162  -0.024511   0.000784   0.000543  -0.000164
    19  H   -0.051031  -0.040209  -0.003197  -0.000072   0.009571  -0.000506
    20  H    0.000126   0.000692   0.001975  -0.064759   0.000285   0.000413
    21  H   -0.000217  -0.001555  -0.001760  -0.008166  -0.000758   0.000972
    22  H    0.530648   0.004621  -0.054791   0.002212   0.004171   0.000065
    23  H    0.416337   0.007019  -0.038294  -0.000687  -0.005305   0.000922
    24  H    0.005402   0.442614  -0.003482  -0.001818  -0.067577   0.000260
    25  H    0.025411   0.446415   0.027088  -0.010820  -0.031299   0.026283
    26  H   -0.011318   0.012185   0.542334   0.001023  -0.005196   0.011425
    27  H   -0.029140   0.008243   0.408120  -0.001524   0.007381  -0.006209
    28  H   -0.000447  -0.001320  -0.000535   0.450326  -0.000356   0.000394
    29  H   -0.003863  -0.001944  -0.002398   0.540222   0.000790  -0.001663
    30  H    0.002332  -0.000214  -0.000012  -0.032118  -0.000146   0.004229
    31  H    0.000769   0.001290   0.002972  -0.027591   0.000427   0.006193
              13         14         15         16         17         18
     1  C    0.311860   0.467247   0.374453   0.014025  -0.018024   0.001865
     2  C    0.170734  -0.002962  -0.007535   0.502506  -0.008462   0.015843
     3  C   -1.256864  -0.013100  -0.006939   0.015223   0.426118  -0.006852
     4  C   -0.031333  -0.000321   0.007685   0.009813   0.000709   0.488357
     5  C   -0.058245  -0.009591  -0.000950   0.004205  -0.009231  -0.000043
     6  O    0.052226  -0.047654  -0.074571  -0.003192   0.003902   0.000261
     7  C    0.042892  -0.000533  -0.002069  -0.009735  -0.004821  -0.016430
     8  C    0.008236   0.000899  -0.003881  -0.014425  -0.000453  -0.088162
     9  C   -0.102066  -0.000447   0.010311  -0.071479   0.001701  -0.024511
    10  C   -0.145562   0.027681   0.013584  -0.005750  -0.007509   0.000784
    11  O   -0.015206   0.000355  -0.014411  -0.051068  -0.001696   0.000543
    12  O   -0.013793   0.006837  -0.010835  -0.033858  -0.020924  -0.000164
    13  C    6.848304  -0.066756   0.014996  -0.005242  -0.016021  -0.000619
    14  H   -0.066756   0.445212  -0.008441  -0.000596  -0.002346   0.000052
    15  H    0.014996  -0.008441   0.463936  -0.010379  -0.005204  -0.000509
    16  H   -0.005242  -0.000596  -0.010379   0.419637   0.002023   0.001435
    17  H   -0.016021  -0.002346  -0.005204   0.002023   0.408023  -0.000095
    18  H   -0.000619   0.000052  -0.000509   0.001435  -0.000095   0.476674
    19  H    0.000400   0.000020   0.000226   0.000950  -0.000086  -0.011395
    20  H    0.012033  -0.002284   0.000825   0.000090   0.000354  -0.000003
    21  H   -0.060957   0.006213  -0.001026  -0.000244   0.001949   0.000013
    22  H   -0.004791   0.000251  -0.000608  -0.002560  -0.000059   0.000902
    23  H   -0.001254  -0.000032   0.000150   0.000850  -0.000060  -0.000729
    24  H   -0.001922  -0.000388   0.000601  -0.000168  -0.000058  -0.006907
    25  H    0.028348   0.000273  -0.001949  -0.001337   0.000096   0.004433
    26  H   -0.000813  -0.000065   0.001159  -0.014997   0.000614  -0.003177
    27  H    0.004525  -0.000214  -0.000282  -0.007036  -0.002105  -0.001918
    28  H   -0.047054   0.000209   0.001360  -0.000327   0.000212   0.000039
    29  H   -0.096129  -0.001008   0.000287   0.000778   0.000169   0.000077
    30  H    0.428962   0.000451   0.000499  -0.001578  -0.008366  -0.000026
    31  H    0.499002  -0.005417  -0.000497   0.000563  -0.006570  -0.000029
              19         20         21         22         23         24
     1  C    0.000947  -0.007105  -0.020161  -0.000725  -0.002301  -0.001020
     2  C    0.002509  -0.001616   0.001055  -0.024506   0.007448  -0.003907
     3  C    0.003043   0.015456   0.040623   0.004369   0.005465   0.007925
     4  C    0.452737  -0.000539   0.000393  -0.074684  -0.017901  -0.018064
     5  C    0.000250   0.453962   0.462357   0.001815   0.000047   0.001048
     6  O   -0.000382  -0.068424  -0.057750   0.000496   0.000255  -0.003418
     7  C   -0.051031   0.000126  -0.000217   0.530648   0.416337   0.005402
     8  C   -0.040209   0.000692  -0.001555   0.004621   0.007019   0.442614
     9  C   -0.003197   0.001975  -0.001760  -0.054791  -0.038294  -0.003482
    10  C   -0.000072  -0.064759  -0.008166   0.002212  -0.000687  -0.001818
    11  O    0.009571   0.000285  -0.000758   0.004171  -0.005305  -0.067577
    12  O   -0.000506   0.000413   0.000972   0.000065   0.000922   0.000260
    13  C    0.000400   0.012033  -0.060957  -0.004791  -0.001254  -0.001922
    14  H    0.000020  -0.002284   0.006213   0.000251  -0.000032  -0.000388
    15  H    0.000226   0.000825  -0.001026  -0.000608   0.000150   0.000601
    16  H    0.000950   0.000090  -0.000244  -0.002560   0.000850  -0.000168
    17  H   -0.000086   0.000354   0.001949  -0.000059  -0.000060  -0.000058
    18  H   -0.011395  -0.000003   0.000013   0.000902  -0.000729  -0.006907
    19  H    0.478880  -0.000090   0.000025  -0.003544  -0.008058  -0.008325
    20  H   -0.000090   0.468323  -0.006643   0.000058   0.000053  -0.000012
    21  H    0.000025  -0.006643   0.472448   0.000042  -0.000027  -0.000172
    22  H   -0.003544   0.000058   0.000042   0.455517  -0.006169  -0.002656
    23  H   -0.008058   0.000053  -0.000027  -0.006169   0.459550   0.001559
    24  H   -0.008325  -0.000012  -0.000172  -0.002656   0.001559   0.463026
    25  H   -0.004358  -0.000288  -0.000037   0.001325  -0.001076  -0.023087
    26  H   -0.002006  -0.000018  -0.000021   0.001331  -0.000283   0.000105
    27  H    0.001390   0.000051  -0.000056  -0.002238  -0.008891   0.001300
    28  H   -0.000011  -0.009288   0.004989   0.000295  -0.000058  -0.000160
    29  H    0.000376  -0.001775   0.000109  -0.003682   0.000214   0.001616
    30  H    0.000085   0.000018  -0.000296   0.000356   0.000001  -0.000118
    31  H   -0.000011  -0.000811  -0.005577  -0.000394   0.000095   0.000162
              25         26         27         28         29         30
     1  C   -0.007857  -0.002292  -0.001346  -0.000578   0.029437  -0.003202
     2  C   -0.013001  -0.162297  -0.014155   0.003012  -0.000004  -0.007408
     3  C   -0.053303   0.006418  -0.007119  -0.013818   0.015671  -0.024992
     4  C   -0.088489  -0.011403  -0.008228   0.000514   0.008104  -0.000582
     5  C    0.003765  -0.000534   0.001371  -0.029589  -0.087061   0.003675
     6  O    0.008649   0.000236  -0.000255   0.011961  -0.018036   0.000845
     7  C    0.025411  -0.011318  -0.029140  -0.000447  -0.003863   0.002332
     8  C    0.446415   0.012185   0.008243  -0.001320  -0.001944  -0.000214
     9  C    0.027088   0.542334   0.408120  -0.000535  -0.002398  -0.000012
    10  C   -0.010820   0.001023  -0.001524   0.450326   0.540222  -0.032118
    11  O   -0.031299  -0.005196   0.007381  -0.000356   0.000790  -0.000146
    12  O    0.026283   0.011425  -0.006209   0.000394  -0.001663   0.004229
    13  C    0.028348  -0.000813   0.004525  -0.047054  -0.096129   0.428962
    14  H    0.000273  -0.000065  -0.000214   0.000209  -0.001008   0.000451
    15  H   -0.001949   0.001159  -0.000282   0.001360   0.000287   0.000499
    16  H   -0.001337  -0.014997  -0.007036  -0.000327   0.000778  -0.001578
    17  H    0.000096   0.000614  -0.002105   0.000212   0.000169  -0.008366
    18  H    0.004433  -0.003177  -0.001918   0.000039   0.000077  -0.000026
    19  H   -0.004358  -0.002006   0.001390  -0.000011   0.000376   0.000085
    20  H   -0.000288  -0.000018   0.000051  -0.009288  -0.001775   0.000018
    21  H   -0.000037  -0.000021  -0.000056   0.004989   0.000109  -0.000296
    22  H    0.001325   0.001331  -0.002238   0.000295  -0.003682   0.000356
    23  H   -0.001076  -0.000283  -0.008891  -0.000058   0.000214   0.000001
    24  H   -0.023087   0.000105   0.001300  -0.000160   0.001616  -0.000118
    25  H    0.541509  -0.001113  -0.000543   0.001762  -0.018509   0.001245
    26  H   -0.001113   0.443061  -0.004998   0.000014   0.000102  -0.000077
    27  H   -0.000543  -0.004998   0.469547   0.000116  -0.000442   0.000286
    28  H    0.001762   0.000014   0.000116   0.466184  -0.015910  -0.005446
    29  H   -0.018509   0.000102  -0.000442  -0.015910   0.489659  -0.004775
    30  H    0.001245  -0.000077   0.000286  -0.005446  -0.004775   0.462298
    31  H   -0.000516   0.000101  -0.000120  -0.006947   0.003332   0.000573
              31
     1  C   -0.000730
     2  C   -0.007013
     3  C   -0.075043
     4  C   -0.000109
     5  C   -0.014942
     6  O    0.000039
     7  C    0.000769
     8  C    0.001290
     9  C    0.002972
    10  C   -0.027591
    11  O    0.000427
    12  O    0.006193
    13  C    0.499002
    14  H   -0.005417
    15  H   -0.000497
    16  H    0.000563
    17  H   -0.006570
    18  H   -0.000029
    19  H   -0.000011
    20  H   -0.000811
    21  H   -0.005577
    22  H   -0.000394
    23  H    0.000095
    24  H    0.000162
    25  H   -0.000516
    26  H    0.000101
    27  H   -0.000120
    28  H   -0.006947
    29  H    0.003332
    30  H    0.000573
    31  H    0.420598
 Mulliken charges:
               1
     1  C   -0.464700
     2  C   -0.011105
     3  C    0.187204
     4  C   -0.393846
     5  C   -0.253369
     6  O   -0.338763
     7  C   -0.293432
     8  C   -0.133231
     9  C   -0.470588
    10  C   -0.284918
    11  O   -0.316333
    12  O   -0.333044
    13  C   -0.497891
    14  H    0.206455
    15  H    0.260016
    16  H    0.261871
    17  H    0.266221
    18  H    0.170290
    19  H    0.181869
    20  H    0.208942
    21  H    0.174235
    22  H    0.172934
    23  H    0.191160
    24  H    0.217643
    25  H    0.140979
    26  H    0.200501
    27  H    0.194487
    28  H    0.190455
    29  H    0.166255
    30  H    0.183502
    31  H    0.216201
 Sum of Mulliken charges =  -0.00000
 Mulliken charges with hydrogens summed into heavy atoms:
               1
     1  C    0.001770
     2  C    0.250767
     3  C    0.453425
     4  C   -0.041687
     5  C    0.129808
     6  O   -0.338763
     7  C    0.070662
     8  C    0.225391
     9  C   -0.075600
    10  C    0.071793
    11  O   -0.316333
    12  O   -0.333044
    13  C   -0.098188
 Electronic spatial extent (au):  <R**2>=           2581.5854
 Charge=             -0.0000 electrons
 Dipole moment (field-independent basis, Debye):
    X=             -0.8378    Y=             -2.6542    Z=              0.8816  Tot=              2.9195
 Quadrupole moment (field-independent basis, Debye-Ang):
   XX=            -67.2700   YY=            -79.7199   ZZ=            -78.5894
   XY=              3.1920   XZ=             -0.0115   YZ=              7.0331
 Traceless Quadrupole moment (field-independent basis, Debye-Ang):
   XX=              7.9231   YY=             -4.5268   ZZ=             -3.3963
   XY=              3.1920   XZ=             -0.0115   YZ=              7.0331
 Octapole moment (field-independent basis, Debye-Ang**2):
  XXX=            -15.4157  YYY=              1.2842  ZZZ=             -6.0661  XYY=              4.6139
  XXY=             -4.0006  XXZ=              7.1898  XZZ=             -6.6558  YZZ=             -4.6432
  YYZ=              2.5262  XYZ=             -2.0201
 Hexadecapole moment (field-independent basis, Debye-Ang**3):
 XXXX=          -2216.2366 YYYY=           -615.6287 ZZZZ=           -477.8752 XXXY=             -5.3091
 XXXZ=            -10.7706 YYYX=             10.0170 YYYZ=              8.5961 ZZZX=              3.0776
 ZZZY=              7.0553 XXYY=           -485.5474 XXZZ=           -461.9024 YYZZ=           -186.6586
 XXYZ=             18.4377 YYXZ=             -8.2904 ZZXY=             -0.4166
 N-N= 9.194884293812D+02 E-N=-3.281864887279D+03  KE= 6.153542062473D+02
 D1PCM: PCM CHGder 1st derivatives, ID1Alg=3 FixD1E=F DoIter=F DoCFld=F I1PDM=0.
 Calling FoFJK, ICntrl=      2127 FMM=F ISym2X=0 I1Cent= 0 IOpClX= 0 NMat=1 NMatS=1 NMatT=0.
 ***** Axes restored to original set *****
 -------------------------------------------------------------------
 Center     Atomic                   Forces (Hartrees/Bohr)
 Number     Number              X              Y              Z
 -------------------------------------------------------------------
      1        6          -0.000268076   -0.004845527    0.004900069
      2        6           0.005287679   -0.004849760    0.003264805
      3        6          -0.003971576    0.004190950   -0.001331043
      4        6          -0.002607517   -0.001648669    0.000732994
      5        6           0.001376468   -0.006036695    0.003644611
      6        8           0.007544714    0.010454064   -0.001963791
      7        6          -0.001336551    0.001944282   -0.003553828
      8        6           0.005339150   -0.004205126    0.002831809
      9        6          -0.000774463    0.001685852    0.002224549
     10        6          -0.001248927   -0.000992889   -0.003203783
     11        8          -0.002985413    0.007393332   -0.012085616
     12        8           0.000100510    0.002134555    0.014703825
     13        6           0.001162913    0.001802131   -0.001260293
     14        1          -0.004849260   -0.002593894   -0.002021375
     15        1           0.005024438    0.000835275   -0.004055926
     16        1          -0.001695072   -0.002404525   -0.006850452
     17        1          -0.000556892   -0.004395597   -0.003316285
     18        1           0.001873172    0.000201301   -0.002822510
     19        1           0.000529721    0.001343125    0.002323015
     20        1          -0.000212151    0.003971796    0.002082205
     21        1          -0.004895550   -0.002314530   -0.001836811
     22        1          -0.003007105   -0.000244534    0.002328511
     23        1           0.002291911   -0.000954945    0.000502513
     24        1           0.000361186    0.004260600   -0.001279707
     25        1          -0.004423272   -0.000830698    0.005042416
     26        1           0.002008371    0.000881236   -0.002535523
     27        1          -0.000901778   -0.002975403    0.000651886
     28        1          -0.001903958   -0.000415990    0.001852373
     29        1           0.003735887    0.001427027    0.000992553
     30        1           0.001793456   -0.002033680    0.001775684
     31        1          -0.002792012   -0.000783062   -0.001736874
 -------------------------------------------------------------------
 Cartesian Forces:  Max     0.014703825 RMS     0.003732374

 GradGradGradGradGradGradGradGradGradGradGradGradGradGradGradGradGradGrad
 Berny optimization.
 FormGI is forming the generalized inverse of G from B-inverse, IUseBI=4.
 Internal  Forces:  Max     0.014027438 RMS     0.002315976
 Search for a local minimum.
 Step number   1 out of a maximum of  186
 All quantities printed in internal units (Hartrees-Bohrs-Radians)
 Mixed Optimization -- RFO/linear search
 Second derivative matrix not updated -- first step.
 ITU=  0
     Eigenvalues ---    0.00622   0.00627   0.00720   0.00723   0.01411
     Eigenvalues ---    0.01427   0.01724   0.02703   0.02816   0.03084
     Eigenvalues ---    0.03107   0.04097   0.04349   0.04636   0.04749
     Eigenvalues ---    0.04876   0.04893   0.05017   0.05139   0.05144
     Eigenvalues ---    0.05278   0.05695   0.05742   0.06176   0.06183
     Eigenvalues ---    0.06240   0.06574   0.06992   0.07587   0.07836
     Eigenvalues ---    0.07943   0.07961   0.07976   0.08188   0.08235
     Eigenvalues ---    0.08820   0.09239   0.09349   0.10816   0.11606
     Eigenvalues ---    0.11711   0.11764   0.11764   0.12401   0.12545
     Eigenvalues ---    0.14546   0.14705   0.15708   0.16482   0.17570
     Eigenvalues ---    0.19158   0.21379   0.21964   0.25000   0.28437
     Eigenvalues ---    0.28629   0.28796   0.28845   0.28945   0.29072
     Eigenvalues ---    0.30167   0.30279   0.35034   0.35057   0.35088
     Eigenvalues ---    0.35148   0.35173   0.35189   0.35236   0.35253
     Eigenvalues ---    0.35283   0.35315   0.35315   0.35380   0.35429
     Eigenvalues ---    0.35464   0.35817   0.35846   0.35879   0.36143
     Eigenvalues ---    0.40865   0.41504   0.42139   0.42456   0.43504
     Eigenvalues ---    0.460311000.000001000.000001000.000001000.00000
     Eigenvalues --- 1000.000001000.000001000.000001000.000001000.00000
     Eigenvalues --- 1000.000001000.000001000.000001000.000001000.00000
     Eigenvalues --- 1000.000001000.000001000.000001000.000001000.00000
     Eigenvalues --- 1000.000001000.000001000.000001000.000001000.00000
     Eigenvalues --- 1000.000001000.000001000.000001000.000001000.00000
     Eigenvalues --- 1000.000001000.000001000.000001000.000001000.00000
     Eigenvalues --- 1000.000001000.000001000.000001000.000001000.00000
     Eigenvalues --- 1000.000001000.000001000.000001000.000001000.00000
     Eigenvalues --- 1000.000001000.000001000.000001000.000001000.00000
     Eigenvalues --- 1000.000001000.000001000.000001000.000001000.00000
     Eigenvalues --- 1000.000001000.000001000.000001000.000001000.00000
     Eigenvalues --- 1000.000001000.000001000.000001000.000001000.00000
     Eigenvalues --- 1000.000001000.000001000.000001000.000001000.00000
     Eigenvalues --- 1000.000001000.000001000.000001000.000001000.00000
     Eigenvalues --- 1000.000001000.000001000.000001000.000001000.00000
     Eigenvalues --- 1000.000001000.000001000.000001000.000001000.00000
     Eigenvalues --- 1000.000001000.000001000.000001000.000001000.00000
     Eigenvalues --- 1000.000001000.000001000.000001000.000001000.00000
     Eigenvalues --- 1000.000001000.000001000.000001000.000001000.00000
 RFO step:  Lambda=-4.51266684D-03 EMin= 6.22322854D-03
 Linear search not attempted -- first point.
 Iteration  1 RMS(Cart)=  0.09893032 RMS(Int)=  0.00203914
 Iteration  2 RMS(Cart)=  0.00408194 RMS(Int)=  0.00005186
 Iteration  3 RMS(Cart)=  0.00000493 RMS(Int)=  0.00005179
 Iteration  4 RMS(Cart)=  0.00000000 RMS(Int)=  0.00005179
 Iteration  1 RMS(Cart)=  0.00002059 RMS(Int)=  0.00000467
 Iteration  2 RMS(Cart)=  0.00001147 RMS(Int)=  0.00000522
 Iteration  3 RMS(Cart)=  0.00000639 RMS(Int)=  0.00000591
 Iteration  4 RMS(Cart)=  0.00000356 RMS(Int)=  0.00000637
 Iteration  5 RMS(Cart)=  0.00000198 RMS(Int)=  0.00000665
 Iteration  6 RMS(Cart)=  0.00000110 RMS(Int)=  0.00000681
 Iteration  7 RMS(Cart)=  0.00000061 RMS(Int)=  0.00000691
 Variable       Old X    -DE/DX   Delta X   Delta X   Delta X     New X
                                 (Linear)    (Quad)   (Total)
    R1        2.88189  -0.00151   0.00000  -0.00522  -0.00519   2.87670
    R2        2.66468   0.00605   0.00000   0.01434   0.01436   2.67904
    R3        2.05583   0.00578   0.00000   0.01629   0.01629   2.07211
    R4        2.03859   0.00638   0.00000   0.01742   0.01742   2.05601
    R5        2.87722  -0.00124   0.00000  -0.00412  -0.00413   2.87309
    R6        2.65231   0.00768   0.00000   0.01693   0.01695   2.66926
    R7        2.64096   0.00574   0.00000   0.01234   0.01234   2.65330
    R8        2.04272   0.00744   0.00000   0.02049   0.02049   2.06321
    R9        2.68746   0.00235   0.00000   0.00552   0.00552   2.69299
   R10        2.88358  -0.00253   0.00000  -0.00859  -0.00858   2.87501
   R11        2.05219   0.00548   0.00000   0.01534   0.01534   2.06753
   R12        2.88849  -0.00074   0.00000  -0.00249  -0.00251   2.88597
   R13        2.87135  -0.00049   0.00000  -0.00154  -0.00153   2.86983
   R14        2.05532   0.00329   0.00000   0.00926   0.00926   2.06459
   R15        2.05293   0.00273   0.00000   0.00765   0.00765   2.06058
   R16        2.67507   0.00677   0.00000   0.01567   0.01566   2.69073
   R17        2.87197  -0.00048   0.00000  -0.00122  -0.00126   2.87072
   R18        2.04368   0.00448   0.00000   0.01236   0.01236   2.05604
   R19        2.05620   0.00563   0.00000   0.01586   0.01586   2.07206
   R20        2.88983  -0.00107   0.00000  -0.00396  -0.00398   2.88586
   R21        2.05395   0.00369   0.00000   0.01037   0.01037   2.06432
   R22        2.05167   0.00253   0.00000   0.00706   0.00706   2.05874
   R23        2.68617   0.00548   0.00000   0.01310   0.01312   2.69928
   R24        2.04323   0.00446   0.00000   0.01229   0.01229   2.05552
   R25        2.04928   0.00672   0.00000   0.01871   0.01871   2.06798
   R26        2.05370   0.00326   0.00000   0.00916   0.00916   2.06286
   R27        2.04984   0.00315   0.00000   0.00878   0.00878   2.05862
   R28        2.89093  -0.00076   0.00000  -0.00354  -0.00356   2.88737
   R29        2.05266   0.00269   0.00000   0.00752   0.00752   2.06018
   R30        2.05167   0.00400   0.00000   0.01118   0.01118   2.06285
   R31        2.05062   0.00318   0.00000   0.00887   0.00887   2.05950
   R32        2.05434   0.00329   0.00000   0.00925   0.00925   2.06359
    A1        1.96317  -0.00036   0.00000  -0.00533  -0.00530   1.95786
    A2        1.88008  -0.00087   0.00000   0.00030   0.00025   1.88033
    A3        1.95780  -0.00073   0.00000  -0.01227  -0.01233   1.94547
    A4        1.91251   0.00156   0.00000   0.01468   0.01468   1.92719
    A5        1.86482  -0.00020   0.00000  -0.00346  -0.00363   1.86119
    A6        1.88397   0.00073   0.00000   0.00729   0.00729   1.89126
    A7        1.93805   0.00289   0.00000   0.01144   0.01125   1.94930
    A8        1.90381  -0.00148   0.00000  -0.00841  -0.00835   1.89546
    A9        1.92574   0.00035   0.00000   0.00983   0.00984   1.93559
   A10        1.94394  -0.00123   0.00000  -0.01464  -0.01454   1.92940
   A11        1.83724  -0.00181   0.00000  -0.00825  -0.00829   1.82895
   A12        1.91442   0.00133   0.00000   0.01060   0.01056   1.92499
   A13        1.98948  -0.00357   0.00000  -0.03021  -0.03017   1.95931
   A14        1.90681   0.00267   0.00000   0.00775   0.00752   1.91433
   A15        1.88309  -0.00016   0.00000   0.00369   0.00373   1.88682
   A16        1.86828   0.00052   0.00000  -0.00422  -0.00428   1.86401
   A17        1.88918   0.00194   0.00000   0.02032   0.02035   1.90953
   A18        1.92711  -0.00145   0.00000   0.00321   0.00318   1.93029
   A19        1.92109  -0.00033   0.00000  -0.00261  -0.00278   1.91830
   A20        1.91618   0.00070   0.00000   0.00126   0.00133   1.91751
   A21        1.93997  -0.00056   0.00000  -0.00117  -0.00115   1.93882
   A22        1.90699  -0.00010   0.00000  -0.00198  -0.00193   1.90506
   A23        1.90296   0.00009   0.00000  -0.00019  -0.00014   1.90282
   A24        1.87586   0.00021   0.00000   0.00483   0.00480   1.88066
   A25        1.93563   0.00060   0.00000   0.00681   0.00668   1.94231
   A26        1.85669  -0.00089   0.00000  -0.00284  -0.00280   1.85390
   A27        1.90149   0.00102   0.00000   0.00394   0.00401   1.90551
   A28        1.94676  -0.00043   0.00000  -0.00371  -0.00370   1.94307
   A29        1.93016  -0.00081   0.00000  -0.00709  -0.00706   1.92311
   A30        1.89082   0.00054   0.00000   0.00321   0.00317   1.89399
   A31        1.97920  -0.00447   0.00000  -0.02720  -0.02711   1.95209
   A32        1.91175   0.00265   0.00000   0.00046   0.00044   1.91219
   A33        1.91411  -0.00125   0.00000  -0.00266  -0.00271   1.91140
   A34        1.93137  -0.00037   0.00000   0.00125   0.00131   1.93268
   A35        1.92219  -0.00092   0.00000  -0.00381  -0.00381   1.91838
   A36        1.91706  -0.00091   0.00000  -0.00011  -0.00011   1.91695
   A37        1.86702   0.00072   0.00000   0.00489   0.00489   1.87191
   A38        1.94594   0.00150   0.00000   0.00364   0.00362   1.94955
   A39        1.94632  -0.00008   0.00000  -0.00161  -0.00155   1.94477
   A40        1.93047  -0.00112   0.00000  -0.00420  -0.00424   1.92622
   A41        1.84158  -0.00100   0.00000  -0.00091  -0.00093   1.84065
   A42        1.90934   0.00028   0.00000   0.00122   0.00126   1.91060
   A43        1.88725   0.00043   0.00000   0.00205   0.00205   1.88929
   A44        1.95429  -0.00156   0.00000  -0.01422  -0.01434   1.93995
   A45        1.87447  -0.00012   0.00000   0.00224   0.00226   1.87672
   A46        1.89919   0.00068   0.00000  -0.00165  -0.00163   1.89757
   A47        1.90894   0.00131   0.00000   0.00801   0.00807   1.91700
   A48        1.94767  -0.00028   0.00000  -0.00042  -0.00051   1.94716
   A49        1.87624   0.00003   0.00000   0.00697   0.00694   1.88318
   A50        1.92501   0.00074   0.00000  -0.00300  -0.00305   1.92197
   A51        1.90713   0.00054   0.00000   0.00258   0.00263   1.90975
   A52        1.90719  -0.00113   0.00000  -0.00374  -0.00377   1.90343
   A53        1.92315  -0.00101   0.00000  -0.00010  -0.00009   1.92306
   A54        1.92736   0.00045   0.00000  -0.00061  -0.00060   1.92676
   A55        1.87315   0.00039   0.00000   0.00508   0.00508   1.87823
   A56        2.02371  -0.00592   0.00000  -0.03551  -0.03539   1.98832
   A57        2.07219  -0.01403   0.00000  -0.05511  -0.05511   2.01707
   A58        1.94749  -0.00012   0.00000  -0.01316  -0.01316   1.93433
   A59        1.91405   0.00026   0.00000  -0.00332  -0.00335   1.91070
   A60        1.88207  -0.00074   0.00000   0.00184   0.00184   1.88391
   A61        1.93750  -0.00029   0.00000   0.00049   0.00038   1.93788
   A62        1.90931   0.00059   0.00000   0.00758   0.00758   1.91689
   A63        1.87099   0.00029   0.00000   0.00752   0.00751   1.87849
    D1       -1.14865   0.00125   0.00000   0.04777   0.04775  -1.10091
    D2        0.94027   0.00146   0.00000   0.02810   0.02812   0.96838
[...]
 ,-0.00001591,0.01433934,-0.01193307,-0.03358375,-0.00133762,0.00050097
 ,0.00209422,-0.00009474,-0.00001551,-0.00003198,-0.00003566,0.00004827
 ,0.00003627,0.00002078,-0.00002255,0.00007625,-0.00019306,-0.00040571,
 0.00009227,0.00005006,-0.00000116,0.00000112,-0.00296950,0.00149254,-0
 .00005915,0.00106989,-0.00025766,0.00059571,-0.00002913,-0.00002178,-0
 .00001458,0.00002674,-0.00000433,-0.00001631,0.00035270,-0.00029897,-0
 .00016620,0.00009650,-0.00012293,-0.00001435,0.00802269,0.00221663,-0.
 00531748,-0.13524689,-0.01484492,0.18449982,-0.00028465,-0.00032342,-0
 .00007764,-0.01765444,-0.00471427,0.02180200,0.00090672,0.00107245,0.0
 0176551,0.00031444,0.00049472,0.00001064,0.00008773,-0.00002590,-0.000
 01953,-0.00004802,0.00013803,0.00004471,0.00749513,0.00062346,-0.00798
 737,-0.00013808,-0.00000218,-0.00013861,-0.17959185,-0.01430814,0.1294
 6787,-0.00000715,-0.00007305,-0.00002256,0.00186466,-0.00053155,-0.000
 45903,-0.00887306,0.00116898,-0.00231010,-0.00050199,-0.00009785,-0.00
 040654,-0.00008447,0.00014039,-0.00008934,0.00001830,0.00000815,0.0000
 0135,0.00093990,-0.00047342,-0.00015484,-0.00007634,-0.00012491,-0.000
 14966,-0.00022783,0.00025416,0.00015331,-0.00002867,0.00018485,-0.0000
 0489,-0.00001140,0.00001843,0.00000240,-0.00001367,-0.00000331,-0.0000
 0414,0.00042950,-0.00160464,-0.00194119,0.00076702,0.00051590,0.000523
 92,0.00002971,0.00003162,0.00001667,0.00001349,-0.00004982,0.00000869,
 0.19674260,-0.00004328,0.00004346,-0.00001779,0.00773431,-0.00133520,-
 0.00882210,0.00009354,0.00012378,-0.00044529,0.00086821,0.00089201,-0.
 00030322,-0.00001568,0.00000477,0.00000394,0.00000341,-0.00003058,-0.0
 0001217,0.01209382,0.00064215,-0.01207450,0.00003321,0.00000786,-0.000
 06796,-0.01782131,-0.05201051,0.01876476,-0.00000064,0.00001431,0.0000
 0661,0.00011427,0.00049476,0.00010176,0.00202367,0.00067968,0.00089558
 ,0.00015165,0.00003245,0.00011615,0.00000789,-0.00001153,0.00000555,-0
 .00000445,-0.00000587,-0.00000062,-0.00045598,0.00027016,0.00010032,0.
 00005529,-0.00001110,0.00000784,-0.00018989,0.00001473,0.00010150,-0.0
 0013250,0.00013246,0.00007957,0.00000218,-0.00000344,0.00000039,0.0000
 0294,0.00000111,0.00000079,-0.00077409,-0.00102399,-0.00283410,-0.0000
 9656,0.00055743,0.00081754,0.00002731,-0.00002099,0.00001145,-0.000035
 90,0.00001842,0.00001204,0.01827134,0.05159784,-0.00004737,-0.00007837
 ,0.00001038,-0.00837032,-0.00104245,0.00757461,-0.00011118,0.00025371,
 0.00058415,0.00026113,0.00114677,0.00102035,0.00002210,-0.00000875,-0.
 00000457,-0.00000740,0.00003185,0.00000759,0.01889845,0.00182580,-0.02
 172977,-0.00025602,-0.00022633,-0.00022293,0.13307283,0.01780247,-0.17
 702794,-0.00000750,-0.00002713,-0.00001079,0.00003700,-0.00050107,0.00
 032134,-0.00397263,0.00098214,0.00040680,-0.00018219,-0.00003865,-0.00
 012508,-0.00001817,0.00002816,-0.00002479,0.00000351,0.00001164,-0.000
 00651,0.00049658,-0.00047974,0.00073004,0.00000796,-0.00004345,-0.0000
 5152,-0.00012070,-0.00047011,0.00042119,-0.00036692,0.00006724,0.00015
 042,-0.00000282,0.00000508,-0.00000031,-0.00000208,-0.00000072,-0.0000
 0008,-0.00193229,-0.00346894,-0.00363674,-0.00008706,0.00066683,0.0011
 8569,0.00009204,-0.00002309,0.00005175,-0.00001788,0.00001273,-0.00002
 304,-0.14120364,-0.01707893,0.19493720,0.00002817,0.00000561,-0.000032
 56,0.00399446,0.02606915,-0.00349632,0.00028849,-0.00026194,-0.0000422
 3,0.00025569,-0.00090719,-0.00236976,0.00000232,0.00000217,-0.00001271
 ,-0.00001140,-0.00000604,0.00002238,-0.00171823,-0.00841764,0.00327581
 ,-0.00060489,-0.00095892,-0.00135064,-0.05286112,-0.03371682,0.0077300
 3,-0.00000160,0.00000162,0.00000451,-0.00476391,0.00654077,-0.00269979
 ,0.00120295,0.00052118,-0.00041108,0.00002478,0.00000398,0.00002293,-0
 .00001166,-0.00000583,0.00001695,0.00000637,0.00000066,0.00003459,0.00
 079421,-0.00084793,0.00014967,-0.00002659,-0.00003476,-0.00002041,0.00
 002912,0.00039603,-0.00015009,0.00033355,-0.00084193,0.00002426,-0.000
 00082,-0.00000027,0.00000192,-0.00000339,-0.00000024,0.00000290,0.0003
 9448,0.00046360,-0.00012965,0.00005739,0.00015333,0.00052605,0.0001531
 8,0.00009073,0.00021752,0.00003133,0.00005607,0.00017217,-0.00190279,-
 0.02194984,0.00388187,0.05431478,-0.00008993,-0.00002148,-0.00000553,-
 0.00378487,-0.01169567,0.00168826,0.00016686,0.00031134,0.00000852,-0.
 00096198,0.00019924,-0.00382654,-0.00000680,-0.00000387,0.00001507,0.0
 0004684,-0.00001028,-0.00001279,-0.00142903,-0.01398239,0.00356995,-0.
 00041978,0.00096282,0.00061354,-0.02904096,-0.30228577,0.05539614,0.00
 000210,0.00000321,-0.00000292,0.00269999,-0.00147666,0.00143685,-0.001
 05076,0.00143422,-0.00020988,0.00003842,-0.00000424,0.00002580,0.00001
 387,0.00001482,-0.00002769,-0.00000770,0.00001221,-0.00003915,0.000449
 69,0.00035139,0.00011638,0.00004748,-0.00007080,-0.00001672,-0.0000771
 7,0.00009984,0.00008219,0.00012480,-0.00104078,0.00038036,0.00000107,-
 0.00000039,-0.00000248,0.00000412,0.00000059,-0.00000373,0.00034577,0.
 00059648,0.00009002,-0.00022318,0.00055442,0.00001934,0.00003897,-0.00
 007407,0.00001222,0.00005555,-0.00004951,-0.00011068,-0.00059691,-0.00
 107430,0.00065970,0.03364051,0.32724762,0.00003816,0.00000852,-0.00002
 016,0.00483142,0.01073745,-0.00338261,-0.00001766,-0.00013946,0.000023
 37,-0.00169970,-0.00206861,-0.00509848,0.00000008,-0.00000156,-0.00000
 469,-0.00001935,0.00000232,0.00001097,-0.00254496,-0.02816660,0.007101
 29,-0.00066181,-0.00035029,-0.00108186,0.00567854,0.05654635,-0.059678
 94,-0.00000256,-0.00000167,-0.00000047,-0.00330283,0.00362813,-0.00016
 860,0.00089534,-0.00069577,0.00039684,-0.00001685,-0.00001231,-0.00000
 172,-0.00001037,-0.00000602,0.00001431,0.00000394,-0.00000203,0.000024
 41,0.00041977,-0.00046420,0.00012790,0.00000117,0.00000338,-0.00001453
 ,-0.00012290,-0.00008083,0.00014366,-0.00001129,-0.00173812,0.00030682
 ,-0.00000040,0.00000119,0.00000031,-0.00000267,0.00000069,0.00000200,0
 .00062556,0.00079492,0.00124811,0.00013158,0.00098176,0.00108591,0.000
 13582,0.00009497,0.00022492,0.00006629,0.00006423,0.00015301,0.0009560
 7,0.02069754,-0.00460198,-0.00536082,-0.05983810,0.06318863,-0.0002212
 1,0.00028439,-0.00003027,0.00026266,0.00016358,-0.00010907,0.00087692,
 0.00046129,-0.00042806,-0.00000319,-0.00000595,0.00000914,0.00553634,-
 0.00035075,-0.00654909,0.00148207,0.00179467,-0.00207521,-0.00000361,0
 .00000603,0.00000376,0.00006269,-0.00000617,-0.00003305,-0.00001039,-0
 .00001311,0.00001535,-0.18233077,-0.01689503,0.13424982,-0.00004966,-0
 .00006292,0.00003661,-0.00004576,0.00026958,0.00045585,-0.00151351,-0.
 00054080,0.00032884,0.00000956,-0.00002484,0.00000440,-0.00001258,-0.0
 0010788,-0.00001078,-0.00005468,-0.00003146,0.00003080,-0.00015987,-0.
 00015905,0.00013345,-0.00000806,0.00000167,-0.00000126,-0.00000330,-0.
 00000208,-0.00000251,0.00023583,-0.00030776,0.00044948,0.00033970,-0.0
 0066256,0.00041399,0.00000929,-0.00000247,-0.00000028,-0.00000614,-0.0
 0000144,-0.00000390,-0.00001512,-0.00000950,0.00000402,-0.00002402,0.0
 0002198,0.00003237,-0.00001643,0.00000178,-0.00000426,-0.00000230,0.00
 000050,-0.00000093,0.19327354,0.00029970,-0.00175791,-0.00052728,-0.00
 016781,-0.00017164,0.00024989,-0.00060995,-0.00597424,-0.00233320,-0.0
 0000791,-0.00000125,0.00001283,-0.01877309,0.00035026,0.01312544,0.000
 08915,-0.00381212,0.00732991,0.00000757,-0.00001513,-0.00000513,0.0000
 1341,-0.00001093,-0.00005148,0.00003590,0.00004079,-0.00004256,-0.0166
 4998,-0.04871816,0.01885440,0.00003247,0.00016070,0.00000040,0.0000657
 5,0.00017160,-0.00015339,0.02134793,0.00317137,-0.02236630,-0.00006339
 ,0.00021415,0.00009646,-0.00004615,0.00037211,0.00009913,0.00000621,0.
 00002726,0.00001586,0.00111099,0.00021305,-0.00143354,-0.00000147,0.00
 000149,-0.00000237,0.00000358,0.00000283,0.00000163,-0.00017566,0.0004
 3890,-0.00112496,0.00031646,0.00090530,-0.00044274,0.00000266,0.000000
 44,-0.00000194,0.00000594,0.00000535,0.00000810,0.00000526,0.00000646,
 0.00000686,-0.00000308,0.00000858,0.00001416,0.00002962,-0.00000721,0.
 00000769,-0.00000086,-0.00000137,0.00000033,0.01826219,0.05333609,-0.0
 0013663,0.00082590,0.00129875,-0.00017094,-0.00004132,0.00025223,-0.00
 125660,-0.00370727,-0.00006598,-0.00000687,-0.00000080,0.00001224,0.01
 528207,-0.00127673,-0.01302501,-0.00018076,0.00400754,-0.00451109,0.00
 001097,-0.00001076,-0.00000783,-0.00002251,-0.00004224,-0.00006977,0.0
 0003219,0.00003745,-0.00004162,0.13144869,0.01818013,-0.17962599,0.000
 14492,0.00012708,-0.00000399,0.00031297,0.00031673,0.00014511,0.010240
 38,0.00119389,-0.01177201,-0.00005888,-0.00011292,-0.00008541,0.000035
 03,-0.00006496,-0.00005734,-0.00002964,-0.00000074,0.00001607,0.000683
 39,0.00018239,-0.00068432,-0.00000005,0.00000026,-0.00000202,0.0000052
 4,0.00000267,0.00000420,-0.00006377,0.00013635,0.00057017,-0.00036530,
 -0.00068193,0.00064572,0.00000526,-0.00000078,-0.00000169,0.00000578,0
 .00000388,0.00000839,-0.00000233,0.00000672,0.00000662,0.00001760,0.00
 001338,0.00000661,0.00002853,-0.00000687,0.00000707,0.00000021,-0.0000
 0278,0.00000114,-0.14578449,-0.01839597,0.19452338,0.00003490,0.000370
 74,0.00018088,0.00036527,0.00028341,-0.00011911,-0.00062290,-0.0008060
 0,-0.00018469,-0.00000529,-0.00001509,0.00001170,-0.00955410,-0.001532
 33,-0.00307012,0.00185815,-0.00041399,-0.00021351,-0.00000439,-0.00002
 445,0.00006452,-0.00004143,0.00001177,0.00001744,0.00001106,0.00000294
 ,-0.00001166,-0.24307832,-0.05524891,-0.10142429,0.00004741,-0.0000168
 3,0.00004459,-0.00102602,0.00086530,0.00140718,0.00420417,0.00046294,0
 .00162206,-0.00009868,-0.00003277,0.00001988,0.00000048,-0.00000554,-0
 .00004597,-0.00006713,-0.00002024,0.00009501,0.00010901,0.00002144,-0.
 00017029,-0.00001581,0.00000440,-0.00000497,-0.00000130,0.00000131,-0.
 00000230,0.00041517,0.00019414,0.00023360,0.00084773,0.00165831,-0.001
 04639,0.00012285,-0.00001285,-0.00007348,0.00000762,0.00000494,-0.0000
 1573,-0.00001830,-0.00001900,0.00000940,0.00019715,0.00013549,-0.00009
 555,-0.00000652,-0.00000351,-0.00000591,-0.00000228,-0.00000081,-0.000
 00062,-0.01818045,-0.00463873,-0.00976975,0.26303323,0.00008247,-0.000
 31613,-0.00011225,0.00004852,0.00006161,0.00021088,-0.00077214,0.00063
 450,0.00065264,-0.00000776,-0.00000532,0.00001078,0.02471045,0.0045941
 5,0.01247971,-0.00080646,0.00119076,-0.00240180,0.00000556,-0.00000163
 ,-0.00001056,-0.00004601,-0.00002258,-0.00000420,0.00001476,0.00000464
 ,-0.00002381,-0.05608307,-0.06277657,-0.02859431,0.00003962,0.00001254
 ,-0.00001049,0.00050592,0.00041780,0.00001682,-0.02598127,-0.00868916,
 -0.01297104,0.00007061,-0.00004118,-0.00002619,-0.00002745,0.00010380,
 -0.00004655,-0.00005582,-0.00002332,0.00000545,0.00016055,-0.00004070,
 0.00004265,-0.00000660,0.00000009,-0.00000148,-0.00000014,0.00000029,-
 0.00000126,-0.00025038,0.00132840,-0.00091606,0.00106082,-0.00297160,0
 .00414301,0.00000543,-0.00000141,0.00000335,-0.00000063,0.00000145,0.0
 0000250,-0.00001010,-0.00000902,0.00001125,0.00001726,0.00001734,-0.00
 000093,0.00000819,-0.00000407,0.00000318,-0.00000024,-0.00000194,0.000
 00009,-0.00253246,-0.00148704,-0.00123639,0.05860950,0.07132577,0.0001
 2420,-0.00013158,-0.00009866,0.00008337,0.00008910,0.00006054,-0.00107
 123,0.00023376,0.00001348,-0.00000854,-0.00000523,0.00001928,-0.019387
 07,-0.00382792,-0.01108540,0.00025958,-0.00111073,0.00188182,-0.000004
 26,-0.00000492,0.00001090,0.00008902,-0.00004346,-0.00006806,0.0000070
 1,0.00000206,0.00000247,-0.09885143,-0.02860183,-0.10104500,-0.0000211
 3,0.00002753,0.00003227,0.00052616,-0.00004171,0.00010843,-0.01339046,
 -0.00393895,-0.00731485,-0.00000607,0.00000291,0.00006352,-0.00000314,
 0.00003358,-0.00004293,-0.00005216,-0.00001507,0.00002561,0.00014521,0
 .00000338,-0.00000620,-0.00001200,0.00000377,-0.00000214,0.00000128,0.
 00000029,-0.00000009,0.00083078,-0.00022675,0.00083839,-0.00108814,0.0
 0310711,-0.00189270,0.00004353,-0.00000700,-0.00002411,-0.00000192,0.0
 0000265,-0.00000257,-0.00001504,-0.00000507,0.00001038,-0.00004415,0.0
 0001571,0.00002015,-0.00000544,-0.00000052,-0.00000073,-0.00000165,-0.
 00000060,-0.00000118,0.01897254,0.00528773,0.01141563,0.11205070,0.031
 46414,0.10717417,-0.00308155,0.00045867,0.00304778,0.00041484,-0.00010
 380,0.00005374,0.00525632,-0.01690014,0.01405119,-0.00000057,-0.000003
 96,-0.00000221,0.00069584,0.00081307,0.00107045,0.00023657,0.00001288,
 -0.00072409,-0.00000927,-0.00000258,-0.00000436,-0.00000055,0.00000992
 ,-0.00000186,0.00003227,0.00002762,-0.00007635,-0.00172736,0.00068918,
 -0.00187477,-0.00002675,0.00008088,-0.00004203,0.00185190,0.00005379,0
 .00003277,-0.08014085,0.06803784,-0.05746323,0.00016858,0.00001196,0.0
 0005504,0.00041755,-0.00091234,0.00068058,0.00000741,0.00000162,-0.000
 03136,0.00064437,0.00034711,-0.00096525,0.00000138,0.00000059,-0.00000
 103,-0.00000044,0.00000239,-0.00000046,0.00018992,0.00034781,-0.000296
 04,0.00017209,-0.00028762,0.00027606,0.00000463,0.00000135,-0.00000291
 ,0.00000114,0.00000079,0.00000344,0.00000065,0.00000128,0.00000024,-0.
 00000034,-0.00000113,-0.00000193,0.00003020,-0.00000770,0.00000798,-0.
 00000333,0.00000272,-0.00000060,-0.00010752,-0.00002991,-0.00016123,0.
 00043602,-0.00000996,0.00042417,0.08316898,-0.00085985,0.00137355,-0.0
 0003412,-0.00007238,0.00012830,-0.00009801,0.00025886,-0.00292344,0.00
 294014,-0.00000140,-0.00000170,-0.00000110,0.00043401,-0.00358651,-0.0
 0608349,-0.00028011,0.00066480,0.00043939,-0.00000919,-0.00000036,0.00
 000838,0.00000085,0.00000021,0.00001294,-0.00001686,-0.00002208,0.0000
 1872,0.00979924,-0.02024385,0.01745412,0.00001085,0.00006537,-0.000067
 80,0.00032713,0.00012580,-0.00046461,0.06586522,-0.18686670,0.11628364
 ,0.00027162,0.00004074,0.00002483,0.00022776,-0.00011167,0.00005913,0.
 00003777,-0.00000237,-0.00003086,-0.00053131,0.00046672,0.00011283,-0.
 00000129,0.00000182,-0.00000175,-0.00000069,-0.00000037,-0.00000100,0.
 00028375,-0.00136097,0.00136069,0.00010972,0.00011062,0.00005457,-0.00
 000076,-0.00000262,-0.00000445,-0.00000046,0.00000014,-0.00000315,0.00
 000119,-0.00000041,-0.00000094,0.00000013,-0.00000085,0.00000486,-0.00
 000634,0.00000552,-0.00000429,-0.00000168,0.00000621,0.00000216,0.0001
 1058,0.00110952,-0.00005126,-0.00056718,0.00122719,0.00036008,-0.07310
 693,0.20237794,0.00514186,-0.00155888,-0.00395454,-0.00012912,-0.00024
 461,0.00013970,-0.01045918,0.01958363,-0.01753182,-0.00000091,0.000001
 87,0.00001053,0.00087677,-0.00336461,-0.00257100,-0.00075395,0.0007594
 8,0.00097021,0.00001096,-0.00001196,-0.00000306,-0.00000479,-0.0000280
 5,-0.00003874,0.00002950,0.00004200,-0.00002626,0.00673688,-0.01359731
 ,0.01238333,0.00003664,-0.00006727,0.00011959,-0.00143796,-0.00087799,
 0.00174205,-0.05472585,0.11677757,-0.14541548,0.00011567,-0.00023620,0
 .00027259,-0.00043595,0.00166530,-0.00069608,-0.00003757,0.00002190,0.
 00004090,-0.00054352,-0.00046310,0.00084763,0.00000045,0.00000030,-0.0
 0000040,0.00000429,0.00000046,0.00000297,0.00016669,-0.00095212,0.0006
 8515,0.00001831,-0.00001529,-0.00001463,0.00000439,0.00000415,-0.00000
 551,0.00000576,0.00000329,0.00000541,0.00000023,0.00000329,-0.00000064
 ,-0.00000647,-0.00000404,0.00000376,0.00001863,-0.00000584,0.00000294,
 0.00000171,-0.00000462,-0.00000025,-0.00001078,0.00101653,0.00058371,-
 0.00027003,0.00091838,0.00068500,0.05858844,-0.12612617,0.15834451,-0.
 00005308,0.00038584,-0.00123283,0.00053231,0.00075285,-0.00176608,-0.0
 1674177,-0.00475106,-0.01018625,0.00001526,0.00000111,-0.00002615,0.00
 050381,-0.00001570,0.00005818,-0.00006314,-0.00022019,0.00027814,-0.00
 000065,0.00003796,0.00003716,0.00009853,0.00010843,0.00014450,-0.00024
 776,-0.00015358,0.00039796,0.00444100,0.00142401,0.00155134,-0.0002931
 9,-0.00070008,0.00023237,-0.00510094,-0.00134217,0.00502557,-0.2567373
 2,-0.06721703,-0.08177543,0.00062513,-0.00007333,0.00013019,0.00023724
 ,0.00017046,0.00025651,-0.00005982,-0.00001108,0.00014416,0.00060744,0
 .00051663,-0.00021560,-0.00000966,-0.00000040,0.00000686,-0.00001452,-
 0.00001087,-0.00000996,0.00009512,-0.00013390,0.00012884,-0.00012819,-
 0.00037880,0.00020162,0.00000299,-0.00000675,-0.00000119,-0.00002043,-
 0.00001258,-0.00003249,-0.00001327,-0.00003171,-0.00001671,-0.00003576
 ,-0.00000100,-0.00001280,-0.00017202,0.00004650,-0.00006512,0.00000304
 ,0.00001061,-0.00000743,0.00067995,-0.00046677,-0.00024348,0.00103270,
 0.00125083,0.00040628,-0.00863212,-0.00228225,-0.00294110,0.27944912,-
 0.00023384,-0.00004563,-0.00013696,-0.00010939,0.00047176,-0.00016229,
 -0.00283149,-0.00300218,-0.00147812,-0.00000111,-0.00000125,0.00000543
 ,-0.00123322,0.00147724,-0.00018676,0.00009224,-0.00032973,0.00021876,
 -0.00000127,0.00000154,-0.00000362,0.00001312,-0.00002386,-0.00003169,
 -0.00004880,-0.00004135,0.00007957,-0.02566213,-0.00976917,-0.01101972
 ,0.00009949,0.00009447,-0.00007484,0.00042641,0.00064836,0.00037662,-0
 .06595007,-0.06875863,-0.02426708,-0.00003447,-0.00016885,0.00021196,0
 .00003438,0.00009176,-0.00001380,-0.00000164,-0.00000431,-0.00000243,0
 .00015820,0.00029940,0.00024939,-0.00000342,0.00000186,0.00000024,0.00
 000127,-0.00000078,0.00000061,0.00030025,0.00020307,-0.00006768,0.0003
 7804,0.00001033,0.00039857,0.00000149,-0.00000460,-0.00000108,-0.00000
 125,-0.00000072,-0.00000257,-0.00000289,-0.00000017,0.00000212,-0.0000
 1023,0.00000114,0.00001210,-0.00002456,0.00000587,-0.00001298,0.000006
 71,-0.00000088,0.00000153,0.00033800,0.00142074,0.00059935,0.00073157,
 -0.00452863,-0.00267244,0.02046461,0.00741944,0.00675992,0.07310401,0.
 07453375,-0.00041504,0.00006418,0.00022018,0.00047549,-0.00050751,0.00
 154613,0.02037240,0.00678264,0.01039173,-0.00001548,-0.00000650,0.0000
 3149,0.00031918,0.00114403,0.00017138,-0.00001142,-0.00006488,0.000051
 29,-0.00000257,-0.00003078,-0.00004386,-0.00005056,-0.00010036,-0.0001
 5948,0.00028621,0.00014943,-0.00040814,-0.01562499,-0.00617785,-0.0080
 3061,0.00016325,0.00047152,-0.00015064,0.00600638,0.00158909,-0.004426
 69,-0.08531345,-0.02500113,-0.08205498,0.00016429,0.00036662,-0.000297
 58,0.00001307,-0.00029043,0.00013284,-0.00001291,-0.00001380,-0.000094
 42,-0.00054746,-0.00054979,0.00103607,0.00000232,0.00000102,-0.0000048
 2,0.00001156,0.00001020,0.00000679,0.00021974,0.00005848,-0.00002953,0
 .00022024,-0.00006968,0.00041664,-0.00000325,0.00000574,0.00000301,0.0
 0001381,0.00001161,0.00002844,0.00000608,0.00002225,0.00001518,-0.0000
 0505,-0.00000100,0.00002786,0.00017422,-0.00005341,0.00005528,-0.00000
 778,-0.00001013,0.00000187,-0.00009645,0.00075351,0.00045701,0.0007674
 1,-0.00360750,-0.00077742,-0.01664216,-0.00616346,-0.00658157,0.089532
 93,0.03121790,0.08846652\\-0.00000007,-0.00002555,-0.00002486,-0.00007
 988,0.00083494,0.00003766,0.00007104,-0.00057246,0.00000316,0.00000260
 ,-0.00000605,-0.00000169,-0.00000991,-0.00000061,-0.00000119,-0.000000
 05,0.00001634,0.00000404,-0.00000377,0.00000662,0.00000722,-0.00001535
 ,0.00000178,-0.00000398,0.00000272,0.00000648,0.00000414,0.00000694,0.
 00000259,0.00000188,-0.00000275,-0.00001818,0.00000959,0.00012775,-0.0
 0098013,-0.00008309,-0.00011014,0.00070997,0.00002807,0.00001272,-0.00
 000195,0.00000813,-0.00000651,-0.00000353,0.00000804,0.00000165,0.0000
 1286,0.00001816,0.00000844,0.00000002,0.00000296,-0.00000633,0.0000006
 5,0.00000707,-0.00000380,0.00000846,-0.00000201,-0.00000468,-0.0000089
 0,-0.00000823,0.00000619,-0.00000263,0.00000255,0.00000627,0.00000249,
 -0.00000392,-0.00000506,0.00000498,0.00000183,-0.00000004,-0.00000381,
 0.00000010,0.00000774,0.00000228,-0.00001228,0.00000420,0.00000108,0.0
 0000931,0.00000307,0.00000594,-0.00000503,-0.00000276,0.00000542,-0.00
 000061,-0.00001179,-0.00000359,-0.00000624,-0.00000316,0.00000442,-0.0
 0000512,0.00000473,0.00000007,0.00000435\\\@


 Happiness is a conscious choice, not an automatic response.
 -- Mildred Barthel
 Job cpu time:       0 days 13 hours 29 minutes 56.8 seconds.
 Elapsed time:       0 days  1 hours  7 minutes 47.6 seconds.
 File lengths (MBytes):  RWF=    721 Int=      0 D2E=      0 Chk=     34 Scr=      1
 Normal termination of Gaussian 16 at Sat Mar  9 01:05:11 2019.
