 Entering Gaussian System, Link 0=g16
 Initial command:
 /sw/Projects/G16/g16/l1.exe "/nvme/pbs/tmpdir/pbs.74203[4].flm1/Gau-8038.inp" -scrdir="/nvme/pbs/tmpdir/pbs.74203[4].flm1/"
 Entering Link 1 = /sw/Projects/G16/g16/l1.exe PID=      8039.
  
 Copyright (c) 1988-2017, Gaussian, Inc.  All Rights Reserved.
  
 This is part of the Gaussian(R) 16 program.  It is based on
 the Gaussian(R) 09 system (copyright 2009, Gaussian, Inc.),
 the Gaussian(R) 03 system (copyright 2003, Gaussian, Inc.),
 the Gaussian(R) 98 system (copyright 1998, Gaussian, Inc.),
 the Gaussian(R) 94 system (copyright 1995, Gaussian, Inc.),
 the Gaussian 92(TM) system (copyright 1992, Gaussian, Inc.),
 the Gaussian 90(TM) system (copyright 1990, Gaussian, Inc.),
 the Gaussian 88(TM) system (copyright 1988, Gaussian, Inc.),
 the Gaussian 86(TM) system (copyright 1986, Carnegie Mellon
 University), and the Gaussian 82(TM) system (copyright 1983,
 Carnegie Mellon University). Gaussian is a federally registered
 trademark of Gaussian, Inc.
  
 This software contains proprietary and confidential information,
 including trade secrets, belonging to Gaussian, Inc.
  
 This software is provided under written license and may be
 used, copied, transmitted, or stored only in accord with that
 written license.
  
 The following legend is applicable only to US Government
 contracts under FAR:
  
                    RESTRICTED RIGHTS LEGEND
  
 Use, reproduction and disclosure by the US Government is
 subject to restrictions as set forth in subparagraphs (a)
 and (c) of the Commercial Computer Software - Restricted
 Rights clause in FAR 52.227-19.
  
 Gaussian, Inc.
 340 Quinnipiac St., Bldg. 40, Wallingford CT 06492
  
  
 ---------------------------------------------------------------
 Warning -- This program may not be used in any manner that
 competes with the business of Gaussian, Inc. or will provide
 assistance to any competitor of Gaussian, Inc.  The licensee
 of this program is prohibited from giving any competitor of
 Gaussian, Inc. access to this program.  By using this program,
 the user acknowledges that Gaussian, Inc. is engaged in the
 business of creating and licensing software in the field of
 computational chemistry and represents and warrants to the
 licensee that it is not a competitor of Gaussian, Inc. and that
 it will not use this program in any manner prohibited above.
 ---------------------------------------------------------------
  

 Cite this work as:
 Gaussian 16, Revision B.01,
 M. J. Frisch, G. W. Trucks, H. B. Schlegel, G. E. Scuseria, 
 M. A. Robb, J. R. Cheeseman, G. Scalmani, V. Barone, 
 G. A. Petersson, H. Nakatsuji, X. Li, M. Caricato, A. V. Marenich, 
 J. Bloino, B. G. Janesko, R. Gomperts, B. Mennucci, H. P. Hratchian, 
 J. V. Ortiz, A. F. Izmaylov, J. L. Sonnenberg, D. Williams-Young, 
 F. Ding, F. Lipparini, F. Egidi, J. Goings, B. Peng, A. Petrone, 
 T. Henderson, D. Ranasinghe, V. G. Zakrzewski, J. Gao, N. Rega, 
 G. Zheng, W. Liang, M. Hada, M. Ehara, K. Toyota, R. Fukuda, 
 J. Hasegawa, M. Ishida, T. Nakajima, Y. Honda, O. Kitao, H. Nakai, 
 T. Vreven, K. Throssell, J. A. Montgomery, Jr., J. E. Peralta, 
 F. Ogliaro, M. J. Bearpark, J. J. Heyd, E. N. Brothers, K. N. Kudin, 
 V. N. Staroverov, T. A. Keith, R. Kobayashi, J. Normand, 
 K. Raghavachari, A. P. Rendell, J. C. Burant, S. S. Iyengar, 
 J. Tomasi, M. Cossi, J. M. Millam, M. Klene, C. Adamo, R. Cammi, 
 J. W. Ochterski, R. L. Martin, K. Morokuma, O. Farkas, 
 J. B. Foresman, and D. J. Fox, Gaussian, Inc., Wallingford CT, 2016.
 
 ******************************************
 Gaussian 16:  ES64L-G16RevB.01 20-Dec-2017
                 8-Mar-2019 
 ******************************************
 %mem=20gb
 %nproc=12
 Will use up to   12 processors via shared memory.
 %chk=4c1_a1_a4_4c1_PSI.inp_extract_4.chk
 ----------------------------------------------------------------------
 #M062X/6-311++G(2d,2p) opt=ModRedundant freq=noraman SCRF=(SMD,solvent
 =water)
 ----------------------------------------------------------------------
 1/18=120,19=15,26=3,38=1/1,3;
 2/9=110,12=2,17=6,18=5,40=1/2;
 3/5=4,6=6,7=1212,11=2,25=1,30=1,70=32201,71=1,72=1,74=-55/1,2,3;
 4//1;
 5/5=2,38=5,53=1/2;
 6/7=2,8=2,9=2,10=2,28=1/1;
 7//1,2,3,16;
 1/18=20,19=15,26=3/3(2);
 2/9=110/2;
 99//99;
 2/9=110/2;
 3/5=4,6=6,7=1212,11=2,25=1,30=1,70=32205,71=1,72=1,74=-55/1,2,3;
 4/5=5,16=3,69=1/1;
 5/5=2,38=5,53=1/2;
 7//1,2,3,16;
 1/18=20,19=15,26=3/3(-5);
 2/9=110/2;
 6/7=2,8=2,9=2,10=2,19=2,28=1/1;
 99/9=1/99;
 -------------------------------
 4c1_a1_a4_4c1_PSI.inp_extract_4
 -------------------------------
 Symbolic Z-matrix:
 Charge =  0 Multiplicity = 1
 C                    -1.63409   0.79194  -1.08932 
 C                     1.22091  -0.66052  -0.85898 
 C                    -1.19796  -0.6525   -0.87294 
 C                     3.05978   0.84761   0.795 
 C                    -3.0157    0.81568   0.82824 
 O                    -1.95409   1.43518   0.12585 
 C                     2.71675  -0.59149   1.17954 
 C                     1.91748   1.46369   0.0047 
 C                     2.31042  -1.37317  -0.07047 
 C                    -2.66747  -0.62134   1.18146 
 O                     1.58023   0.67029  -1.12551 
 O                     0.02076  -0.75082  -0.14966 
 C                    -2.26987  -1.39391  -0.07799 
 H                    -2.50488   0.79417  -1.74167 
 H                    -0.85746   1.37638  -1.55567 
 H                     1.09367  -1.11414  -1.83222 
 H                    -1.06454  -1.1198   -1.8434 
 H                     3.96312   0.86159   0.18949 
 H                     3.24843   1.45402   1.67638 
 H                    -3.18471   1.41227   1.71435 
 H                    -3.91367   0.85168   0.21477 
 H                     1.90494  -0.59358   1.90216 
 H                     3.56563  -1.0731    1.65514 
 H                     2.18725   2.43294  -0.39155 
 H                     1.0422    1.5875    0.63246 
 H                     3.17031  -1.47545  -0.72704 
 H                     1.96867  -2.37225   0.17719 
 H                    -3.52321  -1.09118   1.65766 
 H                    -1.85413  -0.62625   1.901 
 H                    -1.91778  -2.3899    0.1692 
 H                    -3.14046  -1.50812  -0.71925 
 
 The following ModRedundant input section has been read:
 D      13       3      12       2 F                                           
 

 GradGradGradGradGradGradGradGradGradGradGradGradGradGradGradGradGradGrad
 Berny optimization.
 Initialization pass.
                           ----------------------------
                           !    Initial Parameters    !
                           ! (Angstroms and Degrees)  !
 --------------------------                            --------------------------
 ! Name  Definition              Value          Derivative Info.                !
 --------------------------------------------------------------------------------
 ! R1    R(1,3)                  1.5243         estimate D2E/DX2                !
 ! R2    R(1,6)                  1.4117         estimate D2E/DX2                !
 ! R3    R(1,14)                 1.088          estimate D2E/DX2                !
 ! R4    R(1,15)                 1.0781         estimate D2E/DX2                !
 ! R5    R(2,9)                  1.5221         estimate D2E/DX2                !
 ! R6    R(2,11)                 1.404          estimate D2E/DX2                !
 ! R7    R(2,12)                 1.397          estimate D2E/DX2                !
 ! R8    R(2,16)                 1.0813         estimate D2E/DX2                !
 ! R9    R(3,12)                 1.4206         estimate D2E/DX2                !
 ! R10   R(3,13)                 1.5266         estimate D2E/DX2                !
 ! R11   R(3,17)                 1.0853         estimate D2E/DX2                !
 ! R12   R(4,7)                  1.5286         estimate D2E/DX2                !
 ! R13   R(4,8)                  1.5195         estimate D2E/DX2                !
 ! R14   R(4,18)                 1.0876         estimate D2E/DX2                !
 ! R15   R(4,19)                 1.0863         estimate D2E/DX2                !
 ! R16   R(5,6)                  1.4157         estimate D2E/DX2                !
 ! R17   R(5,10)                 1.5202         estimate D2E/DX2                !
 ! R18   R(5,20)                 1.0815         estimate D2E/DX2                !
 ! R19   R(5,21)                 1.0881         estimate D2E/DX2                !
 ! R20   R(7,9)                  1.5293         estimate D2E/DX2                !
 ! R21   R(7,22)                 1.0868         estimate D2E/DX2                !
 ! R22   R(7,23)                 1.0857         estimate D2E/DX2                !
 ! R23   R(8,11)                 1.4215         estimate D2E/DX2                !
 ! R24   R(8,24)                 1.0813         estimate D2E/DX2                !
 ! R25   R(8,25)                 1.0842         estimate D2E/DX2                !
 ! R26   R(9,26)                 1.0867         estimate D2E/DX2                !
 ! R27   R(9,27)                 1.0846         estimate D2E/DX2                !
 ! R28   R(10,13)                1.5301         estimate D2E/DX2                !
 ! R29   R(10,28)                1.0862         estimate D2E/DX2                !
 ! R30   R(10,29)                1.0859         estimate D2E/DX2                !
 ! R31   R(13,30)                1.0849         estimate D2E/DX2                !
 ! R32   R(13,31)                1.0873         estimate D2E/DX2                !
 ! A1    A(3,1,6)              111.991          estimate D2E/DX2                !
 ! A2    A(3,1,14)             108.4241         estimate D2E/DX2                !
 ! A3    A(3,1,15)             111.6544         estimate D2E/DX2                !
 ! A4    A(6,1,14)             109.4971         estimate D2E/DX2                !
 ! A5    A(6,1,15)             106.7773         estimate D2E/DX2                !
 ! A6    A(14,1,15)            108.4253         estimate D2E/DX2                !
 ! A7    A(9,2,11)             111.0362         estimate D2E/DX2                !
 ! A8    A(9,2,12)             108.762          estimate D2E/DX2                !
 ! A9    A(9,2,16)             110.7383         estimate D2E/DX2                !
 ! A10   A(11,2,12)            112.1802         estimate D2E/DX2                !
 ! A11   A(11,2,16)            104.8864         estimate D2E/DX2                !
 ! A12   A(12,2,16)            109.1961         estimate D2E/DX2                !
 ! A13   A(1,3,12)             112.5395         estimate D2E/DX2                !
 ! A14   A(1,3,13)             109.4647         estimate D2E/DX2                !
 ! A15   A(1,3,17)             108.4366         estimate D2E/DX2                !
 ! A16   A(12,3,13)            107.6755         estimate D2E/DX2                !
 ! A17   A(12,3,17)            108.6624         estimate D2E/DX2                !
 ! A18   A(13,3,17)            110.0486         estimate D2E/DX2                !
 ! A19   A(7,4,8)              110.111          estimate D2E/DX2                !
 ! A20   A(7,4,18)             109.7885         estimate D2E/DX2                !
 ! A21   A(7,4,19)             111.1249         estimate D2E/DX2                !
 ! A22   A(8,4,18)             109.2456         estimate D2E/DX2                !
 ! A23   A(8,4,19)             109.0379         estimate D2E/DX2                !
 ! A24   A(18,4,19)            107.4753         estimate D2E/DX2                !
 ! A25   A(6,5,10)             110.9258         estimate D2E/DX2                !
 ! A26   A(6,5,20)             106.3977         estimate D2E/DX2                !
 ! A27   A(6,5,21)             108.9442         estimate D2E/DX2                !
 ! A28   A(10,5,20)            111.5226         estimate D2E/DX2                !
 ! A29   A(10,5,21)            110.5672         estimate D2E/DX2                !
 ! A30   A(20,5,21)            108.3435         estimate D2E/DX2                !
 ! A31   A(1,6,5)              113.4332         estimate D2E/DX2                !
 ! A32   A(4,7,9)              109.5866         estimate D2E/DX2                !
 ! A33   A(4,7,22)             109.6754         estimate D2E/DX2                !
 ! A34   A(4,7,23)             110.6321         estimate D2E/DX2                !
 ! A35   A(9,7,22)             110.1224         estimate D2E/DX2                !
 ! A36   A(9,7,23)             109.8203         estimate D2E/DX2                !
 ! A37   A(22,7,23)            106.9718         estimate D2E/DX2                !
 ! A38   A(4,8,11)             111.4433         estimate D2E/DX2                !
 ! A39   A(4,8,24)             111.4971         estimate D2E/DX2                !
 ! A40   A(4,8,25)             110.6122         estimate D2E/DX2                !
 ! A41   A(11,8,24)            105.5534         estimate D2E/DX2                !
 ! A42   A(11,8,25)            109.4251         estimate D2E/DX2                !
 ! A43   A(24,8,25)            108.1329         estimate D2E/DX2                !
 ! A44   A(2,9,7)              111.9823         estimate D2E/DX2                !
 ! A45   A(2,9,26)             107.3056         estimate D2E/DX2                !
 ! A46   A(2,9,27)             108.9085         estimate D2E/DX2                !
 ! A47   A(7,9,26)             109.3731         estimate D2E/DX2                !
 ! A48   A(7,9,27)             111.5882         estimate D2E/DX2                !
 ! A49   A(26,9,27)            107.4931         estimate D2E/DX2                !
 ! A50   A(5,10,13)            110.2158         estimate D2E/DX2                !
 ! A51   A(5,10,28)            109.2863         estimate D2E/DX2                !
 ! A52   A(5,10,29)            109.256          estimate D2E/DX2                !
 ! A53   A(13,10,28)           110.3153         estimate D2E/DX2                !
 ! A54   A(13,10,29)           110.3945         estimate D2E/DX2                !
 ! A55   A(28,10,29)           107.3148         estimate D2E/DX2                !
 ! A56   A(2,11,8)             116.0299         estimate D2E/DX2                !
 ! A57   A(2,12,3)             118.2952         estimate D2E/DX2                !
 ! A58   A(3,13,10)            111.4606         estimate D2E/DX2                !
 ! A59   A(3,13,30)            109.6708         estimate D2E/DX2                !
 ! A60   A(3,13,31)            107.8247         estimate D2E/DX2                !
 ! A61   A(10,13,30)           111.12           estimate D2E/DX2                !
 ! A62   A(10,13,31)           109.2951         estimate D2E/DX2                !
 ! A63   A(30,13,31)           107.3246         estimate D2E/DX2                !
 ! D1    D(6,1,3,12)           -65.4515         estimate D2E/DX2                !
 ! D2    D(6,1,3,13)            54.2409         estimate D2E/DX2                !
 ! D3    D(6,1,3,17)           174.3131         estimate D2E/DX2                !
 ! D4    D(14,1,3,12)          173.623          estimate D2E/DX2                !
 ! D5    D(14,1,3,13)          -66.6846         estimate D2E/DX2                !
 ! D6    D(14,1,3,17)           53.3875         estimate D2E/DX2                !
 ! D7    D(15,1,3,12)           54.2365         estimate D2E/DX2                !
 ! D8    D(15,1,3,13)          173.9289         estimate D2E/DX2                !
 ! D9    D(15,1,3,17)          -65.999          estimate D2E/DX2                !
 ! D10   D(3,1,6,5)            -60.4596         estimate D2E/DX2                !
 ! D11   D(14,1,6,5)            59.8429         estimate D2E/DX2                !
 ! D12   D(15,1,6,5)           177.0331         estimate D2E/DX2                !
 ! D13   D(11,2,9,7)            52.0967         estimate D2E/DX2                !
 ! D14   D(11,2,9,26)          -67.9335         estimate D2E/DX2                !
 ! D15   D(11,2,9,27)          175.9926         estimate D2E/DX2                !
 ! D16   D(12,2,9,7)           -71.8082         estimate D2E/DX2                !
 ! D17   D(12,2,9,26)          168.1615         estimate D2E/DX2                !
 ! D18   D(12,2,9,27)           52.0877         estimate D2E/DX2                !
 ! D19   D(16,2,9,7)           168.1964         estimate D2E/DX2                !
 ! D20   D(16,2,9,26)           48.1662         estimate D2E/DX2                !
 ! D21   D(16,2,9,27)          -67.9077         estimate D2E/DX2                !
 ! D22   D(9,2,11,8)           -55.2605         estimate D2E/DX2                !
 ! D23   D(12,2,11,8)           66.6731         estimate D2E/DX2                !
 ! D24   D(16,2,11,8)         -174.9166         estimate D2E/DX2                !
 ! D25   D(9,2,12,3)          -155.3579         estimate D2E/DX2                !
 ! D26   D(11,2,12,3)           81.4202         estimate D2E/DX2                !
 ! D27   D(16,2,12,3)          -34.4102         estimate D2E/DX2                !
 ! D28   D(1,3,12,2)           -85.1174         estimate D2E/DX2                !
 ! D29   D(13,3,12,2)          154.1578         Frozen                          !
 ! D30   D(17,3,12,2)           34.9877         estimate D2E/DX2                !
 ! D31   D(1,3,13,10)          -50.5213         estimate D2E/DX2                !
 ! D32   D(1,3,13,30)         -174.0043         estimate D2E/DX2                !
 ! D33   D(1,3,13,31)           69.4361         estimate D2E/DX2                !
 ! D34   D(12,3,13,10)          72.1166         estimate D2E/DX2                !
 ! D35   D(12,3,13,30)         -51.3664         estimate D2E/DX2                !
 ! D36   D(12,3,13,31)        -167.9261         estimate D2E/DX2                !
 ! D37   D(17,3,13,10)        -169.6019         estimate D2E/DX2                !
 ! D38   D(17,3,13,30)          66.9151         estimate D2E/DX2                !
 ! D39   D(17,3,13,31)         -49.6446         estimate D2E/DX2                !
 ! D40   D(8,4,7,9)             52.9621         estimate D2E/DX2                !
 ! D41   D(8,4,7,22)           -68.0372         estimate D2E/DX2                !
 ! D42   D(8,4,7,23)           174.1959         estimate D2E/DX2                !
 ! D43   D(18,4,7,9)           -67.3556         estimate D2E/DX2                !
 ! D44   D(18,4,7,22)          171.6452         estimate D2E/DX2                !
 ! D45   D(18,4,7,23)           53.8783         estimate D2E/DX2                !
 ! D46   D(19,4,7,9)           173.8843         estimate D2E/DX2                !
 ! D47   D(19,4,7,22)           52.885          estimate D2E/DX2                !
 ! D48   D(19,4,7,23)          -64.8819         estimate D2E/DX2                !
 ! D49   D(7,4,8,11)           -54.7528         estimate D2E/DX2                !
 ! D50   D(7,4,8,24)          -172.4182         estimate D2E/DX2                !
 ! D51   D(7,4,8,25)            67.217          estimate D2E/DX2                !
 ! D52   D(18,4,8,11)           65.8917         estimate D2E/DX2                !
 ! D53   D(18,4,8,24)          -51.7737         estimate D2E/DX2                !
 ! D54   D(18,4,8,25)         -172.1384         estimate D2E/DX2                !
 ! D55   D(19,4,8,11)         -176.918          estimate D2E/DX2                !
 ! D56   D(19,4,8,24)           65.4166         estimate D2E/DX2                !
 ! D57   D(19,4,8,25)          -54.9482         estimate D2E/DX2                !
 ! D58   D(10,5,6,1)            60.295          estimate D2E/DX2                !
 ! D59   D(20,5,6,1)          -178.2418         estimate D2E/DX2                !
 ! D60   D(21,5,6,1)           -61.636          estimate D2E/DX2                !
 ! D61   D(6,5,10,13)          -54.7615         estimate D2E/DX2                !
 ! D62   D(6,5,10,28)         -176.1496         estimate D2E/DX2                !
 ! D63   D(6,5,10,29)           66.7054         estimate D2E/DX2                !
 ! D64   D(20,5,10,13)        -173.1657         estimate D2E/DX2                !
 ! D65   D(20,5,10,28)          65.4462         estimate D2E/DX2                !
 ! D66   D(20,5,10,29)         -51.6988         estimate D2E/DX2                !
 ! D67   D(21,5,10,13)          66.2166         estimate D2E/DX2                !
 ! D68   D(21,5,10,28)         -55.1715         estimate D2E/DX2                !
 ! D69   D(21,5,10,29)        -172.3165         estimate D2E/DX2                !
 ! D70   D(4,7,9,2)            -52.1569         estimate D2E/DX2                !
 ! D71   D(4,7,9,26)            66.6582         estimate D2E/DX2                !
 ! D72   D(4,7,9,27)          -174.5384         estimate D2E/DX2                !
 ! D73   D(22,7,9,2)            68.5717         estimate D2E/DX2                !
 ! D74   D(22,7,9,26)         -172.6133         estimate D2E/DX2                !
 ! D75   D(22,7,9,27)          -53.8099         estimate D2E/DX2                !
 ! D76   D(23,7,9,2)          -173.8792         estimate D2E/DX2                !
 ! D77   D(23,7,9,26)          -55.0642         estimate D2E/DX2                !
 ! D78   D(23,7,9,27)           63.7392         estimate D2E/DX2                !
 ! D79   D(4,8,11,2)            57.3626         estimate D2E/DX2                !
 ! D80   D(24,8,11,2)          178.5601         estimate D2E/DX2                !
 ! D81   D(25,8,11,2)          -65.2911         estimate D2E/DX2                !
 ! D82   D(5,10,13,3)           51.3334         estimate D2E/DX2                !
 ! D83   D(5,10,13,30)         173.9889         estimate D2E/DX2                !
 ! D84   D(5,10,13,31)         -67.7521         estimate D2E/DX2                !
 ! D85   D(28,10,13,3)         172.1068         estimate D2E/DX2                !
 ! D86   D(28,10,13,30)        -65.2377         estimate D2E/DX2                !
 ! D87   D(28,10,13,31)         53.0213         estimate D2E/DX2                !
 ! D88   D(29,10,13,3)         -69.4538         estimate D2E/DX2                !
 ! D89   D(29,10,13,30)         53.2017         estimate D2E/DX2                !
 ! D90   D(29,10,13,31)        171.4607         estimate D2E/DX2                !
 --------------------------------------------------------------------------------
 Trust Radius=3.00D-01 FncErr=1.00D-07 GrdErr=1.00D-06 EigMax=2.50D+02 EigMin=1.00D-04
 Number of steps in this run=    186 maximum allowed number of steps=    186.
 GradGradGradGradGradGradGradGradGradGradGradGradGradGradGradGradGradGrad

                          Input orientation:                          
 ---------------------------------------------------------------------
 Center     Atomic      Atomic             Coordinates (Angstroms)
 Number     Number       Type             X           Y           Z
 ---------------------------------------------------------------------
      1          6           0       -1.634094    0.791939   -1.089315
      2          6           0        1.220908   -0.660517   -0.858980
      3          6           0       -1.197959   -0.652500   -0.872942
      4          6           0        3.059779    0.847614    0.795000
      5          6           0       -3.015697    0.815679    0.828244
      6          8           0       -1.954091    1.435179    0.125853
      7          6           0        2.716746   -0.591491    1.179536
      8          6           0        1.917475    1.463688    0.004698
      9          6           0        2.310417   -1.373172   -0.070466
     10          6           0       -2.667472   -0.621336    1.181464
     11          8           0        1.580234    0.670290   -1.125507
     12          8           0        0.020757   -0.750816   -0.149657
     13          6           0       -2.269867   -1.393906   -0.077989
     14          1           0       -2.504877    0.794174   -1.741672
     15          1           0       -0.857460    1.376379   -1.555673
     16          1           0        1.093670   -1.114138   -1.832222
     17          1           0       -1.064538   -1.119803   -1.843397
     18          1           0        3.963120    0.861590    0.189485
     19          1           0        3.248428    1.454020    1.676380
     20          1           0       -3.184708    1.412270    1.714346
     21          1           0       -3.913667    0.851677    0.214771
     22          1           0        1.904940   -0.593577    1.902161
     23          1           0        3.565630   -1.073102    1.655142
     24          1           0        2.187251    2.432935   -0.391549
     25          1           0        1.042199    1.587504    0.632461
     26          1           0        3.170306   -1.475453   -0.727042
     27          1           0        1.968674   -2.372245    0.177191
     28          1           0       -3.523211   -1.091178    1.657663
     29          1           0       -1.854130   -0.626248    1.901000
     30          1           0       -1.917782   -2.389901    0.169196
     31          1           0       -3.140455   -1.508120   -0.719246
 ---------------------------------------------------------------------
                    Distance matrix (angstroms):
                    1          2          3          4          5
     1  C    0.000000
     2  C    3.211498   0.000000
     3  C    1.524282   2.418921   0.000000
     4  C    5.058279   2.896818   4.812557   0.000000
     5  C    2.363561   4.793193   2.890286   6.075651   0.000000
     6  O    1.411662   3.929689   2.434693   5.092336   1.415677
     7  C    5.098173   2.529396   4.420555   1.528582   5.913073
     8  C    3.776474   2.396538   3.867096   1.519534   5.043246
     9  C    4.613559   1.522058   3.670427   2.498493   5.828056
    10  C    2.867343   4.391406   2.526069   5.925249   1.520210
    11  O    3.216833   1.403994   3.087381   2.430811   4.996085
    12  O    2.449813   1.397017   1.420590   3.561321   3.553906
    13  C    2.490965   3.651481   1.526637   5.847362   2.501957
    14  H    1.088043   4.095942   2.134383   6.115796   2.620280
    15  H    1.078063   2.992313   2.167582   4.598915   3.264266
    16  H    3.409653   1.081278   2.526834   3.823134   5.262050
    17  H    2.132555   2.530471   1.085337   5.276539   3.832855
    18  H    5.741863   3.306934   5.482514   1.087598   7.008139
    19  H    5.650349   3.874294   5.541374   1.086346   6.353430
    20  H    3.263392   5.507078   3.860635   6.337006   1.081509
    21  H    2.626911   5.459261   3.289489   6.997545   1.088115
    22  H    4.836667   2.845396   4.163250   2.153251   5.229911
    23  H    6.168270   3.462478   5.409242   2.164458   6.896747
    24  H    4.216921   3.274409   4.605572   2.163896   5.583375
    25  H    3.280241   2.703689   3.507444   2.155107   4.135283
    26  H    5.324901   2.116998   4.447502   2.779473   6.777524
    27  H    4.959439   2.136075   3.753381   3.455386   5.952368
    28  H    3.828940   5.387544   3.464563   6.916564   2.140470
    29  H    3.316874   4.132133   2.850615   5.248048   2.139906
    30  H    3.433429   3.728175   2.150060   5.970699   3.451884
    31  H    2.774229   4.445160   2.128144   6.803332   2.794697
                    6          7          8          9         10
     6  O    0.000000
     7  C    5.199457   0.000000
     8  C    3.873566   2.498567   0.000000
     9  C    5.109932   1.529259   2.864931   0.000000
    10  C    2.419190   5.384301   5.172412   5.187674   0.000000
    11  O    3.826540   2.863036   1.421469   2.412885   5.003341
    12  O    2.958801   3.010066   2.919827   2.374056   3.002536
    13  C    2.853943   5.204954   5.070159   4.580337   1.530090
    14  H    2.049854   6.141569   4.801589   5.538716   3.251896
    15  H    2.008379   4.912110   3.184752   4.449867   3.841735
    16  H    4.429664   3.460957   3.270798   2.156700   4.844724
    17  H    3.346219   4.869840   4.356866   3.820707   3.459429
    18  H    5.945287   2.155248   2.140405   2.791624   6.866429
    19  H    5.428692   2.171095   2.136832   3.453165   6.288872
    20  H    2.009541   6.255257   5.381246   6.414097   2.164960
    21  H    2.046538   6.853895   5.866933   6.615930   2.158070
    22  H    4.707785   1.086840   2.798725   2.159499   4.628944
    23  H    6.252801   1.085705   3.446111   2.154837   6.267378
    24  H    4.291146   3.449033   1.081310   3.821612   5.947376
    25  H    3.042632   2.802038   1.084216   3.296678   4.352245
    26  H    5.954717   2.149917   3.277740   1.086721   6.200932
    27  H    5.466919   2.176096   3.840151   1.084559   5.056491
    28  H    3.345304   6.278165   6.233835   6.090744   1.086189
    29  H    2.722245   4.627594   4.710499   4.667764   1.085947
    30  H    3.825498   5.072861   5.439339   4.355323   2.171300
    31  H    3.284001   6.225141   5.910871   5.491005   2.150069
                   11         12         13         14         15
    11  O    0.000000
    12  O    2.324606   0.000000
    13  C    4.492380   2.380265   0.000000
    14  H    4.133175   3.361597   2.758761   0.000000
    15  H    2.574093   2.696869   3.442807   1.757140   0.000000
    16  H    1.979993   2.028342   3.803812   4.074235   3.175856
    17  H    3.273319   2.045183   2.155137   2.397547   2.521228
    18  H    2.728359   4.272832   6.633923   6.750474   5.152531
    19  H    3.353755   4.314345   6.452912   6.724507   5.225946
    20  H    5.596425   4.292838   3.453118   3.576070   4.013776
    21  H    5.657932   4.263858   2.798291   2.411569   3.570740
    22  H    3.296903   2.790130   4.689407   5.886413   4.844398
    23  H    3.835782   3.990901   6.095874   7.202508   5.989409
    24  H    2.003517   3.858559   5.882936   5.150188   3.426625
    25  H    2.054559   2.668856   4.512574   4.341386   2.905376
    26  H    2.700244   3.283006   5.479361   6.195836   5.004246
    27  H    3.332406   2.555434   4.357464   5.806970   5.004202
    28  H    6.074039   3.992739   2.162176   4.018337   4.849804
    29  H    4.757690   2.781351   2.162992   3.963601   4.117336
    30  H    4.824639   2.558554   1.084929   3.759579   4.276017
    31  H    5.214923   3.300182   1.087280   2.598052   3.772534
                   16         17         18         19         20
    16  H    0.000000
    17  H    2.158244   0.000000
    18  H    4.027970   5.773723   0.000000
    19  H    4.852701   6.133113   1.752888   0.000000
    20  H    6.104539   4.854282   7.329386   6.433384   0.000000
    21  H    5.755696   4.029929   7.876834   7.334489   1.759082
    22  H    3.856781   4.808734   3.047437   2.459388   5.473866
    23  H    4.274807   5.803483   2.459508   2.547040   7.193583
    24  H    3.981606   5.030302   2.441400   2.522043   5.859564
    25  H    3.657346   4.230570   3.042196   2.444388   4.366684
    26  H    2.379998   4.393932   2.632555   3.790033   7.394966
    27  H    2.527094   3.853798   3.799428   4.304142   6.575922
    28  H    5.787522   4.278237   7.874897   7.234188   2.526865
    29  H    4.781685   3.858440   6.243664   5.514895   2.441482
    30  H    3.834330   2.528182   6.719941   6.613400   4.295241
    31  H    4.395651   2.392475   7.543348   7.438489   3.801711
                   21         22         23         24         25
    21  H    0.000000
    22  H    6.228341   0.000000
    23  H    7.856165   1.746097   0.000000
    24  H    6.331603   3.807963   4.287326   0.000000
    25  H    5.027575   2.667129   3.806889   1.753424   0.000000
    26  H    7.515665   3.048207   2.448054   4.044063   3.969735
    27  H    6.707982   2.478557   2.534242   4.843655   4.092095
    28  H    2.451342   5.456392   7.088864   7.016268   5.391599
    29  H    3.044556   3.759212   5.443705   5.563016   3.859872
    30  H    3.807028   4.565430   5.831792   6.358103   4.979543
    31  H    2.653090   5.758834   7.127309   6.635040   5.376299
                   26         27         28         29         30
    26  H    0.000000
    27  H    1.750941   0.000000
    28  H    7.116014   5.830414   0.000000
    29  H    5.733473   4.542450   1.749630   0.000000
    30  H    5.246723   3.886504   2.545509   2.472583   0.000000
    31  H    6.310850   5.258661   2.443366   3.049265   1.749799
                   31
    31  H    0.000000
 Stoichiometry    C10H18O3
 Framework group  C1[X(C10H18O3)]
 Deg. of freedom    87
 Full point group                 C1      NOp   1
 Largest Abelian subgroup         C1      NOp   1
 Largest concise Abelian subgroup C1      NOp   1
                         Standard orientation:                         
 ---------------------------------------------------------------------
 Center     Atomic      Atomic             Coordinates (Angstroms)
 Number     Number       Type             X           Y           Z
 ---------------------------------------------------------------------
      1          6           0       -1.634094    0.791939   -1.089315
      2          6           0        1.220908   -0.660517   -0.858980
      3          6           0       -1.197959   -0.652500   -0.872942
      4          6           0        3.059779    0.847614    0.795000
      5          6           0       -3.015697    0.815679    0.828244
      6          8           0       -1.954091    1.435179    0.125853
      7          6           0        2.716746   -0.591491    1.179536
      8          6           0        1.917475    1.463688    0.004698
      9          6           0        2.310417   -1.373172   -0.070466
     10          6           0       -2.667472   -0.621336    1.181464
     11          8           0        1.580234    0.670290   -1.125507
     12          8           0        0.020757   -0.750816   -0.149657
     13          6           0       -2.269867   -1.393906   -0.077989
     14          1           0       -2.504877    0.794174   -1.741672
     15          1           0       -0.857460    1.376379   -1.555673
     16          1           0        1.093670   -1.114138   -1.832222
     17          1           0       -1.064538   -1.119803   -1.843397
     18          1           0        3.963120    0.861590    0.189485
     19          1           0        3.248428    1.454020    1.676380
     20          1           0       -3.184708    1.412270    1.714346
     21          1           0       -3.913667    0.851677    0.214771
     22          1           0        1.904940   -0.593577    1.902161
     23          1           0        3.565630   -1.073102    1.655142
     24          1           0        2.187251    2.432935   -0.391549
     25          1           0        1.042199    1.587504    0.632461
     26          1           0        3.170306   -1.475453   -0.727042
     27          1           0        1.968674   -2.372245    0.177191
     28          1           0       -3.523211   -1.091178    1.657663
     29          1           0       -1.854130   -0.626248    1.901000
     30          1           0       -1.917782   -2.389901    0.169196
     31          1           0       -3.140455   -1.508120   -0.719246
 ---------------------------------------------------------------------
 Rotational constants (GHZ):           1.4981110           0.5072445           0.4751870
 Standard basis: 6-311++G(2d,2p) (5D, 7F)
 There are   557 symmetry adapted cartesian basis functions of A   symmetry.
 There are   531 symmetry adapted basis functions of A   symmetry.
   531 basis functions,   762 primitive gaussians,   557 cartesian basis functions
    51 alpha electrons       51 beta electrons
       nuclear repulsion energy       913.3516163794 Hartrees.
 NAtoms=   31 NActive=   31 NUniq=   31 SFac= 1.00D+00 NAtFMM=   60 NAOKFM=F Big=F
 Integral buffers will be    131072 words long.
 Raffenetti 2 integral format.
 Two-electron integral symmetry is turned on.
 ------------------------------------------------------------------------------
 Polarizable Continuum Model (PCM)
 =================================
 Model                : PCM.
 Atomic radii         : SMD-Coulomb.
 Polarization charges : Total charges.
 Charge compensation  : None.
 Solution method      : On-the-fly selection.
 Cavity type          : VdW (van der Waals Surface) (Alpha=1.000).
 Cavity algorithm     : GePol (No added spheres)
                        Default sphere list used, NSphG=   31.
                        Lebedev-Laikov grids with approx.  5.0 points / Ang**2.
                        Smoothing algorithm: York/Karplus (Gamma=1.0000).
                        Polarization charges: spherical gaussians, with
                                              point-specific exponents (IZeta= 3).
                        Self-potential: point-specific (ISelfS= 7).
                        Self-field    : sphere-specific E.n sum rule (ISelfD= 2).
 1st derivatives      : Analytical E(r).r(x)/FMM algorithm (CHGder, D1EAlg=3).
                        Cavity 1st derivative terms included.
 Solvent              : Water, Eps=  78.355300 Eps(inf)=   1.777849
 ------------------------------------------------------------------------------
 ------------------------------------------------------------------------------
 Atomic radii for non-electrostatic terms: SMD-CDS.
 ------------------------------------------------------------------------------
 Nuclear repulsion after PCM non-electrostatic terms =      913.3580039080 Hartrees.
 One-electron integrals computed using PRISM.
 NBasis=   531 RedAO= T EigKep=  3.84D-06  NBF=   531
 NBsUse=   531 1.00D-06 EigRej= -1.00D+00 NBFU=   531
 ExpMin= 3.60D-02 ExpMax= 8.59D+03 ExpMxC= 1.30D+03 IAcc=3 IRadAn=         5 AccDes= 0.00D+00
 Harris functional with IExCor= 1009 and IRadAn=       5 diagonalized for initial guess.
 HarFok:  IExCor= 1009 AccDes= 0.00D+00 IRadAn=         5 IDoV= 1 UseB2=F ITyADJ=14
 ICtDFT=  3500011 ScaDFX=  1.000000  1.000000  1.000000  1.000000
 FoFCou: FMM=F IPFlag=           0 FMFlag=      100000 FMFlg1=           0
         NFxFlg=           0 DoJE=T BraDBF=F KetDBF=T FulRan=T
         wScrn=  0.000000 ICntrl=       500 IOpCl=  0 I1Cent=   200000004 NGrid=           0
         NMat0=    1 NMatS0=      1 NMatT0=    0 NMatD0=    1 NMtDS0=    0 NMtDT0=    0
 Petite list used in FoFCou.
 Requested convergence on RMS density matrix=1.00D-08 within 128 cycles.
 Requested convergence on MAX density matrix=1.00D-06.
 Requested convergence on             energy=1.00D-06.
 No special actions if energy rises.
 Inv3:  Mode=1 IEnd=    12472563.
 Iteration    1 A*A^-1 deviation from unit magnitude is 5.77D-15 for   2036.
 Iteration    1 A*A^-1 deviation from orthogonality  is 2.79D-15 for   2010    896.
 Iteration    1 A^-1*A deviation from unit magnitude is 6.00D-15 for   2036.
 Iteration    1 A^-1*A deviation from orthogonality  is 2.94D-15 for   2030    660.
 Error on total polarization charges =  0.05997
 SCF Done:  E(RM062X) =  -617.506111278     A.U. after   12 cycles
            NFock= 12  Conv=0.69D-08     -V/T= 2.0035
 SMD-CDS (non-electrostatic) energy       (kcal/mol) =       4.01
 (included in total energy above)

 **********************************************************************

            Population analysis using the SCF Density.

 **********************************************************************

 Orbital symmetries:
       Occupied  (A) (A) (A) (A) (A) (A) (A) (A) (A) (A) (A) (A)
                 (A) (A) (A) (A) (A) (A) (A) (A) (A) (A) (A) (A)
                 (A) (A) (A) (A) (A) (A) (A) (A) (A) (A) (A) (A)
                 (A) (A) (A) (A) (A) (A) (A) (A) (A) (A) (A) (A)
                 (A) (A) (A)
       Virtual   (A) (A) (A) (A) (A) (A) (A) (A) (A) (A) (A) (A)
                 (A) (A) (A) (A) (A) (A) (A) (A) (A) (A) (A) (A)
                 (A) (A) (A) (A) (A) (A) (A) (A) (A) (A) (A) (A)
                 (A) (A) (A) (A) (A) (A) (A) (A) (A) (A) (A) (A)
                 (A) (A) (A) (A) (A) (A) (A) (A) (A) (A) (A) (A)
                 (A) (A) (A) (A) (A) (A) (A) (A) (A) (A) (A) (A)
                 (A) (A) (A) (A) (A) (A) (A) (A) (A) (A) (A) (A)
                 (A) (A) (A) (A) (A) (A) (A) (A) (A) (A) (A) (A)
                 (A) (A) (A) (A) (A) (A) (A) (A) (A) (A) (A) (A)
                 (A) (A) (A) (A) (A) (A) (A) (A) (A) (A) (A) (A)
                 (A) (A) (A) (A) (A) (A) (A) (A) (A) (A) (A) (A)
                 (A) (A) (A) (A) (A) (A) (A) (A) (A) (A) (A) (A)
                 (A) (A) (A) (A) (A) (A) (A) (A) (A) (A) (A) (A)
                 (A) (A) (A) (A) (A) (A) (A) (A) (A) (A) (A) (A)
                 (A) (A) (A) (A) (A) (A) (A) (A) (A) (A) (A) (A)
                 (A) (A) (A) (A) (A) (A) (A) (A) (A) (A) (A) (A)
                 (A) (A) (A) (A) (A) (A) (A) (A) (A) (A) (A) (A)
                 (A) (A) (A) (A) (A) (A) (A) (A) (A) (A) (A) (A)
                 (A) (A) (A) (A) (A) (A) (A) (A) (A) (A) (A) (A)
                 (A) (A) (A) (A) (A) (A) (A) (A) (A) (A) (A) (A)
                 (A) (A) (A) (A) (A) (A) (A) (A) (A) (A) (A) (A)
                 (A) (A) (A) (A) (A) (A) (A) (A) (A) (A) (A) (A)
                 (A) (A) (A) (A) (A) (A) (A) (A) (A) (A) (A) (A)
                 (A) (A) (A) (A) (A) (A) (A) (A) (A) (A) (A) (A)
                 (A) (A) (A) (A) (A) (A) (A) (A) (A) (A) (A) (A)
                 (A) (A) (A) (A) (A) (A) (A) (A) (A) (A) (A) (A)
                 (A) (A) (A) (A) (A) (A) (A) (A) (A) (A) (A) (A)
                 (A) (A) (A) (A) (A) (A) (A) (A) (A) (A) (A) (A)
                 (A) (A) (A) (A) (A) (A) (A) (A) (A) (A) (A) (A)
                 (A) (A) (A) (A) (A) (A) (A) (A) (A) (A) (A) (A)
                 (A) (A) (A) (A) (A) (A) (A) (A) (A) (A) (A) (A)
                 (A) (A) (A) (A) (A) (A) (A) (A) (A) (A) (A) (A)
                 (A) (A) (A) (A) (A) (A) (A) (A) (A) (A) (A) (A)
                 (A) (A) (A) (A) (A) (A) (A) (A) (A) (A) (A) (A)
                 (A) (A) (A) (A) (A) (A) (A) (A) (A) (A) (A) (A)
                 (A) (A) (A) (A) (A) (A) (A) (A) (A) (A) (A) (A)
                 (A) (A) (A) (A) (A) (A) (A) (A) (A) (A) (A) (A)
                 (A) (A) (A) (A) (A) (A) (A) (A) (A) (A) (A) (A)
                 (A) (A) (A) (A) (A) (A) (A) (A) (A) (A) (A) (A)
                 (A) (A) (A) (A) (A) (A) (A) (A) (A) (A) (A) (A)
 The electronic state is 1-A.
 Alpha  occ. eigenvalues --  -19.62968 -19.62707 -19.62667 -10.62961 -10.58269
 Alpha  occ. eigenvalues --  -10.57094 -10.57083 -10.57043 -10.52467 -10.52274
 Alpha  occ. eigenvalues --  -10.52232 -10.52167 -10.52047  -1.20078  -1.16500
 Alpha  occ. eigenvalues --   -1.13528  -0.90451  -0.89128  -0.86762  -0.84307
 Alpha  occ. eigenvalues --   -0.74044  -0.73626  -0.72600  -0.71436  -0.65852
 Alpha  occ. eigenvalues --   -0.62414  -0.59883  -0.57759  -0.57229  -0.55282
 Alpha  occ. eigenvalues --   -0.54110  -0.52900  -0.52053  -0.49880  -0.49653
 Alpha  occ. eigenvalues --   -0.47826  -0.46844  -0.45588  -0.45140  -0.44664
 Alpha  occ. eigenvalues --   -0.43349  -0.42394  -0.40776  -0.39463  -0.38237
 Alpha  occ. eigenvalues --   -0.37904  -0.37362  -0.35798  -0.35318  -0.32827
 Alpha  occ. eigenvalues --   -0.31529
 Alpha virt. eigenvalues --    0.00339   0.01297   0.01326   0.01609   0.02707
 Alpha virt. eigenvalues --    0.03003   0.03162   0.03645   0.03888   0.05197
 Alpha virt. eigenvalues --    0.05289   0.05373   0.05768   0.06071   0.07756
 Alpha virt. eigenvalues --    0.08099   0.08528   0.08704   0.09276   0.10061
 Alpha virt. eigenvalues --    0.10510   0.10825   0.11624   0.12197   0.12718
 Alpha virt. eigenvalues --    0.13069   0.13328   0.13504   0.13580   0.13934
 Alpha virt. eigenvalues --    0.14168   0.14774   0.15007   0.15231   0.15368
 Alpha virt. eigenvalues --    0.15468   0.15907   0.16034   0.16504   0.16807
 Alpha virt. eigenvalues --    0.17017   0.17321   0.17655   0.17989   0.18456
 Alpha virt. eigenvalues --    0.18660   0.18985   0.19444   0.19685   0.20073
 Alpha virt. eigenvalues --    0.20725   0.20813   0.21134   0.21541   0.22200
 Alpha virt. eigenvalues --    0.22268   0.22705   0.23296   0.24024   0.24805
 Alpha virt. eigenvalues --    0.25302   0.25963   0.26342   0.27055   0.27789
 Alpha virt. eigenvalues --    0.28082   0.28879   0.29166   0.29394   0.29749
 Alpha virt. eigenvalues --    0.30380   0.30646   0.31124   0.32318   0.32555
 Alpha virt. eigenvalues --    0.33028   0.33911   0.34108   0.34321   0.35180
 Alpha virt. eigenvalues --    0.35322   0.35638   0.36141   0.36519   0.37005
 Alpha virt. eigenvalues --    0.37014   0.38008   0.38173   0.38590   0.39254
 Alpha virt. eigenvalues --    0.39461   0.39746   0.40116   0.40811   0.41039
 Alpha virt. eigenvalues --    0.41687   0.43291   0.43408   0.44345   0.45659
 Alpha virt. eigenvalues --    0.46436   0.48465   0.49847   0.50712   0.51839
 Alpha virt. eigenvalues --    0.52165   0.53434   0.54303   0.55278   0.56409
 Alpha virt. eigenvalues --    0.56717   0.58106   0.59401   0.59741   0.60662
 Alpha virt. eigenvalues --    0.60999   0.61996   0.62104   0.62324   0.62669
 Alpha virt. eigenvalues --    0.63142   0.63890   0.64017   0.64203   0.64924
 Alpha virt. eigenvalues --    0.65400   0.65953   0.66230   0.67086   0.67885
 Alpha virt. eigenvalues --    0.68384   0.69064   0.70164   0.70577   0.70893
 Alpha virt. eigenvalues --    0.71575   0.71632   0.72770   0.73041   0.73949
 Alpha virt. eigenvalues --    0.74399   0.75438   0.75492   0.76337   0.77042
 Alpha virt. eigenvalues --    0.77642   0.77865   0.78959   0.79434   0.79848
 Alpha virt. eigenvalues --    0.80781   0.82340   0.83027   0.84601   0.86274
 Alpha virt. eigenvalues --    0.87649   0.88477   0.89157   0.89521   0.90042
 Alpha virt. eigenvalues --    0.91373   0.93148   0.94322   0.95437   0.96566
 Alpha virt. eigenvalues --    0.98742   0.99136   1.01188   1.01402   1.02380
 Alpha virt. eigenvalues --    1.03335   1.03818   1.05175   1.05641   1.08101
 Alpha virt. eigenvalues --    1.08758   1.09514   1.10189   1.12520   1.13679
 Alpha virt. eigenvalues --    1.14950   1.15223   1.15562   1.17110   1.17570
 Alpha virt. eigenvalues --    1.17902   1.18821   1.19970   1.20923   1.21535
 Alpha virt. eigenvalues --    1.22273   1.23489   1.24092   1.24645   1.25137
 Alpha virt. eigenvalues --    1.25815   1.26556   1.26815   1.27561   1.28831
 Alpha virt. eigenvalues --    1.29226   1.30061   1.30626   1.32051   1.32680
 Alpha virt. eigenvalues --    1.32844   1.33014   1.33626   1.34743   1.36399
 Alpha virt. eigenvalues --    1.36790   1.37524   1.37805   1.38139   1.38809
 Alpha virt. eigenvalues --    1.39489   1.40273   1.40507   1.41707   1.42132
 Alpha virt. eigenvalues --    1.43081   1.43485   1.43534   1.44820   1.45948
 Alpha virt. eigenvalues --    1.46507   1.46966   1.47238   1.48412   1.48561
 Alpha virt. eigenvalues --    1.49500   1.50174   1.50809   1.51505   1.52249
 Alpha virt. eigenvalues --    1.52784   1.53965   1.55530   1.56189   1.56674
 Alpha virt. eigenvalues --    1.57059   1.57937   1.58969   1.59311   1.59863
 Alpha virt. eigenvalues --    1.60367   1.61055   1.61499   1.63447   1.63864
 Alpha virt. eigenvalues --    1.64354   1.65106   1.65889   1.66159   1.68161
 Alpha virt. eigenvalues --    1.68407   1.69798   1.70582   1.71834   1.73274
 Alpha virt. eigenvalues --    1.73465   1.74428   1.76229   1.77381   1.78177
 Alpha virt. eigenvalues --    1.80017   1.80670   1.81797   1.82074   1.84280
 Alpha virt. eigenvalues --    1.85055   1.89577   1.93748   1.96492   2.02269
 Alpha virt. eigenvalues --    2.06221   2.08466   2.12539   2.18121   2.23643
 Alpha virt. eigenvalues --    2.24893   2.26283   2.30049   2.34721   2.40487
 Alpha virt. eigenvalues --    2.41627   2.44052   2.46373   2.46937   2.50732
 Alpha virt. eigenvalues --    2.60318   2.77676   2.78805   2.80546   2.81657
 Alpha virt. eigenvalues --    2.84689   2.86706   2.92889   2.93883   2.95203
 Alpha virt. eigenvalues --    2.97376   2.98544   2.99656   3.01897   3.04456
 Alpha virt. eigenvalues --    3.06747   3.08977   3.10580   3.11370   3.12136
 Alpha virt. eigenvalues --    3.14251   3.14974   3.16703   3.19013   3.22618
 Alpha virt. eigenvalues --    3.25827   3.30530   3.31977   3.33391   3.34840
 Alpha virt. eigenvalues --    3.35791   3.37654   3.38620   3.40655   3.40830
 Alpha virt. eigenvalues --    3.42543   3.43991   3.44875   3.47541   3.48433
 Alpha virt. eigenvalues --    3.48863   3.50262   3.50824   3.52006   3.53048
 Alpha virt. eigenvalues --    3.53655   3.54684   3.55047   3.56219   3.57610
 Alpha virt. eigenvalues --    3.57913   3.58366   3.59311   3.59513   3.60669
 Alpha virt. eigenvalues --    3.61718   3.62525   3.63892   3.64571   3.65117
 Alpha virt. eigenvalues --    3.66267   3.67311   3.67941   3.68479   3.69987
 Alpha virt. eigenvalues --    3.71068   3.71733   3.72555   3.73107   3.73764
 Alpha virt. eigenvalues --    3.74769   3.74924   3.75789   3.77407   3.79205
 Alpha virt. eigenvalues --    3.79443   3.80082   3.80547   3.82653   3.83801
 Alpha virt. eigenvalues --    3.86915   3.89557   3.91444   3.91713   3.92808
 Alpha virt. eigenvalues --    3.93452   3.94968   3.95555   3.97371   3.99161
 Alpha virt. eigenvalues --    4.00217   4.01692   4.02585   4.04068   4.04954
 Alpha virt. eigenvalues --    4.06114   4.06635   4.07443   4.08003   4.08782
 Alpha virt. eigenvalues --    4.09257   4.10203   4.10405   4.10753   4.11459
 Alpha virt. eigenvalues --    4.12413   4.13213   4.14223   4.15918   4.16431
 Alpha virt. eigenvalues --    4.17175   4.17826   4.19318   4.20273   4.21914
 Alpha virt. eigenvalues --    4.22465   4.23909   4.25501   4.26183   4.28220
 Alpha virt. eigenvalues --    4.28925   4.31555   4.31682   4.32306   4.33312
 Alpha virt. eigenvalues --    4.33594   4.34598   4.35129   4.36971   4.38885
 Alpha virt. eigenvalues --    4.39816   4.43897   4.46317   4.47073   4.48893
 Alpha virt. eigenvalues --    4.58127   4.62785   4.74837   4.76264   4.82697
 Alpha virt. eigenvalues --    4.85810   4.94317   4.96512   5.01196   5.03615
 Alpha virt. eigenvalues --    5.06966   5.08126   5.08546   5.09477   5.12338
 Alpha virt. eigenvalues --    5.13793   5.14337   5.15565   5.33069   5.39319
 Alpha virt. eigenvalues --    5.41682   5.57858   5.60598   5.63717   5.87333
 Alpha virt. eigenvalues --    5.87804   6.09303   7.01500   7.04766   7.06939
 Alpha virt. eigenvalues --    7.09172   7.11228   7.12836   7.14874   7.20308
 Alpha virt. eigenvalues --    7.27915   7.36502   7.40691   7.44992   7.52368
 Alpha virt. eigenvalues --    7.55041   7.66352  23.96660  23.98355  24.06852
 Alpha virt. eigenvalues --   24.08691  24.10814  24.12476  24.14464  24.15930
 Alpha virt. eigenvalues --   24.16412  24.22604  50.15610  50.19277  50.25412
          Condensed to atoms (all electrons):
               1          2          3          4          5          6
     1  C    6.526962   0.170395  -0.807906  -0.042500  -0.304424   0.154231
     2  C    0.170395   7.058479  -0.794618   0.165727  -0.010708  -0.033219
     3  C   -0.807906  -0.794618   7.404383   0.036443   0.230141   0.003568
     4  C   -0.042500   0.165727   0.036443   5.870620   0.001253   0.001623
     5  C   -0.304424  -0.010708   0.230141   0.001253   5.502318   0.057959
     6  O    0.154231  -0.033219   0.003568   0.001623   0.057959   8.300169
     7  C   -0.022256  -0.048156  -0.020064  -0.055272   0.010317   0.001170
     8  C   -0.037017  -0.418842   0.081653  -0.115074  -0.001279  -0.002033
     9  C   -0.021792  -1.087017   0.296883  -0.084543   0.000421   0.006504
    10  C    0.105316   0.013390  -0.252345   0.004055  -0.041725   0.032604
    11  O   -0.013117   0.249549   0.031529  -0.087916   0.001633  -0.000173
    12  O   -0.137245   0.102600   0.106569  -0.034952  -0.008226   0.045557
    13  C    0.161580   0.307455  -0.785600   0.014381  -0.004668  -0.024616
    14  H    0.478340  -0.004331  -0.041610   0.000615  -0.010115  -0.041689
    15  H    0.396760   0.008723  -0.030470  -0.005842   0.006423  -0.076142
    16  H    0.009562   0.531677  -0.021784   0.009882   0.006393  -0.002820
    17  H    0.001226  -0.024999   0.413959   0.003337  -0.017573   0.009622
    18  H    0.003962   0.023841  -0.007199   0.488013  -0.000233  -0.000157
    19  H   -0.000945  -0.002260   0.001811   0.441530   0.000425  -0.000023
    20  H   -0.007169  -0.003888   0.016318  -0.000237   0.456086  -0.065670
    21  H   -0.033607   0.000180   0.045365   0.000444   0.467199  -0.057273
    22  H    0.004462  -0.019461  -0.003681  -0.074858   0.001302   0.001301
    23  H   -0.001269   0.016010   0.004003  -0.015602   0.000660   0.000043
    24  H   -0.005506  -0.010842   0.008815  -0.015310   0.000732   0.000791
    25  H    0.008228   0.006662  -0.040857  -0.099689  -0.006209   0.003562
    26  H   -0.001811  -0.164022   0.003594  -0.011051  -0.000288   0.000509
    27  H    0.001263  -0.031073   0.002522  -0.010736   0.000293  -0.000354
    28  H   -0.007450   0.003990  -0.004651   0.000176  -0.020653   0.011067
    29  H    0.031031  -0.002357  -0.014301   0.007740  -0.093757  -0.016973
    30  H   -0.016108  -0.001531   0.007888  -0.001674   0.001494  -0.000093
    31  H    0.000320  -0.003636  -0.085988   0.000170  -0.011333  -0.000662
               7          8          9         10         11         12
     1  C   -0.022256  -0.037017  -0.021792   0.105316  -0.013117  -0.137245
     2  C   -0.048156  -0.418842  -1.087017   0.013390   0.249549   0.102600
     3  C   -0.020064   0.081653   0.296883  -0.252345   0.031529   0.106569
     4  C   -0.055272  -0.115074  -0.084543   0.004055  -0.087916  -0.034952
     5  C    0.010317  -0.001279   0.000421  -0.041725   0.001633  -0.008226
     6  O    0.001170  -0.002033   0.006504   0.032604  -0.000173   0.045557
     7  C    5.763149  -0.004290  -0.162497  -0.043147   0.006563   0.005754
     8  C   -0.004290   5.506564   0.212134   0.008194   0.103139   0.048181
     9  C   -0.162497   0.212134   6.791655   0.018154  -0.054957  -0.045717
    10  C   -0.043147   0.008194   0.018154   5.698400  -0.001446  -0.000635
    11  O    0.006563   0.103139  -0.054957  -0.001446   8.305164  -0.042975
    12  O    0.005754   0.048181  -0.045717  -0.000635  -0.042975   8.402627
    13  C    0.040438  -0.035498  -0.226612  -0.098704  -0.017648  -0.087559
    14  H   -0.002294  -0.002490   0.009059   0.020641   0.004244   0.010080
    15  H   -0.002533   0.013175  -0.018064   0.014974  -0.015956  -0.011366
    16  H   -0.015414  -0.026124  -0.094328  -0.004193  -0.044531  -0.036933
    17  H    0.000521   0.003279   0.015631  -0.017023  -0.003558  -0.019074
    18  H   -0.010877  -0.092193  -0.032931   0.000052  -0.000820  -0.001209
    19  H   -0.049115  -0.034545   0.002626  -0.000389   0.010142   0.000754
    20  H   -0.000272   0.001688   0.002734  -0.067089   0.000317   0.000915
    21  H    0.000170  -0.000404  -0.001009  -0.014905  -0.000134   0.001465
    22  H    0.531818  -0.000171  -0.054406   0.000104   0.003450  -0.000547
    23  H    0.414355   0.009230  -0.050242  -0.002117  -0.003625   0.000731
    24  H    0.008726   0.435382   0.000113  -0.000063  -0.069902   0.001176
    25  H    0.013776   0.475634   0.007084   0.005896  -0.029867   0.012348
    26  H   -0.011419   0.013833   0.549487   0.001211  -0.005961   0.011130
    27  H   -0.034956   0.009067   0.430581   0.001107   0.008605  -0.004747
    28  H   -0.001654   0.000327  -0.001546   0.442809  -0.000039   0.001441
    29  H    0.000337  -0.006657   0.001138   0.517131   0.000923  -0.002700
    30  H    0.002253   0.002930  -0.005619  -0.017405  -0.000042   0.001349
    31  H    0.000777   0.000056   0.001983  -0.029184  -0.000200   0.004617
              13         14         15         16         17         18
     1  C    0.161580   0.478340   0.396760   0.009562   0.001226   0.003962
     2  C    0.307455  -0.004331   0.008723   0.531677  -0.024999   0.023841
     3  C   -0.785600  -0.041610  -0.030470  -0.021784   0.413959  -0.007199
     4  C    0.014381   0.000615  -0.005842   0.009882   0.003337   0.488013
     5  C   -0.004668  -0.010115   0.006423   0.006393  -0.017573  -0.000233
     6  O   -0.024616  -0.041689  -0.076142  -0.002820   0.009622  -0.000157
     7  C    0.040438  -0.002294  -0.002533  -0.015414   0.000521  -0.010877
     8  C   -0.035498  -0.002490   0.013175  -0.026124   0.003279  -0.092193
     9  C   -0.226612   0.009059  -0.018064  -0.094328   0.015631  -0.032931
    10  C   -0.098704   0.020641   0.014974  -0.004193  -0.017023   0.000052
    11  O   -0.017648   0.004244  -0.015956  -0.044531  -0.003558  -0.000820
    12  O   -0.087559   0.010080  -0.011366  -0.036933  -0.019074  -0.001209
    13  C    6.487402  -0.051173   0.021219   0.022184  -0.022995   0.000472
    14  H   -0.051173   0.449000  -0.013743   0.000163  -0.003062   0.000138
    15  H    0.021219  -0.013743   0.459108  -0.001041  -0.007950  -0.000375
    16  H    0.022184   0.000163  -0.001041   0.425083  -0.003000   0.001576
    17  H   -0.022995  -0.003062  -0.007950  -0.003000   0.432489  -0.000392
    18  H    0.000472   0.000138  -0.000375   0.001576  -0.000392   0.475799
    19  H    0.000885  -0.000183   0.000484   0.000643   0.000055  -0.012660
    20  H    0.011606  -0.002417   0.001122  -0.000005   0.000271  -0.000010
    21  H   -0.051677   0.004541  -0.001328  -0.000479   0.001992  -0.000004
    22  H   -0.000564   0.000376  -0.000773  -0.002203   0.000273   0.001059
    23  H   -0.000499  -0.000028  -0.000109   0.002014  -0.000182  -0.001347
    24  H   -0.000851  -0.000331  -0.000131  -0.000537  -0.000007  -0.008278
    25  H    0.004350   0.000635  -0.001378   0.000193  -0.001652   0.005126
    26  H   -0.001391   0.000184  -0.000383  -0.014077   0.002307  -0.003737
    27  H   -0.005234  -0.000358   0.000653  -0.007166  -0.002049  -0.002038
    28  H   -0.046933  -0.001311   0.001844  -0.000065   0.000567   0.000001
    29  H   -0.044516   0.000252  -0.001465  -0.000250   0.000760   0.000136
    30  H    0.397259  -0.001636   0.001338  -0.002032  -0.006758  -0.000138
    31  H    0.508163  -0.003639  -0.001814   0.000892  -0.007317  -0.000007
              19         20         21         22         23         24
     1  C   -0.000945  -0.007169  -0.033607   0.004462  -0.001269  -0.005506
     2  C   -0.002260  -0.003888   0.000180  -0.019461   0.016010  -0.010842
     3  C    0.001811   0.016318   0.045365  -0.003681   0.004003   0.008815
     4  C    0.441530  -0.000237   0.000444  -0.074858  -0.015602  -0.015310
     5  C    0.000425   0.456086   0.467199   0.001302   0.000660   0.000732
     6  O   -0.000023  -0.065670  -0.057273   0.001301   0.000043   0.000791
     7  C   -0.049115  -0.000272   0.000170   0.531818   0.414355   0.008726
     8  C   -0.034545   0.001688  -0.000404  -0.000171   0.009230   0.435382
     9  C    0.002626   0.002734  -0.001009  -0.054406  -0.050242   0.000113
    10  C   -0.000389  -0.067089  -0.014905   0.000104  -0.002117  -0.000063
    11  O    0.010142   0.000317  -0.000134   0.003450  -0.003625  -0.069902
    12  O    0.000754   0.000915   0.001465  -0.000547   0.000731   0.001176
    13  C    0.000885   0.011606  -0.051677  -0.000564  -0.000499  -0.000851
    14  H   -0.000183  -0.002417   0.004541   0.000376  -0.000028  -0.000331
    15  H    0.000484   0.001122  -0.001328  -0.000773  -0.000109  -0.000131
    16  H    0.000643  -0.000005  -0.000479  -0.002203   0.002014  -0.000537
    17  H    0.000055   0.000271   0.001992   0.000273  -0.000182  -0.000007
    18  H   -0.012660  -0.000010  -0.000004   0.001059  -0.001347  -0.008278
    19  H    0.480947  -0.000097   0.000029  -0.004988  -0.005925  -0.008287
    20  H   -0.000097   0.465734  -0.004801   0.000215   0.000049   0.000060
    21  H    0.000029  -0.004801   0.476233  -0.000011  -0.000016  -0.000069
    22  H   -0.004988   0.000215  -0.000011   0.464321  -0.006419  -0.002882
    23  H   -0.005925   0.000049  -0.000016  -0.006419   0.461236   0.001558
    24  H   -0.008287   0.000060  -0.000069  -0.002882   0.001558   0.468539
    25  H   -0.001405  -0.000484  -0.000247  -0.000764  -0.002340  -0.020256
    26  H   -0.002165   0.000010   0.000031   0.001864  -0.002314   0.000807
    27  H    0.001275   0.000034  -0.000107  -0.003523  -0.008269   0.001040
    28  H   -0.000009  -0.009289   0.003642   0.000412  -0.000165  -0.000009
    29  H    0.000127  -0.003522   0.000275  -0.004754   0.000606   0.000008
    30  H    0.000111   0.000572  -0.000255   0.000049  -0.000042   0.000081
    31  H    0.000018  -0.001471  -0.003995  -0.000340   0.000133   0.000065
              25         26         27         28         29         30
     1  C    0.008228  -0.001811   0.001263  -0.007450   0.031031  -0.016108
     2  C    0.006662  -0.164022  -0.031073   0.003990  -0.002357  -0.001531
     3  C   -0.040857   0.003594   0.002522  -0.004651  -0.014301   0.007888
     4  C   -0.099689  -0.011051  -0.010736   0.000176   0.007740  -0.001674
     5  C   -0.006209  -0.000288   0.000293  -0.020653  -0.093757   0.001494
     6  O    0.003562   0.000509  -0.000354   0.011067  -0.016973  -0.000093
     7  C    0.013776  -0.011419  -0.034956  -0.001654   0.000337   0.002253
     8  C    0.475634   0.013833   0.009067   0.000327  -0.006657   0.002930
     9  C    0.007084   0.549487   0.430581  -0.001546   0.001138  -0.005619
    10  C    0.005896   0.001211   0.001107   0.442809   0.517131  -0.017405
    11  O   -0.029867  -0.005961   0.008605  -0.000039   0.000923  -0.000042
    12  O    0.012348   0.011130  -0.004747   0.001441  -0.002700   0.001349
    13  C    0.004350  -0.001391  -0.005234  -0.046933  -0.044516   0.397259
    14  H    0.000635   0.000184  -0.000358  -0.001311   0.000252  -0.001636
    15  H   -0.001378  -0.000383   0.000653   0.001844  -0.001465   0.001338
    16  H    0.000193  -0.014077  -0.007166  -0.000065  -0.000250  -0.002032
    17  H   -0.001652   0.002307  -0.002049   0.000567   0.000760  -0.006758
    18  H    0.005126  -0.003737  -0.002038   0.000001   0.000136  -0.000138
    19  H   -0.001405  -0.002165   0.001275  -0.000009   0.000127   0.000111
    20  H   -0.000484   0.000010   0.000034  -0.009289  -0.003522   0.000572
    21  H   -0.000247   0.000031  -0.000107   0.003642   0.000275  -0.000255
    22  H   -0.000764   0.001864  -0.003523   0.000412  -0.004754   0.000049
    23  H   -0.002340  -0.002314  -0.008269  -0.000165   0.000606  -0.000042
    24  H   -0.020256   0.000807   0.001040  -0.000009   0.000008   0.000081
    25  H    0.515940  -0.000933   0.000094   0.000283  -0.002374   0.000029
    26  H   -0.000933   0.443701  -0.004806   0.000072   0.000044   0.000057
    27  H    0.000094  -0.004806   0.469564   0.000008  -0.000613  -0.000086
    28  H    0.000283   0.000072   0.000008   0.467940  -0.015400  -0.006599
    29  H   -0.002374   0.000044  -0.000613  -0.015400   0.484279  -0.004804
    30  H    0.000029   0.000057  -0.000086  -0.006599  -0.004804   0.461682
    31  H   -0.000143  -0.000057  -0.000020  -0.006602   0.003840   0.002168
              31
     1  C    0.000320
     2  C   -0.003636
     3  C   -0.085988
     4  C    0.000170
     5  C   -0.011333
     6  O   -0.000662
     7  C    0.000777
     8  C    0.000056
     9  C    0.001983
    10  C   -0.029184
    11  O   -0.000200
    12  O    0.004617
    13  C    0.508163
    14  H   -0.003639
    15  H   -0.001814
    16  H    0.000892
    17  H   -0.007317
    18  H   -0.000007
    19  H    0.000018
    20  H   -0.001471
    21  H   -0.003995
    22  H   -0.000340
    23  H    0.000133
    24  H    0.000065
    25  H   -0.000143
    26  H   -0.000057
    27  H   -0.000020
    28  H   -0.006602
    29  H    0.003840
    30  H    0.002168
    31  H    0.422129
 Mulliken charges:
               1
     1  C   -0.593519
     2  C    0.002280
     3  C    0.215629
     4  C   -0.390756
     5  C   -0.213859
     6  O   -0.308382
     7  C   -0.315908
     8  C   -0.147852
     9  C   -0.404910
    10  C   -0.293670
    11  O   -0.332391
    12  O   -0.323410
    13  C   -0.470658
    14  H    0.202144
    15  H    0.265039
    16  H    0.266722
    17  H    0.251302
    18  H    0.174431
    19  H    0.181134
    20  H    0.208690
    21  H    0.168754
    22  H    0.169339
    23  H    0.189880
    24  H    0.215365
    25  H    0.148760
    26  H    0.195573
    27  H    0.190028
    28  H    0.187794
    29  H    0.165815
    30  H    0.185559
    31  H    0.211077
 Sum of Mulliken charges =  -0.00000
 Mulliken charges with hydrogens summed into heavy atoms:
               1
     1  C   -0.126337
     2  C    0.269002
     3  C    0.466931
     4  C   -0.035191
     5  C    0.163584
     6  O   -0.308382
     7  C    0.043311
     8  C    0.216274
     9  C   -0.019309
    10  C    0.059939
    11  O   -0.332391
    12  O   -0.323410
    13  C   -0.074021
 Electronic spatial extent (au):  <R**2>=           2657.8431
 Charge=             -0.0000 electrons
 Dipole moment (field-independent basis, Debye):
    X=             -0.9530    Y=             -2.4358    Z=             -0.2323  Tot=              2.6259
 Quadrupole moment (field-independent basis, Debye-Ang):
   XX=            -67.8648   YY=            -81.0959   ZZ=            -77.8079
   XY=              2.7798   XZ=              3.3989   YZ=              3.1257
 Traceless Quadrupole moment (field-independent basis, Debye-Ang):
   XX=              7.7247   YY=             -5.5064   ZZ=             -2.2184
   XY=              2.7798   XZ=              3.3989   YZ=              3.1257
 Octapole moment (field-independent basis, Debye-Ang**2):
  XXX=            -19.0551  YYY=             -2.4133  ZZZ=             -2.7995  XYY=             11.1343
  XXY=             -5.3128  XXZ=              8.1010  XZZ=            -11.2370  YZZ=             -1.3619
  YYZ=             -2.8136  XYZ=              3.4601
 Hexadecapole moment (field-independent basis, Debye-Ang**3):
 XXXX=          -2304.2000 YYYY=           -645.1853 ZZZZ=           -472.4215 XXXY=             -4.8765
 XXXZ=             -8.4969 YYYX=             22.3352 YYYZ=             -2.4099 ZZZX=              0.7424
 ZZZY=             14.2005 XXYY=           -509.1198 XXZZ=           -471.4805 YYZZ=           -180.7389
 XXYZ=              8.9710 YYXZ=             -3.4854 ZZXY=            -11.5111
 N-N= 9.133580039080D+02 E-N=-3.269440727125D+03  KE= 6.153628418901D+02
 D1PCM: PCM CHGder 1st derivatives, ID1Alg=3 FixD1E=F DoIter=F DoCFld=F I1PDM=0.
 Calling FoFJK, ICntrl=      2127 FMM=F ISym2X=0 I1Cent= 0 IOpClX= 0 NMat=1 NMatS=1 NMatT=0.
 ***** Axes restored to original set *****
 -------------------------------------------------------------------
 Center     Atomic                   Forces (Hartrees/Bohr)
 Number     Number              X              Y              Z
 -------------------------------------------------------------------
      1        6          -0.001335005   -0.006280294    0.001331600
      2        6           0.004134358   -0.003114875    0.004657649
      3        6          -0.003294236    0.002480761    0.000237609
      4        6          -0.002940560   -0.001224555    0.000434388
      5        6           0.001142076   -0.007128048   -0.000038307
      6        8           0.006960934    0.009538122    0.004464658
      7        6          -0.000507526    0.001759783   -0.003959881
      8        6           0.004179615   -0.004606374    0.003874559
      9        6          -0.000949102    0.001998606    0.002208892
     10        6          -0.000754147    0.000803242   -0.003194873
     11        8           0.000602246    0.006508017   -0.012736424
     12        8          -0.001817437   -0.001250100    0.014112348
     13        6           0.000800892    0.003160224    0.000679092
     14        1          -0.004507675   -0.000898124   -0.003610716
     15        1           0.005414759    0.002616357   -0.002212667
     16        1          -0.000787249   -0.002721534   -0.006707060
     17        1           0.000485295   -0.002296419   -0.005285406
     18        1           0.002299667   -0.000278246   -0.002489017
     19        1           0.000348812    0.001482925    0.002268035
     20        1          -0.000596446    0.002307375    0.003791183
     21        1          -0.004589669   -0.000816127   -0.003360756
     22        1          -0.003348697    0.000318346    0.001814833
     23        1           0.002052873   -0.001148355    0.000963391
     24        1           0.001151794    0.004013876   -0.001499994
     25        1          -0.005373853    0.000173532    0.004305240
     26        1           0.002439037    0.000410587   -0.002244958
     27        1          -0.001383058   -0.002802993    0.000734745
     28        1          -0.002138980   -0.001240724    0.001101793
     29        1           0.003296911    0.000486116    0.001918625
     30        1           0.001606128   -0.002650844    0.000616455
     31        1          -0.002591757    0.000399747   -0.002175038
 -------------------------------------------------------------------
 Cartesian Forces:  Max     0.014112348 RMS     0.003638951

 GradGradGradGradGradGradGradGradGradGradGradGradGradGradGradGradGradGrad
 Berny optimization.
 FormGI is forming the generalized inverse of G from B-inverse, IUseBI=4.
 Internal  Forces:  Max     0.010974844 RMS     0.002185732
 Search for a local minimum.
 Step number   1 out of a maximum of  186
 All quantities printed in internal units (Hartrees-Bohrs-Radians)
 Mixed Optimization -- RFO/linear search
 Second derivative matrix not updated -- first step.
 ITU=  0
     Eigenvalues ---    0.00618   0.00626   0.00722   0.00724   0.01412
     Eigenvalues ---    0.01431   0.01731   0.02702   0.02820   0.03079
     Eigenvalues ---    0.03103   0.04093   0.04357   0.04662   0.04749
     Eigenvalues ---    0.04884   0.04890   0.05032   0.05141   0.05150
     Eigenvalues ---    0.05276   0.05693   0.05745   0.06176   0.06186
     Eigenvalues ---    0.06266   0.06611   0.06988   0.07586   0.07844
     Eigenvalues ---    0.07947   0.07949   0.07961   0.08165   0.08238
     Eigenvalues ---    0.08816   0.09222   0.09337   0.10750   0.11606
     Eigenvalues ---    0.11708   0.11718   0.11762   0.12404   0.12533
     Eigenvalues ---    0.14564   0.14707   0.15668   0.16505   0.17533
     Eigenvalues ---    0.19164   0.21351   0.21978   0.25000   0.28441
     Eigenvalues ---    0.28642   0.28777   0.28853   0.28942   0.29019
     Eigenvalues ---    0.30170   0.30295   0.35031   0.35040   0.35092
     Eigenvalues ---    0.35129   0.35180   0.35194   0.35238   0.35257
     Eigenvalues ---    0.35285   0.35314   0.35357   0.35405   0.35449
     Eigenvalues ---    0.35490   0.35813   0.35837   0.35840   0.36229
     Eigenvalues ---    0.40864   0.41481   0.42225   0.42372   0.43435
     Eigenvalues ---    0.461191000.000001000.000001000.000001000.00000
     Eigenvalues --- 1000.000001000.000001000.000001000.000001000.00000
     Eigenvalues --- 1000.000001000.000001000.000001000.000001000.00000
     Eigenvalues --- 1000.000001000.000001000.000001000.000001000.00000
     Eigenvalues --- 1000.000001000.000001000.000001000.000001000.00000
     Eigenvalues --- 1000.000001000.000001000.000001000.000001000.00000
     Eigenvalues --- 1000.000001000.000001000.000001000.000001000.00000
     Eigenvalues --- 1000.000001000.000001000.000001000.000001000.00000
     Eigenvalues --- 1000.000001000.000001000.000001000.000001000.00000
     Eigenvalues --- 1000.000001000.000001000.000001000.000001000.00000
     Eigenvalues --- 1000.000001000.000001000.000001000.000001000.00000
     Eigenvalues --- 1000.000001000.000001000.000001000.000001000.00000
     Eigenvalues --- 1000.000001000.000001000.000001000.000001000.00000
     Eigenvalues --- 1000.000001000.000001000.000001000.000001000.00000
     Eigenvalues --- 1000.000001000.000001000.000001000.000001000.00000
     Eigenvalues --- 1000.000001000.000001000.000001000.000001000.00000
     Eigenvalues --- 1000.000001000.000001000.000001000.000001000.00000
     Eigenvalues --- 1000.000001000.000001000.000001000.000001000.00000
     Eigenvalues --- 1000.000001000.000001000.000001000.000001000.00000
     Eigenvalues --- 1000.000001000.000001000.000001000.000001000.00000
 RFO step:  Lambda=-3.92593942D-03 EMin= 6.18431681D-03
 Linear search not attempted -- first point.
 Iteration  1 RMS(Cart)=  0.08283537 RMS(Int)=  0.00152079
 Iteration  2 RMS(Cart)=  0.00313012 RMS(Int)=  0.00004668
 Iteration  3 RMS(Cart)=  0.00000282 RMS(Int)=  0.00004664
 Iteration  4 RMS(Cart)=  0.00000000 RMS(Int)=  0.00004664
 Iteration  1 RMS(Cart)=  0.00000219 RMS(Int)=  0.00000050
 Iteration  2 RMS(Cart)=  0.00000122 RMS(Int)=  0.00000055
 Iteration  3 RMS(Cart)=  0.00000068 RMS(Int)=  0.00000063
 Variable       Old X    -DE/DX   Delta X   Delta X   Delta X     New X
                                 (Linear)    (Quad)   (Total)
    R1        2.88048  -0.00072   0.00000  -0.00255  -0.00254   2.87794
    R2        2.66765   0.00592   0.00000   0.01414   0.01416   2.68181
    R3        2.05610   0.00577   0.00000   0.01629   0.01629   2.07239
    R4        2.03724   0.00628   0.00000   0.01714   0.01714   2.05438
    R5        2.87627  -0.00117   0.00000  -0.00394  -0.00396   2.87232
    R6        2.65316   0.00771   0.00000   0.01698   0.01699   2.67016
    R7        2.63998   0.00594   0.00000   0.01278   0.01278   2.65276
    R8        2.04332   0.00727   0.00000   0.02007   0.02007   2.06339
    R9        2.68453   0.00305   0.00000   0.00712   0.00712   2.69165
   R10        2.88493  -0.00194   0.00000  -0.00700  -0.00701   2.87792
   R11        2.05099   0.00577   0.00000   0.01615   0.01615   2.06714
   R12        2.88860  -0.00079   0.00000  -0.00263  -0.00264   2.88597
   R13        2.87150  -0.00060   0.00000  -0.00181  -0.00180   2.86970
   R14        2.05526   0.00329   0.00000   0.00928   0.00928   2.06454
   R15        2.05290   0.00273   0.00000   0.00766   0.00766   2.06056
   R16        2.67524   0.00653   0.00000   0.01537   0.01539   2.69063
   R17        2.87278  -0.00058   0.00000  -0.00160  -0.00161   2.87117
   R18        2.04376   0.00447   0.00000   0.01235   0.01235   2.05611
   R19        2.05624   0.00566   0.00000   0.01597   0.01597   2.07221
   R20        2.88988  -0.00112   0.00000  -0.00399  -0.00400   2.88588
   R21        2.05383   0.00371   0.00000   0.01042   0.01042   2.06425
   R22        2.05168   0.00254   0.00000   0.00710   0.00710   2.05879
   R23        2.68619   0.00536   0.00000   0.01273   0.01274   2.69893
   R24        2.04338   0.00443   0.00000   0.01224   0.01224   2.05562
   R25        2.04887   0.00685   0.00000   0.01909   0.01909   2.06797
   R26        2.05361   0.00325   0.00000   0.00913   0.00913   2.06273
   R27        2.04952   0.00319   0.00000   0.00889   0.00889   2.05841
   R28        2.89145  -0.00090   0.00000  -0.00404  -0.00407   2.88738
   R29        2.05260   0.00270   0.00000   0.00759   0.00759   2.06019
   R30        2.05214   0.00374   0.00000   0.01048   0.01048   2.06262
   R31        2.05022   0.00309   0.00000   0.00864   0.00864   2.05886
   R32        2.05466   0.00332   0.00000   0.00934   0.00934   2.06400
    A1        1.95461   0.00015   0.00000  -0.00247  -0.00247   1.95214
    A2        1.89236  -0.00090   0.00000  -0.00116  -0.00120   1.89116
    A3        1.94874  -0.00085   0.00000  -0.01150  -0.01152   1.93722
    A4        1.91109   0.00126   0.00000   0.01212   0.01213   1.92321
    A5        1.86362  -0.00036   0.00000  -0.00324  -0.00334   1.86028
    A6        1.89238   0.00078   0.00000   0.00703   0.00702   1.89940
    A7        1.93795   0.00277   0.00000   0.00969   0.00943   1.94738
    A8        1.89826  -0.00209   0.00000  -0.01219  -0.01214   1.88612
    A9        1.93275   0.00043   0.00000   0.01021   0.01025   1.94300
   A10        1.95791  -0.00080   0.00000  -0.01269  -0.01259   1.94532
   A11        1.83061  -0.00179   0.00000  -0.00694  -0.00696   1.82365
   A12        1.90583   0.00156   0.00000   0.01288   0.01288   1.91871
   A13        1.96419  -0.00250   0.00000  -0.02002  -0.01997   1.94421
   A14        1.91052   0.00148   0.00000   0.00478   0.00466   1.91518
   A15        1.89258  -0.00008   0.00000   0.00200   0.00202   1.89460
   A16        1.87929   0.00084   0.00000   0.00008   0.00009   1.87938
   A17        1.89652   0.00113   0.00000   0.01110   0.01108   1.90760
   A18        1.92071  -0.00089   0.00000   0.00233   0.00231   1.92302
   A19        1.92180  -0.00033   0.00000  -0.00274  -0.00293   1.91887
   A20        1.91617   0.00071   0.00000   0.00100   0.00108   1.91725
   A21        1.93950  -0.00055   0.00000  -0.00074  -0.00072   1.93877
   A22        1.90670  -0.00013   0.00000  -0.00249  -0.00244   1.90425
   A23        1.90307   0.00011   0.00000   0.00024   0.00030   1.90337
   A24        1.87580   0.00020   0.00000   0.00485   0.00482   1.88062
   A25        1.93602   0.00085   0.00000   0.00646   0.00636   1.94238
   A26        1.85699  -0.00089   0.00000  -0.00274  -0.00271   1.85428
   A27        1.90143   0.00085   0.00000   0.00405   0.00411   1.90555
   A28        1.94644  -0.00042   0.00000  -0.00345  -0.00345   1.94299
   A29        1.92976  -0.00093   0.00000  -0.00714  -0.00711   1.92265
   A30        1.89095   0.00056   0.00000   0.00315   0.00312   1.89407
   A31        1.97978  -0.00452   0.00000  -0.02646  -0.02637   1.95341
   A32        1.91265   0.00263   0.00000   0.00062   0.00061   1.91325
   A33        1.91420  -0.00121   0.00000  -0.00265  -0.00270   1.91150
   A34        1.93089  -0.00041   0.00000   0.00105   0.00111   1.93200
   A35        1.92200  -0.00094   0.00000  -0.00404  -0.00404   1.91795
   A36        1.91673  -0.00087   0.00000   0.00018   0.00019   1.91691
   A37        1.86701   0.00072   0.00000   0.00485   0.00485   1.87186
   A38        1.94505   0.00155   0.00000   0.00324   0.00318   1.94824
   A39        1.94599  -0.00013   0.00000  -0.00189  -0.00182   1.94417
   A40        1.93055  -0.00109   0.00000  -0.00364  -0.00368   1.92686
   A41        1.84225  -0.00101   0.00000  -0.00084  -0.00085   1.84140
   A42        1.90983   0.00023   0.00000   0.00099   0.00105   1.91088
   A43        1.88728   0.00045   0.00000   0.00232   0.00231   1.88959
   A44        1.95446  -0.00151   0.00000  -0.01440  -0.01454   1.93992
   A45        1.87284  -0.00016   0.00000   0.00194   0.00196   1.87480
   A46        1.90081   0.00067   0.00000  -0.00157  -0.00154   1.89927
   A47        1.90892   0.00132   0.00000   0.00854   0.00861   1.91753
   A48        1.94758  -0.00030   0.00000  -0.00073  -0.00082   1.94676
   A49        1.87611   0.00004   0.00000   0.00720   0.00716   1.88327
   A50        1.92363   0.00036   0.00000  -0.00461  -0.00466   1.91896
   A51        1.90741   0.00043   0.00000   0.00204   0.00208   1.90949
   A52        1.90688  -0.00078   0.00000  -0.00230  -0.00232   1.90456
   A53        1.92536  -0.00081   0.00000  -0.00034  -0.00034   1.92502
   A54        1.92675   0.00048   0.00000   0.00037   0.00038   1.92713
   A55        1.87300   0.00032   0.00000   0.00510   0.00509   1.87809
   A56        2.02510  -0.00590   0.00000  -0.03602  -0.03593   1.98917
   A57        2.06464  -0.01097   0.00000  -0.04322  -0.04322   2.02142
   A58        1.94536   0.00066   0.00000  -0.00971  -0.00976   1.93559
   A59        1.91412  -0.00018   0.00000  -0.00361  -0.00359   1.91053
   A60        1.88190  -0.00074   0.00000   0.00073   0.00073   1.88262
   A61        1.93941  -0.00031   0.00000   0.00122   0.00117   1.94058
   A62        1.90756   0.00014   0.00000   0.00481   0.00481   1.91237
   A63        1.87317   0.00043   0.00000   0.00726   0.00724   1.88041
    D1       -1.14234   0.00091   0.00000   0.03204   0.03203  -1.11032
    D2        0.94668   0.00137   0.00000   0.02251   0.02253   0.96921
    D3        3.04234   0.00112   0.00000   0.02937   0.02934   3.07168
    D4        3.03029  -0.00016   0.00000   0.01922   0.01923   3.04952
    D5       -1.16387   0.00029   0.00000   0.00970   0.00973  -1.15414
[...]
 001858,-0.00001808,0.00002789,0.01787573,-0.01628201,-0.02642309,-0.00
 139947,0.00080584,0.00175521,-0.00009117,0.00005020,-0.00003898,0.0001
 3742,0.00007551,-0.00007180,-0.00031460,0.00003043,-0.00065899,-0.0002
 5315,-0.00031362,0.00008181,0.00000676,0.00001803,0.00000825,-0.003587
 88,0.00215843,-0.00157070,0.00111236,-0.00041745,0.00080097,0.00001961
 ,0.00000132,-0.00002347,0.00007594,0.00003276,-0.00004514,0.00042300,-
 0.00026974,-0.00014292,0.00013542,-0.00014635,-0.00004892,0.01160814,0
 .00000638,-0.00563128,-0.12348650,0.01578334,0.13938969,-0.00030287,-0
 .00017992,-0.00031076,-0.01827618,-0.00030690,0.01625399,0.00066423,0.
 00017165,0.00167457,0.00043993,0.00033961,-0.00018044,0.00008325,-0.00
 001311,-0.00001896,-0.00005927,0.00007461,0.00010048,0.00661748,-0.001
 02844,-0.00450849,-0.00006561,0.00001464,-0.00012853,-0.22646767,0.020
 64753,0.12090456,-0.00000536,-0.00003791,-0.00004071,0.00175315,-0.000
 62753,-0.00006851,-0.00689088,0.00224843,-0.00395906,-0.00029874,0.000
 18006,-0.00034379,-0.00007548,0.00018629,-0.00000490,0.00001415,0.0000
 1531,0.00001198,0.00076074,-0.00046486,-0.00008006,-0.00005781,-0.0000
 1033,-0.00015178,-0.00018661,0.00036571,0.00002237,0.00004130,0.000176
 84,-0.00003665,-0.00001018,0.00001253,0.00000926,-0.00001314,0.0000005
 7,-0.00000739,0.00078205,-0.00138646,-0.00136299,0.00072389,0.00043536
 ,0.00047465,0.00001538,0.00003128,0.00001167,-0.00001224,-0.00004784,0
 .00002033,0.24712933,-0.00004871,0.00006322,-0.00000612,0.00997242,-0.
 00320493,-0.00814225,0.00011549,0.00043717,-0.00052267,0.00098286,0.00
 083459,-0.00012418,-0.00002105,0.00000496,0.00000115,0.00002410,-0.000
 03173,-0.00002172,0.01591603,-0.00269190,-0.01123680,0.00002826,-0.000
 04226,-0.00010431,0.01761309,-0.05084786,-0.01049740,-0.00000483,0.000
 00795,0.00001249,-0.00006685,0.00060252,0.00007319,0.00208946,-0.00012
 728,0.00159476,0.00016539,-0.00007699,0.00018416,0.00001247,-0.0000177
 0,0.00000123,-0.00000677,-0.00000499,-0.00000726,-0.00049475,0.0003576
 4,0.00010169,0.00003168,-0.00000549,0.00003546,-0.00022779,-0.00002543
 ,0.00008340,-0.00017720,0.00014602,0.00005024,0.00000293,-0.00000373,-
 0.00000163,0.00000329,0.00000074,0.00000198,-0.00069591,-0.00160557,-0
 .00302677,-0.00025657,0.00073787,0.00079719,0.00003022,-0.00002721,0.0
 0002640,-0.00004642,0.00002363,0.00000854,-0.02107294,0.05134325,-0.00
 013501,-0.00012333,-0.00015033,-0.01467072,0.00139470,0.01009767,-0.00
 020203,0.00017270,0.00099602,0.00018481,0.00119424,0.00090123,0.000041
 47,-0.00000691,-0.00000759,-0.00003024,0.00004120,0.00004741,0.0218212
 4,-0.00314637,-0.01754913,-0.00027625,-0.00019326,-0.00021702,0.124986
 05,-0.01132333,-0.13114869,-0.00000342,-0.00002052,-0.00003501,0.00027
 481,-0.00074898,0.00034633,-0.00536932,0.00195276,-0.00155049,-0.00019
 823,0.00010322,-0.00022347,-0.00003441,0.00009705,-0.00000907,0.000014
 43,0.00001225,0.00000224,0.00044463,-0.00053944,0.00084635,0.00002037,
 -0.00002805,-0.00008957,-0.00024197,-0.00034224,0.00044611,-0.00035619
 ,0.00013325,0.00005696,-0.00000679,0.00000739,0.00000509,-0.00000468,-
 0.00000030,-0.00000246,-0.00152837,-0.00383313,-0.00338225,-0.00003469
 ,0.00082624,0.00106822,0.00007806,-0.00001799,0.00006855,0.00000460,0.
 ,-0.00002934,-0.13182526,0.01539123,0.14500841,0.00003530,0.00001250,-
 0.00003479,0.00625771,0.02107123,-0.00468045,0.00035931,-0.00004950,0.
 00002544,0.00066690,-0.00079841,-0.00176146,0.00000716,0.00000876,-0.0
 0000116,-0.00002314,-0.00000828,0.00002324,-0.00247248,-0.00462773,0.0
 0275611,-0.00043025,-0.00085417,-0.00101140,-0.07031997,-0.07145775,0.
 02331994,-0.00000292,-0.00000123,0.00000356,-0.00269746,0.00550742,-0.
 00373938,0.00074517,0.00047514,-0.00026096,0.00001579,-0.00002922,0.00
 001824,-0.00000307,-0.00000694,0.00000560,0.00001458,-0.00002618,0.000
 02262,0.00057162,-0.00078270,0.00032103,0.00000607,-0.00001004,-0.0000
 0808,0.00011871,0.00038086,-0.00019811,0.00024505,-0.00067915,0.000158
 08,-0.00000241,-0.00000155,0.00000176,-0.00000092,-0.00000124,-0.00000
 009,0.00043265,0.00030726,-0.00030018,-0.00004534,0.00010948,0.0003356
 0,0.00010710,0.00006477,0.00017779,0.00001407,0.00005390,0.00011457,-0
 .00613997,-0.02393102,0.00714717,0.07253893,-0.00012821,-0.00003769,-0
 .00004841,-0.00543341,-0.01208571,0.00232713,0.00012620,0.00039199,-0.
 00001648,-0.00045960,-0.00044278,-0.00431318,-0.00000562,-0.00000973,0
 .00000279,0.00004033,0.00000261,-0.00000929,-0.00446945,-0.01568039,0.
 00573892,-0.00037351,0.00110093,0.00038535,-0.06683202,-0.27289148,0.0
 7392014,0.00000767,0.00000304,0.00000360,0.00215776,-0.00165993,0.0023
 4672,-0.00090158,0.00107839,-0.00050135,0.00004401,-0.00003046,0.00003
 282,0.00001373,0.00004485,-0.00000931,0.00000244,0.00003725,-0.0000319
 7,0.00043069,0.00031154,0.00015907,-0.00001571,-0.00000873,-0.00001744
 ,-0.00010712,0.00007278,0.00009144,-0.00013641,-0.00109603,0.00055286,
 0.00000196,0.00000121,-0.00000179,0.00000203,0.00000208,-0.00000108,0.
 00043527,0.00063393,0.00025441,-0.00013294,0.00067715,-0.00000492,0.00
 002887,-0.00007037,0.00003513,0.00005810,-0.00006454,-0.00007120,0.000
 35335,0.00411062,-0.00094139,0.07527976,0.29559535,0.00009614,0.000033
 60,0.00001486,0.00883267,0.01525043,-0.00485514,0.00000257,-0.00029710
 ,-0.00000264,-0.00093068,-0.00270674,-0.00485460,0.00000337,0.00000298
 ,0.00000239,-0.00003049,-0.00000100,0.00001104,-0.00736836,-0.02570359
 ,0.00974119,-0.00053935,-0.00077466,-0.00137800,0.02082309,0.07447070,
 -0.07202719,0.00000025,-0.00000554,0.00000246,-0.00358230,0.00511518,-
 0.00224773,0.00097399,-0.00062406,0.00076919,-0.00002433,0.00000985,-0
 .00001661,-0.00001246,-0.00003187,0.00000764,0.00000275,-0.00003685,0.
 00002714,0.00035011,-0.00069125,0.00026962,0.00000358,0.00000491,-0.00
 001488,-0.00011889,0.00001435,0.00007980,-0.00022880,-0.00166464,0.000
 46139,-0.00000201,-0.00000057,0.00000227,-0.00000103,0.00000074,-0.000
 00024,0.00052556,0.00086038,0.00117070,0.00008449,0.00104355,0.0010435
 3,0.00012772,0.00012910,0.00025938,0.00004760,0.00010064,0.00018018,0.
 00340914,0.01538159,-0.00556968,-0.02243000,-0.07987403,0.07692157,-0.
 00017128,0.00030519,-0.00016416,0.00034535,0.00016088,-0.00005484,0.00
 124702,0.00120486,0.00071070,0.00000403,0.00000016,-0.00000307,0.00401
 804,0.00227753,-0.00315063,0.00168592,0.00156267,-0.00017413,-0.000004
 46,0.00001027,0.00000233,0.00002468,0.00002213,0.00002581,-0.00001887,
 -0.00002127,0.00002024,-0.22764807,-0.09246855,0.08736487,-0.00007622,
 -0.00009019,0.00001567,-0.00012953,-0.00009179,0.00028378,-0.00439522,
 -0.00209793,0.00141326,0.00002019,-0.00001990,0.00001332,-0.00001979,-
 0.00008456,-0.00007188,-0.00007935,-0.00001168,0.00002045,-0.00037023,
 -0.00033074,0.00007788,-0.00000355,0.00000045,0.00000091,-0.00000276,-
 0.00000175,-0.00000289,0.00018420,-0.00050381,0.00014845,0.00034054,-0
 .00066546,-0.00000351,0.00001011,-0.00000074,0.00000036,-0.00000694,-0
 .00000321,-0.00000640,-0.00000413,-0.00000690,-0.00000165,-0.00000021,
 0.00000426,-0.00000323,-0.00001919,0.00000496,-0.00000863,-0.00000039,
 0.00000031,-0.00000200,0.24305373,0.00055558,-0.00093127,-0.00196337,-
 0.00011685,-0.00010013,0.00001083,0.00042721,-0.00122340,-0.00310404,-
 0.00000670,-0.00000208,0.00001101,-0.02745501,-0.00787869,0.01158657,-
 0.00138514,-0.00948367,0.00381076,0.00000389,-0.00000700,0.00000128,0.
 00001084,-0.00001370,-0.00002863,0.00001320,0.00001837,-0.00000338,-0.
 09072761,-0.09565352,0.04585538,-0.00001158,0.00006848,-0.00000207,-0.
 00007837,0.00004465,-0.00014668,0.01360265,0.00725789,-0.00635457,-0.0
 0004086,0.00012166,0.00024162,-0.00006042,0.00022462,0.00027812,0.0000
 4734,0.00001178,0.00001715,0.00065118,0.00048824,-0.00048178,-0.000003
 17,0.00000222,-0.00000269,0.00000108,0.00000072,0.00000003,0.00010738,
 0.00098087,-0.00087293,0.00053585,0.00131075,0.00013871,-0.00000216,-0
 .00000083,-0.00000013,0.00000215,0.00000369,0.00000320,-0.00000218,0.0
 0000199,0.00000394,0.00000557,0.00000387,0.00002080,0.00000829,-0.0000
 0232,0.00000383,-0.00000210,0.00000041,0.00000026,0.10045625,0.1022653
 0,-0.00007278,-0.00070713,0.00039955,-0.00026821,-0.00006651,0.0003799
 4,-0.00096453,-0.00421470,-0.00503766,-0.00000410,0.00000247,0.0000055
 8,0.00299172,0.00134144,-0.00329714,0.00003575,0.00091242,0.00105879,0
 .00001829,-0.00001891,-0.00000522,-0.00003648,-0.00004592,-0.00005439,
 0.00007139,0.00004278,-0.00005036,0.08513398,0.04502999,-0.08783773,0.
 00012744,0.00013142,-0.00003795,0.00039880,-0.00001053,0.00026637,0.02
 396651,0.01339279,-0.01311505,-0.00007921,0.00004419,-0.00000665,-0.00
 000881,0.00012225,0.00009765,0.00000172,0.00001771,0.00002950,0.001350
 52,0.00089100,-0.00070369,0.00000404,-0.00000121,-0.00000005,0.0000053
 5,0.00000331,0.00000513,-0.00009764,0.00032834,0.00005891,-0.00010836,
 -0.00027143,0.00017941,0.00001023,-0.00000007,-0.00000192,0.00000589,0
 .00000585,0.00001387,0.00000592,0.00001046,0.00000472,0.00000477,0.000
 00191,-0.00000952,0.00003561,-0.00001097,0.00001865,-0.00000077,-0.000
 00271,0.00000134,-0.09581008,-0.04801861,0.09634443,-0.00002424,0.0002
 1142,0.00034275,0.00038672,0.00019903,0.00012735,-0.00029639,-0.000499
 67,-0.00065423,0.00001428,-0.00000190,-0.00000930,-0.00632336,0.000526
 91,-0.00273501,0.00207934,-0.00019878,-0.00018102,-0.00001660,0.000002
 62,0.00005052,-0.00002235,0.00001251,0.00001769,0.00002512,0.00000173,
 -0.00000870,-0.20137110,0.02507395,-0.12787559,0.00001900,-0.00001477,
 -0.00002759,-0.00115018,0.00001057,0.00117373,0.00667146,-0.00133167,0
 .00470449,-0.00010178,-0.00001851,-0.00002641,0.00000112,0.00000983,-0
 .00003819,-0.00007199,0.00000801,0.00008182,0.00009834,0.00012855,-0.0
 0010824,0.00000036,0.00000325,-0.00000047,-0.00000054,0.00000067,0.000
 00131,0.00024430,0.00007874,0.00024718,0.00106383,0.00133125,0.0001774
 5,0.00012122,-0.00000029,-0.00005774,0.00000796,-0.00000008,-0.0000076
 4,0.00000368,-0.00000282,-0.00000115,0.00003652,0.00000583,-0.00003890
 ,-0.00000158,-0.00000240,0.00000098,0.00000279,-0.00000119,-0.00000201
 ,-0.01871177,0.00386285,-0.01584892,0.21621451,0.00002959,-0.00013958,
 -0.00017420,-0.00001541,0.00001153,0.00011323,-0.00005255,0.00007446,0
 .00059589,-0.00000090,-0.00000127,0.00000033,0.02823842,-0.00709031,0.
 02212345,-0.00028302,0.00303798,-0.00165736,-0.00000603,-0.00000662,0.
 00000594,-0.00001501,0.00000492,0.00000880,0.00002175,0.00000550,-0.00
 001879,0.02279073,-0.05168861,0.02123358,-0.00001027,-0.00000715,-0.00
 000143,0.00017007,0.00031428,0.00016371,-0.01242154,0.00098808,-0.0101
 7154,0.00007931,-0.00000245,-0.00004685,-0.00002161,0.00005827,0.00003
 455,-0.00002866,-0.00000281,-0.00001605,0.00002417,-0.00008391,0.00003
 598,0.00000029,-0.00000034,-0.00000162,-0.00000166,-0.00000073,-0.0000
 0053,-0.00050369,0.00176064,-0.00044390,0.00069507,-0.00624950,0.00141
 010,0.00000068,0.00000084,-0.00000672,0.00000217,0.00000007,-0.0000015
 6,0.00000240,-0.00000074,-0.00000168,0.00000916,-0.00000933,-0.0000038
 1,0.00000683,-0.00000554,0.00000220,-0.00000087,-0.00000153,-0.0000002
 0,-0.00999600,0.00156285,-0.00951051,-0.02956877,0.05740207,0.00017182
 ,-0.00012404,-0.00022668,0.00017389,0.00008448,0.00021923,-0.00147594,
 0.00026463,0.00041527,0.00000303,-0.00000047,-0.00000366,-0.00232775,0
 .00089333,-0.00257480,-0.00005974,-0.00025714,0.00006595,-0.00000100,0
 .00000453,0.00001107,0.00000392,0.00000159,-0.00000325,0.00003008,-0.0
 0000259,-0.00001305,-0.12637776,0.02163539,-0.15513636,-0.00002874,-0.
 00005453,0.00001949,0.00063912,-0.00007279,0.00044559,-0.02209584,0.00
 295703,-0.01935068,0.00000824,-0.00003774,0.00001737,-0.00001585,0.000
 11168,-0.00000591,-0.00009477,0.00000263,0.00001945,0.00020564,-0.0000
 6634,0.00003286,-0.00000225,-0.00000029,0.00000172,0.00000170,0.000000
 93,0.00000079,0.00052341,0.00035709,0.00058745,-0.00028515,0.00045722,
 0.00113389,0.00006707,0.00000019,-0.00002042,-0.00000201,-0.00000178,-
 0.00000147,-0.00000255,-0.00000200,0.00000122,0.00001233,0.00001680,-0
 .00002113,-0.00000099,-0.00000258,0.00000258,-0.00000025,-0.00000360,-
 0.00000342,0.00937075,-0.00263849,0.00874505,0.13961995,-0.02119627,0.
 16880309,-0.00460456,-0.00131007,0.00282852,0.00026485,-0.00005064,0.0
 0019794,0.00362459,-0.02665421,0.00310202,-0.00000619,-0.00000492,0.00
 000329,0.00015924,0.00026353,0.00231845,0.00052691,0.00037890,-0.00075
 727,0.00000086,-0.00000534,-0.00000036,0.00003640,0.00002235,0.0000014
 1,0.00002885,0.00002061,-0.00004061,-0.00228402,0.00580892,-0.00198576
 ,-0.00005079,0.00010658,-0.00008447,0.00254075,-0.00010578,0.00020648,
 -0.06377797,0.06509272,-0.00860034,0.00015496,0.00002280,0.00005506,0.
 00039726,-0.00149706,-0.00000203,0.00000391,0.00000202,-0.00000137,0.0
 0096752,0.00093317,-0.00057136,-0.00000208,0.00000209,-0.00000132,-0.0
 0000141,0.00000176,-0.00000211,0.00022109,0.00070218,-0.00001438,0.000
 12888,-0.00040606,0.00009416,0.00000244,0.00000093,0.00000136,0.000000
 95,0.00000323,0.00000257,0.00000066,-0.00000129,0.00000317,0.00000544,
 0.00000984,0.00001658,0.00001655,-0.00000769,0.00000856,-0.00000672,0.
 00000323,-0.00000060,-0.00003917,-0.00003329,-0.00036181,0.00038521,-0
 .00036285,0.00022479,0.06663118,-0.00378541,0.00075464,0.00221844,-0.0
 0000475,0.00024633,-0.00000878,0.00394751,-0.01661716,0.00289999,-0.00
 000560,-0.00000141,0.00000987,0.00047489,0.00116471,-0.00354595,0.0002
 1094,0.00018092,-0.00001670,-0.00001244,0.00000771,0.00000161,0.000033
 51,0.00001836,-0.00000424,-0.00003950,-0.00003739,0.00003617,0.0030865
 1,-0.01170968,0.00148485,0.00003968,0.00008683,-0.00010146,0.00115498,
 0.00145098,-0.00056396,0.06159642,-0.29706815,0.03033528,0.00017272,0.
 00019906,0.00000937,0.00035055,-0.00107171,-0.00021188,-0.00000198,-0.
 00002640,-0.00001547,-0.00013928,0.00072306,0.00005584,-0.00000611,0.0
 0000345,-0.00000305,-0.00000148,-0.00000087,-0.00000245,-0.00000684,-0
 .00093259,0.00028090,0.00005095,0.00008799,0.00010188,0.00000235,-0.00
 000198,-0.00000131,-0.00000284,-0.00000081,-0.00000719,-0.00000206,-0.
 00000400,-0.00000013,-0.00000748,-0.00000001,0.00002575,-0.00001674,0.
 00000897,-0.00001178,-0.00000716,0.00000844,-0.00000261,0.00016787,0.0
 0047571,-0.00009583,-0.00031588,0.00046750,0.00009956,-0.06749328,0.32
 150745,0.00368266,0.00097292,-0.00192738,-0.00011754,-0.00013616,0.000
 03568,-0.00558808,0.01573310,-0.00274173,0.00000133,-0.00000102,-0.000
 00326,0.00213851,-0.00082565,-0.00683433,-0.00090879,0.00033678,0.0011
 9463,0.00000206,-0.00000592,-0.00000312,-0.00003211,-0.00002590,-0.000
 01481,0.00003773,0.00000616,-0.00003018,0.00751634,-0.03057139,0.00450
 506,0.00001704,-0.00002304,0.00003568,-0.00091559,-0.00113316,0.000449
 79,-0.00734675,0.03131545,-0.05197705,0.00021146,-0.00029967,0.0001347
 0,-0.00009987,0.00120646,0.00031414,0.00000206,-0.00000403,-0.00002161
 ,-0.00074329,-0.00034290,0.00035337,0.00000384,-0.00000082,0.00000161,
 0.00000147,0.00000089,0.00000237,0.00013536,-0.00199426,0.00023725,0.0
 0009170,-0.00003736,0.00007771,0.00000041,-0.00000064,-0.00000183,0.00
 000203,0.00000024,0.00000392,-0.00000065,0.00000362,0.00000097,0.00000
 287,0.00000049,-0.00001103,0.00001745,-0.00000089,0.00000726,-0.000000
 03,0.00000406,0.00000226,-0.00007578,0.00094106,0.00119132,-0.00064660
 ,0.00074892,0.00138207,0.00575476,-0.03343501,0.05608451,0.00034318,0.
 00094035,-0.00077596,0.00112164,0.00001711,-0.00224669,-0.01758865,0.0
 0363317,-0.01598554,0.00002806,-0.00000740,-0.00003224,0.00050818,-0.0
 0023465,0.00000772,-0.00009869,-0.00034354,0.00011088,-0.00000011,0.00
 004540,0.00004678,0.00008613,0.00016724,0.00020023,-0.00035446,-0.0000
 4236,0.00038492,0.00682877,-0.00029353,0.00532920,-0.00054402,-0.00075
 126,0.00034865,-0.00734794,-0.00228923,0.00327487,-0.21811281,0.009216
 48,-0.12419064,0.00055323,-0.00025794,0.00015685,0.00018764,0.00005201
 ,0.00034368,-0.00005237,0.00003437,0.00018054,0.00067406,0.00066535,0.
 00012373,-0.00000935,0.00000040,0.00000566,-0.00001664,-0.00001061,-0.
 00001345,0.00003913,-0.00020390,0.00003402,-0.00017846,-0.00034144,-0.
 00014455,0.00000015,-0.00000659,0.00000175,-0.00001834,-0.00001481,-0.
 00003489,-0.00001611,-0.00003460,-0.00001626,-0.00000840,0.00000185,-0
 .00002115,-0.00015862,0.00006825,-0.00010096,0.00000613,0.00001106,-0.
 00000973,0.00076735,-0.00036588,-0.00050625,0.00071612,0.00121819,0.00
 171485,-0.00532559,0.00055994,-0.00314402,0.23797081,0.00017015,-0.000
 13477,-0.00008599,-0.00006367,0.00032851,-0.00081196,-0.01073784,-0.00
 009838,-0.01031838,0.00000947,0.00000097,-0.00000901,-0.00121904,0.000
 65500,-0.00014769,0.00006942,-0.00024978,0.00002878,0.00000491,0.00001
 836,0.00001822,0.00002863,0.00003734,0.00004635,-0.00019411,-0.0000290
 9,0.00020827,-0.01127734,-0.00006746,-0.00848441,-0.00002287,-0.000158
 04,0.00002893,-0.00312630,-0.00040423,0.00161677,0.01215922,-0.0510125
 2,0.01006985,-0.00024793,-0.00049651,0.00007186,0.00001086,0.00026200,
 0.00003880,-0.00002848,0.00000304,0.00004867,0.00040038,0.00058518,0.0
 0004044,-0.00000328,0.00000098,0.00000173,-0.00000455,-0.00000517,-0.0
 0000242,0.00010907,0.00014725,0.00006139,0.00021519,0.00005684,0.00013
 206,0.00000223,-0.00000554,-0.00000203,-0.00000591,-0.00000603,-0.0000
 1396,-0.00000539,-0.00001076,-0.00000429,-0.00000093,-0.00000091,-0.00
 000628,-0.00007592,0.00004179,-0.00005524,0.00000416,0.00000682,-0.000
 00355,0.00021668,0.00045252,0.00069669,0.00048899,-0.00039857,-0.00242
 641,0.02455762,0.00008004,0.01756768,-0.01143344,0.05040113,-0.0006190
 9,0.00017642,-0.00012133,-0.00004206,0.00003661,0.00103907,0.01060430,
 -0.00186995,0.00833228,-0.00001214,0.00000012,0.00001232,-0.00043219,0
 .00147225,0.00105108,0.00001563,-0.00036090,-0.00001280,0.00000199,-0.
 00002126,-0.00002990,-0.00003017,-0.00006728,-0.00008529,0.00019646,0.
 00000560,-0.00018704,-0.02380731,0.00095095,-0.02073796,0.00018832,0.0
 0026958,-0.00013367,0.00500191,0.00167681,-0.00053105,-0.12607969,0.00
 911360,-0.13785657,0.00023942,0.00022619,0.00008711,0.00005208,-0.0002
 2699,0.00002835,-0.00002167,-0.00002048,-0.00010036,-0.00034278,-0.000
 66597,0.00061565,0.00000265,-0.00000033,-0.00000152,0.00000684,0.00000
 542,0.00000512,0.00036340,0.00012543,0.00011441,0.00027117,-0.00043008
 ,0.00048508,0.00000324,0.00000260,0.00000041,0.00000670,0.00000551,0.0
 0001460,0.00000568,0.00001243,0.00000409,-0.00000154,-0.00000337,0.000
 00767,0.00008320,-0.00003917,0.00004501,-0.00000359,-0.00000629,0.0000
 0218,0.00006409,0.00069283,0.00135714,0.00172250,-0.00322366,-0.004543
 30,-0.00239535,0.00046829,-0.00244796,0.13495798,-0.00830486,0.1535871
 8\\-0.00000124,0.00000045,0.00001298,0.00007072,0.00200364,0.00049678,
 0.00045693,-0.00103849,-0.00114987,0.00000160,0.00000326,0.00000088,0.
 00000736,0.00000865,0.00000025,-0.00000708,-0.00001414,-0.00000004,-0.
 00000306,-0.00000069,0.00000323,-0.00000623,0.00000116,0.00000052,0.00
 000080,-0.00000158,-0.00001586,-0.00000427,-0.00000578,0.00000489,0.00
 000482,0.00001095,0.00001616,-0.00024489,-0.00242124,-0.00038427,-0.00
 030540,0.00146747,0.00100714,0.00000386,0.00000417,0.00000465,-0.00000
 802,0.00000320,0.00001152,0.00001103,0.00001213,-0.00000666,-0.0000020
 6,0.00000814,0.00000298,-0.00000187,0.00000193,0.00000485,0.00000234,-
 0.00001132,0.00000541,0.00000152,-0.00000874,0.00000143,0.00000504,-0.
 00000124,0.00001024,0.00000506,-0.00000730,-0.00000336,0.00000084,-0.0
 0000674,-0.00000669,-0.00000041,-0.00000309,0.00000939,0.00000370,-0.0
 0000145,0.00000405,-0.00000021,0.00000170,-0.00000575,0.00000568,0.000
 00409,-0.00000543,0.00000608,-0.00001042,-0.00000476,-0.00000208,-0.00
 000530,-0.00000191,-0.00000091,0.00000542,-0.00001072,0.00000033,0.000
 00114,-0.00000202\\\@


 OLD AGE AND TREACHERY WILL ALWAYS PREVAIL OVER YOUTH AND SKILL.
 Job cpu time:       0 days 13 hours 27 minutes 27.6 seconds.
 Elapsed time:       0 days  1 hours  7 minutes 34.2 seconds.
 File lengths (MBytes):  RWF=    720 Int=      0 D2E=      0 Chk=     34 Scr=      1
 Normal termination of Gaussian 16 at Sat Mar  9 00:48:59 2019.
