 Entering Gaussian System, Link 0=g16
 Initial command:
 /sw/Projects/G16/g16/l1.exe "/nvme/pbs/tmpdir/pbs.74203[11].flm1/Gau-5386.inp" -scrdir="/nvme/pbs/tmpdir/pbs.74203[11].flm1/"
 Entering Link 1 = /sw/Projects/G16/g16/l1.exe PID=      5387.
  
 Copyright (c) 1988-2017, Gaussian, Inc.  All Rights Reserved.
  
 This is part of the Gaussian(R) 16 program.  It is based on
 the Gaussian(R) 09 system (copyright 2009, Gaussian, Inc.),
 the Gaussian(R) 03 system (copyright 2003, Gaussian, Inc.),
 the Gaussian(R) 98 system (copyright 1998, Gaussian, Inc.),
 the Gaussian(R) 94 system (copyright 1995, Gaussian, Inc.),
 the Gaussian 92(TM) system (copyright 1992, Gaussian, Inc.),
 the Gaussian 90(TM) system (copyright 1990, Gaussian, Inc.),
 the Gaussian 88(TM) system (copyright 1988, Gaussian, Inc.),
 the Gaussian 86(TM) system (copyright 1986, Carnegie Mellon
 University), and the Gaussian 82(TM) system (copyright 1983,
 Carnegie Mellon University). Gaussian is a federally registered
 trademark of Gaussian, Inc.
  
 This software contains proprietary and confidential information,
 including trade secrets, belonging to Gaussian, Inc.
  
 This software is provided under written license and may be
 used, copied, transmitted, or stored only in accord with that
 written license.
  
 The following legend is applicable only to US Government
 contracts under FAR:
  
                    RESTRICTED RIGHTS LEGEND
  
 Use, reproduction and disclosure by the US Government is
 subject to restrictions as set forth in subparagraphs (a)
 and (c) of the Commercial Computer Software - Restricted
 Rights clause in FAR 52.227-19.
  
 Gaussian, Inc.
 340 Quinnipiac St., Bldg. 40, Wallingford CT 06492
  
  
 ---------------------------------------------------------------
 Warning -- This program may not be used in any manner that
 competes with the business of Gaussian, Inc. or will provide
 assistance to any competitor of Gaussian, Inc.  The licensee
 of this program is prohibited from giving any competitor of
 Gaussian, Inc. access to this program.  By using this program,
 the user acknowledges that Gaussian, Inc. is engaged in the
 business of creating and licensing software in the field of
 computational chemistry and represents and warrants to the
 licensee that it is not a competitor of Gaussian, Inc. and that
 it will not use this program in any manner prohibited above.
 ---------------------------------------------------------------
  

 Cite this work as:
 Gaussian 16, Revision B.01,
 M. J. Frisch, G. W. Trucks, H. B. Schlegel, G. E. Scuseria, 
 M. A. Robb, J. R. Cheeseman, G. Scalmani, V. Barone, 
 G. A. Petersson, H. Nakatsuji, X. Li, M. Caricato, A. V. Marenich, 
 J. Bloino, B. G. Janesko, R. Gomperts, B. Mennucci, H. P. Hratchian, 
 J. V. Ortiz, A. F. Izmaylov, J. L. Sonnenberg, D. Williams-Young, 
 F. Ding, F. Lipparini, F. Egidi, J. Goings, B. Peng, A. Petrone, 
 T. Henderson, D. Ranasinghe, V. G. Zakrzewski, J. Gao, N. Rega, 
 G. Zheng, W. Liang, M. Hada, M. Ehara, K. Toyota, R. Fukuda, 
 J. Hasegawa, M. Ishida, T. Nakajima, Y. Honda, O. Kitao, H. Nakai, 
 T. Vreven, K. Throssell, J. A. Montgomery, Jr., J. E. Peralta, 
 F. Ogliaro, M. J. Bearpark, J. J. Heyd, E. N. Brothers, K. N. Kudin, 
 V. N. Staroverov, T. A. Keith, R. Kobayashi, J. Normand, 
 K. Raghavachari, A. P. Rendell, J. C. Burant, S. S. Iyengar, 
 J. Tomasi, M. Cossi, J. M. Millam, M. Klene, C. Adamo, R. Cammi, 
 J. W. Ochterski, R. L. Martin, K. Morokuma, O. Farkas, 
 J. B. Foresman, and D. J. Fox, Gaussian, Inc., Wallingford CT, 2016.
 
 ******************************************
 Gaussian 16:  ES64L-G16RevB.01 20-Dec-2017
                 9-Mar-2019 
 ******************************************
 %mem=20gb
 %nproc=12
 Will use up to   12 processors via shared memory.
 %chk=4c1_a1_a4_4c1_PSI.inp_extract_11.chk
 ----------------------------------------------------------------------
 #M062X/6-311++G(2d,2p) opt=ModRedundant freq=noraman SCRF=(SMD,solvent
 =water)
 ----------------------------------------------------------------------
 1/18=120,19=15,26=3,38=1/1,3;
 2/9=110,12=2,17=6,18=5,40=1/2;
 3/5=4,6=6,7=1212,11=2,25=1,30=1,70=32201,71=1,72=1,74=-55/1,2,3;
 4//1;
 5/5=2,38=5,53=1/2;
 6/7=2,8=2,9=2,10=2,28=1/1;
 7//1,2,3,16;
 1/18=20,19=15,26=3/3(2);
 2/9=110/2;
 99//99;
 2/9=110/2;
 3/5=4,6=6,7=1212,11=2,25=1,30=1,70=32205,71=1,72=1,74=-55/1,2,3;
 4/5=5,16=3,69=1/1;
 5/5=2,38=5,53=1/2;
 7//1,2,3,16;
 1/18=20,19=15,26=3/3(-5);
 2/9=110/2;
 6/7=2,8=2,9=2,10=2,19=2,28=1/1;
 99/9=1/99;
 --------------------------------
 4c1_a1_a4_4c1_PSI.inp_extract_11
 --------------------------------
 Symbolic Z-matrix:
 Charge =  0 Multiplicity = 1
 C                    -2.01087  -1.39208  -0.19086 
 C                     0.82767  -0.65899  -0.48366 
 C                    -1.1962   -0.85229   0.97676 
 C                     3.18721   0.96522  -0.03621 
 C                    -2.92664   0.70749  -0.75659 
 O                    -2.22729  -0.43855  -1.20759 
 C                     3.17848  -0.48679   0.44177 
 C                     1.76853   1.50789  -0.086 
 C                     2.20696  -1.30231  -0.41249 
 C                    -2.13792   1.43774   0.3188 
 O                     0.92576   0.68433  -0.87918 
 O                     0.2171   -0.79467   0.76625 
 C                    -1.77657   0.48093   1.45738 
 H                    -2.9702   -1.71555   0.20518 
 H                    -1.5353   -2.24741  -0.64922 
 H                     0.23574  -1.13075  -1.24855 
 H                    -1.29497  -1.57063   1.78037 
 H                     3.62731   1.02327  -1.02912 
 H                     3.78383   1.5907    0.62191 
 H                    -3.08207   1.33101  -1.62641 
 H                    -3.89924   0.39967  -0.37814 
 H                     2.88248  -0.52634   1.48669 
 H                     4.17384  -0.91591   0.37823 
 H                     1.73517   2.4863   -0.54532 
 H                     1.35635   1.59081   0.91383 
 H                     2.5867   -1.36429  -1.42894 
 H                     2.10375  -2.31609  -0.04093 
 H                    -2.73651   2.2594    0.70223 
 H                    -1.24584   1.86663  -0.12076 
 H                    -1.08802   0.94406   2.1562 
 H                    -2.68148   0.24555   2.01338 
 
 The following ModRedundant input section has been read:
 D      13       3      12       2 F                                           
 

 GradGradGradGradGradGradGradGradGradGradGradGradGradGradGradGradGradGrad
 Berny optimization.
 Initialization pass.
                           ----------------------------
                           !    Initial Parameters    !
                           ! (Angstroms and Degrees)  !
 --------------------------                            --------------------------
 ! Name  Definition              Value          Derivative Info.                !
 --------------------------------------------------------------------------------
 ! R1    R(1,3)                  1.5226         estimate D2E/DX2                !
 ! R2    R(1,6)                  1.4106         estimate D2E/DX2                !
 ! R3    R(1,14)                 1.0871         estimate D2E/DX2                !
 ! R4    R(1,15)                 1.0807         estimate D2E/DX2                !
 ! R5    R(2,9)                  1.5236         estimate D2E/DX2                !
 ! R6    R(2,11)                 1.4038         estimate D2E/DX2                !
 ! R7    R(2,12)                 1.3977         estimate D2E/DX2                !
 ! R8    R(2,16)                 1.0761         estimate D2E/DX2                !
 ! R9    R(3,12)                 1.4301         estimate D2E/DX2                !
 ! R10   R(3,13)                 1.5314         estimate D2E/DX2                !
 ! R11   R(3,17)                 1.0824         estimate D2E/DX2                !
 ! R12   R(4,7)                  1.5287         estimate D2E/DX2                !
 ! R13   R(4,8)                  1.5197         estimate D2E/DX2                !
 ! R14   R(4,18)                 1.0876         estimate D2E/DX2                !
 ! R15   R(4,19)                 1.0864         estimate D2E/DX2                !
 ! R16   R(5,6)                  1.4163         estimate D2E/DX2                !
 ! R17   R(5,10)                 1.5205         estimate D2E/DX2                !
 ! R18   R(5,20)                 1.0814         estimate D2E/DX2                !
 ! R19   R(5,21)                 1.0881         estimate D2E/DX2                !
 ! R20   R(7,9)                  1.5293         estimate D2E/DX2                !
 ! R21   R(7,22)                 1.0868         estimate D2E/DX2                !
 ! R22   R(7,23)                 1.0858         estimate D2E/DX2                !
 ! R23   R(8,11)                 1.4204         estimate D2E/DX2                !
 ! R24   R(8,24)                 1.0814         estimate D2E/DX2                !
 ! R25   R(8,25)                 1.0846         estimate D2E/DX2                !
 ! R26   R(9,26)                 1.0868         estimate D2E/DX2                !
 ! R27   R(9,27)                 1.0846         estimate D2E/DX2                !
 ! R28   R(10,13)                1.5305         estimate D2E/DX2                !
 ! R29   R(10,28)                1.0865         estimate D2E/DX2                !
 ! R30   R(10,29)                1.083          estimate D2E/DX2                !
 ! R31   R(13,30)                1.0849         estimate D2E/DX2                !
 ! R32   R(13,31)                1.0878         estimate D2E/DX2                !
 ! A1    A(3,1,6)              113.2766         estimate D2E/DX2                !
 ! A2    A(3,1,14)             107.3535         estimate D2E/DX2                !
 ! A3    A(3,1,15)             111.7397         estimate D2E/DX2                !
 ! A4    A(6,1,14)             109.1674         estimate D2E/DX2                !
 ! A5    A(6,1,15)             107.267          estimate D2E/DX2                !
 ! A6    A(14,1,15)            107.9005         estimate D2E/DX2                !
 ! A7    A(9,2,11)             110.7299         estimate D2E/DX2                !
 ! A8    A(9,2,12)             108.2224         estimate D2E/DX2                !
 ! A9    A(9,2,16)             110.2469         estimate D2E/DX2                !
 ! A10   A(11,2,12)            112.0487         estimate D2E/DX2                !
 ! A11   A(11,2,16)            104.9325         estimate D2E/DX2                !
 ! A12   A(12,2,16)            110.6581         estimate D2E/DX2                !
 ! A13   A(1,3,12)             115.4786         estimate D2E/DX2                !
 ! A14   A(1,3,13)             110.2752         estimate D2E/DX2                !
 ! A15   A(1,3,17)             106.5735         estimate D2E/DX2                !
 ! A16   A(12,3,13)            112.6842         estimate D2E/DX2                !
 ! A17   A(12,3,17)            103.074          estimate D2E/DX2                !
 ! A18   A(13,3,17)            108.0697         estimate D2E/DX2                !
 ! A19   A(7,4,8)              110.1258         estimate D2E/DX2                !
 ! A20   A(7,4,18)             109.7826         estimate D2E/DX2                !
 ! A21   A(7,4,19)             111.1355         estimate D2E/DX2                !
 ! A22   A(8,4,18)             109.1945         estimate D2E/DX2                !
 ! A23   A(8,4,19)             109.0812         estimate D2E/DX2                !
 ! A24   A(18,4,19)            107.4619         estimate D2E/DX2                !
 ! A25   A(6,5,10)             110.9595         estimate D2E/DX2                !
 ! A26   A(6,5,20)             106.3434         estimate D2E/DX2                !
 ! A27   A(6,5,21)             108.8578         estimate D2E/DX2                !
 ! A28   A(10,5,20)            111.5007         estimate D2E/DX2                !
 ! A29   A(10,5,21)            110.7046         estimate D2E/DX2                !
 ! A30   A(20,5,21)            108.324          estimate D2E/DX2                !
 ! A31   A(1,6,5)              113.1553         estimate D2E/DX2                !
 ! A32   A(4,7,9)              109.6023         estimate D2E/DX2                !
 ! A33   A(4,7,22)             109.6797         estimate D2E/DX2                !
 ! A34   A(4,7,23)             110.6014         estimate D2E/DX2                !
 ! A35   A(9,7,22)             110.1606         estimate D2E/DX2                !
 ! A36   A(9,7,23)             109.8117         estimate D2E/DX2                !
 ! A37   A(22,7,23)            106.9524         estimate D2E/DX2                !
 ! A38   A(4,8,11)             111.415          estimate D2E/DX2                !
 ! A39   A(4,8,24)             111.456          estimate D2E/DX2                !
 ! A40   A(4,8,25)             110.6003         estimate D2E/DX2                !
 ! A41   A(11,8,24)            105.6106         estimate D2E/DX2                !
 ! A42   A(11,8,25)            109.4879         estimate D2E/DX2                !
 ! A43   A(24,8,25)            108.0985         estimate D2E/DX2                !
 ! A44   A(2,9,7)              112.0883         estimate D2E/DX2                !
 ! A45   A(2,9,26)             107.2593         estimate D2E/DX2                !
 ! A46   A(2,9,27)             108.9361         estimate D2E/DX2                !
 ! A47   A(7,9,26)             109.3213         estimate D2E/DX2                !
 ! A48   A(7,9,27)             111.5632         estimate D2E/DX2                !
 ! A49   A(26,9,27)            107.4768         estimate D2E/DX2                !
 ! A50   A(5,10,13)            110.3885         estimate D2E/DX2                !
 ! A51   A(5,10,28)            109.0882         estimate D2E/DX2                !
 ! A52   A(5,10,29)            109.294          estimate D2E/DX2                !
 ! A53   A(13,10,28)           109.8964         estimate D2E/DX2                !
 ! A54   A(13,10,29)           110.7956         estimate D2E/DX2                !
 ! A55   A(28,10,29)           107.3101         estimate D2E/DX2                !
 ! A56   A(2,11,8)             116.0368         estimate D2E/DX2                !
 ! A57   A(2,12,3)             124.5611         estimate D2E/DX2                !
 ! A58   A(3,13,10)            113.5935         estimate D2E/DX2                !
 ! A59   A(3,13,30)            109.4677         estimate D2E/DX2                !
 ! A60   A(3,13,31)            106.6948         estimate D2E/DX2                !
 ! A61   A(10,13,30)           111.2334         estimate D2E/DX2                !
 ! A62   A(10,13,31)           108.6085         estimate D2E/DX2                !
 ! A63   A(30,13,31)           106.924          estimate D2E/DX2                !
 ! D1    D(6,1,3,12)           -79.4592         estimate D2E/DX2                !
 ! D2    D(6,1,3,13)            49.698          estimate D2E/DX2                !
 ! D3    D(6,1,3,17)           166.7589         estimate D2E/DX2                !
 ! D4    D(14,1,3,12)          159.9507         estimate D2E/DX2                !
 ! D5    D(14,1,3,13)          -70.8921         estimate D2E/DX2                !
 ! D6    D(14,1,3,17)           46.1688         estimate D2E/DX2                !
 ! D7    D(15,1,3,12)           41.833          estimate D2E/DX2                !
 ! D8    D(15,1,3,13)          170.9901         estimate D2E/DX2                !
 ! D9    D(15,1,3,17)          -71.949          estimate D2E/DX2                !
 ! D10   D(3,1,6,5)            -60.0043         estimate D2E/DX2                !
 ! D11   D(14,1,6,5)            59.5522         estimate D2E/DX2                !
 ! D12   D(15,1,6,5)           176.2193         estimate D2E/DX2                !
 ! D13   D(11,2,9,7)            52.2622         estimate D2E/DX2                !
 ! D14   D(11,2,9,26)          -67.7372         estimate D2E/DX2                !
 ! D15   D(11,2,9,27)          176.2186         estimate D2E/DX2                !
 ! D16   D(12,2,9,7)           -70.9108         estimate D2E/DX2                !
 ! D17   D(12,2,9,26)          169.0898         estimate D2E/DX2                !
 ! D18   D(12,2,9,27)           53.0456         estimate D2E/DX2                !
 ! D19   D(16,2,9,7)           167.9371         estimate D2E/DX2                !
 ! D20   D(16,2,9,26)           47.9376         estimate D2E/DX2                !
 ! D21   D(16,2,9,27)          -68.1066         estimate D2E/DX2                !
 ! D22   D(9,2,11,8)           -55.6829         estimate D2E/DX2                !
 ! D23   D(12,2,11,8)           65.2489         estimate D2E/DX2                !
 ! D24   D(16,2,11,8)         -174.6224         estimate D2E/DX2                !
 ! D25   D(9,2,12,3)          -152.4291         estimate D2E/DX2                !
 ! D26   D(11,2,12,3)           85.2004         estimate D2E/DX2                !
 ! D27   D(16,2,12,3)          -31.5319         estimate D2E/DX2                !
 ! D28   D(1,3,12,2)            27.1259         estimate D2E/DX2                !
 ! D29   D(13,3,12,2)         -100.8421         Frozen                          !
 ! D30   D(17,3,12,2)          142.914          estimate D2E/DX2                !
 ! D31   D(1,3,13,10)          -44.4295         estimate D2E/DX2                !
 ! D32   D(1,3,13,30)         -169.4279         estimate D2E/DX2                !
 ! D33   D(1,3,13,31)           75.2086         estimate D2E/DX2                !
 ! D34   D(12,3,13,10)          86.2213         estimate D2E/DX2                !
 ! D35   D(12,3,13,30)         -38.7771         estimate D2E/DX2                !
 ! D36   D(12,3,13,31)        -154.1405         estimate D2E/DX2                !
 ! D37   D(17,3,13,10)        -160.5583         estimate D2E/DX2                !
 ! D38   D(17,3,13,30)          74.4433         estimate D2E/DX2                !
 ! D39   D(17,3,13,31)         -40.9202         estimate D2E/DX2                !
 ! D40   D(8,4,7,9)             52.6721         estimate D2E/DX2                !
 ! D41   D(8,4,7,22)           -68.3869         estimate D2E/DX2                !
 ! D42   D(8,4,7,23)           173.8858         estimate D2E/DX2                !
 ! D43   D(18,4,7,9)           -67.5879         estimate D2E/DX2                !
 ! D44   D(18,4,7,22)          171.353          estimate D2E/DX2                !
 ! D45   D(18,4,7,23)           53.6258         estimate D2E/DX2                !
 ! D46   D(19,4,7,9)           173.6657         estimate D2E/DX2                !
 ! D47   D(19,4,7,22)           52.6066         estimate D2E/DX2                !
 ! D48   D(19,4,7,23)          -65.1206         estimate D2E/DX2                !
 ! D49   D(7,4,8,11)           -54.6988         estimate D2E/DX2                !
 ! D50   D(7,4,8,24)          -172.3909         estimate D2E/DX2                !
 ! D51   D(7,4,8,25)            67.3233         estimate D2E/DX2                !
 ! D52   D(18,4,8,11)           65.9155         estimate D2E/DX2                !
 ! D53   D(18,4,8,24)          -51.7767         estimate D2E/DX2                !
 ! D54   D(18,4,8,25)         -172.0624         estimate D2E/DX2                !
 ! D55   D(19,4,8,11)         -176.9147         estimate D2E/DX2                !
 ! D56   D(19,4,8,24)           65.3931         estimate D2E/DX2                !
 ! D57   D(19,4,8,25)          -54.8926         estimate D2E/DX2                !
 ! D58   D(10,5,6,1)            61.827          estimate D2E/DX2                !
 ! D59   D(20,5,6,1)          -176.7509         estimate D2E/DX2                !
 ! D60   D(21,5,6,1)           -60.2398         estimate D2E/DX2                !
 ! D61   D(6,5,10,13)          -54.3494         estimate D2E/DX2                !
 ! D62   D(6,5,10,28)         -175.2004         estimate D2E/DX2                !
 ! D63   D(6,5,10,29)           67.7517         estimate D2E/DX2                !
 ! D64   D(20,5,10,13)        -172.6934         estimate D2E/DX2                !
 ! D65   D(20,5,10,28)          66.4556         estimate D2E/DX2                !
 ! D66   D(20,5,10,29)         -50.5923         estimate D2E/DX2                !
 ! D67   D(21,5,10,13)          66.6346         estimate D2E/DX2                !
 ! D68   D(21,5,10,28)         -54.2164         estimate D2E/DX2                !
 ! D69   D(21,5,10,29)        -171.2643         estimate D2E/DX2                !
 ! D70   D(4,7,9,2)            -52.063          estimate D2E/DX2                !
 ! D71   D(4,7,9,26)            66.7266         estimate D2E/DX2                !
 ! D72   D(4,7,9,27)          -174.539          estimate D2E/DX2                !
 ! D73   D(22,7,9,2)            68.7051         estimate D2E/DX2                !
 ! D74   D(22,7,9,26)         -172.5054         estimate D2E/DX2                !
 ! D75   D(22,7,9,27)          -53.771          estimate D2E/DX2                !
 ! D76   D(23,7,9,2)          -173.7518         estimate D2E/DX2                !
 ! D77   D(23,7,9,26)          -54.9622         estimate D2E/DX2                !
 ! D78   D(23,7,9,27)           63.7722         estimate D2E/DX2                !
 ! D79   D(4,8,11,2)            57.7812         estimate D2E/DX2                !
 ! D80   D(24,8,11,2)          178.9488         estimate D2E/DX2                !
 ! D81   D(25,8,11,2)          -64.8819         estimate D2E/DX2                !
 ! D82   D(5,10,13,3)           47.2633         estimate D2E/DX2                !
 ! D83   D(5,10,13,30)         171.3095         estimate D2E/DX2                !
 ! D84   D(5,10,13,31)         -71.2803         estimate D2E/DX2                !
 ! D85   D(28,10,13,3)         167.6307         estimate D2E/DX2                !
 ! D86   D(28,10,13,30)        -68.3231         estimate D2E/DX2                !
 ! D87   D(28,10,13,31)         49.0871         estimate D2E/DX2                !
 ! D88   D(29,10,13,3)         -73.9492         estimate D2E/DX2                !
 ! D89   D(29,10,13,30)         50.097          estimate D2E/DX2                !
 ! D90   D(29,10,13,31)        167.5072         estimate D2E/DX2                !
 --------------------------------------------------------------------------------
 Trust Radius=3.00D-01 FncErr=1.00D-07 GrdErr=1.00D-06 EigMax=2.50D+02 EigMin=1.00D-04
 Number of steps in this run=    186 maximum allowed number of steps=    186.
 GradGradGradGradGradGradGradGradGradGradGradGradGradGradGradGradGradGrad

                          Input orientation:                          
 ---------------------------------------------------------------------
 Center     Atomic      Atomic             Coordinates (Angstroms)
 Number     Number       Type             X           Y           Z
 ---------------------------------------------------------------------
      1          6           0       -2.010867   -1.392083   -0.190861
      2          6           0        0.827672   -0.658986   -0.483657
      3          6           0       -1.196203   -0.852293    0.976758
      4          6           0        3.187205    0.965219   -0.036214
      5          6           0       -2.926638    0.707488   -0.756588
      6          8           0       -2.227285   -0.438553   -1.207586
      7          6           0        3.178480   -0.486793    0.441769
      8          6           0        1.768528    1.507886   -0.085996
      9          6           0        2.206956   -1.302311   -0.412485
     10          6           0       -2.137918    1.437736    0.318803
     11          8           0        0.925760    0.684328   -0.879177
     12          8           0        0.217101   -0.794672    0.766249
     13          6           0       -1.776573    0.480929    1.457383
     14          1           0       -2.970199   -1.715545    0.205184
     15          1           0       -1.535303   -2.247406   -0.649219
     16          1           0        0.235735   -1.130745   -1.248548
     17          1           0       -1.294968   -1.570634    1.780374
     18          1           0        3.627307    1.023269   -1.029116
     19          1           0        3.783825    1.590698    0.621906
     20          1           0       -3.082067    1.331013   -1.626407
     21          1           0       -3.899236    0.399671   -0.378139
     22          1           0        2.882475   -0.526344    1.486687
     23          1           0        4.173837   -0.915912    0.378227
     24          1           0        1.735173    2.486295   -0.545317
     25          1           0        1.356354    1.590811    0.913833
     26          1           0        2.586701   -1.364290   -1.428942
     27          1           0        2.103747   -2.316085   -0.040933
     28          1           0       -2.736508    2.259397    0.702230
     29          1           0       -1.245841    1.866632   -0.120758
     30          1           0       -1.088020    0.944058    2.156199
     31          1           0       -2.681479    0.245545    2.013380
 ---------------------------------------------------------------------
                    Distance matrix (angstroms):
                    1          2          3          4          5
     1  C    0.000000
     2  C    2.946263   0.000000
     3  C    1.522624   2.503248   0.000000
     4  C    5.709706   2.899249   4.852188   0.000000
     5  C    2.359424   4.004571   2.903758   6.161529   0.000000
     6  O    1.410598   3.147289   2.450647   5.714839   1.416299
     7  C    5.305572   2.532264   4.422404   1.528687   6.335206
     8  C    4.764939   2.395554   3.935673   1.519740   4.809877
     9  C    4.224595   1.523600   3.703242   2.498832   5.523720
    10  C    2.878155   3.719531   2.562024   5.357821   1.520463
    11  O    3.661836   1.403763   3.210674   2.429737   3.854418
    12  O    2.497359   1.397667   1.430057   3.544387   3.802448
    13  C    2.505948   3.442257   1.531441   5.206194   2.505124
    14  H    1.087105   4.001830   2.118394   6.719999   2.607296
    15  H    1.080662   2.852041   2.169131   5.744460   3.267834
    16  H    2.496842   1.076106   2.660821   3.817590   3.690763
    17  H    2.104794   3.234585   1.082389   5.460807   3.779995
    18  H    6.190768   3.311414   5.550452   1.087618   6.567205
    19  H    6.567802   3.875847   5.558309   1.086417   6.907287
    20  H    3.259373   4.533435   3.885843   6.478139   1.081447
    21  H    2.609865   4.845157   3.272544   7.117191   1.088082
    22  H    5.244851   2.849924   4.123334   2.153334   6.348261
    23  H    6.229058   3.464921   5.403667   2.164222   7.371565
    24  H    5.403727   3.274164   4.696365   2.163621   4.994124
    25  H    4.632082   2.700754   3.533874   2.155451   4.681302
    26  H    4.761433   2.117829   4.512194   2.779732   5.928004
    27  H    4.219752   2.137837   3.750740   3.455555   5.912608
    28  H    3.828508   4.756750   3.482890   6.108238   2.138392
    29  H    3.348045   3.287841   2.932500   4.524554   2.138451
    30  H    3.437716   3.634345   2.151665   4.804651   3.452653
    31  H    2.826698   4.400853   2.117989   6.257813   2.818904
                    6          7          8          9         10
     6  O    0.000000
     7  C    5.651990   0.000000
     8  C    4.584006   2.499049   0.000000
     9  C    4.587020   1.529274   2.862869   0.000000
    10  C    2.420395   5.655353   3.927990   5.188504   0.000000
    11  O    3.363095   2.862022   1.420437   2.409564   3.374745
    12  O    3.161941   2.994970   2.904311   2.367833   3.275663
    13  C    2.854934   5.149807   4.000550   4.748142   1.530495
    14  H    2.044150   6.274716   5.738539   5.230221   3.263247
    15  H    2.015580   5.148763   5.033362   3.867008   3.857523
    16  H    2.558764   3.454214   3.265479   2.148057   3.832481
    17  H    3.328472   4.793570   4.727116   4.140543   3.449209
    18  H    6.036971   2.155281   2.139951   2.793914   5.935191
    19  H    6.602904   2.171373   2.137617   3.453401   5.931468
    20  H    2.009335   6.839314   5.092389   6.031730   2.164867
    21  H    2.045977   7.179981   5.782477   6.339046   2.159988
    22  H    5.777236   1.086755   2.802196   2.159932   5.515969
    23  H    6.611886   1.085779   3.446130   2.154797   6.736575
    24  H    4.969347   3.449163   1.081375   3.820178   4.104511
    25  H    4.632624   2.803467   1.084630   3.294359   3.547877
    26  H    4.907183   2.149363   3.274493   1.086845   5.764372
    27  H    4.862514   2.175859   3.838900   1.084639   5.675588
    28  H    3.344494   6.526598   4.634805   6.194045   1.086487
    29  H    2.730990   5.042783   3.035841   4.695648   1.083036
    30  H    3.811114   4.815561   3.674943   4.743541   2.173023
    31  H    3.323989   6.111088   5.079709   5.672519   2.142048
                   11         12         13         14         15
    11  O    0.000000
    12  O    2.323158   0.000000
    13  C    3.578196   2.465676   0.000000
    14  H    4.702523   3.364771   2.795933   0.000000
    15  H    3.834681   2.680467   3.455401   1.752657   0.000000
    16  H    1.976628   2.042719   3.737504   3.568381   2.177775
    17  H    4.133969   1.979121   2.131942   2.304045   2.533516
    18  H    2.726851   4.261191   5.973167   7.249254   6.123249
    19  H    3.353102   4.293291   5.731286   7.531384   6.681312
    20  H    4.127860   4.596504   3.454956   3.556509   4.019012
    21  H    4.859285   4.436249   2.807391   2.382753   3.559309
    22  H    3.300269   2.774031   4.766779   6.108211   5.200088
    23  H    3.832993   3.977565   6.206700   7.190731   5.951706
    24  H    2.003421   3.845711   4.512722   6.352892   5.754540
    25  H    2.054752   2.647680   3.367865   5.491196   5.053387
    26  H    2.694031   3.279990   5.547420   5.802834   4.287048
    27  H    3.330583   2.554540   5.012497   5.115286   3.690178
    28  H    4.288811   4.249146   2.157471   4.012709   4.855984
    29  H    2.586289   3.163782   2.166190   3.988940   4.157928
    30  H    3.651887   2.580404   1.084868   3.797703   4.272689
    31  H    4.644523   3.322522   1.087839   2.683059   3.823344
                   16         17         18         19         20
    16  H    0.000000
    17  H    3.422123   0.000000
    18  H    4.023765   6.233006   0.000000
    19  H    4.847040   6.093456   1.752811   0.000000
    20  H    4.148595   4.818655   6.742934   7.229303   0.000000
    21  H    4.494193   3.914523   7.580336   7.838881   1.758788
    22  H    3.853835   4.315996   3.047186   2.458077   6.979749
    23  H    4.266286   5.683529   2.457587   2.548447   7.855913
    24  H    3.978169   5.572187   2.440221   2.522197   5.070427
    25  H    3.652197   4.216057   3.042102   2.444962   5.120537
    26  H    2.369415   5.040798   2.634988   3.790915   6.280014
    27  H    2.520483   3.927355   3.801187   4.304064   6.535114
    28  H    4.912517   4.231970   6.709971   6.555025   2.530585
    29  H    3.528632   3.928297   5.028315   5.091682   2.434254
    30  H    4.201123   2.551029   5.690941   5.148502   4.293491
    31  H    4.587427   2.296783   7.047157   6.748762   3.819262
                   21         22         23         24         25
    21  H    0.000000
    22  H    7.094130   0.000000
    23  H    8.214460   1.745870   0.000000
    24  H    6.010700   3.810687   4.286610   0.000000
    25  H    5.541591   2.671994   3.809035   1.753429   0.000000
    26  H    6.803170   3.048037   2.446611   4.041398   3.966733
    27  H    6.597336   2.478551   2.534058   4.842840   4.090723
    28  H    2.444936   6.320498   7.611861   4.647987   4.152506
    29  H    3.042815   5.035197   6.112646   3.074195   2.813872
    30  H    3.823894   4.286626   5.857287   4.200845   2.817220
    31  H    2.688131   5.641879   7.142693   5.574469   4.395775
                   26         27         28         29         30
    26  H    0.000000
    27  H    1.750922   0.000000
    28  H    6.783034   6.701895   0.000000
    29  H    5.180597   5.359219   1.747473   0.000000
    30  H    5.628968   5.063921   2.561573   2.461825   0.000000
    31  H    6.495758   5.803494   2.403693   3.040317   1.745689
                   31
    31  H    0.000000
 Stoichiometry    C10H18O3
 Framework group  C1[X(C10H18O3)]
 Deg. of freedom    87
 Full point group                 C1      NOp   1
 Largest Abelian subgroup         C1      NOp   1
 Largest concise Abelian subgroup C1      NOp   1
                         Standard orientation:                         
 ---------------------------------------------------------------------
 Center     Atomic      Atomic             Coordinates (Angstroms)
 Number     Number       Type             X           Y           Z
 ---------------------------------------------------------------------
      1          6           0       -2.010867   -1.392083   -0.190861
      2          6           0        0.827672   -0.658986   -0.483657
      3          6           0       -1.196203   -0.852293    0.976758
      4          6           0        3.187205    0.965219   -0.036214
      5          6           0       -2.926638    0.707488   -0.756588
      6          8           0       -2.227285   -0.438553   -1.207586
      7          6           0        3.178480   -0.486793    0.441769
      8          6           0        1.768528    1.507886   -0.085996
      9          6           0        2.206956   -1.302311   -0.412485
     10          6           0       -2.137918    1.437736    0.318803
     11          8           0        0.925760    0.684328   -0.879177
     12          8           0        0.217101   -0.794672    0.766249
     13          6           0       -1.776573    0.480929    1.457383
     14          1           0       -2.970199   -1.715545    0.205184
     15          1           0       -1.535303   -2.247406   -0.649219
     16          1           0        0.235735   -1.130745   -1.248548
     17          1           0       -1.294968   -1.570634    1.780374
     18          1           0        3.627307    1.023269   -1.029116
     19          1           0        3.783825    1.590698    0.621906
     20          1           0       -3.082067    1.331013   -1.626407
     21          1           0       -3.899236    0.399671   -0.378139
     22          1           0        2.882475   -0.526344    1.486687
     23          1           0        4.173837   -0.915912    0.378227
     24          1           0        1.735173    2.486295   -0.545317
     25          1           0        1.356354    1.590811    0.913833
     26          1           0        2.586701   -1.364290   -1.428942
     27          1           0        2.103747   -2.316085   -0.040933
     28          1           0       -2.736508    2.259397    0.702230
     29          1           0       -1.245841    1.866632   -0.120758
     30          1           0       -1.088020    0.944058    2.156199
     31          1           0       -2.681479    0.245545    2.013380
 ---------------------------------------------------------------------
 Rotational constants (GHZ):           1.5824623           0.5322141           0.4931242
 Standard basis: 6-311++G(2d,2p) (5D, 7F)
 There are   557 symmetry adapted cartesian basis functions of A   symmetry.
 There are   531 symmetry adapted basis functions of A   symmetry.
   531 basis functions,   762 primitive gaussians,   557 cartesian basis functions
    51 alpha electrons       51 beta electrons
       nuclear repulsion energy       922.1157357460 Hartrees.
 NAtoms=   31 NActive=   31 NUniq=   31 SFac= 1.00D+00 NAtFMM=   60 NAOKFM=F Big=F
 Integral buffers will be    131072 words long.
 Raffenetti 2 integral format.
 Two-electron integral symmetry is turned on.
 ------------------------------------------------------------------------------
 Polarizable Continuum Model (PCM)
 =================================
 Model                : PCM.
 Atomic radii         : SMD-Coulomb.
 Polarization charges : Total charges.
 Charge compensation  : None.
 Solution method      : On-the-fly selection.
 Cavity type          : VdW (van der Waals Surface) (Alpha=1.000).
 Cavity algorithm     : GePol (No added spheres)
                        Default sphere list used, NSphG=   31.
                        Lebedev-Laikov grids with approx.  5.0 points / Ang**2.
                        Smoothing algorithm: York/Karplus (Gamma=1.0000).
                        Polarization charges: spherical gaussians, with
                                              point-specific exponents (IZeta= 3).
                        Self-potential: point-specific (ISelfS= 7).
                        Self-field    : sphere-specific E.n sum rule (ISelfD= 2).
 1st derivatives      : Analytical E(r).r(x)/FMM algorithm (CHGder, D1EAlg=3).
                        Cavity 1st derivative terms included.
 Solvent              : Water, Eps=  78.355300 Eps(inf)=   1.777849
 ------------------------------------------------------------------------------
 ------------------------------------------------------------------------------
 Atomic radii for non-electrostatic terms: SMD-CDS.
 ------------------------------------------------------------------------------
 Nuclear repulsion after PCM non-electrostatic terms =      922.1218877839 Hartrees.
 One-electron integrals computed using PRISM.
 NBasis=   531 RedAO= T EigKep=  3.85D-06  NBF=   531
 NBsUse=   531 1.00D-06 EigRej= -1.00D+00 NBFU=   531
 ExpMin= 3.60D-02 ExpMax= 8.59D+03 ExpMxC= 1.30D+03 IAcc=3 IRadAn=         5 AccDes= 0.00D+00
 Harris functional with IExCor= 1009 and IRadAn=       5 diagonalized for initial guess.
 HarFok:  IExCor= 1009 AccDes= 0.00D+00 IRadAn=         5 IDoV= 1 UseB2=F ITyADJ=14
 ICtDFT=  3500011 ScaDFX=  1.000000  1.000000  1.000000  1.000000
 FoFCou: FMM=F IPFlag=           0 FMFlag=      100000 FMFlg1=           0
         NFxFlg=           0 DoJE=T BraDBF=F KetDBF=T FulRan=T
         wScrn=  0.000000 ICntrl=       500 IOpCl=  0 I1Cent=   200000004 NGrid=           0
         NMat0=    1 NMatS0=      1 NMatT0=    0 NMatD0=    1 NMtDS0=    0 NMtDT0=    0
 Petite list used in FoFCou.
 Requested convergence on RMS density matrix=1.00D-08 within 128 cycles.
 Requested convergence on MAX density matrix=1.00D-06.
 Requested convergence on             energy=1.00D-06.
 No special actions if energy rises.
 Inv3:  Mode=1 IEnd=    12168588.
 Iteration    1 A*A^-1 deviation from unit magnitude is 7.55D-15 for    217.
 Iteration    1 A*A^-1 deviation from orthogonality  is 5.82D-15 for   1854    970.
 Iteration    1 A^-1*A deviation from unit magnitude is 6.33D-15 for    756.
 Iteration    1 A^-1*A deviation from orthogonality  is 1.26D-14 for   1137   1136.
 Error on total polarization charges =  0.05957
 SCF Done:  E(RM062X) =  -617.499137170     A.U. after   13 cycles
            NFock= 13  Conv=0.18D-08     -V/T= 2.0035
 SMD-CDS (non-electrostatic) energy       (kcal/mol) =       3.86
 (included in total energy above)

 **********************************************************************

            Population analysis using the SCF Density.

 **********************************************************************

 Orbital symmetries:
       Occupied  (A) (A) (A) (A) (A) (A) (A) (A) (A) (A) (A) (A)
                 (A) (A) (A) (A) (A) (A) (A) (A) (A) (A) (A) (A)
                 (A) (A) (A) (A) (A) (A) (A) (A) (A) (A) (A) (A)
                 (A) (A) (A) (A) (A) (A) (A) (A) (A) (A) (A) (A)
                 (A) (A) (A)
       Virtual   (A) (A) (A) (A) (A) (A) (A) (A) (A) (A) (A) (A)
                 (A) (A) (A) (A) (A) (A) (A) (A) (A) (A) (A) (A)
                 (A) (A) (A) (A) (A) (A) (A) (A) (A) (A) (A) (A)
                 (A) (A) (A) (A) (A) (A) (A) (A) (A) (A) (A) (A)
                 (A) (A) (A) (A) (A) (A) (A) (A) (A) (A) (A) (A)
                 (A) (A) (A) (A) (A) (A) (A) (A) (A) (A) (A) (A)
                 (A) (A) (A) (A) (A) (A) (A) (A) (A) (A) (A) (A)
                 (A) (A) (A) (A) (A) (A) (A) (A) (A) (A) (A) (A)
                 (A) (A) (A) (A) (A) (A) (A) (A) (A) (A) (A) (A)
                 (A) (A) (A) (A) (A) (A) (A) (A) (A) (A) (A) (A)
                 (A) (A) (A) (A) (A) (A) (A) (A) (A) (A) (A) (A)
                 (A) (A) (A) (A) (A) (A) (A) (A) (A) (A) (A) (A)
                 (A) (A) (A) (A) (A) (A) (A) (A) (A) (A) (A) (A)
                 (A) (A) (A) (A) (A) (A) (A) (A) (A) (A) (A) (A)
                 (A) (A) (A) (A) (A) (A) (A) (A) (A) (A) (A) (A)
                 (A) (A) (A) (A) (A) (A) (A) (A) (A) (A) (A) (A)
                 (A) (A) (A) (A) (A) (A) (A) (A) (A) (A) (A) (A)
                 (A) (A) (A) (A) (A) (A) (A) (A) (A) (A) (A) (A)
                 (A) (A) (A) (A) (A) (A) (A) (A) (A) (A) (A) (A)
                 (A) (A) (A) (A) (A) (A) (A) (A) (A) (A) (A) (A)
                 (A) (A) (A) (A) (A) (A) (A) (A) (A) (A) (A) (A)
                 (A) (A) (A) (A) (A) (A) (A) (A) (A) (A) (A) (A)
                 (A) (A) (A) (A) (A) (A) (A) (A) (A) (A) (A) (A)
                 (A) (A) (A) (A) (A) (A) (A) (A) (A) (A) (A) (A)
                 (A) (A) (A) (A) (A) (A) (A) (A) (A) (A) (A) (A)
                 (A) (A) (A) (A) (A) (A) (A) (A) (A) (A) (A) (A)
                 (A) (A) (A) (A) (A) (A) (A) (A) (A) (A) (A) (A)
                 (A) (A) (A) (A) (A) (A) (A) (A) (A) (A) (A) (A)
                 (A) (A) (A) (A) (A) (A) (A) (A) (A) (A) (A) (A)
                 (A) (A) (A) (A) (A) (A) (A) (A) (A) (A) (A) (A)
                 (A) (A) (A) (A) (A) (A) (A) (A) (A) (A) (A) (A)
                 (A) (A) (A) (A) (A) (A) (A) (A) (A) (A) (A) (A)
                 (A) (A) (A) (A) (A) (A) (A) (A) (A) (A) (A) (A)
                 (A) (A) (A) (A) (A) (A) (A) (A) (A) (A) (A) (A)
                 (A) (A) (A) (A) (A) (A) (A) (A) (A) (A) (A) (A)
                 (A) (A) (A) (A) (A) (A) (A) (A) (A) (A) (A) (A)
                 (A) (A) (A) (A) (A) (A) (A) (A) (A) (A) (A) (A)
                 (A) (A) (A) (A) (A) (A) (A) (A) (A) (A) (A) (A)
                 (A) (A) (A) (A) (A) (A) (A) (A) (A) (A) (A) (A)
                 (A) (A) (A) (A) (A) (A) (A) (A) (A) (A) (A) (A)
 The electronic state is 1-A.
 Alpha  occ. eigenvalues --  -19.62803 -19.62650 -19.62571 -10.62874 -10.58451
 Alpha  occ. eigenvalues --  -10.57571 -10.57122 -10.57027 -10.52379 -10.52230
 Alpha  occ. eigenvalues --  -10.52170 -10.52031 -10.52012  -1.19679  -1.16595
 Alpha  occ. eigenvalues --   -1.13191  -0.90320  -0.89009  -0.86796  -0.84537
 Alpha  occ. eigenvalues --   -0.74923  -0.73626  -0.72869  -0.70725  -0.65928
 Alpha  occ. eigenvalues --   -0.62029  -0.59102  -0.58467  -0.57205  -0.54989
 Alpha  occ. eigenvalues --   -0.54439  -0.52506  -0.51313  -0.50615  -0.49781
 Alpha  occ. eigenvalues --   -0.48411  -0.45872  -0.45526  -0.45191  -0.44943
 Alpha  occ. eigenvalues --   -0.42742  -0.42331  -0.41222  -0.39604  -0.39052
 Alpha  occ. eigenvalues --   -0.37717  -0.36800  -0.36443  -0.33586  -0.32964
 Alpha  occ. eigenvalues --   -0.31583
 Alpha virt. eigenvalues --    0.00272   0.01244   0.01453   0.01507   0.02767
 Alpha virt. eigenvalues --    0.03023   0.03210   0.03662   0.03807   0.05158
 Alpha virt. eigenvalues --    0.05249   0.05644   0.06035   0.06133   0.07775
 Alpha virt. eigenvalues --    0.08005   0.08234   0.08881   0.09458   0.09813
 Alpha virt. eigenvalues --    0.10549   0.11014   0.11803   0.11972   0.12437
 Alpha virt. eigenvalues --    0.12964   0.13363   0.13586   0.13749   0.14083
 Alpha virt. eigenvalues --    0.14199   0.14817   0.14893   0.15291   0.15434
 Alpha virt. eigenvalues --    0.15695   0.15934   0.16123   0.16430   0.16685
 Alpha virt. eigenvalues --    0.17072   0.17264   0.18027   0.18354   0.18511
 Alpha virt. eigenvalues --    0.18604   0.19046   0.19348   0.19621   0.19981
 Alpha virt. eigenvalues --    0.20294   0.20588   0.21225   0.21424   0.22856
 Alpha virt. eigenvalues --    0.23256   0.23665   0.23860   0.24341   0.24847
 Alpha virt. eigenvalues --    0.25174   0.25519   0.26612   0.27422   0.27659
 Alpha virt. eigenvalues --    0.28048   0.28565   0.28631   0.29811   0.30154
 Alpha virt. eigenvalues --    0.30183   0.30659   0.31464   0.31879   0.32481
 Alpha virt. eigenvalues --    0.33201   0.33592   0.34452   0.34984   0.35482
 Alpha virt. eigenvalues --    0.35998   0.36081   0.36386   0.36704   0.37089
 Alpha virt. eigenvalues --    0.37154   0.37526   0.38073   0.38580   0.38797
 Alpha virt. eigenvalues --    0.39077   0.39393   0.40676   0.41577   0.41985
 Alpha virt. eigenvalues --    0.42223   0.43417   0.43915   0.44269   0.45674
 Alpha virt. eigenvalues --    0.47015   0.49064   0.49708   0.49789   0.52037
 Alpha virt. eigenvalues --    0.53409   0.53944   0.54628   0.55620   0.57305
 Alpha virt. eigenvalues --    0.57901   0.58608   0.59299   0.60067   0.60732
 Alpha virt. eigenvalues --    0.60815   0.60934   0.61435   0.62198   0.62566
 Alpha virt. eigenvalues --    0.62992   0.63644   0.64495   0.64587   0.65289
 Alpha virt. eigenvalues --    0.65349   0.66214   0.67053   0.67446   0.67728
 Alpha virt. eigenvalues --    0.68101   0.69371   0.70239   0.70781   0.71671
 Alpha virt. eigenvalues --    0.71913   0.72451   0.73424   0.73688   0.74050
 Alpha virt. eigenvalues --    0.74354   0.74877   0.75622   0.76126   0.76592
 Alpha virt. eigenvalues --    0.77323   0.78099   0.78331   0.79238   0.80390
 Alpha virt. eigenvalues --    0.81126   0.82175   0.84033   0.85921   0.86435
 Alpha virt. eigenvalues --    0.87326   0.88191   0.88817   0.89790   0.90229
 Alpha virt. eigenvalues --    0.92077   0.93280   0.94061   0.96804   0.97511
 Alpha virt. eigenvalues --    0.99015   0.99717   0.99988   1.00497   1.02513
 Alpha virt. eigenvalues --    1.03213   1.04398   1.05150   1.05634   1.06485
 Alpha virt. eigenvalues --    1.07417   1.08826   1.10726   1.12026   1.13677
 Alpha virt. eigenvalues --    1.14462   1.15022   1.16587   1.16853   1.16973
 Alpha virt. eigenvalues --    1.18516   1.18703   1.19553   1.21018   1.21692
 Alpha virt. eigenvalues --    1.22170   1.22872   1.23737   1.24029   1.25176
 Alpha virt. eigenvalues --    1.25562   1.25917   1.26940   1.28178   1.29743
 Alpha virt. eigenvalues --    1.30092   1.30733   1.31575   1.32148   1.33248
 Alpha virt. eigenvalues --    1.34076   1.34404   1.35432   1.35791   1.36311
 Alpha virt. eigenvalues --    1.37184   1.37568   1.38774   1.39269   1.40111
 Alpha virt. eigenvalues --    1.40417   1.40823   1.41325   1.42298   1.42862
 Alpha virt. eigenvalues --    1.43315   1.43988   1.44647   1.45035   1.46834
 Alpha virt. eigenvalues --    1.47055   1.47860   1.48182   1.49205   1.50161
 Alpha virt. eigenvalues --    1.50578   1.51174   1.51332   1.52962   1.53594
 Alpha virt. eigenvalues --    1.53887   1.54610   1.55258   1.56256   1.56828
 Alpha virt. eigenvalues --    1.58444   1.58500   1.59187   1.59472   1.60056
 Alpha virt. eigenvalues --    1.60296   1.60955   1.61611   1.62893   1.63755
 Alpha virt. eigenvalues --    1.65055   1.66655   1.67185   1.67306   1.68307
 Alpha virt. eigenvalues --    1.68965   1.69494   1.70768   1.72339   1.73156
 Alpha virt. eigenvalues --    1.73973   1.74948   1.76724   1.77892   1.78056
 Alpha virt. eigenvalues --    1.79780   1.80602   1.81713   1.83530   1.86408
 Alpha virt. eigenvalues --    1.88021   1.89988   1.90946   1.95934   1.99120
 Alpha virt. eigenvalues --    2.00087   2.06778   2.15770   2.16319   2.20172
 Alpha virt. eigenvalues --    2.25941   2.27782   2.30093   2.34462   2.40554
 Alpha virt. eigenvalues --    2.42514   2.43619   2.45876   2.47950   2.54197
 Alpha virt. eigenvalues --    2.62421   2.77585   2.79728   2.81896   2.82917
 Alpha virt. eigenvalues --    2.85461   2.87227   2.93295   2.94407   2.96247
 Alpha virt. eigenvalues --    2.97027   2.98420   2.99153   3.02775   3.04490
 Alpha virt. eigenvalues --    3.07915   3.08797   3.09905   3.11830   3.13217
 Alpha virt. eigenvalues --    3.13844   3.16829   3.18367   3.19108   3.23095
 Alpha virt. eigenvalues --    3.25547   3.28772   3.31646   3.34430   3.34986
 Alpha virt. eigenvalues --    3.36615   3.37551   3.39070   3.40285   3.40850
 Alpha virt. eigenvalues --    3.43774   3.44454   3.45456   3.46481   3.47448
 Alpha virt. eigenvalues --    3.49579   3.50933   3.51665   3.51993   3.53441
 Alpha virt. eigenvalues --    3.54256   3.54487   3.55756   3.56897   3.57074
 Alpha virt. eigenvalues --    3.57360   3.58278   3.58990   3.59587   3.60012
 Alpha virt. eigenvalues --    3.60895   3.62029   3.62841   3.64099   3.66137
 Alpha virt. eigenvalues --    3.67750   3.68960   3.69271   3.70039   3.70550
 Alpha virt. eigenvalues --    3.71217   3.72450   3.73544   3.74190   3.75054
 Alpha virt. eigenvalues --    3.75784   3.76540   3.76920   3.78166   3.78607
 Alpha virt. eigenvalues --    3.79728   3.81548   3.82882   3.84660   3.85308
 Alpha virt. eigenvalues --    3.86606   3.88807   3.90977   3.91214   3.92341
 Alpha virt. eigenvalues --    3.93752   3.94317   3.95054   3.97251   3.97928
 Alpha virt. eigenvalues --    4.00434   4.00473   4.02135   4.04196   4.05178
 Alpha virt. eigenvalues --    4.06785   4.06998   4.07508   4.07980   4.08181
 Alpha virt. eigenvalues --    4.09107   4.09812   4.10389   4.11921   4.12446
 Alpha virt. eigenvalues --    4.13188   4.14931   4.15889   4.16094   4.17193
 Alpha virt. eigenvalues --    4.17652   4.18605   4.19116   4.20154   4.22087
 Alpha virt. eigenvalues --    4.22488   4.24144   4.25959   4.27030   4.29258
 Alpha virt. eigenvalues --    4.30106   4.31380   4.32429   4.33317   4.33844
 Alpha virt. eigenvalues --    4.34495   4.34848   4.36115   4.38804   4.39905
 Alpha virt. eigenvalues --    4.42080   4.43257   4.44541   4.47112   4.48057
 Alpha virt. eigenvalues --    4.58759   4.60856   4.74733   4.76416   4.81418
 Alpha virt. eigenvalues --    4.86503   4.94562   4.96256   5.02450   5.04004
 Alpha virt. eigenvalues --    5.07451   5.08467   5.08563   5.09684   5.12668
 Alpha virt. eigenvalues --    5.13318   5.14701   5.16523   5.34757   5.41571
 Alpha virt. eigenvalues --    5.43098   5.58225   5.61921   5.66830   5.86075
 Alpha virt. eigenvalues --    5.87633   6.02484   6.99745   7.05877   7.07442
 Alpha virt. eigenvalues --    7.09896   7.11602   7.12259   7.15054   7.19071
 Alpha virt. eigenvalues --    7.29964   7.37407   7.43011   7.47347   7.52792
 Alpha virt. eigenvalues --    7.53715   7.63373  23.97387  23.98149  24.07185
 Alpha virt. eigenvalues --   24.09907  24.10827  24.12622  24.14593  24.15934
 Alpha virt. eigenvalues --   24.17105  24.20187  50.17123  50.18618  50.26723
          Condensed to atoms (all electrons):
               1          2          3          4          5          6
     1  C    6.580552   0.096412  -1.366132  -0.000119  -0.287650   0.091779
     2  C    0.096412   7.254931  -0.803211   0.352256  -0.013614  -0.017310
     3  C   -1.366132  -0.803211   8.327170  -0.090397   0.235877   0.051512
     4  C   -0.000119   0.352256  -0.090397   6.016524   0.015778  -0.001559
     5  C   -0.287650  -0.013614   0.235877   0.015778   5.692794   0.038625
     6  O    0.091779  -0.017310   0.051512  -0.001559   0.038625   8.340999
     7  C    0.034275  -0.175164   0.001336  -0.017118  -0.005486  -0.003371
     8  C   -0.009067  -0.454544   0.135419  -0.277247  -0.000975   0.005466
     9  C   -0.044151  -1.131564   0.124090  -0.216825  -0.033237   0.024262
    10  C   -0.006366  -0.032831   0.189225  -0.055749  -0.162706   0.067004
    11  O   -0.030547   0.225155   0.069816  -0.107241  -0.009569   0.020300
    12  O    0.087216   0.256206  -0.141411  -0.000323  -0.013678  -0.018619
    13  C    0.624449   0.324950  -1.603484   0.095356  -0.025597  -0.017678
    14  H    0.417576  -0.018223   0.070960   0.000113   0.000922  -0.049841
    15  H    0.440326   0.036781  -0.072494  -0.003096   0.003943  -0.069208
    16  H   -0.055773   0.512381   0.019596   0.034502   0.008060  -0.007038
    17  H   -0.042689  -0.020050   0.489191  -0.003537  -0.014080   0.005863
    18  H   -0.000415  -0.003547  -0.003977   0.492304  -0.000535  -0.000012
    19  H    0.000210   0.003106   0.002517   0.436127   0.000147  -0.000069
    20  H   -0.012014  -0.000436   0.027779  -0.000367   0.462430  -0.065917
    21  H   -0.058784  -0.006561   0.101377  -0.000139   0.465222  -0.064134
    22  H    0.000862  -0.034894  -0.006907  -0.059772   0.000817  -0.000220
    23  H   -0.002508   0.012869   0.006094  -0.017111  -0.000142   0.000082
    24  H    0.001419   0.000244  -0.000697  -0.011310   0.003875   0.000004
    25  H   -0.002645  -0.036240  -0.003569  -0.084842   0.000626   0.000520
    26  H    0.004643  -0.172351   0.001597  -0.016573   0.001139  -0.000819
    27  H    0.002213  -0.032445   0.009824  -0.013787   0.000651   0.000566
    28  H   -0.008592   0.004963   0.001871   0.002588  -0.033110   0.012459
    29  H    0.036062  -0.028198   0.005982  -0.024030  -0.122145  -0.017840
    30  H   -0.017535   0.007199  -0.048666   0.006887   0.002141   0.000359
    31  H    0.002134   0.001954  -0.075650  -0.000143  -0.017380  -0.002601
               7          8          9         10         11         12
     1  C    0.034275  -0.009067  -0.044151  -0.006366  -0.030547   0.087216
     2  C   -0.175164  -0.454544  -1.131564  -0.032831   0.225155   0.256206
     3  C    0.001336   0.135419   0.124090   0.189225   0.069816  -0.141411
     4  C   -0.017118  -0.277247  -0.216825  -0.055749  -0.107241  -0.000323
     5  C   -0.005486  -0.000975  -0.033237  -0.162706  -0.009569  -0.013678
     6  O   -0.003371   0.005466   0.024262   0.067004   0.020300  -0.018619
     7  C    5.730319  -0.026983  -0.080809  -0.008664   0.008620  -0.003252
     8  C   -0.026983   5.632420   0.223159   0.084100   0.100443  -0.017785
     9  C   -0.080809   0.223159   6.967590   0.022211  -0.056529  -0.076906
    10  C   -0.008664   0.084100   0.022211   5.835501  -0.022090  -0.046815
    11  O    0.008620   0.100443  -0.056529  -0.022090   8.267312  -0.049774
    12  O   -0.003252  -0.017785  -0.076906  -0.046815  -0.049774   8.382724
    13  C    0.028041  -0.130034  -0.046681  -0.418905   0.013458   0.084213
    14  H    0.001385   0.000917   0.005582   0.018596   0.000491  -0.004638
    15  H   -0.001339   0.004701  -0.004878   0.008542  -0.000194  -0.000780
    16  H   -0.029043  -0.033549  -0.084211  -0.006749  -0.073062  -0.024832
    17  H    0.003033   0.001216  -0.002281   0.007345   0.003287  -0.050183
    18  H   -0.013992  -0.089370  -0.013345  -0.000115   0.003310   0.000257
    19  H   -0.047745  -0.030359  -0.002427   0.000832   0.010896  -0.000341
    20  H   -0.000085   0.000436  -0.001925  -0.060803  -0.000679  -0.001380
    21  H   -0.000288   0.001188  -0.001321   0.003452   0.000790  -0.002032
    22  H    0.530554  -0.004004  -0.049583  -0.001909   0.003080   0.000862
    23  H    0.417496   0.005970  -0.041344  -0.000220  -0.006673   0.000163
    24  H    0.008568   0.429380  -0.005720  -0.005414  -0.069706   0.000631
    25  H   -0.007946   0.493266   0.030126   0.014020  -0.022822   0.008543
    26  H   -0.000540   0.012079   0.545058  -0.001629  -0.002277   0.011434
    27  H   -0.035718   0.013185   0.422598   0.000493   0.011490  -0.005064
    28  H    0.000001  -0.002094   0.001305   0.421910   0.003657   0.000198
    29  H    0.001935   0.014813   0.002808   0.550175  -0.004708   0.000394
    30  H   -0.003043  -0.005601   0.005914  -0.019784   0.002420  -0.008370
    31  H    0.000843  -0.000300  -0.001730  -0.037798  -0.002357   0.005086
              13         14         15         16         17         18
     1  C    0.624449   0.417576   0.440326  -0.055773  -0.042689  -0.000415
     2  C    0.324950  -0.018223   0.036781   0.512381  -0.020050  -0.003547
     3  C   -1.603484   0.070960  -0.072494   0.019596   0.489191  -0.003977
     4  C    0.095356   0.000113  -0.003096   0.034502  -0.003537   0.492304
     5  C   -0.025597   0.000922   0.003943   0.008060  -0.014080  -0.000535
     6  O   -0.017678  -0.049841  -0.069208  -0.007038   0.005863  -0.000012
     7  C    0.028041   0.001385  -0.001339  -0.029043   0.003033  -0.013992
     8  C   -0.130034   0.000917   0.004701  -0.033549   0.001216  -0.089370
     9  C   -0.046681   0.005582  -0.004878  -0.084211  -0.002281  -0.013345
    10  C   -0.418905   0.018596   0.008542  -0.006749   0.007345  -0.000115
    11  O    0.013458   0.000491  -0.000194  -0.073062   0.003287   0.003310
    12  O    0.084213  -0.004638  -0.000780  -0.024832  -0.050183   0.000257
    13  C    7.037108  -0.086714   0.007403  -0.003490  -0.054853   0.002306
    14  H   -0.086714   0.457506  -0.007093   0.000728  -0.000276  -0.000073
    15  H    0.007403  -0.007093   0.465443  -0.012496  -0.012510  -0.000112
    16  H   -0.003490   0.000728  -0.012496   0.451706  -0.002227   0.000027
    17  H   -0.054853  -0.000276  -0.012510  -0.002227   0.443058  -0.000021
    18  H    0.002306  -0.000073  -0.000112   0.000027  -0.000021   0.477074
    19  H   -0.001776   0.000027   0.000034   0.001002  -0.000033  -0.012755
    20  H    0.000831  -0.000159   0.001471   0.000356   0.000640  -0.000023
    21  H   -0.090660   0.002512  -0.002541   0.000342   0.004243  -0.000020
    22  H    0.006109  -0.000188   0.000039  -0.004293  -0.000348   0.001510
    23  H   -0.000518   0.000065  -0.000225   0.002592   0.000346  -0.000339
    24  H    0.001443   0.000076  -0.000069  -0.000454  -0.000180  -0.006316
    25  H   -0.013786   0.000052  -0.000005  -0.001803   0.000094   0.002491
    26  H    0.001756   0.000093   0.000976  -0.016010  -0.000453  -0.001654
    27  H   -0.008462   0.000436  -0.001351  -0.010867   0.000543  -0.001999
    28  H   -0.023225   0.000128   0.000948  -0.000909   0.000457   0.000119
    29  H   -0.069320  -0.001604  -0.000047   0.000644   0.002714   0.000081
    30  H    0.449084  -0.000701   0.000360   0.000958  -0.012736   0.000158
    31  H    0.507950  -0.005423  -0.000794   0.000677  -0.004859   0.000012
              19         20         21         22         23         24
     1  C    0.000210  -0.012014  -0.058784   0.000862  -0.002508   0.001419
     2  C    0.003106  -0.000436  -0.006561  -0.034894   0.012869   0.000244
     3  C    0.002517   0.027779   0.101377  -0.006907   0.006094  -0.000697
     4  C    0.436127  -0.000367  -0.000139  -0.059772  -0.017111  -0.011310
     5  C    0.000147   0.462430   0.465222   0.000817  -0.000142   0.003875
     6  O   -0.000069  -0.065917  -0.064134  -0.000220   0.000082   0.000004
     7  C   -0.047745  -0.000085  -0.000288   0.530554   0.417496   0.008568
     8  C   -0.030359   0.000436   0.001188  -0.004004   0.005970   0.429380
     9  C   -0.002427  -0.001925  -0.001321  -0.049583  -0.041344  -0.005720
    10  C    0.000832  -0.060803   0.003452  -0.001909  -0.000220  -0.005414
    11  O    0.010896  -0.000679   0.000790   0.003080  -0.006673  -0.069706
    12  O   -0.000341  -0.001380  -0.002032   0.000862   0.000163   0.000631
    13  C   -0.001776   0.000831  -0.090660   0.006109  -0.000518   0.001443
    14  H    0.000027  -0.000159   0.002512  -0.000188   0.000065   0.000076
    15  H    0.000034   0.001471  -0.002541   0.000039  -0.000225  -0.000069
    16  H    0.001002   0.000356   0.000342  -0.004293   0.002592  -0.000454
    17  H   -0.000033   0.000640   0.004243  -0.000348   0.000346  -0.000180
    18  H   -0.012755  -0.000023  -0.000020   0.001510  -0.000339  -0.006316
    19  H    0.481489  -0.000002   0.000032  -0.004198  -0.008407  -0.009167
    20  H   -0.000002   0.468132  -0.004475  -0.000005  -0.000002  -0.000288
    21  H    0.000032  -0.004475   0.473925  -0.000008  -0.000008   0.000058
    22  H   -0.004198  -0.000005  -0.000008   0.452098  -0.006188  -0.001797
    23  H   -0.008407  -0.000002  -0.000008  -0.006188   0.458280   0.000914
    24  H   -0.009167  -0.000288   0.000058  -0.001797   0.000914   0.462992
    25  H    0.000172   0.000689  -0.000293  -0.000440  -0.001996  -0.015407
    26  H   -0.002459  -0.000050  -0.000080   0.001908  -0.001964   0.000601
    27  H    0.001679   0.000052   0.000103  -0.001218  -0.009999   0.001187
    28  H   -0.000214  -0.008338   0.003922   0.000035   0.000023  -0.000347
    29  H    0.000095  -0.008421   0.000109  -0.000627   0.000064  -0.003360
    30  H    0.000166  -0.000501  -0.000110   0.000117   0.000248   0.000824
    31  H    0.000014  -0.001353  -0.005261   0.000127  -0.000026   0.000142
              25         26         27         28         29         30
     1  C   -0.002645   0.004643   0.002213  -0.008592   0.036062  -0.017535
     2  C   -0.036240  -0.172351  -0.032445   0.004963  -0.028198   0.007199
     3  C   -0.003569   0.001597   0.009824   0.001871   0.005982  -0.048666
     4  C   -0.084842  -0.016573  -0.013787   0.002588  -0.024030   0.006887
     5  C    0.000626   0.001139   0.000651  -0.033110  -0.122145   0.002141
     6  O    0.000520  -0.000819   0.000566   0.012459  -0.017840   0.000359
     7  C   -0.007946  -0.000540  -0.035718   0.000001   0.001935  -0.003043
     8  C    0.493266   0.012079   0.013185  -0.002094   0.014813  -0.005601
     9  C    0.030126   0.545058   0.422598   0.001305   0.002808   0.005914
    10  C    0.014020  -0.001629   0.000493   0.421910   0.550175  -0.019784
    11  O   -0.022822  -0.002277   0.011490   0.003657  -0.004708   0.002420
    12  O    0.008543   0.011434  -0.005064   0.000198   0.000394  -0.008370
    13  C   -0.013786   0.001756  -0.008462  -0.023225  -0.069320   0.449084
    14  H    0.000052   0.000093   0.000436   0.000128  -0.001604  -0.000701
    15  H   -0.000005   0.000976  -0.001351   0.000948  -0.000047   0.000360
    16  H   -0.001803  -0.016010  -0.010867  -0.000909   0.000644   0.000958
    17  H    0.000094  -0.000453   0.000543   0.000457   0.002714  -0.012736
    18  H    0.002491  -0.001654  -0.001999   0.000119   0.000081   0.000158
    19  H    0.000172  -0.002459   0.001679  -0.000214   0.000095   0.000166
    20  H    0.000689  -0.000050   0.000052  -0.008338  -0.008421  -0.000501
    21  H   -0.000293  -0.000080   0.000103   0.003922   0.000109  -0.000110
    22  H   -0.000440   0.001908  -0.001218   0.000035  -0.000627   0.000117
    23  H   -0.001996  -0.001964  -0.009999   0.000023   0.000064   0.000248
    24  H   -0.015407   0.000601   0.001187  -0.000347  -0.003360   0.000824
    25  H    0.501405   0.000467  -0.000625   0.001599  -0.006022  -0.008700
    26  H    0.000467   0.442139  -0.001001   0.000071  -0.000306  -0.000024
    27  H   -0.000625  -0.001001   0.467119  -0.000173  -0.000121  -0.000152
    28  H    0.001599   0.000071  -0.000173   0.458250  -0.020287  -0.006125
    29  H   -0.006022  -0.000306  -0.000121  -0.020287   0.509691  -0.005541
    30  H   -0.008700  -0.000024  -0.000152  -0.006125  -0.005541   0.475650
    31  H    0.000113   0.000052  -0.000094  -0.006796   0.004514  -0.000098
              31
     1  C    0.002134
     2  C    0.001954
     3  C   -0.075650
     4  C   -0.000143
     5  C   -0.017380
     6  O   -0.002601
     7  C    0.000843
     8  C   -0.000300
     9  C   -0.001730
    10  C   -0.037798
    11  O   -0.002357
    12  O    0.005086
    13  C    0.507950
    14  H   -0.005423
    15  H   -0.000794
    16  H    0.000677
    17  H   -0.004859
    18  H    0.000012
    19  H    0.000014
    20  H   -0.001353
    21  H   -0.005261
    22  H    0.000127
    23  H   -0.000026
    24  H    0.000142
    25  H    0.000113
    26  H    0.000052
    27  H   -0.000094
    28  H   -0.006796
    29  H    0.004514
    30  H   -0.000098
    31  H    0.421790
 Mulliken charges:
               1
     1  C   -0.475142
     2  C   -0.108223
     3  C    0.345363
     4  C   -0.451152
     5  C   -0.193140
     6  O   -0.323565
     7  C   -0.305818
     8  C   -0.076246
     9  C   -0.479237
    10  C   -0.334858
    11  O   -0.286297
    12  O   -0.371744
    13  C   -0.589275
    14  H    0.196769
    15  H    0.218264
    16  H    0.333235
    17  H    0.259286
    18  H    0.168968
    19  H    0.181407
    20  H    0.204408
    21  H    0.179441
    22  H    0.178480
    23  H    0.192468
    24  H    0.217873
    25  H    0.152959
    26  H    0.194177
    27  H    0.190935
    28  H    0.195706
    29  H    0.182498
    30  H    0.185204
    31  H    0.217255
 Sum of Mulliken charges =  -0.00000
 Mulliken charges with hydrogens summed into heavy atoms:
               1
     1  C   -0.060109
     2  C    0.225012
     3  C    0.604650
     4  C   -0.100777
     5  C    0.190709
     6  O   -0.323565
     7  C    0.065129
     8  C    0.294586
     9  C   -0.094125
    10  C    0.043346
    11  O   -0.286297
    12  O   -0.371744
    13  C   -0.186815
 Electronic spatial extent (au):  <R**2>=           2557.3710
 Charge=              0.0000 electrons
 Dipole moment (field-independent basis, Debye):
    X=             -0.5656    Y=             -0.1774    Z=              2.3782  Tot=              2.4510
 Quadrupole moment (field-independent basis, Debye-Ang):
   XX=            -68.5774   YY=            -73.9717   ZZ=            -84.4673
   XY=              0.3301   XZ=             -5.3366   YZ=              1.2892
 Traceless Quadrupole moment (field-independent basis, Debye-Ang):
   XX=              7.0947   YY=              1.7004   ZZ=             -8.7951
   XY=              0.3301   XZ=             -5.3366   YZ=              1.2892
 Octapole moment (field-independent basis, Debye-Ang**2):
  XXX=             -9.1760  YYY=             -2.6697  ZZZ=              4.7746  XYY=             -4.2857
  XXY=              6.1198  XXZ=              8.5238  XZZ=              0.6816  YZZ=              0.4373
  YYZ=             -2.8399  XYZ=              8.3699
 Hexadecapole moment (field-independent basis, Debye-Ang**3):
 XXXX=          -2246.8184 YYYY=           -625.5567 ZZZZ=           -427.3158 XXXY=             -7.7615
 XXXZ=            -18.6905 YYYX=             18.4117 YYYZ=             -3.1252 ZZZX=             -8.9553
 ZZZY=             -4.9108 XXYY=           -472.7724 XXZZ=           -470.7356 YYZZ=           -173.9388
 XXYZ=            -11.4640 YYXZ=              0.2177 ZZXY=             -4.8371
 N-N= 9.221218877839D+02 E-N=-3.286980167197D+03  KE= 6.153432589399D+02
 D1PCM: PCM CHGder 1st derivatives, ID1Alg=3 FixD1E=F DoIter=F DoCFld=F I1PDM=0.
 Calling FoFJK, ICntrl=      2127 FMM=F ISym2X=0 I1Cent= 0 IOpClX= 0 NMat=1 NMatS=1 NMatT=0.
 ***** Axes restored to original set *****
 -------------------------------------------------------------------
 Center     Atomic                   Forces (Hartrees/Bohr)
 Number     Number              X              Y              Z
 -------------------------------------------------------------------
      1        6           0.002122297    0.003999022    0.006007138
      2        6           0.004776889   -0.002283058    0.002588007
      3        6          -0.004049175    0.003290587   -0.004909807
      4        6          -0.002130624   -0.001433139    0.001884431
      5        6           0.003142842    0.002140545    0.005987819
      6        8           0.005300293   -0.000645748   -0.011727760
      7        6          -0.002638766    0.001673389   -0.002964708
      8        6           0.005692965   -0.004028710    0.001166752
      9        6           0.000428206    0.001824750    0.002156463
     10        6          -0.001785514   -0.003554257    0.001204898
     11        8          -0.007184311    0.006287439   -0.011247514
     12        8           0.006540388   -0.000856009    0.010423186
     13        6          -0.000672931   -0.000575103   -0.004619810
     14        1          -0.004881371   -0.001702532    0.002989944
     15        1           0.003296825   -0.003968491   -0.002003482
     16        1          -0.004975086   -0.003460162   -0.006236660
     17        1          -0.001342924   -0.003487202    0.003990073
     18        1           0.000620927   -0.000181636   -0.003339618
     19        1           0.001413742    0.001517011    0.001746900
     20        1          -0.000464929    0.002727809   -0.003518455
     21        1          -0.004749908   -0.001405770    0.002919906
     22        1          -0.001856918    0.000164334    0.003290915
     23        1           0.002280569   -0.001026839   -0.000309793
     24        1          -0.000089219    0.004099262   -0.001844283
     25        1          -0.002129658    0.000010356    0.006313919
     26        1           0.000877249    0.000488095   -0.003185647
     27        1          -0.000659432   -0.002821340    0.001293974
     28        1          -0.001397244    0.002068744    0.000990417
     29        1           0.004708837    0.001131373   -0.002374578
     30        1           0.002854932    0.001006781    0.001935323
     31        1          -0.003048951   -0.000999503    0.001392051
 -------------------------------------------------------------------
 Cartesian Forces:  Max     0.011727760 RMS     0.003690792

 GradGradGradGradGradGradGradGradGradGradGradGradGradGradGradGradGradGrad
 Berny optimization.
 FormGI is forming the generalized inverse of G from B-inverse, IUseBI=4.
 Internal  Forces:  Max     0.019424114 RMS     0.002544209
 Search for a local minimum.
 Step number   1 out of a maximum of  186
 All quantities printed in internal units (Hartrees-Bohrs-Radians)
 Mixed Optimization -- RFO/linear search
 Second derivative matrix not updated -- first step.
 ITU=  0
     Eigenvalues ---    0.00544   0.00621   0.00706   0.00717   0.01416
     Eigenvalues ---    0.01427   0.01723   0.02703   0.02792   0.02969
     Eigenvalues ---    0.03080   0.04044   0.04081   0.04503   0.04732
     Eigenvalues ---    0.04747   0.04893   0.04972   0.05095   0.05143
     Eigenvalues ---    0.05303   0.05535   0.05692   0.06166   0.06180
     Eigenvalues ---    0.06301   0.06446   0.07063   0.07613   0.07846
     Eigenvalues ---    0.07951   0.07982   0.08125   0.08249   0.08501
     Eigenvalues ---    0.08825   0.09138   0.09781   0.10919   0.11595
     Eigenvalues ---    0.11723   0.11760   0.11819   0.12397   0.12669
     Eigenvalues ---    0.14642   0.15141   0.16289   0.16484   0.18121
     Eigenvalues ---    0.19062   0.21583   0.21968   0.25000   0.28433
     Eigenvalues ---    0.28587   0.28737   0.28830   0.28922   0.28929
     Eigenvalues ---    0.30217   0.30222   0.35035   0.35064   0.35089
     Eigenvalues ---    0.35149   0.35180   0.35190   0.35222   0.35230
     Eigenvalues ---    0.35305   0.35413   0.35440   0.35441   0.35630
     Eigenvalues ---    0.35707   0.35820   0.35829   0.35914   0.36469
     Eigenvalues ---    0.40981   0.41001   0.41379   0.42374   0.43464
     Eigenvalues ---    0.460091000.000001000.000001000.000001000.00000
     Eigenvalues --- 1000.000001000.000001000.000001000.000001000.00000
     Eigenvalues --- 1000.000001000.000001000.000001000.000001000.00000
     Eigenvalues --- 1000.000001000.000001000.000001000.000001000.00000
     Eigenvalues --- 1000.000001000.000001000.000001000.000001000.00000
     Eigenvalues --- 1000.000001000.000001000.000001000.000001000.00000
     Eigenvalues --- 1000.000001000.000001000.000001000.000001000.00000
     Eigenvalues --- 1000.000001000.000001000.000001000.000001000.00000
     Eigenvalues --- 1000.000001000.000001000.000001000.000001000.00000
     Eigenvalues --- 1000.000001000.000001000.000001000.000001000.00000
     Eigenvalues --- 1000.000001000.000001000.000001000.000001000.00000
     Eigenvalues --- 1000.000001000.000001000.000001000.000001000.00000
     Eigenvalues --- 1000.000001000.000001000.000001000.000001000.00000
     Eigenvalues --- 1000.000001000.000001000.000001000.000001000.00000
     Eigenvalues --- 1000.000001000.000001000.000001000.000001000.00000
     Eigenvalues --- 1000.000001000.000001000.000001000.000001000.00000
     Eigenvalues --- 1000.000001000.000001000.000001000.000001000.00000
     Eigenvalues --- 1000.000001000.000001000.000001000.000001000.00000
     Eigenvalues --- 1000.000001000.000001000.000001000.000001000.00000
     Eigenvalues --- 1000.000001000.000001000.000001000.000001000.00000
 RFO step:  Lambda=-6.22232088D-03 EMin= 5.43665723D-03
 Linear search not attempted -- first point.
 Iteration  1 RMS(Cart)=  0.15767346 RMS(Int)=  0.00413275
 Iteration  2 RMS(Cart)=  0.01149356 RMS(Int)=  0.00011997
 Iteration  3 RMS(Cart)=  0.00003905 RMS(Int)=  0.00011870
 Iteration  4 RMS(Cart)=  0.00000000 RMS(Int)=  0.00011870
 Iteration  1 RMS(Cart)=  0.00014368 RMS(Int)=  0.00003108
 Iteration  2 RMS(Cart)=  0.00007998 RMS(Int)=  0.00003471
 Iteration  3 RMS(Cart)=  0.00004452 RMS(Int)=  0.00003929
 Iteration  4 RMS(Cart)=  0.00002478 RMS(Int)=  0.00004239
 Iteration  5 RMS(Cart)=  0.00001380 RMS(Int)=  0.00004424
 Iteration  6 RMS(Cart)=  0.00000768 RMS(Int)=  0.00004531
 Iteration  7 RMS(Cart)=  0.00000427 RMS(Int)=  0.00004591
 Iteration  8 RMS(Cart)=  0.00000238 RMS(Int)=  0.00004625
 Iteration  9 RMS(Cart)=  0.00000132 RMS(Int)=  0.00004644
 Iteration 10 RMS(Cart)=  0.00000074 RMS(Int)=  0.00004655
 Variable       Old X    -DE/DX   Delta X   Delta X   Delta X     New X
                                 (Linear)    (Quad)   (Total)
    R1        2.87734  -0.00214   0.00000  -0.00633  -0.00618   2.87116
    R2        2.66564   0.00651   0.00000   0.01571   0.01575   2.68139
    R3        2.05433   0.00590   0.00000   0.01649   0.01649   2.07082
    R4        2.04216   0.00545   0.00000   0.01491   0.01491   2.05707
    R5        2.87919  -0.00112   0.00000  -0.00379  -0.00380   2.87538
    R6        2.65273   0.00782   0.00000   0.01714   0.01715   2.66988
    R7        2.64121   0.00540   0.00000   0.01159   0.01159   2.65279
    R8        2.03355   0.00869   0.00000   0.02342   0.02342   2.05696
    R9        2.70242   0.00070   0.00000   0.00169   0.00169   2.70410
   R10        2.89400  -0.00208   0.00000  -0.00722  -0.00710   2.88690
   R11        2.04542   0.00540   0.00000   0.01486   0.01486   2.06028
   R12        2.88880  -0.00059   0.00000  -0.00192  -0.00194   2.88686
   R13        2.87189  -0.00044   0.00000  -0.00128  -0.00126   2.87063
   R14        2.05530   0.00328   0.00000   0.00920   0.00920   2.06450
   R15        2.05303   0.00271   0.00000   0.00757   0.00757   2.06060
   R16        2.67642   0.00620   0.00000   0.01433   0.01421   2.69063
   R17        2.87326  -0.00070   0.00000  -0.00270  -0.00285   2.87040
   R18        2.04364   0.00447   0.00000   0.01226   0.01226   2.05590
   R19        2.05618   0.00566   0.00000   0.01587   0.01587   2.07205
   R20        2.88991  -0.00101   0.00000  -0.00368  -0.00369   2.88621
   R21        2.05367   0.00366   0.00000   0.01023   0.01023   2.06390
   R22        2.05183   0.00251   0.00000   0.00700   0.00700   2.05882
   R23        2.68424   0.00542   0.00000   0.01283   0.01285   2.69708
   R24        2.04350   0.00449   0.00000   0.01233   0.01233   2.05583
   R25        2.04965   0.00664   0.00000   0.01841   0.01841   2.06806
   R26        2.05384   0.00326   0.00000   0.00912   0.00912   2.06296
   R27        2.04967   0.00314   0.00000   0.00869   0.00869   2.05836
   R28        2.89222  -0.00109   0.00000  -0.00524  -0.00529   2.88693
   R29        2.05316   0.00268   0.00000   0.00749   0.00749   2.06065
   R30        2.04664   0.00528   0.00000   0.01458   0.01458   2.06122
   R31        2.05010   0.00348   0.00000   0.00967   0.00967   2.05977
   R32        2.05572   0.00347   0.00000   0.00972   0.00972   2.06544
    A1        1.97705  -0.00061   0.00000  -0.00373  -0.00351   1.97354
    A2        1.87367  -0.00089   0.00000   0.00114   0.00111   1.87478
    A3        1.95023  -0.00029   0.00000  -0.01111  -0.01131   1.93892
    A4        1.90533   0.00186   0.00000   0.01735   0.01728   1.92261
    A5        1.87216  -0.00050   0.00000  -0.00809  -0.00832   1.86384
    A6        1.88322   0.00056   0.00000   0.00574   0.00579   1.88901
    A7        1.93260   0.00286   0.00000   0.01203   0.01186   1.94446
    A8        1.88884  -0.00151   0.00000  -0.00769  -0.00761   1.88123
    A9        1.92417   0.00058   0.00000   0.01118   0.01119   1.93536
   A10        1.95562  -0.00098   0.00000  -0.01193  -0.01183   1.94378
   A11        1.83142  -0.00202   0.00000  -0.01135  -0.01141   1.82001
   A12        1.93135   0.00116   0.00000   0.00850   0.00845   1.93980
   A13        2.01548  -0.00262   0.00000  -0.02909  -0.02969   1.98579
   A14        1.92467   0.00239   0.00000   0.00107   0.00036   1.92503
   A15        1.86006  -0.00018   0.00000   0.01358   0.01364   1.87370
   A16        1.96671  -0.00146   0.00000  -0.02370  -0.02436   1.94235
   A17        1.79898   0.00264   0.00000   0.03560   0.03606   1.83504
   A18        1.88617  -0.00062   0.00000   0.01023   0.01042   1.89660
   A19        1.92206  -0.00020   0.00000  -0.00153  -0.00169   1.92037
   A20        1.91607   0.00063   0.00000   0.00106   0.00113   1.91720
   A21        1.93968  -0.00053   0.00000  -0.00117  -0.00116   1.93852
   A22        1.90580  -0.00013   0.00000  -0.00239  -0.00234   1.90346
   A23        1.90383   0.00002   0.00000  -0.00039  -0.00035   1.90348
   A24        1.87556   0.00023   0.00000   0.00452   0.00449   1.88006
   A25        1.93661   0.00027   0.00000   0.00466   0.00456   1.94117
   A26        1.85604  -0.00080   0.00000  -0.00280  -0.00275   1.85330
   A27        1.89993   0.00117   0.00000   0.00493   0.00496   1.90489
   A28        1.94606  -0.00032   0.00000  -0.00289  -0.00285   1.94320
   A29        1.93216  -0.00078   0.00000  -0.00692  -0.00692   1.92524
   A30        1.89061   0.00051   0.00000   0.00340   0.00337   1.89398
   A31        1.97493  -0.00368   0.00000  -0.02203  -0.02202   1.95292
   A32        1.91292   0.00266   0.00000   0.00170   0.00169   1.91461
   A33        1.91427  -0.00124   0.00000  -0.00281  -0.00286   1.91141
   A34        1.93036  -0.00039   0.00000   0.00078   0.00083   1.93119
   A35        1.92267  -0.00090   0.00000  -0.00385  -0.00385   1.91882
   A36        1.91658  -0.00094   0.00000  -0.00041  -0.00041   1.91617
   A37        1.86667   0.00072   0.00000   0.00457   0.00457   1.87124
   A38        1.94456   0.00132   0.00000   0.00261   0.00260   1.94715
   A39        1.94527   0.00000   0.00000  -0.00135  -0.00130   1.94398
   A40        1.93034  -0.00109   0.00000  -0.00363  -0.00368   1.92666
   A41        1.84325  -0.00095   0.00000  -0.00132  -0.00134   1.84191
   A42        1.91092   0.00033   0.00000   0.00197   0.00201   1.91293
   A43        1.88667   0.00039   0.00000   0.00191   0.00190   1.88858
   A44        1.95631  -0.00170   0.00000  -0.01496  -0.01506   1.94125
   A45        1.87203  -0.00007   0.00000   0.00237   0.00238   1.87441
   A46        1.90129   0.00071   0.00000  -0.00136  -0.00135   1.89994
   A47        1.90802   0.00130   0.00000   0.00825   0.00830   1.91632
   A48        1.94715  -0.00018   0.00000  -0.00017  -0.00027   1.94688
   A49        1.87582   0.00001   0.00000   0.00687   0.00684   1.88267
   A50        1.92664   0.00045   0.00000  -0.00563  -0.00574   1.92090
   A51        1.90395   0.00050   0.00000   0.00217   0.00218   1.90613
   A52        1.90754  -0.00083   0.00000  -0.00098  -0.00093   1.90661
   A53        1.91805  -0.00086   0.00000   0.00015   0.00021   1.91826
   A54        1.93375   0.00039   0.00000  -0.00050  -0.00050   1.93324
   A55        1.87292   0.00034   0.00000   0.00513   0.00511   1.87803
   A56        2.02522  -0.00579   0.00000  -0.03380  -0.03369   1.99153
   A57        2.17400  -0.01942   0.00000  -0.07581  -0.07581   2.09819
   A58        1.98258   0.00019   0.00000  -0.01118  -0.01108   1.97150
   A59        1.91057  -0.00020   0.00000  -0.00975  -0.00997   1.90060
   A60        1.86218  -0.00046   0.00000   0.00821   0.00823   1.87041
   A61        1.94139  -0.00046   0.00000  -0.00473  -0.00499   1.93640
   A62        1.89558   0.00064   0.00000   0.01252   0.01251   1.90808
[...]
 0.00186309,0.00239932,0.00017146,-0.00000918,0.00000963,0.00000155,0.0
 0000606,0.00000613,-0.00001051,0.00002350,0.00001258,-0.00005672,-0.00
 037459,0.00015763,-0.00006173,0.00001504,-0.00000024,-0.00074652,0.000
 62647,0.00126046,0.00083821,-0.00011478,0.00029108,-0.00000048,0.00000
 026,0.00000351,0.00001095,0.00003780,0.00004968,0.00016333,-0.00050397
 ,-0.00012292,0.00005242,-0.00006597,0.00008071,0.00630356,0.00094503,-
 0.01089037,-0.10100109,0.00882538,0.28845231,-0.00003458,-0.00004217,0
 .00027568,-0.00866899,-0.00078004,0.02882835,0.00155464,0.00086965,0.0
 0091137,0.00052622,0.00093392,0.00012159,0.00007499,-0.00004291,-0.000
 00227,-0.00007058,0.00009643,-0.00014874,0.00678731,-0.00135852,-0.020
 50615,-0.00028683,-0.00010005,-0.00007230,-0.08303623,0.00543686,0.088
 10744,-0.00002596,0.00000652,0.00007123,0.00140325,-0.00082041,-0.0008
 0275,-0.00994221,0.00167032,0.00226311,-0.00062171,-0.00022279,0.00013
 642,-0.00009148,-0.00001517,-0.00010725,0.00001018,-0.00000487,-0.0000
 4027,0.00103900,-0.00065277,-0.00016503,-0.00037805,-0.00003920,0.0001
 3239,-0.00010923,0.00008126,0.00037800,-0.00014144,0.00021195,0.000095
 39,-0.00001376,0.00000878,-0.00001445,-0.00001262,0.00000017,0.0000075
 5,-0.00166782,-0.00322684,-0.00244470,0.00101476,0.00082439,0.00051536
 ,0.00006715,0.00002087,0.00000500,0.00000820,-0.00003847,-0.00000021,0
 .09325250,0.00002207,-0.00000187,-0.00007955,0.00342386,-0.00257593,-0
 .01088560,-0.00025854,0.00027710,-0.00033293,0.00071207,0.00092191,-0.
 00060249,-0.00001621,0.00001072,0.00000128,0.00000741,-0.00001897,0.00
 003352,0.00701695,-0.00160227,-0.01842325,-0.00001876,-0.00003219,-0.0
 0008759,0.00315646,-0.04970186,-0.00515067,0.00000338,-0.00000991,-0.0
 0001214,0.00014726,0.00045859,0.00001449,0.00232365,0.00044272,-0.0001
 0399,0.00001521,0.00002285,-0.00000167,0.00002405,0.00000019,0.0000293
 1,-0.00000767,0.00000665,0.00000743,-0.00037568,0.00030429,0.00033259,
 0.00015766,0.00000819,-0.00003717,-0.00015112,-0.00000793,0.00020439,-
 0.00012350,0.00014728,0.00014111,0.00000287,-0.00000218,0.00000217,0.0
 0000261,0.00000051,-0.00000126,-0.00220397,-0.00166959,-0.00230196,0.0
 0025713,0.00074215,0.00083243,0.00003982,-0.00002552,0.00000242,-0.000
 03568,0.00002153,0.00003282,-0.00271752,0.04976050,0.00004374,0.000003
 13,-0.00005495,-0.00195494,0.00123848,-0.00005303,-0.00050244,-0.00011
 211,0.00028112,0.00039202,0.00082261,0.00078021,-0.00000871,0.00001354
 ,-0.00000063,0.00003349,-0.00002216,0.00001310,0.00554519,-0.00109305,
 -0.01886815,-0.00021575,-0.00020550,-0.00001023,0.09224051,-0.00741174
 ,-0.27619355,0.00000519,0.00000965,-0.00001371,-0.00048704,-0.00024199
 ,0.00075554,0.00022519,0.00034525,0.00102707,0.00006097,0.00004252,-0.
 00001575,0.00001690,0.00000207,0.00002197,-0.00001076,-0.00001180,-0.0
 0000482,0.00037687,-0.00017272,0.00068813,0.00001649,0.00000257,-0.000
 01793,0.00013973,-0.00049312,0.00033837,-0.00023076,-0.00000024,0.0002
 3833,0.00000281,-0.00000197,0.00000336,0.00000350,-0.00000242,-0.00000
 090,-0.00257437,-0.00256493,-0.00095706,-0.00001791,0.00044997,0.00082
 249,0.00008021,-0.00003023,0.00001092,-0.00001526,0.00002809,-0.000029
 65,-0.09680437,0.00968447,0.30082398,-0.00001745,0.00000049,-0.0000225
 9,0.00335679,0.02687116,-0.00979791,0.00021036,-0.00033032,-0.00006653
 ,-0.00211424,-0.00211529,-0.00345370,0.00001965,0.00000166,0.00001071,
 -0.00003182,-0.00003926,-0.00000397,-0.00006869,-0.01801765,0.00881886
 ,-0.00140895,-0.00119359,-0.00107237,-0.04897693,-0.00802013,0.0040715
 6,-0.00000645,0.00008035,0.00001455,-0.00615116,0.00740558,-0.00109644
 ,0.00115340,0.00028826,-0.00078583,0.00007253,-0.00000362,-0.00003850,
 -0.00000592,0.00000870,0.00000544,-0.00001302,0.00000226,0.00001264,0.
 00087656,-0.00096973,-0.00003444,-0.00005244,-0.00002074,0.00001937,-0
 .00005400,0.00032675,-0.00010502,0.00033505,-0.00145922,0.00020632,0.0
 0000125,0.00000051,-0.00000277,-0.00000617,-0.00000328,-0.00000369,0.0
 0073819,0.00076071,0.00001281,0.00047331,0.00063746,0.00072709,0.00028
 855,0.00014033,0.00016033,0.00013436,0.00010288,0.00016352,-0.00053872
 ,-0.01140891,0.00365747,0.05181390,-0.00001937,-0.00002074,0.00002277,
 -0.00268996,-0.01115392,0.00419811,0.00010541,0.00037357,-0.00010691,-
 0.00278838,-0.00045253,-0.00343648,-0.00000849,0.00001131,-0.00000642,
 0.00006400,0.00001838,-0.00000777,0.00016578,-0.01605256,0.00667615,-0
 .00016959,0.00106840,0.00058455,-0.00433084,-0.28214579,0.09085109,0.0
 0000307,-0.00006224,-0.00000363,0.00297225,-0.00140874,0.00058260,-0.0
 0103204,0.00122390,0.00006442,-0.00009705,-0.00001548,0.00004368,0.000
 00656,-0.00001098,-0.00000429,0.00001865,-0.00001754,-0.00001352,0.000
 44294,0.00028787,-0.00013139,0.00005780,-0.00001325,-0.00000554,-0.000
 04291,0.00008642,0.00012607,0.00025524,-0.00114345,0.00048759,0.,-0.00
 000239,0.00000135,0.00000721,-0.00000018,0.00000196,0.00047396,0.00068
 196,-0.00002792,-0.00013929,0.00067356,0.00010850,0.00005173,-0.000071
 17,0.00001208,0.00002335,-0.00006138,-0.00011026,-0.00038212,0.0025636
 3,-0.00024520,0.00704433,0.30558248,-0.00000298,0.00000558,-0.00001246
 ,0.00233711,0.00057890,-0.00313766,-0.00015814,-0.00016128,0.00010397,
 -0.00268993,-0.00185314,-0.00209434,0.00000437,-0.00000227,0.00000346,
 -0.00001876,-0.00001065,-0.00000581,0.00050653,-0.01968042,0.00748010,
 -0.00050209,-0.00012621,-0.00035785,0.00160094,0.09383450,-0.08383823,
 -0.00000192,0.00003546,0.00000506,-0.00108540,0.00104813,0.00111118,0.
 00080596,-0.00091831,0.00044157,0.00004035,0.00001888,-0.00001683,-0.0
 0000313,0.00000143,-0.00000053,-0.00001091,0.00000511,0.00000453,0.000
 04260,-0.00011456,0.00004325,-0.00001920,0.00002009,-0.00000152,-0.000
 03079,-0.00021261,0.00023297,-0.00005269,-0.00106696,0.00040318,0.0000
 0022,0.00000054,-0.00000107,-0.00000222,-0.00000028,-0.00000016,0.0008
 1998,0.00059248,0.00087006,0.00042701,0.00083947,0.00055793,0.00009854
 ,0.00007283,0.00007699,0.00007141,0.00005286,0.00005536,-0.00073024,0.
 02669703,-0.00957970,-0.00142557,-0.09963361,0.08764476,-0.00033392,0.
 00049445,-0.00064286,-0.00005465,-0.00047163,0.00007699,0.00097668,0.0
 0003986,-0.00142344,-0.00000791,-0.00001435,0.00002017,0.00940542,-0.0
 1363058,-0.00436699,-0.00039110,-0.00396620,-0.00409998,-0.00000273,0.
 00000088,0.00002685,0.00031605,0.00028885,0.00015530,0.00001973,0.0000
 7673,-0.00003928,-0.11991076,0.10807687,0.04972544,-0.00140770,0.00060
 568,0.00051882,0.00022425,-0.00031485,-0.00005606,-0.00301784,0.003172
 74,0.00243413,0.00001179,-0.00006504,0.00007309,0.00003399,-0.00008576
 ,0.00017201,-0.00000864,0.00002843,0.00001351,-0.00004802,0.00048010,0
 .00025538,-0.00002551,0.00001013,0.00000064,-0.00002526,0.00000149,-0.
 00001137,0.00044169,0.00067351,0.00037067,0.00062109,0.00036536,0.0009
 6376,0.00000110,-0.00000033,-0.00000415,-0.00001068,0.00000745,-0.0000
 0823,0.00000402,-0.00002954,-0.00002910,-0.00003701,-0.00003843,0.0000
 6811,-0.00000520,0.00000284,-0.00000097,-0.00003508,0.00002285,-0.0000
 1042,0.12520523,0.00025724,0.00121340,-0.00022543,-0.00025775,-0.00040
 566,0.00061505,-0.00097480,-0.00045685,0.00484213,-0.00000439,-0.00000
 497,0.00001121,0.00846934,-0.01098107,-0.00296957,-0.00163667,-0.00210
 793,-0.00311533,0.00000701,-0.00001829,-0.00000451,0.00005252,0.000026
 64,0.00000655,0.00002896,0.00005918,-0.00009199,0.10518013,-0.20794571
 ,-0.07561247,-0.00045100,0.00048146,0.00006962,0.00101003,0.00007335,-
 0.00069855,0.00998532,-0.01777790,-0.00708964,-0.00005909,-0.00007604,
 0.00005715,0.00002356,-0.00005420,-0.00004147,-0.00000572,0.00002996,-
 0.00004379,0.00032013,-0.00115448,-0.00046528,-0.00000207,0.00000115,-
 0.00000281,0.00000017,0.00000483,-0.00000131,-0.00013022,0.00027666,-0
 .00019961,-0.00012483,0.00048877,0.00055631,0.00000085,0.00000115,-0.0
 0000275,0.00000976,0.00000693,0.00000398,0.00001268,0.00000079,-0.0000
 0344,0.00001813,-0.00001369,0.00000017,0.00004530,-0.00000607,-0.00000
 580,-0.00000798,0.00000760,-0.00000488,-0.11681752,0.22702237,-0.00040
 809,0.00095283,-0.00154049,0.00013228,0.00031228,-0.00051819,0.0001817
 5,0.00241718,-0.00458417,0.00000189,0.00000466,-0.00000867,0.01538069,
 -0.01570105,-0.00611736,-0.00271120,-0.00601715,-0.00434391,0.00000427
 ,0.00000589,-0.00000414,-0.00008704,-0.00008228,-0.00003492,-0.0000229
 6,-0.00004096,0.00009903,0.04861937,-0.07679637,-0.08121007,0.00042938
 ,-0.00038411,0.00001034,-0.00067516,-0.00013568,0.00060336,-0.01308504
 ,0.02256669,0.00947340,0.00002852,-0.00015360,0.00017565,0.00007570,-0
 .00016888,0.00029775,-0.00001239,-0.00000570,0.00004998,-0.00018202,0.
 00142948,0.00033462,0.00000580,-0.00000229,0.00000020,0.00000605,-0.00
 000201,0.00000349,0.00032697,0.00095695,0.00038143,-0.00013714,0.00030
 176,0.00096580,-0.00000050,-0.00000005,0.00000324,-0.00000151,-0.00000
 441,0.00000086,-0.00000755,0.00000401,0.00001131,0.00001315,0.00001460
 ,-0.00001872,-0.00003250,0.00000561,0.00000266,0.00001302,-0.00000985,
 0.00000434,-0.05304159,0.08111288,0.08859472,0.00001351,0.00020286,-0.
 00029435,-0.00011993,-0.00000213,0.00013273,0.00007780,-0.00015869,0.0
 0024407,-0.00008153,0.00002606,0.00007750,-0.01801091,-0.00529322,0.00
 599103,0.00195726,0.00029912,0.00052289,0.00005576,0.00003124,-0.00001
 789,-0.00209010,0.00104887,0.00028957,0.00000522,-0.00000592,-0.000008
 32,-0.24757488,-0.08045543,0.08943478,-0.00331657,0.00161593,0.0009592
 2,0.00015982,-0.00033321,-0.00009247,0.00745244,0.00200542,-0.00262009
 ,-0.00010084,0.00004736,0.00002682,0.00000999,-0.00003527,0.00002079,-
 0.00000897,-0.00002402,0.00001783,-0.00003083,-0.00013131,-0.00002008,
 0.00001780,-0.00001100,-0.00002908,0.00004078,0.00001211,0.00000352,0.
 00081898,0.00046918,0.00017861,-0.00065203,-0.00165578,-0.00294399,-0.
 00000260,-0.00000128,0.00000598,0.00000983,-0.00002715,0.00001031,-0.0
 0000753,-0.00023334,0.00001820,-0.00047337,0.00003229,-0.00032419,0.00
 000551,-0.00000581,-0.00000881,0.00000380,-0.00000369,-0.00001184,-0.0
 1258872,-0.00458708,0.00496277,0.27309288,0.00017437,-0.00020008,0.000
 22447,-0.00004003,-0.00086690,0.00022762,-0.00094885,0.00037433,-0.000
 15585,-0.00004204,-0.00000505,0.00009087,-0.01315059,-0.00589581,0.004
 70099,0.00034924,0.00119373,0.00099085,-0.00001167,0.00000171,0.000036
 41,0.00086962,0.00053841,0.00012532,0.00003313,0.00011689,-0.00010086,
 -0.07632569,-0.08042892,0.03463142,-0.00054102,0.00056106,0.00006976,0
 .00045688,0.00037559,-0.00041944,-0.01874853,-0.00677292,0.00833677,-0
 .00000077,0.00004560,0.00000679,-0.00003408,-0.00002919,-0.00006408,0.
 00000919,0.00005702,0.00000241,0.00021163,-0.00003745,-0.00007480,-0.0
 0004939,0.00002089,0.00001020,-0.00003404,-0.00000316,-0.00001558,0.00
 082081,0.00049996,-0.00006292,-0.00163333,-0.00026217,-0.00196622,0.00
 000197,-0.00000031,-0.00000920,-0.00001615,0.00001385,-0.00001581,-0.0
 0005996,-0.00009422,-0.00003086,-0.00009835,-0.00008316,0.00010224,0.0
 0000843,-0.00000046,-0.00000036,-0.00005332,0.00003833,-0.00000942,0.0
 2153948,0.00981683,-0.00884558,0.08618318,0.08221205,-0.00010265,0.000
 22550,-0.00025744,-0.00000793,0.00044808,-0.00033157,0.00045249,-0.000
 67702,0.00023258,-0.00003170,-0.00000218,-0.00012954,-0.02512330,-0.00
 896138,0.00893948,0.00128064,0.00189236,0.00122442,0.00001062,0.000000
 28,-0.00001010,-0.00024923,-0.00020168,0.00019173,-0.00001155,-0.00005
 454,0.00009138,0.09131560,0.03617963,-0.08751697,0.00192056,-0.0010382
 1,-0.00026122,-0.00069634,-0.00003543,0.00060016,0.02158749,0.00781913
 ,-0.01148694,-0.00004503,0.00005128,-0.00001225,0.00005028,0.00000726,
 0.00008822,-0.00000422,-0.00002705,0.00000727,-0.00022620,0.00002171,0
 .00005892,0.00004731,-0.00001897,0.00000245,0.00000584,-0.00000156,0.0
 0000997,0.00070530,0.00058163,0.00140207,-0.00293772,-0.00322687,-0.00
 311909,-0.00000197,0.00000140,0.00000022,0.00000377,-0.00001086,0.0000
 0452,0.00000509,0.00005757,0.00001130,-0.00017285,0.00014443,-0.000276
 88,-0.00002595,0.00000247,0.00000294,0.00001818,-0.00002019,0.00000981
 ,0.00910384,0.00387574,-0.00471997,-0.09561021,-0.04010716,0.09706315,
 -0.00060095,0.00217971,0.00075920,-0.00000097,-0.00012129,0.00018817,0
 .00541731,0.00595230,0.00918875,-0.00001236,-0.00001791,0.00001687,0.0
 0096743,0.00171577,-0.00039738,-0.00004620,-0.00057023,-0.00018699,0.0
 0000886,-0.00001171,0.00000217,-0.00009995,-0.00016838,0.00008552,-0.0
 0000510,0.00003622,-0.00006233,-0.00275730,-0.00160746,-0.00147745,0.0
 0010219,0.00014006,-0.00010919,0.00207600,-0.00015509,0.00026095,-0.16
 198241,-0.06657411,-0.11797320,0.00011360,0.00005626,0.00004576,0.0003
 4807,0.00024432,0.00047650,0.00004501,0.00003394,-0.00002005,0.0001860
 6,-0.00079034,-0.00028628,-0.00001035,0.00000124,0.00000061,0.00000020
 ,0.00000237,0.00000063,-0.00003717,-0.00033908,-0.00042016,0.00018936,
 0.00011728,0.00027179,0.00000589,-0.00000283,-0.00001305,0.00000381,0.
 00000485,0.00000266,-0.00003703,0.00000501,0.00004309,0.00024740,0.000
 07071,-0.00012994,0.00002750,-0.00000198,-0.00001036,-0.00000171,0.000
 00141,-0.00000211,-0.00013777,0.00007711,0.00002028,0.00045908,0.00039
 128,0.00003475,0.17246975,0.00413594,-0.00594330,0.00010775,0.00009581
 ,0.00022609,-0.00000433,-0.02066321,-0.01243204,-0.02052110,-0.0000080
 0,-0.00000698,0.00000064,0.00083776,-0.00452249,0.00294444,-0.00067373
 ,0.00153013,-0.00039860,0.00000741,-0.00000612,-0.00000523,0.00001266,
 -0.00000891,-0.00000302,-0.00001124,0.00001741,-0.00000179,0.01562418,
 0.00979747,0.01531425,0.00002795,0.00007894,0.00002147,-0.00136488,0.0
 0223966,0.00141756,-0.06409717,-0.08403623,-0.06533713,0.00013495,0.00
 016782,0.00026010,-0.00089953,-0.00031367,-0.00176606,-0.00007202,-0.0
 0000420,0.00012073,-0.00010719,0.00093672,0.00066899,-0.00000408,-0.00
 000289,-0.00000069,-0.00000102,0.00000130,0.00000050,0.00059924,0.0006
 7821,0.00123981,-0.00000069,-0.00003197,-0.00006075,0.00000386,-0.0000
 0244,-0.00000047,0.00000199,0.00000334,0.00000317,-0.00001432,-0.00000
 457,0.00001077,0.00006290,0.00002009,-0.00005328,-0.00000169,-0.000007
 55,-0.00000299,-0.00000318,-0.00000783,0.00000124,-0.00006900,0.000598
 99,-0.00101860,-0.00045716,0.00092530,-0.00086851,0.06950651,0.0924751
 4,0.00189005,-0.00193294,0.00095087,0.00001130,0.00016772,-0.00011246,
 -0.00659202,-0.00617203,-0.00913751,0.00000310,-0.00000214,0.00001929,
 -0.00002624,0.00566540,-0.00190570,0.00018679,-0.00026563,0.00048492,0
 .00000517,-0.00000393,-0.00000302,-0.00003831,-0.00007121,-0.00005420,
 -0.00001982,0.00001165,0.00002557,-0.01566738,-0.00924621,-0.01637908,
 0.00015159,-0.00001692,-0.00000845,-0.00065393,0.00111889,0.00092035,-
 0.11549142,-0.06443395,-0.16302540,-0.00026808,0.00002922,0.00009581,-
 0.00047027,-0.00014180,-0.00047107,-0.00002350,0.00001737,0.00008304,0
 .00038801,-0.00009638,0.00028953,-0.00001024,0.00000146,-0.00000097,0.
 00000461,0.00000259,0.00000004,-0.00075042,-0.00086438,-0.00116527,-0.
 00016336,-0.00010871,0.00004314,0.00001023,-0.00000516,-0.00000446,0.0
 0000119,0.00000432,0.00000193,-0.00002006,0.00000388,0.00002459,-0.000
 03248,0.00003027,0.00000509,-0.00000883,-0.00000201,-0.00000247,-0.000
 00160,-0.00000461,0.00000218,0.00011349,0.00005989,0.00074660,0.000456
 07,-0.00069883,0.00103556,0.12740994,0.07051214,0.17626693,-0.00048317
 ,-0.00056770,-0.00022152,0.00037789,0.00099847,-0.00143909,-0.00987982
 ,-0.00336933,0.00385160,-0.00000608,-0.00000296,-0.00001566,0.00076961
 ,0.00002454,0.00001275,0.00001823,0.00020038,0.00017888,-0.00000051,0.
 00003201,0.00003139,0.00012610,0.00004150,0.00000971,-0.00006835,-0.00
 008990,0.00029120,0.00550769,0.00090789,-0.00346886,-0.00004601,-0.000
 40043,0.00018254,-0.00203799,0.00281835,0.00242290,-0.24075412,-0.0371
 1099,0.10830061,0.00042159,-0.00013784,-0.00012982,0.00021229,0.000223
 11,0.00003433,-0.00004182,-0.00001057,0.00016960,0.00039316,-0.0000505
 3,-0.00037157,-0.00000728,-0.00000140,0.00000267,-0.00001254,-0.000007
 55,-0.00000231,0.00009725,0.00008350,0.00017850,-0.00005981,0.00013730
 ,0.00040269,0.00000107,-0.00000542,-0.00000228,-0.00002414,-0.00000796
 ,-0.00001402,-0.00003875,-0.00001708,0.00000771,-0.00002207,0.00001711
 ,0.00003144,-0.00012576,0.00001003,0.00000216,0.00000503,-0.00001283,0
 .00000332,0.00078745,-0.00043913,0.00020281,0.00087835,0.00073861,-0.0
 0129493,-0.01693825,-0.00260305,0.00960644,0.26095079,-0.00078716,0.00
 031478,0.00023959,0.00016502,-0.00154314,0.00202290,0.02390295,0.00506
 888,-0.01191656,0.00000186,-0.00000562,0.00004569,-0.00018392,0.000158
 20,-0.00110384,0.00005850,0.00003448,0.00010994,-0.00000306,-0.0000555
 9,-0.00004556,-0.00003579,-0.00016221,-0.00007841,0.00015563,0.0001910
 1,-0.00057853,-0.01947760,-0.00723211,0.01274288,-0.00008831,0.0007911
 2,-0.00023495,0.00523161,-0.00474945,-0.00455571,-0.03974893,-0.053574
 66,0.01893685,-0.00015764,-0.00021718,-0.00041799,-0.00000028,-0.00001
 667,0.00031033,0.00001618,-0.00000339,-0.00015955,0.00064380,0.0012021
 2,0.00041861,-0.00000575,0.00000523,-0.00000585,0.00001166,0.00001217,
 0.00000003,0.00020668,-0.00006190,-0.00013493,0.00034940,0.00034379,-0
 .00002449,-0.00000312,0.00000631,0.00000453,0.00003075,0.00001845,0.00
 002492,-0.00000350,0.00004765,0.00001560,0.00002624,0.00000021,0.00004
 409,0.00023067,-0.00002651,-0.00002403,-0.00002524,0.00002276,-0.00000
 993,-0.00038445,0.00089280,-0.00071626,0.00144785,-0.00211175,0.003943
 12,-0.01017594,-0.00236541,0.00644206,0.03860190,0.06301562,-0.0000895
 9,0.00024945,0.00001776,-0.00022480,-0.00022223,0.00080347,0.00911725,
 0.00304532,-0.00631134,-0.00000895,-0.00001690,0.00001576,0.00117107,-
 0.00025280,0.00093230,-0.00013112,-0.00021719,-0.00029433,0.00001149,-
 0.00001571,-0.00001935,-0.00009074,-0.00009043,-0.00004811,0.00002046,
 0.00004758,-0.00012529,0.02118234,0.00631546,-0.01353318,0.00014025,0.
 00015386,-0.00016213,0.00097713,-0.00164523,0.00002699,0.10758391,0.01
 843824,-0.10856486,-0.00016916,-0.00018328,-0.00024814,-0.00006583,-0.
 00006614,0.00014811,0.00001111,-0.00000096,-0.00004456,-0.00047450,0.0
 0014725,0.00087554,0.00000053,-0.00000119,-0.00000563,0.00000872,0.000
 00455,0.00000198,-0.00027848,0.00003475,0.00017109,-0.00035982,-0.0002
 6690,-0.00002102,0.00000025,-0.00000124,0.00000003,0.00001218,0.000001
 48,0.00001121,-0.00000549,0.00000273,0.00003730,0.00001707,0.00002090,
 0.00000727,0.00005714,-0.00000128,-0.00000768,-0.00000094,0.00000665,-
 0.00000453,-0.00035777,-0.00063201,0.00134184,-0.00137137,0.00302085,-
 0.00285421,-0.01771914,-0.00258102,0.01127466,-0.11896319,-0.02529456,
 0.11657902\\0.00000059,-0.00001052,0.00001169,-0.00001289,-0.00018580,
 -0.00001240,-0.00002500,-0.00003299,-0.00019609,-0.00000357,0.00000019
 ,0.00000426,-0.00000834,0.00000960,0.00000737,0.00001098,0.00000787,-0
 .00001738,0.00000251,0.00000163,0.00000200,0.00000295,0.00000847,0.000
 01381,-0.00000975,0.00000530,0.00000108,-0.00000354,-0.00000322,0.0000
 0490,-0.00000308,0.00001245,-0.00000759,0.00001974,0.00022981,0.000069
 07,0.00001598,-0.00003838,0.00012515,0.00000278,0.00000106,-0.00000626
 ,0.00000133,0.00000307,-0.00000855,0.00000147,0.00000322,-0.00000246,0
 .00000140,-0.00000474,-0.00000330,0.00000060,0.00000266,0.00000404,0.0
 0000137,-0.00000078,0.00000521,0.00000039,0.00000110,0.00000044,0.0000
 0019,-0.00000122,-0.00000301,-0.00000042,-0.00000205,0.00000048,0.0000
 0138,0.00000098,0.00000129,0.00000025,0.00000101,0.00000439,-0.0000022
 6,-0.00000211,0.00000123,-0.00000255,0.00000395,-0.00000073,0.00000192
 ,-0.00000068,-0.00000304,0.00000138,-0.00000132,0.00000120,0.00000483,
 -0.00000087,0.00000192,-0.00000119,-0.00000418,0.00000288,0.00000056,-
 0.00000351,-0.00000159\\\@


 THE SECRET OF SUCCESS IN LIFE IS TO EAT WHAT YOU LIKE, AND LET THE FOOD
 FIGHT IT OUT INSIDE YOU. -- FROM A FORTUNE COOKIE
 Job cpu time:       0 days 13 hours 43 minutes 10.4 seconds.
 Elapsed time:       0 days  1 hours  8 minutes 52.5 seconds.
 File lengths (MBytes):  RWF=    719 Int=      0 D2E=      0 Chk=     34 Scr=      1
 Normal termination of Gaussian 16 at Sat Mar  9 02:40:01 2019.
