 Entering Gaussian System, Link 0=g16
 Initial command:
 /sw/Projects/G16/g16/l1.exe "/nvme/pbs/tmpdir/pbs.74203[18].flm1/Gau-10749.inp" -scrdir="/nvme/pbs/tmpdir/pbs.74203[18].flm1/"
 Entering Link 1 = /sw/Projects/G16/g16/l1.exe PID=     10750.
  
 Copyright (c) 1988-2017, Gaussian, Inc.  All Rights Reserved.
  
 This is part of the Gaussian(R) 16 program.  It is based on
 the Gaussian(R) 09 system (copyright 2009, Gaussian, Inc.),
 the Gaussian(R) 03 system (copyright 2003, Gaussian, Inc.),
 the Gaussian(R) 98 system (copyright 1998, Gaussian, Inc.),
 the Gaussian(R) 94 system (copyright 1995, Gaussian, Inc.),
 the Gaussian 92(TM) system (copyright 1992, Gaussian, Inc.),
 the Gaussian 90(TM) system (copyright 1990, Gaussian, Inc.),
 the Gaussian 88(TM) system (copyright 1988, Gaussian, Inc.),
 the Gaussian 86(TM) system (copyright 1986, Carnegie Mellon
 University), and the Gaussian 82(TM) system (copyright 1983,
 Carnegie Mellon University). Gaussian is a federally registered
 trademark of Gaussian, Inc.
  
 This software contains proprietary and confidential information,
 including trade secrets, belonging to Gaussian, Inc.
  
 This software is provided under written license and may be
 used, copied, transmitted, or stored only in accord with that
 written license.
  
 The following legend is applicable only to US Government
 contracts under FAR:
  
                    RESTRICTED RIGHTS LEGEND
  
 Use, reproduction and disclosure by the US Government is
 subject to restrictions as set forth in subparagraphs (a)
 and (c) of the Commercial Computer Software - Restricted
 Rights clause in FAR 52.227-19.
  
 Gaussian, Inc.
 340 Quinnipiac St., Bldg. 40, Wallingford CT 06492
  
  
 ---------------------------------------------------------------
 Warning -- This program may not be used in any manner that
 competes with the business of Gaussian, Inc. or will provide
 assistance to any competitor of Gaussian, Inc.  The licensee
 of this program is prohibited from giving any competitor of
 Gaussian, Inc. access to this program.  By using this program,
 the user acknowledges that Gaussian, Inc. is engaged in the
 business of creating and licensing software in the field of
 computational chemistry and represents and warrants to the
 licensee that it is not a competitor of Gaussian, Inc. and that
 it will not use this program in any manner prohibited above.
 ---------------------------------------------------------------
  

 Cite this work as:
 Gaussian 16, Revision B.01,
 M. J. Frisch, G. W. Trucks, H. B. Schlegel, G. E. Scuseria, 
 M. A. Robb, J. R. Cheeseman, G. Scalmani, V. Barone, 
 G. A. Petersson, H. Nakatsuji, X. Li, M. Caricato, A. V. Marenich, 
 J. Bloino, B. G. Janesko, R. Gomperts, B. Mennucci, H. P. Hratchian, 
 J. V. Ortiz, A. F. Izmaylov, J. L. Sonnenberg, D. Williams-Young, 
 F. Ding, F. Lipparini, F. Egidi, J. Goings, B. Peng, A. Petrone, 
 T. Henderson, D. Ranasinghe, V. G. Zakrzewski, J. Gao, N. Rega, 
 G. Zheng, W. Liang, M. Hada, M. Ehara, K. Toyota, R. Fukuda, 
 J. Hasegawa, M. Ishida, T. Nakajima, Y. Honda, O. Kitao, H. Nakai, 
 T. Vreven, K. Throssell, J. A. Montgomery, Jr., J. E. Peralta, 
 F. Ogliaro, M. J. Bearpark, J. J. Heyd, E. N. Brothers, K. N. Kudin, 
 V. N. Staroverov, T. A. Keith, R. Kobayashi, J. Normand, 
 K. Raghavachari, A. P. Rendell, J. C. Burant, S. S. Iyengar, 
 J. Tomasi, M. Cossi, J. M. Millam, M. Klene, C. Adamo, R. Cammi, 
 J. W. Ochterski, R. L. Martin, K. Morokuma, O. Farkas, 
 J. B. Foresman, and D. J. Fox, Gaussian, Inc., Wallingford CT, 2016.
 
 ******************************************
 Gaussian 16:  ES64L-G16RevB.01 20-Dec-2017
                 9-Mar-2019 
 ******************************************
 %mem=20gb
 %nproc=12
 Will use up to   12 processors via shared memory.
 %chk=4c1_a1_a4_4c1_PSI.inp_extract_18.chk
 ----------------------------------------------------------------------
 #M062X/6-311++G(2d,2p) opt=ModRedundant freq=noraman SCRF=(SMD,solvent
 =water)
 ----------------------------------------------------------------------
 1/18=120,19=15,26=3,38=1/1,3;
 2/9=110,12=2,17=6,18=5,40=1/2;
 3/5=4,6=6,7=1212,11=2,25=1,30=1,70=32201,71=1,72=1,74=-55/1,2,3;
 4//1;
 5/5=2,38=5,53=1/2;
 6/7=2,8=2,9=2,10=2,28=1/1;
 7//1,2,3,16;
 1/18=20,19=15,26=3/3(2);
 2/9=110/2;
 99//99;
 2/9=110/2;
 3/5=4,6=6,7=1212,11=2,25=1,30=1,70=32205,71=1,72=1,74=-55/1,2,3;
 4/5=5,16=3,69=1/1;
 5/5=2,38=5,53=1/2;
 7//1,2,3,16;
 1/18=20,19=15,26=3/3(-5);
 2/9=110/2;
 6/7=2,8=2,9=2,10=2,19=2,28=1/1;
 99/9=1/99;
 --------------------------------
 4c1_a1_a4_4c1_PSI.inp_extract_18
 --------------------------------
 Symbolic Z-matrix:
 Charge =  0 Multiplicity = 1
 C                    -2.09376  -0.81303   1.24606 
 C                     0.82867   0.08112  -0.59297 
 C                    -1.06793   0.28141   1.0056 
 C                     3.62865   0.00373   0.14954 
 C                    -3.41229  -0.25294  -0.61608 
 O                    -2.6816   -1.26805   0.04738 
 C                     2.88528  -1.30856  -0.09984 
 C                     2.65494   1.0821    0.59464 
 C                     1.71763  -1.06437  -1.0568 
 C                    -2.49233   0.87792  -1.04679 
 O                     1.58973   1.23631  -0.33307 
 O                     0.13673  -0.33249   0.54338 
 C                    -1.66939   1.39611   0.14073 
 H                    -2.86978  -0.43298   1.90625 
 H                    -1.62911  -1.66801   1.71655 
 H                     0.14975   0.36885  -1.37496 
 H                    -0.81994   0.70919   1.97069 
 H                     4.12452   0.32511  -0.76359 
 H                     4.39439  -0.11882   0.9104 
 H                    -3.88624  -0.72053  -1.46822 
 H                    -4.19032   0.113     0.05031 
 H                     2.51974  -1.707     0.84276 
 H                     3.5551   -2.05285  -0.51963 
 H                     3.1346    2.04969   0.64999 
 H                     2.24922   0.85102   1.57407 
 H                     2.10407  -0.79659  -2.03655 
 H                     1.10912  -1.9539   -1.1785 
 H                    -3.08902   1.68641  -1.45929 
 H                    -1.85081   0.5188   -1.84402 
 H                    -0.90809   2.09377  -0.18377 
 H                    -2.333     1.9477    0.80151 
 
 The following ModRedundant input section has been read:
 D      13       3      12       2 F                                           
 

 GradGradGradGradGradGradGradGradGradGradGradGradGradGradGradGradGradGrad
 Berny optimization.
 Initialization pass.
                           ----------------------------
                           !    Initial Parameters    !
                           ! (Angstroms and Degrees)  !
 --------------------------                            --------------------------
 ! Name  Definition              Value          Derivative Info.                !
 --------------------------------------------------------------------------------
 ! R1    R(1,3)                  1.5192         estimate D2E/DX2                !
 ! R2    R(1,6)                  1.4105         estimate D2E/DX2                !
 ! R3    R(1,14)                 1.0874         estimate D2E/DX2                !
 ! R4    R(1,15)                 1.0809         estimate D2E/DX2                !
 ! R5    R(2,9)                  1.5223         estimate D2E/DX2                !
 ! R6    R(2,11)                 1.4076         estimate D2E/DX2                !
 ! R7    R(2,12)                 1.3932         estimate D2E/DX2                !
 ! R8    R(2,16)                 1.0748         estimate D2E/DX2                !
 ! R9    R(3,12)                 1.4289         estimate D2E/DX2                !
 ! R10   R(3,13)                 1.5337         estimate D2E/DX2                !
 ! R11   R(3,17)                 1.0844         estimate D2E/DX2                !
 ! R12   R(4,7)                  1.5287         estimate D2E/DX2                !
 ! R13   R(4,8)                  1.5196         estimate D2E/DX2                !
 ! R14   R(4,18)                 1.0876         estimate D2E/DX2                !
 ! R15   R(4,19)                 1.0864         estimate D2E/DX2                !
 ! R16   R(5,6)                  1.4158         estimate D2E/DX2                !
 ! R17   R(5,10)                 1.5201         estimate D2E/DX2                !
 ! R18   R(5,20)                 1.0814         estimate D2E/DX2                !
 ! R19   R(5,21)                 1.0878         estimate D2E/DX2                !
 ! R20   R(7,9)                  1.5293         estimate D2E/DX2                !
 ! R21   R(7,22)                 1.0867         estimate D2E/DX2                !
 ! R22   R(7,23)                 1.0857         estimate D2E/DX2                !
 ! R23   R(8,11)                 1.4209         estimate D2E/DX2                !
 ! R24   R(8,24)                 1.0814         estimate D2E/DX2                !
 ! R25   R(8,25)                 1.085          estimate D2E/DX2                !
 ! R26   R(9,26)                 1.0867         estimate D2E/DX2                !
 ! R27   R(9,27)                 1.0846         estimate D2E/DX2                !
 ! R28   R(10,13)                1.5349         estimate D2E/DX2                !
 ! R29   R(10,28)                1.0862         estimate D2E/DX2                !
 ! R30   R(10,29)                1.0845         estimate D2E/DX2                !
 ! R31   R(13,30)                1.0824         estimate D2E/DX2                !
 ! R32   R(13,31)                1.0869         estimate D2E/DX2                !
 ! A1    A(3,1,6)              112.2909         estimate D2E/DX2                !
 ! A2    A(3,1,14)             109.0376         estimate D2E/DX2                !
 ! A3    A(3,1,15)             110.3943         estimate D2E/DX2                !
 ! A4    A(6,1,14)             109.3461         estimate D2E/DX2                !
 ! A5    A(6,1,15)             107.0923         estimate D2E/DX2                !
 ! A6    A(14,1,15)            108.601          estimate D2E/DX2                !
 ! A7    A(9,2,11)             110.9816         estimate D2E/DX2                !
 ! A8    A(9,2,12)             108.3688         estimate D2E/DX2                !
 ! A9    A(9,2,16)             110.402          estimate D2E/DX2                !
 ! A10   A(11,2,12)            111.197          estimate D2E/DX2                !
 ! A11   A(11,2,16)            104.8432         estimate D2E/DX2                !
 ! A12   A(12,2,16)            111.0487         estimate D2E/DX2                !
 ! A13   A(1,3,12)             108.1179         estimate D2E/DX2                !
 ! A14   A(1,3,13)             110.3675         estimate D2E/DX2                !
 ! A15   A(1,3,17)             107.3221         estimate D2E/DX2                !
 ! A16   A(12,3,13)            117.4167         estimate D2E/DX2                !
 ! A17   A(12,3,17)            105.3421         estimate D2E/DX2                !
 ! A18   A(13,3,17)            107.7484         estimate D2E/DX2                !
 ! A19   A(7,4,8)              110.2047         estimate D2E/DX2                !
 ! A20   A(7,4,18)             109.7796         estimate D2E/DX2                !
 ! A21   A(7,4,19)             111.1101         estimate D2E/DX2                !
 ! A22   A(8,4,18)             109.1694         estimate D2E/DX2                !
 ! A23   A(8,4,19)             109.0596         estimate D2E/DX2                !
 ! A24   A(18,4,19)            107.4552         estimate D2E/DX2                !
 ! A25   A(6,5,10)             110.7214         estimate D2E/DX2                !
 ! A26   A(6,5,20)             106.5848         estimate D2E/DX2                !
 ! A27   A(6,5,21)             108.8599         estimate D2E/DX2                !
 ! A28   A(10,5,20)            111.3241         estimate D2E/DX2                !
 ! A29   A(10,5,21)            110.8654         estimate D2E/DX2                !
 ! A30   A(20,5,21)            108.3439         estimate D2E/DX2                !
 ! A31   A(1,6,5)              112.4598         estimate D2E/DX2                !
 ! A32   A(4,7,9)              109.6512         estimate D2E/DX2                !
 ! A33   A(4,7,22)             109.6844         estimate D2E/DX2                !
 ! A34   A(4,7,23)             110.5817         estimate D2E/DX2                !
 ! A35   A(9,7,22)             110.1509         estimate D2E/DX2                !
 ! A36   A(9,7,23)             109.7879         estimate D2E/DX2                !
 ! A37   A(22,7,23)            106.9502         estimate D2E/DX2                !
 ! A38   A(4,8,11)             111.4777         estimate D2E/DX2                !
 ! A39   A(4,8,24)             111.4534         estimate D2E/DX2                !
 ! A40   A(4,8,25)             110.6632         estimate D2E/DX2                !
 ! A41   A(11,8,24)            105.5944         estimate D2E/DX2                !
 ! A42   A(11,8,25)            109.3988         estimate D2E/DX2                !
 ! A43   A(24,8,25)            108.0724         estimate D2E/DX2                !
 ! A44   A(2,9,7)              112.0447         estimate D2E/DX2                !
 ! A45   A(2,9,26)             107.2732         estimate D2E/DX2                !
 ! A46   A(2,9,27)             108.8867         estimate D2E/DX2                !
 ! A47   A(7,9,26)             109.3893         estimate D2E/DX2                !
 ! A48   A(7,9,27)             111.5692         estimate D2E/DX2                !
 ! A49   A(26,9,27)            107.4843         estimate D2E/DX2                !
 ! A50   A(5,10,13)            110.8802         estimate D2E/DX2                !
 ! A51   A(5,10,28)            109.2003         estimate D2E/DX2                !
 ! A52   A(5,10,29)            108.6595         estimate D2E/DX2                !
 ! A53   A(13,10,28)           109.6977         estimate D2E/DX2                !
 ! A54   A(13,10,29)           111.3084         estimate D2E/DX2                !
 ! A55   A(28,10,29)           106.9937         estimate D2E/DX2                !
 ! A56   A(2,11,8)             115.9004         estimate D2E/DX2                !
 ! A57   A(2,12,3)             123.7106         estimate D2E/DX2                !
 ! A58   A(3,13,10)            113.6511         estimate D2E/DX2                !
 ! A59   A(3,13,30)            111.2035         estimate D2E/DX2                !
 ! A60   A(3,13,31)            105.394          estimate D2E/DX2                !
 ! A61   A(10,13,30)           111.2697         estimate D2E/DX2                !
 ! A62   A(10,13,31)           108.3218         estimate D2E/DX2                !
 ! A63   A(30,13,31)           106.5343         estimate D2E/DX2                !
 ! D1    D(6,1,3,12)           -78.1825         estimate D2E/DX2                !
 ! D2    D(6,1,3,13)            51.4798         estimate D2E/DX2                !
 ! D3    D(6,1,3,17)           168.6351         estimate D2E/DX2                !
 ! D4    D(14,1,3,12)          160.4717         estimate D2E/DX2                !
 ! D5    D(14,1,3,13)          -69.866          estimate D2E/DX2                !
 ! D6    D(14,1,3,17)           47.2893         estimate D2E/DX2                !
 ! D7    D(15,1,3,12)           41.2437         estimate D2E/DX2                !
 ! D8    D(15,1,3,13)          170.906          estimate D2E/DX2                !
 ! D9    D(15,1,3,17)          -71.9387         estimate D2E/DX2                !
 ! D10   D(3,1,6,5)            -63.0822         estimate D2E/DX2                !
 ! D11   D(14,1,6,5)            58.0867         estimate D2E/DX2                !
 ! D12   D(15,1,6,5)           175.5802         estimate D2E/DX2                !
 ! D13   D(11,2,9,7)            52.0919         estimate D2E/DX2                !
 ! D14   D(11,2,9,26)          -67.9745         estimate D2E/DX2                !
 ! D15   D(11,2,9,27)          175.9905         estimate D2E/DX2                !
 ! D16   D(12,2,9,7)           -70.278          estimate D2E/DX2                !
 ! D17   D(12,2,9,26)          169.6556         estimate D2E/DX2                !
 ! D18   D(12,2,9,27)           53.6206         estimate D2E/DX2                !
 ! D19   D(16,2,9,7)           167.9005         estimate D2E/DX2                !
 ! D20   D(16,2,9,26)           47.8342         estimate D2E/DX2                !
 ! D21   D(16,2,9,27)          -68.2009         estimate D2E/DX2                !
 ! D22   D(9,2,11,8)           -55.4035         estimate D2E/DX2                !
 ! D23   D(12,2,11,8)           65.3088         estimate D2E/DX2                !
 ! D24   D(16,2,11,8)         -174.6051         estimate D2E/DX2                !
 ! D25   D(9,2,12,3)          -159.4526         estimate D2E/DX2                !
 ! D26   D(11,2,12,3)           78.3089         estimate D2E/DX2                !
 ! D27   D(16,2,12,3)          -38.0285         estimate D2E/DX2                !
 ! D28   D(1,3,12,2)           129.7673         estimate D2E/DX2                !
 ! D29   D(13,3,12,2)            4.1579         Frozen                          !
 ! D30   D(17,3,12,2)         -115.7372         estimate D2E/DX2                !
 ! D31   D(1,3,13,10)          -43.5484         estimate D2E/DX2                !
 ! D32   D(1,3,13,30)         -170.0382         estimate D2E/DX2                !
 ! D33   D(1,3,13,31)           74.9107         estimate D2E/DX2                !
 ! D34   D(12,3,13,10)          80.9414         estimate D2E/DX2                !
 ! D35   D(12,3,13,30)         -45.5484         estimate D2E/DX2                !
 ! D36   D(12,3,13,31)        -160.5995         estimate D2E/DX2                !
 ! D37   D(17,3,13,10)        -160.4396         estimate D2E/DX2                !
 ! D38   D(17,3,13,30)          73.0706         estimate D2E/DX2                !
 ! D39   D(17,3,13,31)         -41.9806         estimate D2E/DX2                !
 ! D40   D(8,4,7,9)             52.7137         estimate D2E/DX2                !
 ! D41   D(8,4,7,22)           -68.3673         estimate D2E/DX2                !
 ! D42   D(8,4,7,23)           173.9171         estimate D2E/DX2                !
 ! D43   D(18,4,7,9)           -67.5631         estimate D2E/DX2                !
 ! D44   D(18,4,7,22)          171.3558         estimate D2E/DX2                !
 ! D45   D(18,4,7,23)           53.6403         estimate D2E/DX2                !
 ! D46   D(19,4,7,9)           173.7164         estimate D2E/DX2                !
 ! D47   D(19,4,7,22)           52.6353         estimate D2E/DX2                !
 ! D48   D(19,4,7,23)          -65.0803         estimate D2E/DX2                !
 ! D49   D(7,4,8,11)           -54.7251         estimate D2E/DX2                !
 ! D50   D(7,4,8,24)          -172.4359         estimate D2E/DX2                !
 ! D51   D(7,4,8,25)            67.2705         estimate D2E/DX2                !
 ! D52   D(18,4,8,11)           65.9187         estimate D2E/DX2                !
 ! D53   D(18,4,8,24)          -51.7922         estimate D2E/DX2                !
 ! D54   D(18,4,8,25)         -172.0858         estimate D2E/DX2                !
 ! D55   D(19,4,8,11)         -176.9459         estimate D2E/DX2                !
 ! D56   D(19,4,8,24)           65.3432         estimate D2E/DX2                !
 ! D57   D(19,4,8,25)          -54.9503         estimate D2E/DX2                !
 ! D58   D(10,5,6,1)            63.4319         estimate D2E/DX2                !
 ! D59   D(20,5,6,1)          -175.3473         estimate D2E/DX2                !
 ! D60   D(21,5,6,1)           -58.6841         estimate D2E/DX2                !
 ! D61   D(6,5,10,13)          -53.2143         estimate D2E/DX2                !
 ! D62   D(6,5,10,28)         -174.2011         estimate D2E/DX2                !
 ! D63   D(6,5,10,29)           69.4235         estimate D2E/DX2                !
 ! D64   D(20,5,10,13)        -171.5918         estimate D2E/DX2                !
 ! D65   D(20,5,10,28)          67.4214         estimate D2E/DX2                !
 ! D66   D(20,5,10,29)         -48.9541         estimate D2E/DX2                !
 ! D67   D(21,5,10,13)          67.7205         estimate D2E/DX2                !
 ! D68   D(21,5,10,28)         -53.2663         estimate D2E/DX2                !
 ! D69   D(21,5,10,29)        -169.6417         estimate D2E/DX2                !
 ! D70   D(4,7,9,2)            -51.9595         estimate D2E/DX2                !
 ! D71   D(4,7,9,26)            66.8648         estimate D2E/DX2                !
 ! D72   D(4,7,9,27)          -174.344          estimate D2E/DX2                !
 ! D73   D(22,7,9,2)            68.8396         estimate D2E/DX2                !
 ! D74   D(22,7,9,26)         -172.3361         estimate D2E/DX2                !
 ! D75   D(22,7,9,27)          -53.545          estimate D2E/DX2                !
 ! D76   D(23,7,9,2)          -173.6401         estimate D2E/DX2                !
 ! D77   D(23,7,9,26)          -54.8159         estimate D2E/DX2                !
 ! D78   D(23,7,9,27)           63.9753         estimate D2E/DX2                !
 ! D79   D(4,8,11,2)            57.4841         estimate D2E/DX2                !
 ! D80   D(24,8,11,2)          178.6737         estimate D2E/DX2                !
 ! D81   D(25,8,11,2)          -65.239          estimate D2E/DX2                !
 ! D82   D(5,10,13,3)           44.9109         estimate D2E/DX2                !
 ! D83   D(5,10,13,30)         171.366          estimate D2E/DX2                !
 ! D84   D(5,10,13,31)         -71.8516         estimate D2E/DX2                !
 ! D85   D(28,10,13,3)         165.6036         estimate D2E/DX2                !
 ! D86   D(28,10,13,30)        -67.9414         estimate D2E/DX2                !
 ! D87   D(28,10,13,31)         48.841          estimate D2E/DX2                !
 ! D88   D(29,10,13,3)         -76.1768         estimate D2E/DX2                !
 ! D89   D(29,10,13,30)         50.2782         estimate D2E/DX2                !
 ! D90   D(29,10,13,31)        167.0606         estimate D2E/DX2                !
 --------------------------------------------------------------------------------
 Trust Radius=3.00D-01 FncErr=1.00D-07 GrdErr=1.00D-06 EigMax=2.50D+02 EigMin=1.00D-04
 Number of steps in this run=    186 maximum allowed number of steps=    186.
 GradGradGradGradGradGradGradGradGradGradGradGradGradGradGradGradGradGrad

                          Input orientation:                          
 ---------------------------------------------------------------------
 Center     Atomic      Atomic             Coordinates (Angstroms)
 Number     Number       Type             X           Y           Z
 ---------------------------------------------------------------------
      1          6           0       -2.093756   -0.813031    1.246058
      2          6           0        0.828673    0.081121   -0.592965
      3          6           0       -1.067928    0.281408    1.005596
      4          6           0        3.628652    0.003730    0.149535
      5          6           0       -3.412291   -0.252940   -0.616075
      6          8           0       -2.681599   -1.268046    0.047376
      7          6           0        2.885278   -1.308556   -0.099835
      8          6           0        2.654940    1.082097    0.594639
      9          6           0        1.717626   -1.064374   -1.056799
     10          6           0       -2.492325    0.877923   -1.046788
     11          8           0        1.589734    1.236313   -0.333068
     12          8           0        0.136728   -0.332487    0.543376
     13          6           0       -1.669389    1.396106    0.140725
     14          1           0       -2.869780   -0.432975    1.906245
     15          1           0       -1.629107   -1.668014    1.716545
     16          1           0        0.149747    0.368848   -1.374961
     17          1           0       -0.819943    0.709187    1.970690
     18          1           0        4.124521    0.325111   -0.763592
     19          1           0        4.394394   -0.118819    0.910400
     20          1           0       -3.886244   -0.720531   -1.468223
     21          1           0       -4.190320    0.112998    0.050311
     22          1           0        2.519744   -1.707003    0.842756
     23          1           0        3.555096   -2.052846   -0.519628
     24          1           0        3.134602    2.049688    0.649990
     25          1           0        2.249219    0.851015    1.574074
     26          1           0        2.104074   -0.796588   -2.036555
     27          1           0        1.109124   -1.953899   -1.178499
     28          1           0       -3.089022    1.686409   -1.459290
     29          1           0       -1.850806    0.518797   -1.844017
     30          1           0       -0.908085    2.093772   -0.183767
     31          1           0       -2.332998    1.947700    0.801513
 ---------------------------------------------------------------------
                    Distance matrix (angstroms):
                    1          2          3          4          5
     1  C    0.000000
     2  C    3.566806   0.000000
     3  C    1.519191   2.488495   0.000000
     4  C    5.883487   2.897788   4.782030   0.000000
     5  C    2.349420   4.254163   2.900238   7.087095   0.000000
     6  O    1.410474   3.814747   2.433707   6.437944   1.415810
     7  C    5.181482   2.530613   4.402022   1.528687   6.406263
     8  C    5.154219   2.397417   3.830109   1.519575   6.329253
     9  C    4.460152   1.522346   3.718052   2.499622   5.212361
    10  C    2.876687   3.445269   2.568466   6.297758   1.520099
    11  O    4.501283   1.407561   3.125225   2.430916   5.226684
    12  O    2.387414   1.393245   1.428884   3.530111   3.734460
    13  C    2.506419   2.916813   1.533724   5.477958   2.515911
    14  H    1.087429   4.493206   2.137331   6.745840   2.586277
    15  H    1.080857   3.799209   2.149562   5.735353   3.259340
    16  H    3.646901   1.074823   2.675337   3.815780   3.694678
    17  H    2.113017   3.112030   1.084388   4.858423   3.786464
    18  H    6.633327   3.309269   5.485751   1.087645   7.560386
    19  H    6.533811   3.874848   5.477792   1.086414   7.955655
    20  H    3.254058   4.862012   3.881568   7.721098   1.081401
    21  H    2.585135   5.060149   3.269597   7.820365   1.087801
    22  H    4.716590   2.849281   4.105080   2.153332   6.279453
    23  H    6.046844   3.463030   5.398833   2.163953   7.196766
    24  H    5.990508   3.276813   4.573240   2.163443   7.054561
    25  H    4.662411   2.703099   3.413368   2.156395   6.169940
    26  H    5.328939   2.116831   4.525302   2.782775   5.722202
    27  H    4.175943   2.136073   3.808730   3.456010   4.863412
    28  H    3.815319   4.321551   3.483463   7.109632   2.139296
    29  H    3.373626   2.989364   2.964717   5.853546   2.131116
    30  H    3.449597   2.689709   2.173660   5.006131   3.459045
    31  H    2.806509   3.927448   2.102042   6.304393   2.831474
                    6          7          8          9         10
     6  O    0.000000
     7  C    5.568970   0.000000
     8  C    5.856733   2.500114   0.000000
     9  C    4.540249   1.529319   2.865858   0.000000
    10  C    2.416237   5.881839   5.406506   4.636411   0.000000
    11  O    4.965968   2.865168   1.420946   2.415223   4.159453
    12  O    3.010690   2.986797   2.888783   2.365472   3.302368
    13  C    2.851489   5.302646   4.359411   4.354296   1.534902
    14  H    2.046497   6.157247   5.876928   5.497507   3.252896
    15  H    2.013415   4.879356   5.212949   4.388216   3.855250
    16  H    3.566369   3.452935   3.265584   2.147929   2.710609
    17  H    3.327815   4.699683   3.755981   4.330181   3.454057
    18  H    7.036980   2.155264   2.139506   2.794599   6.645935
    19  H    7.220472   2.171055   2.137195   3.453843   7.228484
    20  H    2.011960   6.933381   7.091682   5.629463   2.162330
    21  H    2.045368   7.218549   6.934914   6.125008   2.161463
    22  H    5.280083   1.086671   2.803376   2.159786   5.947525
    23  H    6.311400   1.085749   3.446700   2.154513   6.740816
    24  H    6.722998   3.449957   1.081375   3.823393   5.992862
    25  H    5.579802   2.805404   1.085035   3.297393   5.417738
    26  H    5.240964   2.150180   3.279648   1.086726   4.991043
    27  H    4.042616   2.175938   3.840682   1.084592   4.583339
    28  H    3.341383   6.819838   6.130001   5.552717   1.086211
    29  H    2.731372   5.367670   5.154231   3.982443   1.084478
    30  H    3.807965   5.096321   3.784779   4.198860   2.175525
    31  H    3.321335   6.216594   5.066714   5.378984   2.141501
                   11         12         13         14         15
    11  O    0.000000
    12  O    2.310955   0.000000
    13  C    3.297256   2.532236   0.000000
    14  H    5.261968   3.302514   2.811323   0.000000
    15  H    4.795515   2.505620   3.445818   1.760846   0.000000
    16  H    1.977776   2.042561   2.581050   4.530649   4.107376
    17  H    3.375160   2.009360   2.131241   2.347449   2.523969
    18  H    2.727780   4.247716   5.961058   7.524824   6.574790
    19  H    3.353910   4.278794   6.297369   7.338844   6.271558
    20  H    5.924876   4.514578   3.461692   3.535947   4.016857
    21  H    5.900664   4.377775   2.830130   2.342307   3.536687
    22  H    3.303118   2.767253   5.260320   5.639249   4.240046
    23  H    3.836146   3.971757   6.294965   7.056052   5.659022
    24  H    2.003646   3.830584   4.874920   6.617733   6.136104
    25  H    2.054402   2.631660   4.207981   5.288017   4.626793
    26  H    2.701685   3.277481   4.877241   6.357445   5.364866
    27  H    3.335145   2.557222   4.547859   5.259328   3.995112
    28  H    4.833396   4.300241   2.158630   3.983300   4.844526
    29  H    3.825586   3.220966   2.177564   4.001080   4.184363
    30  H    2.645114   2.739909   1.082412   3.821106   4.275756
    31  H    4.145018   3.371266   1.086864   2.678840   3.795541
                   16         17         18         19         20
    16  H    0.000000
    17  H    3.499930   0.000000
    18  H    4.021755   5.663174   0.000000
    19  H    4.845382   5.385083   1.752756   0.000000
    20  H    4.181467   4.824149   8.109391   8.636485   0.000000
    21  H    4.575264   3.924632   8.357273   8.630806   1.758743
    22  H    3.852832   4.273607   3.047154   2.457889   6.881165
    23  H    4.265278   5.742079   2.457324   2.547521   7.618952
    24  H    3.979323   4.379454   2.439738   2.521371   7.839210
    25  H    3.651996   3.097931   3.042699   2.445980   7.026324
    26  H    2.369671   5.184134   2.638342   3.793347   6.017699
    27  H    2.520745   4.553100   3.802454   4.303954   5.153527
    28  H    3.497528   4.227108   7.373760   8.054551   2.535548
    29  H    2.060270   3.956124   6.075308   6.855355   2.412501
    30  H    2.348045   2.562524   5.365769   5.848850   4.294131
    31  H    3.659759   2.278206   6.839730   7.038477   3.831936
                   21         22         23         24         25
    21  H    0.000000
    22  H    6.997523   0.000000
    23  H    8.062703   1.745752   0.000000
    24  H    7.600320   3.811553   4.286678   0.000000
    25  H    6.658392   2.674222   3.810684   1.753468   0.000000
    26  H    6.693411   3.048289   2.446368   4.047320   3.971436
    27  H    5.819463   2.477151   2.535090   4.845064   4.091945
    28  H    2.442821   6.947871   7.681751   6.581377   6.196450
    29  H    3.037512   5.592374   6.131161   5.780830   5.348263
    30  H    3.840745   5.220120   6.101412   4.128003   3.821390
    31  H    2.716630   6.075167   7.240127   5.470650   4.774545
                   26         27         28         29         30
    26  H    0.000000
    27  H    1.750872   0.000000
    28  H    5.785046   5.563732   0.000000
    29  H    4.172336   3.913863   1.744853   0.000000
    30  H    4.567287   4.630579   2.559178   2.475015   0.000000
    31  H    5.939138   5.566967   2.398140   3.045177   1.738531
                   31
    31  H    0.000000
 Stoichiometry    C10H18O3
 Framework group  C1[X(C10H18O3)]
 Deg. of freedom    87
 Full point group                 C1      NOp   1
 Largest Abelian subgroup         C1      NOp   1
 Largest concise Abelian subgroup C1      NOp   1
                         Standard orientation:                         
 ---------------------------------------------------------------------
 Center     Atomic      Atomic             Coordinates (Angstroms)
 Number     Number       Type             X           Y           Z
 ---------------------------------------------------------------------
      1          6           0       -2.093756   -0.813031    1.246058
      2          6           0        0.828673    0.081121   -0.592965
      3          6           0       -1.067928    0.281408    1.005596
      4          6           0        3.628652    0.003730    0.149535
      5          6           0       -3.412291   -0.252940   -0.616075
      6          8           0       -2.681599   -1.268046    0.047376
      7          6           0        2.885278   -1.308556   -0.099835
      8          6           0        2.654940    1.082097    0.594639
      9          6           0        1.717626   -1.064374   -1.056799
     10          6           0       -2.492325    0.877923   -1.046788
     11          8           0        1.589734    1.236313   -0.333068
     12          8           0        0.136728   -0.332487    0.543376
     13          6           0       -1.669389    1.396106    0.140725
     14          1           0       -2.869780   -0.432975    1.906245
     15          1           0       -1.629107   -1.668014    1.716545
     16          1           0        0.149747    0.368848   -1.374961
     17          1           0       -0.819943    0.709187    1.970690
     18          1           0        4.124521    0.325111   -0.763592
     19          1           0        4.394394   -0.118819    0.910400
     20          1           0       -3.886244   -0.720531   -1.468223
     21          1           0       -4.190320    0.112998    0.050311
     22          1           0        2.519744   -1.707003    0.842756
     23          1           0        3.555096   -2.052846   -0.519628
     24          1           0        3.134602    2.049688    0.649990
     25          1           0        2.249219    0.851015    1.574074
     26          1           0        2.104074   -0.796588   -2.036555
     27          1           0        1.109124   -1.953899   -1.178499
     28          1           0       -3.089022    1.686409   -1.459290
     29          1           0       -1.850806    0.518797   -1.844017
     30          1           0       -0.908085    2.093772   -0.183767
     31          1           0       -2.332998    1.947700    0.801513
 ---------------------------------------------------------------------
 Rotational constants (GHZ):           1.7803261           0.4570590           0.4315296
 Standard basis: 6-311++G(2d,2p) (5D, 7F)
 There are   557 symmetry adapted cartesian basis functions of A   symmetry.
 There are   531 symmetry adapted basis functions of A   symmetry.
   531 basis functions,   762 primitive gaussians,   557 cartesian basis functions
    51 alpha electrons       51 beta electrons
       nuclear repulsion energy       906.7475881755 Hartrees.
 NAtoms=   31 NActive=   31 NUniq=   31 SFac= 1.00D+00 NAtFMM=   60 NAOKFM=F Big=F
 Integral buffers will be    131072 words long.
 Raffenetti 2 integral format.
 Two-electron integral symmetry is turned on.
 ------------------------------------------------------------------------------
 Polarizable Continuum Model (PCM)
 =================================
 Model                : PCM.
 Atomic radii         : SMD-Coulomb.
 Polarization charges : Total charges.
 Charge compensation  : None.
 Solution method      : On-the-fly selection.
 Cavity type          : VdW (van der Waals Surface) (Alpha=1.000).
 Cavity algorithm     : GePol (No added spheres)
                        Default sphere list used, NSphG=   31.
                        Lebedev-Laikov grids with approx.  5.0 points / Ang**2.
                        Smoothing algorithm: York/Karplus (Gamma=1.0000).
                        Polarization charges: spherical gaussians, with
                                              point-specific exponents (IZeta= 3).
                        Self-potential: point-specific (ISelfS= 7).
                        Self-field    : sphere-specific E.n sum rule (ISelfD= 2).
 1st derivatives      : Analytical E(r).r(x)/FMM algorithm (CHGder, D1EAlg=3).
                        Cavity 1st derivative terms included.
 Solvent              : Water, Eps=  78.355300 Eps(inf)=   1.777849
 ------------------------------------------------------------------------------
 ------------------------------------------------------------------------------
 Atomic radii for non-electrostatic terms: SMD-CDS.
 ------------------------------------------------------------------------------
 Nuclear repulsion after PCM non-electrostatic terms =      906.7540117023 Hartrees.
 One-electron integrals computed using PRISM.
 NBasis=   531 RedAO= T EigKep=  3.46D-06  NBF=   531
 NBsUse=   531 1.00D-06 EigRej= -1.00D+00 NBFU=   531
 ExpMin= 3.60D-02 ExpMax= 8.59D+03 ExpMxC= 1.30D+03 IAcc=3 IRadAn=         5 AccDes= 0.00D+00
 Harris functional with IExCor= 1009 and IRadAn=       5 diagonalized for initial guess.
 HarFok:  IExCor= 1009 AccDes= 0.00D+00 IRadAn=         5 IDoV= 1 UseB2=F ITyADJ=14
 ICtDFT=  3500011 ScaDFX=  1.000000  1.000000  1.000000  1.000000
 FoFCou: FMM=F IPFlag=           0 FMFlag=      100000 FMFlg1=           0
         NFxFlg=           0 DoJE=T BraDBF=F KetDBF=T FulRan=T
         wScrn=  0.000000 ICntrl=       500 IOpCl=  0 I1Cent=   200000004 NGrid=           0
         NMat0=    1 NMatS0=      1 NMatT0=    0 NMatD0=    1 NMtDS0=    0 NMtDT0=    0
 Petite list used in FoFCou.
 Requested convergence on RMS density matrix=1.00D-08 within 128 cycles.
 Requested convergence on MAX density matrix=1.00D-06.
 Requested convergence on             energy=1.00D-06.
 No special actions if energy rises.
 Inv3:  Mode=1 IEnd=    11964027.
 Iteration    1 A*A^-1 deviation from unit magnitude is 5.33D-15 for   1996.
 Iteration    1 A*A^-1 deviation from orthogonality  is 3.51D-15 for   1977    603.
 Iteration    1 A^-1*A deviation from unit magnitude is 5.33D-15 for   1996.
 Iteration    1 A^-1*A deviation from orthogonality  is 5.26D-13 for   1688   1662.
 Error on total polarization charges =  0.06054
 SCF Done:  E(RM062X) =  -617.499194822     A.U. after   13 cycles
            NFock= 13  Conv=0.18D-08     -V/T= 2.0035
 SMD-CDS (non-electrostatic) energy       (kcal/mol) =       4.03
 (included in total energy above)

 **********************************************************************

            Population analysis using the SCF Density.

 **********************************************************************

 Orbital symmetries:
       Occupied  (A) (A) (A) (A) (A) (A) (A) (A) (A) (A) (A) (A)
                 (A) (A) (A) (A) (A) (A) (A) (A) (A) (A) (A) (A)
                 (A) (A) (A) (A) (A) (A) (A) (A) (A) (A) (A) (A)
                 (A) (A) (A) (A) (A) (A) (A) (A) (A) (A) (A) (A)
                 (A) (A) (A)
       Virtual   (A) (A) (A) (A) (A) (A) (A) (A) (A) (A) (A) (A)
                 (A) (A) (A) (A) (A) (A) (A) (A) (A) (A) (A) (A)
                 (A) (A) (A) (A) (A) (A) (A) (A) (A) (A) (A) (A)
                 (A) (A) (A) (A) (A) (A) (A) (A) (A) (A) (A) (A)
                 (A) (A) (A) (A) (A) (A) (A) (A) (A) (A) (A) (A)
                 (A) (A) (A) (A) (A) (A) (A) (A) (A) (A) (A) (A)
                 (A) (A) (A) (A) (A) (A) (A) (A) (A) (A) (A) (A)
                 (A) (A) (A) (A) (A) (A) (A) (A) (A) (A) (A) (A)
                 (A) (A) (A) (A) (A) (A) (A) (A) (A) (A) (A) (A)
                 (A) (A) (A) (A) (A) (A) (A) (A) (A) (A) (A) (A)
                 (A) (A) (A) (A) (A) (A) (A) (A) (A) (A) (A) (A)
                 (A) (A) (A) (A) (A) (A) (A) (A) (A) (A) (A) (A)
                 (A) (A) (A) (A) (A) (A) (A) (A) (A) (A) (A) (A)
                 (A) (A) (A) (A) (A) (A) (A) (A) (A) (A) (A) (A)
                 (A) (A) (A) (A) (A) (A) (A) (A) (A) (A) (A) (A)
                 (A) (A) (A) (A) (A) (A) (A) (A) (A) (A) (A) (A)
                 (A) (A) (A) (A) (A) (A) (A) (A) (A) (A) (A) (A)
                 (A) (A) (A) (A) (A) (A) (A) (A) (A) (A) (A) (A)
                 (A) (A) (A) (A) (A) (A) (A) (A) (A) (A) (A) (A)
                 (A) (A) (A) (A) (A) (A) (A) (A) (A) (A) (A) (A)
                 (A) (A) (A) (A) (A) (A) (A) (A) (A) (A) (A) (A)
                 (A) (A) (A) (A) (A) (A) (A) (A) (A) (A) (A) (A)
                 (A) (A) (A) (A) (A) (A) (A) (A) (A) (A) (A) (A)
                 (A) (A) (A) (A) (A) (A) (A) (A) (A) (A) (A) (A)
                 (A) (A) (A) (A) (A) (A) (A) (A) (A) (A) (A) (A)
                 (A) (A) (A) (A) (A) (A) (A) (A) (A) (A) (A) (A)
                 (A) (A) (A) (A) (A) (A) (A) (A) (A) (A) (A) (A)
                 (A) (A) (A) (A) (A) (A) (A) (A) (A) (A) (A) (A)
                 (A) (A) (A) (A) (A) (A) (A) (A) (A) (A) (A) (A)
                 (A) (A) (A) (A) (A) (A) (A) (A) (A) (A) (A) (A)
                 (A) (A) (A) (A) (A) (A) (A) (A) (A) (A) (A) (A)
                 (A) (A) (A) (A) (A) (A) (A) (A) (A) (A) (A) (A)
                 (A) (A) (A) (A) (A) (A) (A) (A) (A) (A) (A) (A)
                 (A) (A) (A) (A) (A) (A) (A) (A) (A) (A) (A) (A)
                 (A) (A) (A) (A) (A) (A) (A) (A) (A) (A) (A) (A)
                 (A) (A) (A) (A) (A) (A) (A) (A) (A) (A) (A) (A)
                 (A) (A) (A) (A) (A) (A) (A) (A) (A) (A) (A) (A)
                 (A) (A) (A) (A) (A) (A) (A) (A) (A) (A) (A) (A)
                 (A) (A) (A) (A) (A) (A) (A) (A) (A) (A) (A) (A)
                 (A) (A) (A) (A) (A) (A) (A) (A) (A) (A) (A) (A)
 The electronic state is 1-A.
 Alpha  occ. eigenvalues --  -19.62832 -19.62669 -19.62579 -10.62882 -10.58447
 Alpha  occ. eigenvalues --  -10.57255 -10.57149 -10.57018 -10.52840 -10.52282
 Alpha  occ. eigenvalues --  -10.52255 -10.52216 -10.52027  -1.19807  -1.16681
 Alpha  occ. eigenvalues --   -1.13131  -0.90283  -0.88940  -0.87381  -0.84294
 Alpha  occ. eigenvalues --   -0.74952  -0.73735  -0.72587  -0.70751  -0.66214
 Alpha  occ. eigenvalues --   -0.61656  -0.59643  -0.58651  -0.56469  -0.55129
 Alpha  occ. eigenvalues --   -0.53555  -0.53195  -0.52864  -0.50894  -0.49460
 Alpha  occ. eigenvalues --   -0.47268  -0.46127  -0.45976  -0.45237  -0.44815
 Alpha  occ. eigenvalues --   -0.43265  -0.42666  -0.40453  -0.39873  -0.38599
 Alpha  occ. eigenvalues --   -0.38076  -0.37221  -0.35197  -0.34667  -0.33086
 Alpha  occ. eigenvalues --   -0.31637
 Alpha virt. eigenvalues --    0.00283   0.01283   0.01331   0.01599   0.02731
 Alpha virt. eigenvalues --    0.02922   0.03110   0.03810   0.03939   0.05015
 Alpha virt. eigenvalues --    0.05164   0.05307   0.05859   0.06233   0.07404
 Alpha virt. eigenvalues --    0.07994   0.08095   0.09024   0.09574   0.09905
 Alpha virt. eigenvalues --    0.10223   0.10728   0.11386   0.11821   0.12529
 Alpha virt. eigenvalues --    0.12931   0.13189   0.13435   0.13595   0.13975
 Alpha virt. eigenvalues --    0.14288   0.14752   0.14839   0.15094   0.15518
 Alpha virt. eigenvalues --    0.15596   0.15772   0.16079   0.16591   0.17025
 Alpha virt. eigenvalues --    0.17217   0.17666   0.17699   0.18190   0.18271
 Alpha virt. eigenvalues --    0.18560   0.18721   0.19398   0.19736   0.20057
 Alpha virt. eigenvalues --    0.20361   0.20577   0.20851   0.21492   0.22235
 Alpha virt. eigenvalues --    0.22351   0.22990   0.23993   0.24236   0.24512
 Alpha virt. eigenvalues --    0.25413   0.25689   0.26862   0.27028   0.27742
 Alpha virt. eigenvalues --    0.28319   0.28516   0.29161   0.29680   0.29870
 Alpha virt. eigenvalues --    0.30543   0.31095   0.31287   0.32015   0.32336
 Alpha virt. eigenvalues --    0.33094   0.33312   0.33762   0.34370   0.34936
 Alpha virt. eigenvalues --    0.35605   0.35896   0.36300   0.36830   0.36976
 Alpha virt. eigenvalues --    0.37302   0.37571   0.37812   0.38723   0.39228
 Alpha virt. eigenvalues --    0.39291   0.40076   0.40360   0.40624   0.41557
 Alpha virt. eigenvalues --    0.41994   0.43306   0.43797   0.44593   0.45486
 Alpha virt. eigenvalues --    0.46546   0.48726   0.50048   0.50485   0.51012
 Alpha virt. eigenvalues --    0.51598   0.53224   0.54134   0.55077   0.55413
 Alpha virt. eigenvalues --    0.56429   0.58637   0.58983   0.59452   0.60282
 Alpha virt. eigenvalues --    0.60590   0.61170   0.61748   0.62192   0.62560
 Alpha virt. eigenvalues --    0.63146   0.63665   0.64133   0.64510   0.64896
 Alpha virt. eigenvalues --    0.65808   0.66219   0.67045   0.67527   0.67913
 Alpha virt. eigenvalues --    0.68273   0.68494   0.69898   0.70307   0.70931
 Alpha virt. eigenvalues --    0.71435   0.72210   0.72553   0.73201   0.73697
 Alpha virt. eigenvalues --    0.74026   0.74722   0.75028   0.75691   0.76379
 Alpha virt. eigenvalues --    0.76662   0.78549   0.78946   0.79283   0.79904
 Alpha virt. eigenvalues --    0.81035   0.82726   0.84850   0.85138   0.85925
 Alpha virt. eigenvalues --    0.87464   0.88154   0.88590   0.89912   0.91115
 Alpha virt. eigenvalues --    0.91819   0.92171   0.93453   0.95787   0.97813
 Alpha virt. eigenvalues --    0.98681   0.98934   1.00695   1.01859   1.02684
 Alpha virt. eigenvalues --    1.02957   1.03651   1.04684   1.05421   1.06901
 Alpha virt. eigenvalues --    1.07206   1.08890   1.09792   1.12030   1.12726
 Alpha virt. eigenvalues --    1.14214   1.15185   1.16227   1.17053   1.17969
 Alpha virt. eigenvalues --    1.18812   1.19395   1.20239   1.21243   1.21416
 Alpha virt. eigenvalues --    1.21990   1.22305   1.23475   1.24512   1.24938
 Alpha virt. eigenvalues --    1.25310   1.25781   1.26542   1.27268   1.28732
 Alpha virt. eigenvalues --    1.29328   1.30411   1.31205   1.31922   1.32820
 Alpha virt. eigenvalues --    1.33270   1.33961   1.34174   1.34409   1.35946
 Alpha virt. eigenvalues --    1.36504   1.37046   1.37422   1.38102   1.39019
 Alpha virt. eigenvalues --    1.39753   1.40483   1.41127   1.41724   1.41886
 Alpha virt. eigenvalues --    1.42662   1.43734   1.44090   1.44326   1.46139
 Alpha virt. eigenvalues --    1.46732   1.47055   1.47584   1.48286   1.49019
 Alpha virt. eigenvalues --    1.49889   1.50458   1.50987   1.51578   1.52731
 Alpha virt. eigenvalues --    1.53736   1.54493   1.54787   1.55615   1.56479
 Alpha virt. eigenvalues --    1.57235   1.58133   1.58570   1.59397   1.59989
 Alpha virt. eigenvalues --    1.60053   1.60795   1.61088   1.62287   1.63791
 Alpha virt. eigenvalues --    1.64446   1.65245   1.66496   1.66583   1.67196
 Alpha virt. eigenvalues --    1.68378   1.69185   1.71023   1.71270   1.72705
 Alpha virt. eigenvalues --    1.73326   1.74859   1.75959   1.76472   1.77181
 Alpha virt. eigenvalues --    1.78448   1.80969   1.82437   1.84002   1.86641
 Alpha virt. eigenvalues --    1.87301   1.88848   1.90451   1.96339   1.98790
 Alpha virt. eigenvalues --    2.05407   2.07005   2.13528   2.18809   2.22626
 Alpha virt. eigenvalues --    2.25245   2.26053   2.31398   2.35355   2.38688
 Alpha virt. eigenvalues --    2.42287   2.43689   2.43697   2.46241   2.53684
 Alpha virt. eigenvalues --    2.60866   2.77070   2.77699   2.78441   2.82483
 Alpha virt. eigenvalues --    2.85003   2.89410   2.93224   2.93705   2.95151
 Alpha virt. eigenvalues --    2.95946   2.98502   2.99405   3.02721   3.04248
 Alpha virt. eigenvalues --    3.05147   3.08300   3.09327   3.09718   3.13104
 Alpha virt. eigenvalues --    3.13923   3.15710   3.19346   3.20831   3.21409
 Alpha virt. eigenvalues --    3.24646   3.29570   3.32271   3.33573   3.35571
 Alpha virt. eigenvalues --    3.36210   3.37737   3.38769   3.40960   3.42242
 Alpha virt. eigenvalues --    3.43347   3.45005   3.45766   3.46416   3.47179
 Alpha virt. eigenvalues --    3.48781   3.50063   3.50222   3.51374   3.52194
 Alpha virt. eigenvalues --    3.53787   3.54190   3.55145   3.55961   3.56467
 Alpha virt. eigenvalues --    3.57118   3.58102   3.58499   3.59254   3.59780
 Alpha virt. eigenvalues --    3.60747   3.61807   3.63338   3.65357   3.65995
 Alpha virt. eigenvalues --    3.66569   3.68005   3.68548   3.69917   3.70047
 Alpha virt. eigenvalues --    3.70509   3.72222   3.72404   3.74186   3.74993
 Alpha virt. eigenvalues --    3.76009   3.76344   3.76614   3.77151   3.77887
 Alpha virt. eigenvalues --    3.80741   3.80916   3.82614   3.83868   3.84588
 Alpha virt. eigenvalues --    3.86369   3.87312   3.89494   3.90474   3.91753
 Alpha virt. eigenvalues --    3.93686   3.93853   3.95613   3.98161   3.98708
 Alpha virt. eigenvalues --    4.00153   4.02170   4.02855   4.03295   4.05420
 Alpha virt. eigenvalues --    4.06094   4.06683   4.07487   4.07659   4.08663
 Alpha virt. eigenvalues --    4.09117   4.09583   4.10291   4.12306   4.12393
 Alpha virt. eigenvalues --    4.12607   4.14267   4.15275   4.16343   4.17501
 Alpha virt. eigenvalues --    4.17761   4.18868   4.19416   4.20943   4.21783
 Alpha virt. eigenvalues --    4.22089   4.24619   4.25272   4.27344   4.27722
 Alpha virt. eigenvalues --    4.29385   4.30084   4.31155   4.31954   4.33050
 Alpha virt. eigenvalues --    4.33838   4.34278   4.35461   4.38146   4.40360
 Alpha virt. eigenvalues --    4.41851   4.44603   4.46767   4.47419   4.48625
 Alpha virt. eigenvalues --    4.58642   4.62703   4.73976   4.76245   4.81352
 Alpha virt. eigenvalues --    4.86125   4.93977   4.96358   5.01792   5.03408
 Alpha virt. eigenvalues --    5.07102   5.08066   5.09177   5.10267   5.11884
 Alpha virt. eigenvalues --    5.12562   5.14645   5.18081   5.32470   5.38582
 Alpha virt. eigenvalues --    5.42879   5.58856   5.59870   5.65480   5.86267
 Alpha virt. eigenvalues --    5.87270   6.03507   7.02299   7.05114   7.06466
 Alpha virt. eigenvalues --    7.09552   7.10156   7.12228   7.15117   7.18620
 Alpha virt. eigenvalues --    7.29274   7.35702   7.41151   7.45535   7.52215
 Alpha virt. eigenvalues --    7.54681   7.64010  23.96712  23.97898  24.07430
 Alpha virt. eigenvalues --   24.08039  24.11767  24.12584  24.14547  24.15899
 Alpha virt. eigenvalues --   24.16799  24.21730  50.15467  50.18250  50.27468
          Condensed to atoms (all electrons):
               1          2          3          4          5          6
     1  C    6.027878   0.248665  -0.842006   0.011719  -0.292770   0.114763
     2  C    0.248665   8.248892  -1.033780   0.500530   0.121055  -0.030183
     3  C   -0.842006  -1.033780   7.818478  -0.050045   0.156952   0.006058
     4  C    0.011719   0.500530  -0.050045   5.704574   0.003403  -0.000622
     5  C   -0.292770   0.121055   0.156952   0.003403   5.646697   0.105049
     6  O    0.114763  -0.030183   0.006058  -0.000622   0.105049   8.347053
     7  C   -0.022147  -0.554942   0.173495  -0.055188  -0.000332   0.000033
     8  C    0.007681  -0.494450   0.037267  -0.091036  -0.004629   0.000431
     9  C   -0.138714  -1.657932   0.498337  -0.295532  -0.012087   0.010086
    10  C    0.027002  -0.133639   0.111446  -0.013056  -0.131465   0.010875
    11  O   -0.012589   0.150394   0.122373  -0.087843  -0.003318   0.000319
    12  O   -0.099241   0.182734  -0.027519  -0.023162  -0.040248   0.029616
    13  C    0.518410   0.287560  -1.375204   0.019372   0.013509  -0.003772
    14  H    0.441173  -0.013678   0.008966  -0.000989  -0.012285  -0.061143
    15  H    0.436476  -0.005071  -0.039756   0.001728   0.008921  -0.068145
    16  H    0.004017   0.537476  -0.075156   0.052231   0.004554   0.002983
    17  H   -0.006934  -0.049428   0.426371  -0.003627  -0.021438   0.009677
    18  H   -0.000531  -0.012763  -0.000730   0.492482   0.000044  -0.000006
    19  H    0.001122   0.014608  -0.001255   0.446871  -0.000045  -0.000022
    20  H   -0.001644  -0.003571   0.009101  -0.000063   0.449585  -0.063844
    21  H   -0.031851  -0.006668   0.073717   0.000138   0.435448  -0.059288
    22  H    0.003013  -0.030797  -0.004409  -0.069923  -0.000059  -0.000164
    23  H   -0.002744  -0.006240   0.011353  -0.018147  -0.000039   0.000152
    24  H    0.002015   0.003209  -0.000845  -0.027322  -0.000313  -0.000000
    25  H   -0.001762  -0.001158  -0.012818  -0.063583   0.002195  -0.000108
    26  H    0.000642  -0.158218   0.006680  -0.021073   0.000077  -0.000379
    27  H   -0.004943  -0.004456  -0.005386  -0.010108   0.000281   0.000028
    28  H    0.000258   0.002051   0.008027  -0.000863  -0.025958   0.010341
    29  H    0.020496  -0.017760   0.016928  -0.003184  -0.114735  -0.017709
    30  H    0.008792   0.010961  -0.043717  -0.001555  -0.008635  -0.003861
    31  H   -0.002991  -0.006619  -0.045961   0.000423  -0.022812  -0.001315
               7          8          9         10         11         12
     1  C   -0.022147   0.007681  -0.138714   0.027002  -0.012589  -0.099241
     2  C   -0.554942  -0.494450  -1.657932  -0.133639   0.150394   0.182734
     3  C    0.173495   0.037267   0.498337   0.111446   0.122373  -0.027519
     4  C   -0.055188  -0.091036  -0.295532  -0.013056  -0.087843  -0.023162
     5  C   -0.000332  -0.004629  -0.012087  -0.131465  -0.003318  -0.040248
     6  O    0.000033   0.000431   0.010086   0.010875   0.000319   0.029616
     7  C    5.816687  -0.003799   0.235429   0.022311   0.035317  -0.005076
     8  C   -0.003799   5.604641   0.189087  -0.013574   0.090528   0.009954
     9  C    0.235429   0.189087   7.304426   0.077874   0.008553  -0.053877
    10  C    0.022311  -0.013574   0.077874   5.896485   0.012847   0.072456
    11  O    0.035317   0.090528   0.008553   0.012847   8.344079  -0.057006
    12  O   -0.005076   0.009954  -0.053877   0.072456  -0.057006   8.417845
    13  C   -0.103207   0.040182  -0.417226  -0.549072  -0.087928  -0.011176
    14  H    0.002275   0.001037   0.003577   0.044539  -0.000618   0.008423
    15  H   -0.000257  -0.002875   0.002793  -0.000665   0.000466   0.002955
    16  H   -0.069504  -0.069548  -0.176847  -0.034410  -0.107988  -0.031586
    17  H    0.004387   0.010150   0.008326  -0.004279   0.005241  -0.038892
    18  H   -0.020670  -0.085599  -0.001604  -0.000013   0.001748  -0.000873
    19  H   -0.053900  -0.037056  -0.009203  -0.000250   0.008158   0.001293
    20  H    0.000514  -0.000530   0.000540  -0.063784   0.000088   0.000116
    21  H   -0.000463   0.000326   0.001440   0.017021   0.000048   0.000646
    22  H    0.524533   0.008525  -0.049160  -0.001031   0.003658  -0.002637
    23  H    0.435471   0.001368  -0.038140   0.001025  -0.004442   0.001205
    24  H    0.012942   0.434052  -0.007087  -0.000234  -0.068911   0.002794
    25  H   -0.011693   0.464718   0.032775   0.001989  -0.037690   0.005135
    26  H    0.008541   0.019821   0.540051  -0.002982  -0.000080   0.008845
    27  H   -0.049428   0.007390   0.413298  -0.000983   0.008591  -0.001301
    28  H    0.001014  -0.000111   0.002440   0.457581  -0.000023   0.000786
    29  H    0.006486   0.005245   0.028204   0.568359   0.004133   0.002353
    30  H   -0.005264   0.006228  -0.012327  -0.028030  -0.005506  -0.008766
    31  H   -0.000797  -0.000246  -0.007072  -0.032902  -0.001190  -0.000547
              13         14         15         16         17         18
     1  C    0.518410   0.441173   0.436476   0.004017  -0.006934  -0.000531
     2  C    0.287560  -0.013678  -0.005071   0.537476  -0.049428  -0.012763
     3  C   -1.375204   0.008966  -0.039756  -0.075156   0.426371  -0.000730
     4  C    0.019372  -0.000989   0.001728   0.052231  -0.003627   0.492482
     5  C    0.013509  -0.012285   0.008921   0.004554  -0.021438   0.000044
     6  O   -0.003772  -0.061143  -0.068145   0.002983   0.009677  -0.000006
     7  C   -0.103207   0.002275  -0.000257  -0.069504   0.004387  -0.020670
     8  C    0.040182   0.001037  -0.002875  -0.069548   0.010150  -0.085599
     9  C   -0.417226   0.003577   0.002793  -0.176847   0.008326  -0.001604
    10  C   -0.549072   0.044539  -0.000665  -0.034410  -0.004279  -0.000013
    11  O   -0.087928  -0.000618   0.000466  -0.107988   0.005241   0.001748
    12  O   -0.011176   0.008423   0.002955  -0.031586  -0.038892  -0.000873
    13  C    7.260410  -0.073582   0.010057   0.104861   0.000384  -0.001550
    14  H   -0.073582   0.456268   0.000027  -0.000518   0.000374  -0.000021
    15  H    0.010057   0.000027   0.454086  -0.001831  -0.012451  -0.000022
    16  H    0.104861  -0.000518  -0.001831   0.557882  -0.001056   0.002554
    17  H    0.000384   0.000374  -0.012451  -0.001056   0.445983  -0.000195
    18  H   -0.001550  -0.000021  -0.000022   0.002554  -0.000195   0.477682
    19  H    0.002392   0.000002  -0.000030   0.001463   0.000296  -0.012525
    20  H    0.015400   0.000287   0.000694   0.004345  -0.000083   0.000021
    21  H   -0.077620   0.004324  -0.001396  -0.000528   0.003793  -0.000000
    22  H    0.003156  -0.000123  -0.000948  -0.005252   0.000286   0.001382
    23  H   -0.005410   0.000100   0.000091   0.003426   0.000456  -0.001062
    24  H    0.003779   0.000034   0.000118  -0.001763   0.000400  -0.006045
    25  H   -0.009170   0.000180   0.000080   0.005173  -0.007334   0.004232
    26  H   -0.001901  -0.000075   0.000443  -0.032349   0.000023  -0.002152
    27  H    0.009226   0.000126  -0.000113  -0.006414  -0.000544  -0.001097
    28  H   -0.079252   0.001903   0.000903  -0.002925  -0.000293  -0.000004
    29  H   -0.093879  -0.001600   0.000890  -0.031346   0.001613  -0.000469
    30  H    0.442792  -0.001990   0.000505  -0.007312  -0.006296   0.000016
    31  H    0.475301  -0.003743  -0.000246   0.000246  -0.005900  -0.000056
              19         20         21         22         23         24
     1  C    0.001122  -0.001644  -0.031851   0.003013  -0.002744   0.002015
     2  C    0.014608  -0.003571  -0.006668  -0.030797  -0.006240   0.003209
     3  C   -0.001255   0.009101   0.073717  -0.004409   0.011353  -0.000845
     4  C    0.446871  -0.000063   0.000138  -0.069923  -0.018147  -0.027322
     5  C   -0.000045   0.449585   0.435448  -0.000059  -0.000039  -0.000313
     6  O   -0.000022  -0.063844  -0.059288  -0.000164   0.000152  -0.000000
     7  C   -0.053900   0.000514  -0.000463   0.524533   0.435471   0.012942
     8  C   -0.037056  -0.000530   0.000326   0.008525   0.001368   0.434052
     9  C   -0.009203   0.000540   0.001440  -0.049160  -0.038140  -0.007087
    10  C   -0.000250  -0.063784   0.017021  -0.001031   0.001025  -0.000234
    11  O    0.008158   0.000088   0.000048   0.003658  -0.004442  -0.068911
    12  O    0.001293   0.000116   0.000646  -0.002637   0.001205   0.002794
    13  C    0.002392   0.015400  -0.077620   0.003156  -0.005410   0.003779
    14  H    0.000002   0.000287   0.004324  -0.000123   0.000100   0.000034
    15  H   -0.000030   0.000694  -0.001396  -0.000948   0.000091   0.000118
    16  H    0.001463   0.004345  -0.000528  -0.005252   0.003426  -0.001763
    17  H    0.000296  -0.000083   0.003793   0.000286   0.000456   0.000400
    18  H   -0.012525   0.000021  -0.000000   0.001382  -0.001062  -0.006045
    19  H    0.480785  -0.000012  -0.000001  -0.004248  -0.008184  -0.009089
    20  H   -0.000012   0.466586  -0.002926   0.000015   0.000040  -0.000049
    21  H   -0.000001  -0.002926   0.475111  -0.000030  -0.000010   0.000035
    22  H   -0.004248   0.000015  -0.000030   0.456436  -0.008800  -0.002107
    23  H   -0.008184   0.000040  -0.000010  -0.008800   0.465205   0.001033
    24  H   -0.009089  -0.000049   0.000035  -0.002107   0.001033   0.466269
    25  H   -0.000188   0.000141  -0.000202  -0.002474  -0.000923  -0.013722
    26  H   -0.002542  -0.000256   0.000048   0.002735  -0.005301   0.000343
    27  H    0.000920  -0.000027  -0.000058  -0.000251  -0.009769   0.000972
    28  H   -0.000001  -0.009376   0.005726   0.000015   0.000025   0.000028
    29  H    0.000070  -0.008109   0.000922   0.000042   0.000047   0.000495
    30  H    0.000143  -0.000128  -0.001410   0.000033  -0.000269  -0.000989
    31  H    0.000062  -0.001270  -0.003833  -0.000006  -0.000054   0.000147
              25         26         27         28         29         30
     1  C   -0.001762   0.000642  -0.004943   0.000258   0.020496   0.008792
     2  C   -0.001158  -0.158218  -0.004456   0.002051  -0.017760   0.010961
     3  C   -0.012818   0.006680  -0.005386   0.008027   0.016928  -0.043717
     4  C   -0.063583  -0.021073  -0.010108  -0.000863  -0.003184  -0.001555
     5  C    0.002195   0.000077   0.000281  -0.025958  -0.114735  -0.008635
     6  O   -0.000108  -0.000379   0.000028   0.010341  -0.017709  -0.003861
     7  C   -0.011693   0.008541  -0.049428   0.001014   0.006486  -0.005264
     8  C    0.464718   0.019821   0.007390  -0.000111   0.005245   0.006228
     9  C    0.032775   0.540051   0.413298   0.002440   0.028204  -0.012327
    10  C    0.001989  -0.002982  -0.000983   0.457581   0.568359  -0.028030
    11  O   -0.037690  -0.000080   0.008591  -0.000023   0.004133  -0.005506
    12  O    0.005135   0.008845  -0.001301   0.000786   0.002353  -0.008766
    13  C   -0.009170  -0.001901   0.009226  -0.079252  -0.093879   0.442792
    14  H    0.000180  -0.000075   0.000126   0.001903  -0.001600  -0.001990
    15  H    0.000080   0.000443  -0.000113   0.000903   0.000890   0.000505
    16  H    0.005173  -0.032349  -0.006414  -0.002925  -0.031346  -0.007312
    17  H   -0.007334   0.000023  -0.000544  -0.000293   0.001613  -0.006296
    18  H    0.004232  -0.002152  -0.001097  -0.000004  -0.000469   0.000016
    19  H   -0.000188  -0.002542   0.000920  -0.000001   0.000070   0.000143
    20  H    0.000141  -0.000256  -0.000027  -0.009376  -0.008109  -0.000128
    21  H   -0.000202   0.000048  -0.000058   0.005726   0.000922  -0.001410
    22  H   -0.002474   0.002735  -0.000251   0.000015   0.000042   0.000033
    23  H   -0.000923  -0.005301  -0.009769   0.000025   0.000047  -0.000269
    24  H   -0.013722   0.000343   0.000972   0.000028   0.000495  -0.000989
    25  H    0.491418  -0.001353  -0.000223   0.000113  -0.000917   0.000566
    26  H   -0.001353   0.446658  -0.003727  -0.000242   0.003463   0.000117
    27  H   -0.000223  -0.003727   0.467649   0.000203  -0.001854   0.000064
    28  H    0.000113  -0.000242   0.000203   0.474780  -0.010290  -0.005566
    29  H   -0.000917   0.003463  -0.001854  -0.010290   0.497364  -0.000088
    30  H    0.000566   0.000117   0.000064  -0.005566  -0.000088   0.455833
    31  H   -0.000355  -0.000045   0.000274  -0.009917   0.004439   0.003455
              31
     1  C   -0.002991
     2  C   -0.006619
     3  C   -0.045961
     4  C    0.000423
     5  C   -0.022812
     6  O   -0.001315
     7  C   -0.000797
     8  C   -0.000246
     9  C   -0.007072
    10  C   -0.032902
    11  O   -0.001190
    12  O   -0.000547
    13  C    0.475301
    14  H   -0.003743
    15  H   -0.000246
    16  H    0.000246
    17  H   -0.005900
    18  H   -0.000056
    19  H    0.000062
    20  H   -0.001270
    21  H   -0.003833
    22  H   -0.000006
    23  H   -0.000054
    24  H    0.000147
    25  H   -0.000355
    26  H   -0.000045
    27  H    0.000274
    28  H   -0.009917
    29  H    0.004439
    30  H    0.003455
    31  H    0.413481
 Mulliken charges:
               1
     1  C   -0.413257
     2  C   -0.086782
     3  C    0.073038
     4  C   -0.396550
     5  C   -0.256603
     6  O   -0.336903
     7  C   -0.322767
     8  C   -0.135178
     9  C   -0.480431
    10  C   -0.311442
    11  O   -0.321410
    12  O   -0.345251
    13  C   -0.316843
    14  H    0.196748
    15  H    0.212572
    16  H    0.375124
    17  H    0.240988
    18  H    0.167826
    19  H    0.180366
    20  H    0.208199
    21  H    0.167540
    22  H    0.178588
    23  H    0.188536
    24  H    0.209810
    25  H    0.156957
    26  H    0.194190
    27  H    0.191660
    28  H    0.178627
    29  H    0.140393
    30  H    0.212205
    31  H    0.250049
 Sum of Mulliken charges =  -0.00000
 Mulliken charges with hydrogens summed into heavy atoms:
               1
     1  C   -0.003937
     2  C    0.288342
     3  C    0.314027
     4  C   -0.048358
     5  C    0.119136
     6  O   -0.336903
     7  C    0.044357
     8  C    0.231589
     9  C   -0.094580
    10  C    0.007578
    11  O   -0.321410
    12  O   -0.345251
    13  C    0.145410
 Electronic spatial extent (au):  <R**2>=           2816.5495
 Charge=              0.0000 electrons
 Dipole moment (field-independent basis, Debye):
    X=             -0.4189    Y=              1.6902    Z=              0.5405  Tot=              1.8233
 Quadrupole moment (field-independent basis, Debye-Ang):
   XX=            -69.5369   YY=            -85.1043   ZZ=            -75.0113
   XY=             -8.5482   XZ=              0.3891   YZ=              1.9348
 Traceless Quadrupole moment (field-independent basis, Debye-Ang):
   XX=              7.0139   YY=             -8.5535   ZZ=              1.5396
   XY=             -8.5482   XZ=              0.3891   YZ=              1.9348
 Octapole moment (field-independent basis, Debye-Ang**2):
  XXX=             -0.0013  YYY=              3.3100  ZZZ=              3.3911  XYY=              6.1333
  XXY=             18.4582  XXZ=              3.2023  XZZ=             -8.6664  YZZ=             -2.0607
  YYZ=              4.0491  XYZ=              5.8270
 Hexadecapole moment (field-independent basis, Debye-Ang**3):
 XXXX=          -2634.2924 YYYY=           -574.9614 ZZZZ=           -400.7875 XXXY=            -28.1242
 XXXZ=             28.7825 YYYX=             -7.4063 YYYZ=              0.8701 ZZZX=             -5.5074
 ZZZY=             -0.7042 XXYY=           -573.6877 XXZZ=           -500.3938 YYZZ=           -160.1024
 XXYZ=             12.5357 YYXZ=              2.7692 ZZXY=              7.4322
 N-N= 9.067540117023D+02 E-N=-3.255955279414D+03  KE= 6.153509710502D+02
 D1PCM: PCM CHGder 1st derivatives, ID1Alg=3 FixD1E=F DoIter=F DoCFld=F I1PDM=0.
 Calling FoFJK, ICntrl=      2127 FMM=F ISym2X=0 I1Cent= 0 IOpClX= 0 NMat=1 NMatS=1 NMatT=0.
 ***** Axes restored to original set *****
 -------------------------------------------------------------------
 Center     Atomic                   Forces (Hartrees/Bohr)
 Number     Number              X              Y              Z
 -------------------------------------------------------------------
      1        6           0.001542067    0.006071831   -0.001153259
      2        6           0.005206700   -0.002355684    0.002603402
      3        6          -0.000300885    0.007563260   -0.000501848
      4        6          -0.002772617   -0.000881240    0.001268500
      5        6           0.004011017    0.005674707   -0.000364207
      6        8           0.001876360   -0.011201198   -0.004596913
      7        6          -0.001297664    0.003954139   -0.001386260
      8        6           0.003258387   -0.006698790   -0.001662553
      9        6           0.001031128    0.000120922    0.002759383
     10        6          -0.000254379   -0.000266114    0.003720776
     11        8          -0.002007276    0.013071608   -0.005805269
     12        8          -0.000939706   -0.015830112    0.002443215
     13        6          -0.002883145   -0.007708045   -0.002695665
     14        1          -0.003579580    0.002884691    0.003606783
     15        1           0.002963108   -0.003710892    0.001989463
     16        1          -0.005519403    0.002965505   -0.006346883
     17        1           0.000468131    0.002587516    0.004976513
     18        1           0.000786034    0.001149845   -0.003107225
     19        1           0.001813696   -0.000369540    0.001995342
     20        1          -0.001796503   -0.001804581   -0.003680856
     21        1          -0.003526268    0.002762423    0.003608305
     22        1          -0.001826070   -0.000602117    0.003260531
     23        1           0.001509580   -0.001667052   -0.001150134
     24        1           0.002084576    0.003875588    0.000252660
     25        1          -0.001954601   -0.002127815    0.005378754
     26        1           0.001238893    0.001516502   -0.002700187
     27        1          -0.002108829   -0.002531274   -0.000086505
     28        1          -0.001557183    0.002164809   -0.001022040
     29        1           0.002752617   -0.001985491   -0.002563136
     30        1           0.004100436    0.001999834   -0.001346106
     31        1          -0.002318622    0.001376765    0.002305420
 -------------------------------------------------------------------
 Cartesian Forces:  Max     0.015830112 RMS     0.003869136

 GradGradGradGradGradGradGradGradGradGradGradGradGradGradGradGradGradGrad
 Berny optimization.
 FormGI is forming the generalized inverse of G from B-inverse, IUseBI=4.
 Internal  Forces:  Max     0.017430371 RMS     0.002438685
 Search for a local minimum.
 Step number   1 out of a maximum of  186
 All quantities printed in internal units (Hartrees-Bohrs-Radians)
 Mixed Optimization -- RFO/linear search
 Second derivative matrix not updated -- first step.
 ITU=  0
     Eigenvalues ---    0.00501   0.00623   0.00716   0.00720   0.01407
     Eigenvalues ---    0.01469   0.01781   0.02699   0.02786   0.02931
     Eigenvalues ---    0.03071   0.04066   0.04085   0.04383   0.04745
     Eigenvalues ---    0.04892   0.04901   0.04907   0.05089   0.05141
     Eigenvalues ---    0.05279   0.05505   0.05687   0.06157   0.06173
     Eigenvalues ---    0.06354   0.06725   0.07055   0.07623   0.07854
     Eigenvalues ---    0.07965   0.08062   0.08156   0.08248   0.08546
     Eigenvalues ---    0.08835   0.09205   0.09687   0.10730   0.11600
     Eigenvalues ---    0.11692   0.11734   0.11767   0.12399   0.12679
     Eigenvalues ---    0.14672   0.14936   0.16403   0.16471   0.17757
     Eigenvalues ---    0.19078   0.21496   0.21950   0.25000   0.28295
     Eigenvalues ---    0.28408   0.28627   0.28851   0.28934   0.28971
     Eigenvalues ---    0.30281   0.30399   0.35068   0.35086   0.35111
     Eigenvalues ---    0.35178   0.35194   0.35200   0.35230   0.35254
     Eigenvalues ---    0.35309   0.35393   0.35445   0.35459   0.35469
     Eigenvalues ---    0.35704   0.35826   0.35829   0.35891   0.36627
     Eigenvalues ---    0.40932   0.41150   0.41418   0.42309   0.42899
     Eigenvalues ---    0.467591000.000001000.000001000.000001000.00000
     Eigenvalues --- 1000.000001000.000001000.000001000.000001000.00000
     Eigenvalues --- 1000.000001000.000001000.000001000.000001000.00000
     Eigenvalues --- 1000.000001000.000001000.000001000.000001000.00000
     Eigenvalues --- 1000.000001000.000001000.000001000.000001000.00000
     Eigenvalues --- 1000.000001000.000001000.000001000.000001000.00000
     Eigenvalues --- 1000.000001000.000001000.000001000.000001000.00000
     Eigenvalues --- 1000.000001000.000001000.000001000.000001000.00000
     Eigenvalues --- 1000.000001000.000001000.000001000.000001000.00000
     Eigenvalues --- 1000.000001000.000001000.000001000.000001000.00000
     Eigenvalues --- 1000.000001000.000001000.000001000.000001000.00000
     Eigenvalues --- 1000.000001000.000001000.000001000.000001000.00000
     Eigenvalues --- 1000.000001000.000001000.000001000.000001000.00000
     Eigenvalues --- 1000.000001000.000001000.000001000.000001000.00000
     Eigenvalues --- 1000.000001000.000001000.000001000.000001000.00000
     Eigenvalues --- 1000.000001000.000001000.000001000.000001000.00000
     Eigenvalues --- 1000.000001000.000001000.000001000.000001000.00000
     Eigenvalues --- 1000.000001000.000001000.000001000.000001000.00000
     Eigenvalues --- 1000.000001000.000001000.000001000.000001000.00000
     Eigenvalues --- 1000.000001000.000001000.000001000.000001000.00000
 RFO step:  Lambda=-4.32469374D-03 EMin= 5.00591122D-03
 Linear search not attempted -- first point.
 Iteration  1 RMS(Cart)=  0.07068127 RMS(Int)=  0.00105595
 Iteration  2 RMS(Cart)=  0.00281181 RMS(Int)=  0.00005519
 Iteration  3 RMS(Cart)=  0.00000247 RMS(Int)=  0.00005517
 Iteration  4 RMS(Cart)=  0.00000000 RMS(Int)=  0.00005517
 Iteration  1 RMS(Cart)=  0.00006491 RMS(Int)=  0.00001389
 Iteration  2 RMS(Cart)=  0.00003583 RMS(Int)=  0.00001551
 Iteration  3 RMS(Cart)=  0.00001978 RMS(Int)=  0.00001754
 Iteration  4 RMS(Cart)=  0.00001092 RMS(Int)=  0.00001890
 Iteration  5 RMS(Cart)=  0.00000603 RMS(Int)=  0.00001971
 Iteration  6 RMS(Cart)=  0.00000333 RMS(Int)=  0.00002017
 Iteration  7 RMS(Cart)=  0.00000184 RMS(Int)=  0.00002043
 Iteration  8 RMS(Cart)=  0.00000101 RMS(Int)=  0.00002057
 Iteration  9 RMS(Cart)=  0.00000056 RMS(Int)=  0.00002065
 Variable       Old X    -DE/DX   Delta X   Delta X   Delta X     New X
                                 (Linear)    (Quad)   (Total)
    R1        2.87086  -0.00076   0.00000  -0.00220  -0.00214   2.86872
    R2        2.66541   0.00624   0.00000   0.01463   0.01467   2.68008
    R3        2.05494   0.00575   0.00000   0.01618   0.01618   2.07112
    R4        2.04252   0.00508   0.00000   0.01398   0.01398   2.05650
    R5        2.87682  -0.00090   0.00000  -0.00300  -0.00301   2.87381
    R6        2.65991   0.00778   0.00000   0.01777   0.01781   2.67771
    R7        2.63285   0.00638   0.00000   0.01352   0.01352   2.64637
    R8        2.03112   0.00890   0.00000   0.02401   0.02401   2.05513
    R9        2.70020   0.00222   0.00000   0.00533   0.00533   2.70553
   R10        2.89832  -0.00245   0.00000  -0.00975  -0.00970   2.88862
   R11        2.04920   0.00556   0.00000   0.01547   0.01547   2.06467
   R12        2.88880  -0.00085   0.00000  -0.00345  -0.00348   2.88532
   R13        2.87158  -0.00081   0.00000  -0.00252  -0.00250   2.86908
   R14        2.05535   0.00331   0.00000   0.00931   0.00931   2.06466
   R15        2.05302   0.00272   0.00000   0.00762   0.00762   2.06065
   R16        2.67549   0.00591   0.00000   0.01463   0.01459   2.69008
   R17        2.87257  -0.00073   0.00000  -0.00245  -0.00251   2.87006
   R18        2.04355   0.00447   0.00000   0.01233   0.01233   2.05588
   R19        2.05565   0.00566   0.00000   0.01594   0.01594   2.07159
   R20        2.88999  -0.00132   0.00000  -0.00503  -0.00506   2.88493
   R21        2.05351   0.00366   0.00000   0.01028   0.01028   2.06379
   R22        2.05177   0.00252   0.00000   0.00704   0.00704   2.05881
   R23        2.68520   0.00598   0.00000   0.01444   0.01447   2.69967
   R24        2.04350   0.00441   0.00000   0.01215   0.01215   2.05566
   R25        2.05042   0.00604   0.00000   0.01686   0.01686   2.06728
   R26        2.05361   0.00325   0.00000   0.00912   0.00912   2.06274
   R27        2.04958   0.00327   0.00000   0.00910   0.00910   2.05869
   R28        2.90054  -0.00138   0.00000  -0.00565  -0.00569   2.89486
   R29        2.05264   0.00285   0.00000   0.00800   0.00800   2.06064
   R30        2.04937   0.00417   0.00000   0.01162   0.01162   2.06099
   R31        2.04546   0.00457   0.00000   0.01266   0.01266   2.05812
   R32        2.05388   0.00352   0.00000   0.00987   0.00987   2.06375
    A1        1.95985   0.00014   0.00000   0.00011   0.00021   1.96005
    A2        1.90307  -0.00124   0.00000  -0.00403  -0.00407   1.89900
    A3        1.92674  -0.00037   0.00000  -0.00867  -0.00873   1.91802
    A4        1.90845   0.00162   0.00000   0.01169   0.01168   1.92013
    A5        1.86911  -0.00072   0.00000  -0.00351  -0.00360   1.86552
    A6        1.89545   0.00063   0.00000   0.00484   0.00483   1.90027
    A7        1.93700   0.00225   0.00000   0.01037   0.01030   1.94729
    A8        1.89139  -0.00195   0.00000  -0.00897  -0.00893   1.88246
    A9        1.92688   0.00030   0.00000   0.00418   0.00420   1.93108
   A10        1.94075   0.00022   0.00000  -0.00202  -0.00196   1.93879
   A11        1.82986  -0.00165   0.00000  -0.00807  -0.00808   1.82178
   A12        1.93817   0.00094   0.00000   0.00503   0.00502   1.94319
   A13        1.88701   0.00067   0.00000  -0.00148  -0.00189   1.88512
   A14        1.92628   0.00073   0.00000   0.00142   0.00115   1.92743
   A15        1.87312  -0.00065   0.00000   0.00743   0.00734   1.88047
   A16        2.04931  -0.00334   0.00000  -0.03325  -0.03325   2.01606
   A17        1.83857   0.00204   0.00000   0.02417   0.02427   1.86283
   A18        1.88056   0.00074   0.00000   0.00599   0.00615   1.88672
   A19        1.92343  -0.00027   0.00000  -0.00444  -0.00457   1.91887
   A20        1.91602   0.00064   0.00000   0.00189   0.00193   1.91795
   A21        1.93924  -0.00054   0.00000  -0.00107  -0.00105   1.93819
   A22        1.90537  -0.00012   0.00000  -0.00080  -0.00076   1.90461
   A23        1.90345   0.00009   0.00000  -0.00035  -0.00032   1.90313
   A24        1.87545   0.00021   0.00000   0.00498   0.00496   1.88041
   A25        1.93245   0.00036   0.00000   0.00448   0.00442   1.93687
   A26        1.86026  -0.00065   0.00000  -0.00227  -0.00224   1.85802
   A27        1.89996   0.00096   0.00000   0.00451   0.00454   1.90451
   A28        1.94297  -0.00030   0.00000  -0.00302  -0.00300   1.93997
   A29        1.93497  -0.00084   0.00000  -0.00685  -0.00684   1.92812
   A30        1.89096   0.00052   0.00000   0.00351   0.00348   1.89444
   A31        1.96279  -0.00357   0.00000  -0.02314  -0.02307   1.93973
   A32        1.91377   0.00237   0.00000  -0.00125  -0.00132   1.91245
   A33        1.91435  -0.00098   0.00000  -0.00149  -0.00151   1.91285
   A34        1.93001  -0.00047   0.00000   0.00080   0.00086   1.93087
   A35        1.92250  -0.00087   0.00000  -0.00261  -0.00259   1.91991
   A36        1.91616  -0.00081   0.00000  -0.00065  -0.00063   1.91553
   A37        1.86663   0.00068   0.00000   0.00529   0.00528   1.87192
   A38        1.94565   0.00160   0.00000   0.00516   0.00517   1.95082
   A39        1.94523  -0.00015   0.00000  -0.00205  -0.00204   1.94319
   A40        1.93144  -0.00138   0.00000  -0.00672  -0.00675   1.92469
   A41        1.84297  -0.00104   0.00000  -0.00147  -0.00148   1.84149
   A42        1.90937   0.00047   0.00000   0.00322   0.00324   1.91261
   A43        1.88622   0.00052   0.00000   0.00218   0.00217   1.88839
   A44        1.95555  -0.00103   0.00000  -0.01140  -0.01151   1.94404
   A45        1.87227  -0.00011   0.00000   0.00112   0.00113   1.87341
   A46        1.90043   0.00031   0.00000  -0.00217  -0.00214   1.89829
   A47        1.90920   0.00098   0.00000   0.00625   0.00628   1.91548
   A48        1.94725  -0.00021   0.00000   0.00043   0.00037   1.94762
   A49        1.87596   0.00011   0.00000   0.00654   0.00652   1.88247
   A50        1.93522  -0.00021   0.00000  -0.00592  -0.00601   1.92921
   A51        1.90590   0.00035   0.00000   0.00166   0.00167   1.90758
   A52        1.89647  -0.00034   0.00000  -0.00111  -0.00107   1.89539
   A53        1.91459  -0.00056   0.00000  -0.00026  -0.00023   1.91436
   A54        1.94270   0.00056   0.00000   0.00107   0.00108   1.94378
   A55        1.86739   0.00021   0.00000   0.00496   0.00495   1.87234
   A56        2.02284  -0.00578   0.00000  -0.03234  -0.03223   1.99061
   A57        2.15916  -0.01743   0.00000  -0.06854  -0.06854   2.09062
   A58        1.98359   0.00178   0.00000  -0.00625  -0.00625   1.97733
   A59        1.94087  -0.00125   0.00000  -0.01160  -0.01171   1.92916
   A60        1.83947  -0.00056   0.00000   0.00557   0.00559   1.84506
   A61        1.94202  -0.00031   0.00000  -0.00245  -0.00260   1.93942
   A62        1.89057  -0.00037   0.00000   0.00846   0.00844   1.89901
   A63        1.85937   0.00065   0.00000   0.00854   0.00857   1.86794
[...]
 0000106,0.00002790,-0.00009621,-0.00001629,-0.00000076,-0.00000391,-0.
 00000754,-0.00000007,-0.00000134,-0.00029620,-0.00037306,0.00004021,-0
 .00023673,-0.00006541,-0.00010174,0.00129960,-0.00113745,0.00070104,0.
 00034412,-0.00028159,0.00040128,-0.00000333,-0.00000607,0.00000072,-0.
 00000360,-0.00000337,0.00000354,-0.00018530,-0.00042408,-0.00019859,-0
 .00002509,-0.00009958,0.00016656,0.00029548,0.00006220,0.00393104,-0.0
 9670689,-0.06288517,0.27162655,-0.00002504,0.00026047,0.00017635,-0.00
 738588,-0.00852260,0.01614745,0.00140523,-0.00033301,0.00072660,0.0013
 0330,0.00062457,0.00011917,0.00005748,-0.00003167,0.00001395,-0.000091
 09,-0.00005989,-0.00010095,0.00877501,0.00714483,-0.02450193,-0.000255
 12,0.00012097,-0.00009647,-0.08404836,-0.02595274,0.08819993,0.0000139
 7,0.00004749,0.00001198,0.00096225,-0.00050089,-0.00105497,-0.00530495
 ,0.00385640,0.00366768,-0.00010224,0.00001176,0.00012936,-0.00011193,-
 0.00008130,-0.00000691,0.00000702,-0.00001329,-0.00000770,0.00034785,-
 0.00055287,-0.00032467,-0.00044043,0.00023485,0.00027139,-0.00010787,-
 0.00002895,0.00043920,-0.00001313,0.00019021,0.00026853,-0.00001365,-0
 .00000368,-0.00000647,-0.00000630,0.00000569,0.00000493,-0.00346833,0.
 00037979,-0.00382384,0.00130256,-0.00015562,0.00095786,0.00006680,-0.0
 0003618,-0.00000502,-0.00002651,-0.00001908,0.00001695,0.09372485,0.00
 009554,-0.00028753,-0.00021366,0.00747716,0.00607028,-0.02145353,-0.00
 053314,0.00063376,-0.00069957,-0.00001297,0.00025187,-0.00088358,-0.00
 004486,0.00002577,-0.00000964,0.00007454,0.00004044,0.00009163,-0.0015
 9202,-0.00273066,0.00599812,0.00026041,-0.00001169,-0.00000367,-0.0293
 8037,-0.06965385,0.06482539,-0.00000528,-0.00003874,-0.00000364,0.0000
 6125,0.00073890,0.00058178,0.00513112,-0.00285738,-0.00296917,0.000024
 93,0.00003175,-0.00006881,0.00010817,0.00009207,-0.00000164,-0.0000112
 6,0.00001124,0.00000491,-0.00047720,0.00093454,0.00046707,0.00026864,-
 0.00014743,-0.00017965,0.00003262,0.00031595,-0.00006539,0.00009290,-0
 .00001115,-0.00007915,0.00001008,0.00000159,0.00000449,0.00000395,-0.0
 0000497,-0.00000559,0.00137883,0.00088985,0.00075215,-0.00031301,0.000
 11333,-0.00005905,-0.00004556,0.00001595,-0.00000161,-0.00000745,0.000
 00142,0.00004455,0.02653150,0.07164684,0.00005186,-0.00017750,-0.00013
 057,0.00251645,0.00477278,-0.01003801,-0.00077524,0.00042823,0.0000009
 3,0.00094005,0.00021070,0.00063105,-0.00003033,0.00001488,-0.00000925,
 0.00005594,0.00002530,0.00006216,0.00667884,0.00621263,-0.01973756,-0.
 00020291,-0.00003409,-0.00007325,0.08882018,0.06101745,-0.25490539,-0.
 00000584,-0.00002111,-0.00000659,-0.00051563,-0.00000431,0.00089158,0.
 00282520,-0.00174118,-0.00018837,0.00004759,-0.00001272,-0.00009054,0.
 00006657,0.00005776,-0.00000247,-0.00001110,0.00000691,0.00000391,-0.0
 0007277,-0.00027149,0.00074828,0.00016030,-0.00006534,-0.00011602,-0.0
 0018841,-0.00050315,0.00004793,-0.00020097,0.00000030,0.00027819,0.000
 00833,0.00000271,0.00000453,0.00000444,-0.00000204,-0.00000328,-0.0035
 3019,0.00049466,-0.00168445,0.00011139,-0.00005426,0.00111826,0.000038
 25,-0.00007034,-0.00002758,-0.00000495,0.00004721,0.00001206,-0.095164
 29,-0.06981483,0.27828559,0.00001107,0.00000226,0.00000980,0.01054679,
 0.01431008,0.00263627,0.00012564,-0.00014318,-0.00020220,-0.00313707,0
 .00247776,-0.00412762,-0.00000674,0.00000758,-0.00002069,0.00006587,-0
 .00003091,-0.00004251,-0.01239354,-0.02071791,-0.00154630,-0.00121075,
 0.00056390,-0.00043578,-0.12822386,-0.12341184,-0.01814038,-0.00001337
 ,-0.00001016,0.00001664,-0.00025475,0.00592114,0.00277531,0.00090686,0
 .00071345,-0.00019650,-0.00000301,0.00002608,-0.00000936,-0.00000496,0
 .00000128,0.00000517,0.00000248,-0.00000443,-0.00000176,0.00049616,-0.
 00088842,-0.00060460,0.00001731,0.00000876,-0.00002208,0.00013100,0.00
 029854,0.00013432,-0.00058983,-0.00163719,-0.00057733,0.00000079,0.000
 00062,0.00000264,0.00000343,-0.00000523,0.00000034,0.00116778,0.000323
 52,0.00020163,0.00060620,0.00011518,0.00085462,0.00025158,-0.00014867,
 0.00009748,0.00012577,-0.00006060,0.00005803,-0.00648941,-0.00916906,-
 0.00167434,0.13785889,0.00006429,-0.00005298,-0.00006597,-0.01599230,-
 0.01781416,-0.00116155,0.00027041,0.00035202,0.00019390,0.00121823,0.0
 0078303,0.00099450,0.00001652,-0.00002196,0.00000376,0.00001827,-0.000
 01011,-0.00000960,0.00415043,0.00718899,0.00065197,0.00124929,0.000038
 72,0.00141136,-0.11992599,-0.23477745,-0.02964164,0.00002607,-0.000009
 68,0.00000928,0.00219294,-0.00646713,-0.00329790,-0.00081737,0.0016004
 7,0.00108832,-0.00001404,-0.00001505,0.00005475,0.00001702,0.00001420,
 -0.00000305,0.00000077,-0.00000432,-0.00000165,0.00026132,0.00065578,0
 .00028953,-0.00009499,0.00003959,0.00005300,0.00001570,-0.00000622,0.0
 0002099,0.00027934,0.00028122,0.00023694,0.00000412,0.00000576,0.00000
 109,0.00000228,0.00000503,-0.00000034,-0.00042959,0.00031329,-0.000390
 29,-0.00054467,0.00036425,-0.00049022,-0.00020021,0.00002873,-0.000130
 33,-0.00012579,0.00005409,-0.00019216,-0.00316535,-0.00602318,-0.00049
 280,0.13148299,0.25345380,0.00002115,-0.00001752,-0.00000735,-0.005503
 64,-0.00813124,-0.00384143,-0.00004575,0.00014916,0.00012085,-0.003158
 72,0.00197431,-0.00227599,0.00000507,-0.00000900,0.00000555,-0.0000052
 7,0.00000886,-0.00000795,-0.01108238,-0.01881682,-0.00329980,0.0001215
 7,0.00045202,0.00050627,-0.01667295,-0.02612673,-0.05136837,0.00000023
 ,0.00000387,0.00001177,0.00074167,-0.00247558,0.00022495,-0.00028333,-
 0.00041642,0.00045647,-0.00001569,-0.00001106,0.00001972,0.00000310,0.
 00000333,-0.00000707,0.00000334,0.00000226,-0.00000529,0.00017829,0.00
 014558,0.00007908,-0.00002121,0.00000595,0.00002191,-0.00015940,-0.000
 26883,0.00015727,-0.00064469,-0.00109002,-0.00008856,-0.00000006,0.000
 00154,0.00000031,0.00000081,0.00000218,-0.00000221,0.00092991,-0.00026
 743,0.00077401,0.00060794,0.00034666,0.00069940,0.00003830,-0.00004193
 ,0.00002173,0.00003924,-0.00000615,-0.00004891,0.01407063,0.02365352,0
 .00487289,0.02081851,0.03092008,0.05300676,-0.00080231,-0.00061957,-0.
 00068574,0.00046403,-0.00002568,0.00059793,-0.00041595,-0.00321037,-0.
 00202983,0.00000317,0.00000770,-0.00002184,0.01264886,-0.01336406,0.00
 742760,-0.00102355,-0.00606754,0.00317207,-0.00001200,0.00005752,0.000
 05340,0.00007211,-0.00005136,0.00007260,-0.00008933,-0.00005273,-0.000
 13689,-0.12361402,0.10842013,-0.05396160,-0.00032593,-0.00012522,-0.00
 018760,-0.00017360,0.00025359,0.00015669,-0.00925063,0.01370783,-0.007
 15508,0.00009328,0.00006247,0.00010637,0.00013144,0.00017110,0.0001852
 7,-0.00021156,0.00003780,-0.00033973,-0.00026051,0.00089223,-0.0007588
 2,-0.00000362,-0.00000262,0.00000581,-0.00001341,0.00000285,-0.0000004
 0,0.00043707,0.00071637,-0.00076490,0.00077826,0.00097956,-0.00006929,
 -0.00000257,-0.00000142,-0.00000669,-0.00002973,0.00001066,-0.00002100
 ,-0.00002796,-0.00000492,-0.00002127,-0.00000808,0.00000594,-0.0000154
 0,-0.00002168,0.00001592,0.00001544,-0.00000051,0.00001318,0.00000459,
 0.13038891,-0.00082532,-0.00062705,-0.00153238,-0.00006652,0.00004071,
 -0.00016273,-0.00156710,-0.00045108,-0.00205322,-0.00000047,-0.0000013
 2,0.00000431,0.01577047,-0.01465672,0.00653480,-0.00296790,-0.00572405
 ,0.00432835,0.00000280,-0.00000919,-0.00001300,-0.00001410,0.00001493,
 -0.00002039,0.00001422,-0.00000145,0.00004222,0.10653944,-0.20115416,0
 .07961230,0.00007162,0.00000311,0.00004295,-0.00006280,0.00013280,0.00
 001545,-0.00693078,0.01051378,-0.00627139,0.00008658,0.00008991,0.0001
 9919,0.00015741,0.00009997,0.00020129,-0.00000115,-0.00004941,0.000135
 09,-0.00011601,0.00031666,-0.00054438,0.00000064,0.00000053,-0.0000012
 0,0.00000249,-0.00000045,0.00000039,-0.00000475,0.00048486,-0.00069954
 ,-0.00006781,0.00104369,0.00005699,-0.00000021,-0.00000048,0.00000166,
 0.00000505,-0.00000212,0.00000439,0.00000496,0.00000080,0.00000449,0.0
 0000175,-0.00000179,0.00000146,-0.00000193,0.00000182,-0.00000142,-0.0
 0000080,-0.00000185,-0.00000164,-0.11571434,0.21727981,-0.00004127,-0.
 00042031,0.00085750,0.00044370,0.00027876,-0.00059728,-0.00205592,-0.0
 0390292,-0.00293472,-0.00000473,0.00000336,-0.00000692,-0.00592233,0.0
 0616921,-0.00504735,0.00101400,0.00261346,-0.00020612,0.00001307,-0.00
 001543,-0.00000777,0.00002936,0.00002613,0.00002245,-0.00000785,-0.000
 04544,0.00011545,-0.05208573,0.07701160,-0.08525005,-0.00005913,-0.000
 08272,0.00010909,-0.00066845,0.00048085,0.00023979,-0.01312332,0.01942
 728,-0.01209047,0.00005977,-0.00001107,-0.00004840,0.00001225,0.000082
 63,0.00002314,-0.00005754,-0.00009245,0.00020517,-0.00041944,0.0009790
 6,-0.00091585,-0.00000051,-0.00000066,0.00000122,-0.00000340,0.0000012
 6,-0.00000045,0.00016657,0.00010911,0.00012535,-0.00017439,-0.00054263
 ,0.00025617,-0.00000263,-0.00000329,0.00000549,-0.00000071,0.00000010,
 0.00000509,0.00000030,-0.00000253,0.00000434,-0.00000055,0.00000176,0.
 00000146,-0.00002823,0.00002222,0.00001418,-0.00000305,-0.00000565,-0.
 00000435,0.06071067,-0.08476732,0.09337335,-0.00028643,-0.00024316,-0.
 00035917,-0.00135767,-0.00021312,-0.00067920,0.00048343,0.00040973,0.0
 0055144,0.00000705,-0.00000833,0.00000323,-0.01705730,0.00834460,0.016
 07792,0.00231384,0.00031227,-0.00107471,-0.00000553,0.00000369,-0.0000
 1822,-0.00005008,0.00000275,0.00000493,0.00003587,-0.00000822,0.000020
 66,-0.13783923,0.05758730,0.11183286,-0.00001578,-0.00003579,0.0000067
 1,0.00008284,0.00026105,0.00043527,0.01199444,-0.00785662,-0.01366166,
 -0.00009262,0.00004201,-0.00002205,0.00004439,0.00002022,0.00003271,-0
 .00366858,0.00032865,-0.00081648,-0.00006951,0.00001549,0.00009278,-0.
 00000113,-0.00000017,-0.00000128,0.00000203,0.00000411,0.00000038,0.00
 079042,0.00053843,-0.00047947,-0.00170841,-0.00394926,0.00154515,0.000
 00226,-0.00000053,0.00000272,0.00000380,0.00000040,0.00000043,-0.00000
 070,-0.00000067,-0.00000068,0.00000665,0.00000112,0.00000183,0.0000046
 3,-0.00000194,-0.00000083,0.00001211,0.00001870,0.00000960,-0.00989355
 ,0.00512833,0.01125207,0.15687647,-0.00001125,0.00004631,0.00003862,0.
 00041371,0.00025358,-0.00034096,-0.00005789,-0.00029586,0.00020198,-0.
 00000465,0.00000500,0.00000725,-0.01736881,0.00712635,0.01936142,0.000
 30777,0.00232383,-0.00178465,0.00001542,-0.00004422,-0.00002516,0.0000
 0639,0.00003472,-0.00003907,0.00001573,-0.00000647,0.00012316,0.059623
 42,-0.08412300,-0.07021305,0.00014448,0.00003173,0.00017831,-0.0002996
 7,0.00036080,-0.00006616,0.00605577,-0.00554501,-0.00784442,-0.0000082
 8,-0.00001050,-0.00006795,0.00003456,0.00004193,-0.00001488,0.00041043
 ,0.00052949,0.00003903,-0.00011982,0.00010575,-0.00001995,0.00000036,0
 .00000062,-0.00000125,0.00000417,-0.00000402,-0.00000079,0.00095611,0.
 00123984,-0.00033942,-0.00302119,-0.00296947,0.00212101,-0.00000071,-0
 .00000276,0.00000368,0.00001382,-0.00000347,0.00001047,0.00001548,-0.0
 0000013,0.00001180,0.00000215,-0.00000287,0.00000867,-0.00001239,0.000
 00736,0.00000245,-0.00001957,-0.00003234,-0.00000824,0.01405779,-0.008
 44198,-0.01779682,-0.05965091,0.08867895,-0.00029686,-0.00008470,-0.00
 011131,-0.00019907,0.00027976,-0.00143141,0.00102369,-0.00036478,-0.00
 019996,-0.00001186,-0.00000660,0.00002615,0.00662693,-0.00290192,-0.00
 747447,-0.00056188,-0.00053817,0.00038215,0.00004601,-0.00011981,-0.00
 010305,-0.00004688,0.00012955,-0.00009913,0.00012593,0.00003750,0.0003
 7287,0.11150520,-0.06953786,-0.18732460,0.00043889,0.00013775,0.000448
 37,-0.00077605,0.00025632,0.00054224,0.01463374,-0.00982375,-0.0171949
 2,0.00001301,-0.00002552,0.00001878,0.00005149,0.00008720,-0.00002568,
 -0.00012069,-0.00042279,0.00122731,-0.00027006,0.00023052,-0.00000010,
 0.00000338,0.00000341,-0.00000618,0.00001742,-0.00000307,0.00000039,-0
 .00049341,0.00041520,0.00083200,0.00115948,0.00124115,0.00066197,-0.00
 000081,-0.00000167,0.00001522,0.00005180,-0.00001619,0.00004075,0.0000
 4859,0.00000389,0.00004156,0.00001258,-0.00000947,0.00002431,-0.000002
 54,0.00000266,-0.00000772,-0.00000782,-0.00002988,-0.00001457,-0.00749
 208,0.00360702,0.00985080,-0.12256714,0.07834603,0.20137736,-0.0012827
 6,0.00212341,-0.00207143,-0.00050449,0.00097424,0.00083908,0.01119800,
 0.00933537,-0.00408183,-0.00006423,0.00006107,-0.00003164,-0.00079272,
 0.00036283,-0.00417493,0.00033932,-0.00036707,0.00081098,-0.00004105,0
 .00000384,0.00000564,-0.00002313,-0.00003324,0.00016374,-0.00002586,-0
 .00008059,-0.00002595,-0.01146368,-0.00900516,0.00531629,-0.00285761,0
 .00095412,0.00030135,0.00087875,-0.00152419,0.00036309,-0.19116666,-0.
 12512830,0.06114947,0.00001916,0.00001347,-0.00002761,0.00053826,0.000
 69743,-0.00014678,-0.00037623,0.00052646,0.00013959,0.00018470,-0.0006
 5984,0.00054056,0.00000663,-0.00000762,-0.00000430,-0.00000659,0.00001
 603,-0.00000346,-0.00045193,-0.00101728,0.00038604,0.00017876,0.000238
 88,-0.00001660,0.00000328,0.00000215,-0.00001128,-0.00000247,0.0000007
 7,-0.00000972,-0.00000692,0.00000228,0.00000554,0.00003862,0.00000855,
 -0.00001224,-0.00000449,-0.00000400,0.00000083,0.00000208,-0.00001062,
 -0.00000248,0.00012389,0.00037986,0.00024296,0.00073461,0.00033341,0.0
 0008572,0.20824663,0.00423800,-0.00179100,0.00333762,0.00104200,-0.001
 73170,-0.00009604,-0.01852236,-0.01711194,0.00851746,-0.00009772,0.000
 03357,-0.00014385,-0.00051131,0.00069080,-0.00231813,-0.00003721,0.000
 56959,-0.00039804,-0.00006270,0.00005371,0.00008663,0.00022844,0.00010
 852,0.00050043,-0.00005862,-0.00001512,-0.00026782,-0.00728327,-0.0065
 5069,0.00253536,-0.00128524,0.00087185,-0.00008273,-0.00072224,0.00204
 816,-0.00111337,-0.12171752,-0.15064123,0.05185042,-0.00018693,0.00016
 015,0.00005507,-0.00104469,-0.00103342,0.00009453,0.00025988,-0.000550
 36,-0.00064109,0.00034945,0.00060380,-0.00028300,0.00000142,-0.0000073
 6,0.00000576,-0.00005268,0.00004518,0.00000661,-0.00036104,-0.00039684
 ,0.00032134,-0.00012447,-0.00005946,0.00012019,0.00000200,0.00000356,-
 0.00000703,-0.00004275,0.00001973,-0.00002697,-0.00004790,-0.00002264,
 -0.00003140,-0.00001311,0.00001446,-0.00006932,-0.00000139,-0.00000817
 ,0.00001147,-0.00000658,0.00004603,0.00001272,0.00012043,0.00030306,-0
 .00016096,0.00041602,0.00023882,0.00033908,0.13302319,0.16224018,-0.00
 349777,0.00197864,-0.00266709,0.00043437,-0.00016130,-0.00004021,0.015
 54926,0.00982858,-0.00621813,0.00002406,-0.00000902,0.00000918,-0.0031
 2402,-0.00018494,-0.00563684,0.00111415,-0.00011184,0.00115278,0.00003
 652,-0.00001222,-0.00001128,0.00007212,-0.00004583,-0.00002088,-0.0000
 3155,-0.00004877,0.00012572,-0.02022065,-0.01778722,0.00956426,0.00049
 349,-0.00035648,0.00003911,-0.00002050,-0.00100391,0.00078800,0.060207
 80,0.05378275,-0.07344727,-0.00018116,-0.00019267,0.00010408,0.0008418
 0,0.00106212,0.00013200,0.00019434,-0.00053061,-0.00015936,0.00016506,
 -0.00061697,0.00028018,0.00000091,-0.00000011,-0.00000042,-0.00000008,
 -0.00000534,-0.00000096,-0.00098223,-0.00140352,0.00047167,-0.00009474
 ,-0.00001463,0.00007434,-0.00000468,0.00000005,-0.00000166,0.00000251,
 0.00000290,-0.00000001,-0.00000924,-0.00000191,-0.00000033,-0.00000539
 ,0.00001330,-0.00001332,-0.00003004,0.00002340,0.00001435,0.00000301,-
 0.00000266,0.00000049,0.00064621,0.00075163,0.00084838,0.00108498,0.00
 027967,0.00121371,-0.06534258,-0.05706935,0.07960279,-0.00016167,-0.00
 045094,0.00045856,0.00117895,0.00017535,-0.00094266,-0.00945730,0.0055
 5890,0.00755699,-0.00003224,0.00003179,-0.00007223,0.00123716,0.000182
 45,0.00002886,-0.00008936,0.00012719,-0.00008681,-0.00001820,0.0000492
 7,0.00008468,0.00020229,0.00001917,0.00027222,-0.00008593,-0.00009936,
 -0.00004017,0.01072214,-0.01034847,-0.01298011,-0.00088599,0.00003633,
 -0.00009747,-0.00167794,0.00294335,-0.00082332,-0.14399871,0.08407975,
 0.09682319,0.00032211,-0.00020647,-0.00002806,0.00009451,0.00001706,-0
 .00022960,-0.00013245,-0.00002613,-0.00019770,0.00005234,-0.00021275,0
 .00008353,-0.00000166,-0.00000730,0.00000568,-0.00003222,0.00001856,0.
 00000035,0.00001312,0.00027787,0.00001092,-0.00009851,0.00036839,0.000
 26443,0.00000250,-0.00000630,0.00000785,-0.00004777,0.00001045,-0.0000
 1941,-0.00003726,-0.00001660,-0.00001833,-0.00002027,0.00001744,-0.000
 03252,-0.00005454,0.00003057,0.00003612,-0.00000403,0.00001906,0.00000
 162,0.00103946,0.00017637,0.00071446,-0.00134831,-0.00183582,-0.002996
 72,-0.01342185,0.01249889,0.01267401,0.15674163,-0.00040571,0.00032223
 ,-0.00046168,-0.00116747,-0.00063940,0.00170517,0.01598191,-0.01324514
 ,-0.01529618,-0.00002460,0.00000061,-0.00001462,0.00087011,0.00012574,
 0.00006527,-0.00013589,-0.00037383,0.00020781,-0.00003127,-0.00000873,
 -0.00002034,-0.00005725,0.00005888,0.00005900,0.00007026,0.00010378,-0
 .00019763,0.00597479,-0.00616806,-0.00769133,-0.00005882,0.00045502,-0
 .00010105,0.00293664,-0.00381174,0.00229285,0.08317895,-0.12006124,-0.
 08182821,-0.00034414,-0.00035181,0.00015081,0.00005511,0.00026283,0.00
 019424,-0.00028778,0.00022435,0.00001440,-0.00000431,0.00127296,-0.000
 10930,0.00000486,0.00000211,-0.00000342,0.00000405,0.00000827,0.000002
 97,-0.00013192,0.00009480,0.00008773,-0.00014829,-0.00015149,0.0001625
 7,0.00000583,0.00000942,-0.00002498,0.00002088,0.00000018,-0.00000386,
 0.00001642,0.00000384,0.00000076,0.00001884,0.00000495,-0.00002073,0.0
 0006432,-0.00004998,-0.00003889,0.00000141,0.00001144,0.00000658,-0.00
 029323,0.00079665,0.00064341,-0.00146615,0.00045701,-0.00123085,-0.011
 21945,0.01186875,0.01183627,-0.09342809,0.12877762,0.00075559,-0.00022
 702,-0.00025551,0.00057403,0.00064907,-0.00142912,-0.01177490,0.008601
 31,0.00911498,0.00001126,0.00000112,0.00000854,0.00068492,0.00086038,0
 .00064445,-0.00014311,-0.00026651,-0.00002506,0.00002693,-0.00001348,-
 0.00000276,0.00004406,-0.00001768,-0.00002904,-0.00000839,-0.00009187,
 0.00024924,0.01436866,-0.01381318,-0.01951079,-0.00003571,-0.00030530,
 0.00010006,-0.00352610,0.00474938,-0.00052762,0.09842115,-0.08309621,-
 0.13932937,-0.00000622,0.00033068,-0.00002327,-0.00014266,-0.00023045,
 0.00005567,-0.00017894,-0.00008289,0.00014465,-0.00079160,0.00011096,0
 .00121071,-0.00000299,-0.00000154,0.00000067,-0.00000245,-0.00000396,-
 0.00000175,-0.00023857,0.00019344,0.00009615,-0.00033478,-0.00024284,0
 .00041531,-0.00000137,-0.00000710,0.00001759,-0.00000714,-0.00000018,0
 .00000983,-0.00000543,-0.00000124,0.00000554,-0.00000911,-0.00000290,0
 .00001516,-0.00006795,0.00004029,0.00003513,-0.00000145,-0.00001376,-0
 .00000759,0.00051350,0.00052463,0.00105133,-0.00327481,-0.00217080,-0.
 00308286,0.00561195,-0.00508560,-0.00620328,-0.10045837,0.08961325,0.1
 5725299\\-0.00000767,0.00000233,0.00003369,-0.00256729,-0.00294923,-0.
 00265343,-0.00472948,-0.00565751,-0.00442057,0.00000481,0.00000152,0.0
 0000854,-0.00001086,-0.00001140,-0.00000712,0.00000491,-0.00001784,-0.
 00001751,0.00001233,-0.00000763,-0.00000500,-0.00001514,-0.00001107,-0
 .00001133,-0.00000977,-0.00000166,0.00000873,0.00000696,0.00001551,0.0
 0000515,0.00001359,0.00005643,0.00001091,0.00499648,0.00577068,0.00497
 100,0.00232715,0.00279989,0.00206273,-0.00000391,-0.00000688,-0.000005
 78,-0.00000849,0.00000709,-0.00001067,-0.00000276,-0.00000198,0.000019
 60,-0.00000093,-0.00000176,-0.00000094,-0.00000599,-0.00000429,0.00001
 196,0.00000365,0.00001229,0.00000938,0.00000204,0.00000583,-0.00000166
 ,0.00000900,0.00000203,-0.00001540,0.00000004,0.00000814,-0.00000907,-
 0.00000094,-0.00000150,0.00001157,-0.00000786,-0.00000249,0.00000158,0
 .00000431,0.00000390,0.00000338,0.00000134,0.00000134,0.00001646,-0.00
 000559,0.00000009,-0.00001246,-0.00000037,-0.00000200,-0.00001071,-0.0
 0000402,-0.00000181,0.00000408,-0.00000722,-0.00000837,0.00000224,0.00
 000168,0.00000034,0.00000065\\\@


 HICKORY, DICKORY, DOCK
 TWO MICE RAN UP THE CLOCK
 THE CLOCK STRUCK ONE...
 THE OTHER ESCAPED WITH MINOR INJURIES.
 Job cpu time:       0 days 13 hours 16 minutes 26.5 seconds.
 Elapsed time:       0 days  1 hours  6 minutes 40.3 seconds.
 File lengths (MBytes):  RWF=    720 Int=      0 D2E=      0 Chk=     34 Scr=      1
 Normal termination of Gaussian 16 at Sat Mar  9 04:20:41 2019.
