 Entering Gaussian System, Link 0=g16
 Initial command:
 /sw/Projects/G16/g16/l1.exe "/nvme/pbs/tmpdir/pbs.74203[24].flm1/Gau-24424.inp" -scrdir="/nvme/pbs/tmpdir/pbs.74203[24].flm1/"
 Entering Link 1 = /sw/Projects/G16/g16/l1.exe PID=     24425.
  
 Copyright (c) 1988-2017, Gaussian, Inc.  All Rights Reserved.
  
 This is part of the Gaussian(R) 16 program.  It is based on
 the Gaussian(R) 09 system (copyright 2009, Gaussian, Inc.),
 the Gaussian(R) 03 system (copyright 2003, Gaussian, Inc.),
 the Gaussian(R) 98 system (copyright 1998, Gaussian, Inc.),
 the Gaussian(R) 94 system (copyright 1995, Gaussian, Inc.),
 the Gaussian 92(TM) system (copyright 1992, Gaussian, Inc.),
 the Gaussian 90(TM) system (copyright 1990, Gaussian, Inc.),
 the Gaussian 88(TM) system (copyright 1988, Gaussian, Inc.),
 the Gaussian 86(TM) system (copyright 1986, Carnegie Mellon
 University), and the Gaussian 82(TM) system (copyright 1983,
 Carnegie Mellon University). Gaussian is a federally registered
 trademark of Gaussian, Inc.
  
 This software contains proprietary and confidential information,
 including trade secrets, belonging to Gaussian, Inc.
  
 This software is provided under written license and may be
 used, copied, transmitted, or stored only in accord with that
 written license.
  
 The following legend is applicable only to US Government
 contracts under FAR:
  
                    RESTRICTED RIGHTS LEGEND
  
 Use, reproduction and disclosure by the US Government is
 subject to restrictions as set forth in subparagraphs (a)
 and (c) of the Commercial Computer Software - Restricted
 Rights clause in FAR 52.227-19.
  
 Gaussian, Inc.
 340 Quinnipiac St., Bldg. 40, Wallingford CT 06492
  
  
 ---------------------------------------------------------------
 Warning -- This program may not be used in any manner that
 competes with the business of Gaussian, Inc. or will provide
 assistance to any competitor of Gaussian, Inc.  The licensee
 of this program is prohibited from giving any competitor of
 Gaussian, Inc. access to this program.  By using this program,
 the user acknowledges that Gaussian, Inc. is engaged in the
 business of creating and licensing software in the field of
 computational chemistry and represents and warrants to the
 licensee that it is not a competitor of Gaussian, Inc. and that
 it will not use this program in any manner prohibited above.
 ---------------------------------------------------------------
  

 Cite this work as:
 Gaussian 16, Revision B.01,
 M. J. Frisch, G. W. Trucks, H. B. Schlegel, G. E. Scuseria, 
 M. A. Robb, J. R. Cheeseman, G. Scalmani, V. Barone, 
 G. A. Petersson, H. Nakatsuji, X. Li, M. Caricato, A. V. Marenich, 
 J. Bloino, B. G. Janesko, R. Gomperts, B. Mennucci, H. P. Hratchian, 
 J. V. Ortiz, A. F. Izmaylov, J. L. Sonnenberg, D. Williams-Young, 
 F. Ding, F. Lipparini, F. Egidi, J. Goings, B. Peng, A. Petrone, 
 T. Henderson, D. Ranasinghe, V. G. Zakrzewski, J. Gao, N. Rega, 
 G. Zheng, W. Liang, M. Hada, M. Ehara, K. Toyota, R. Fukuda, 
 J. Hasegawa, M. Ishida, T. Nakajima, Y. Honda, O. Kitao, H. Nakai, 
 T. Vreven, K. Throssell, J. A. Montgomery, Jr., J. E. Peralta, 
 F. Ogliaro, M. J. Bearpark, J. J. Heyd, E. N. Brothers, K. N. Kudin, 
 V. N. Staroverov, T. A. Keith, R. Kobayashi, J. Normand, 
 K. Raghavachari, A. P. Rendell, J. C. Burant, S. S. Iyengar, 
 J. Tomasi, M. Cossi, J. M. Millam, M. Klene, C. Adamo, R. Cammi, 
 J. W. Ochterski, R. L. Martin, K. Morokuma, O. Farkas, 
 J. B. Foresman, and D. J. Fox, Gaussian, Inc., Wallingford CT, 2016.
 
 ******************************************
 Gaussian 16:  ES64L-G16RevB.01 20-Dec-2017
                 9-Mar-2019 
 ******************************************
 %mem=20gb
 %nproc=12
 Will use up to   12 processors via shared memory.
 %chk=4c1_a1_a4_4c1_PSI.inp_extract_24.chk
 ----------------------------------------------------------------------
 #M062X/6-311++G(2d,2p) opt=ModRedundant freq=noraman SCRF=(SMD,solvent
 =water)
 ----------------------------------------------------------------------
 1/18=120,19=15,26=3,38=1/1,3;
 2/9=110,12=2,17=6,18=5,40=1/2;
 3/5=4,6=6,7=1212,11=2,25=1,30=1,70=32201,71=1,72=1,74=-55/1,2,3;
 4//1;
 5/5=2,38=5,53=1/2;
 6/7=2,8=2,9=2,10=2,28=1/1;
 7//1,2,3,16;
 1/18=20,19=15,26=3/3(2);
 2/9=110/2;
 99//99;
 2/9=110/2;
 3/5=4,6=6,7=1212,11=2,25=1,30=1,70=32205,71=1,72=1,74=-55/1,2,3;
 4/5=5,16=3,69=1/1;
 5/5=2,38=5,53=1/2;
 7//1,2,3,16;
 1/18=20,19=15,26=3/3(-5);
 2/9=110/2;
 6/7=2,8=2,9=2,10=2,19=2,28=1/1;
 99/9=1/99;
 --------------------------------
 4c1_a1_a4_4c1_PSI.inp_extract_24
 --------------------------------
 Symbolic Z-matrix:
 Charge =  0 Multiplicity = 1
 C                    -1.71243   1.44298  -0.13202 
 C                     1.12978  -0.68718  -0.69078 
 C                    -1.06177   0.26361  -0.83438 
 C                     3.41914   0.51535   0.60748 
 C                    -3.40643   0.11318   0.83429 
 O                    -2.3704    1.0533    1.05455 
 C                     2.66287  -0.60793   1.31673 
 C                     2.49124   1.25414  -0.34229 
 C                     1.97358  -1.49749   0.28092 
 C                    -2.85851  -1.16324   0.21564 
 O                     1.86932   0.36328  -1.2595 
 O                     0.00485  -0.20481  -0.01889 
 C                    -2.08673  -0.84584  -1.06725 
 H                    -2.42612   1.90972  -0.80667 
 H                    -0.97006   2.17654   0.14852 
 H                     0.82086  -1.29393  -1.53062 
 H                    -0.66209   0.61341  -1.77821 
 H                     4.25148   0.10018   0.04382 
 H                     3.83001   1.22251   1.32248 
 H                    -3.85704  -0.07566   1.7991 
 H                    -4.15773   0.56099   0.18703 
 H                     1.92673  -0.18274   1.99366 
 H                     3.34109  -1.20377   1.91983 
 H                     3.03209   1.96545  -0.95112 
 H                     1.72872   1.79303   0.20941 
 H                     2.72517  -2.02304  -0.30184 
 H                     1.34513  -2.2452    0.75257 
 H                    -3.68066  -1.84095   0.00444 
 H                    -2.20987  -1.65664   0.93344 
 H                    -1.59225  -1.73219  -1.45158 
 H                    -2.78009  -0.50736  -1.83369 
 
 The following ModRedundant input section has been read:
 D      13       3      12       2 F                                           
 

 GradGradGradGradGradGradGradGradGradGradGradGradGradGradGradGradGradGrad
 Berny optimization.
 Initialization pass.
                           ----------------------------
                           !    Initial Parameters    !
                           ! (Angstroms and Degrees)  !
 --------------------------                            --------------------------
 ! Name  Definition              Value          Derivative Info.                !
 --------------------------------------------------------------------------------
 ! R1    R(1,3)                  1.5191         estimate D2E/DX2                !
 ! R2    R(1,6)                  1.4116         estimate D2E/DX2                !
 ! R3    R(1,14)                 1.0874         estimate D2E/DX2                !
 ! R4    R(1,15)                 1.0807         estimate D2E/DX2                !
 ! R5    R(2,9)                  1.5208         estimate D2E/DX2                !
 ! R6    R(2,11)                 1.4049         estimate D2E/DX2                !
 ! R7    R(2,12)                 1.3963         estimate D2E/DX2                !
 ! R8    R(2,16)                 1.0812         estimate D2E/DX2                !
 ! R9    R(3,12)                 1.422          estimate D2E/DX2                !
 ! R10   R(3,13)                 1.5283         estimate D2E/DX2                !
 ! R11   R(3,17)                 1.083          estimate D2E/DX2                !
 ! R12   R(4,7)                  1.5286         estimate D2E/DX2                !
 ! R13   R(4,8)                  1.5195         estimate D2E/DX2                !
 ! R14   R(4,18)                 1.0876         estimate D2E/DX2                !
 ! R15   R(4,19)                 1.0863         estimate D2E/DX2                !
 ! R16   R(5,6)                  1.4162         estimate D2E/DX2                !
 ! R17   R(5,10)                 1.5206         estimate D2E/DX2                !
 ! R18   R(5,20)                 1.0815         estimate D2E/DX2                !
 ! R19   R(5,21)                 1.0881         estimate D2E/DX2                !
 ! R20   R(7,9)                  1.5295         estimate D2E/DX2                !
 ! R21   R(7,22)                 1.0867         estimate D2E/DX2                !
 ! R22   R(7,23)                 1.0857         estimate D2E/DX2                !
 ! R23   R(8,11)                 1.4219         estimate D2E/DX2                !
 ! R24   R(8,24)                 1.0813         estimate D2E/DX2                !
 ! R25   R(8,25)                 1.0845         estimate D2E/DX2                !
 ! R26   R(9,26)                 1.0866         estimate D2E/DX2                !
 ! R27   R(9,27)                 1.0846         estimate D2E/DX2                !
 ! R28   R(10,13)                1.5304         estimate D2E/DX2                !
 ! R29   R(10,28)                1.0862         estimate D2E/DX2                !
 ! R30   R(10,29)                1.086          estimate D2E/DX2                !
 ! R31   R(13,30)                1.0853         estimate D2E/DX2                !
 ! R32   R(13,31)                1.0875         estimate D2E/DX2                !
 ! A1    A(3,1,6)              111.9611         estimate D2E/DX2                !
 ! A2    A(3,1,14)             109.1177         estimate D2E/DX2                !
 ! A3    A(3,1,15)             110.6578         estimate D2E/DX2                !
 ! A4    A(6,1,14)             109.5169         estimate D2E/DX2                !
 ! A5    A(6,1,15)             106.8193         estimate D2E/DX2                !
 ! A6    A(14,1,15)            108.6971         estimate D2E/DX2                !
 ! A7    A(9,2,11)             111.4058         estimate D2E/DX2                !
 ! A8    A(9,2,12)             108.8822         estimate D2E/DX2                !
 ! A9    A(9,2,16)             110.8451         estimate D2E/DX2                !
 ! A10   A(11,2,12)            111.1358         estimate D2E/DX2                !
 ! A11   A(11,2,16)            104.8073         estimate D2E/DX2                !
 ! A12   A(12,2,16)            109.723          estimate D2E/DX2                !
 ! A13   A(1,3,12)             108.1713         estimate D2E/DX2                !
 ! A14   A(1,3,13)             110.2918         estimate D2E/DX2                !
 ! A15   A(1,3,17)             108.0745         estimate D2E/DX2                !
 ! A16   A(12,3,13)            110.5666         estimate D2E/DX2                !
 ! A17   A(12,3,17)            109.2298         estimate D2E/DX2                !
 ! A18   A(13,3,17)            110.4378         estimate D2E/DX2                !
 ! A19   A(7,4,8)              110.1924         estimate D2E/DX2                !
 ! A20   A(7,4,18)             109.7904         estimate D2E/DX2                !
 ! A21   A(7,4,19)             111.1048         estimate D2E/DX2                !
 ! A22   A(8,4,18)             109.2077         estimate D2E/DX2                !
 ! A23   A(8,4,19)             109.018          estimate D2E/DX2                !
 ! A24   A(18,4,19)            107.4666         estimate D2E/DX2                !
 ! A25   A(6,5,10)             110.9106         estimate D2E/DX2                !
 ! A26   A(6,5,20)             106.3783         estimate D2E/DX2                !
 ! A27   A(6,5,21)             108.9314         estimate D2E/DX2                !
 ! A28   A(10,5,20)            111.5011         estimate D2E/DX2                !
 ! A29   A(10,5,21)            110.6247         estimate D2E/DX2                !
 ! A30   A(20,5,21)            108.3524         estimate D2E/DX2                !
 ! A31   A(1,6,5)              113.1718         estimate D2E/DX2                !
 ! A32   A(4,7,9)              109.6407         estimate D2E/DX2                !
 ! A33   A(4,7,22)             109.6724         estimate D2E/DX2                !
 ! A34   A(4,7,23)             110.6072         estimate D2E/DX2                !
 ! A35   A(9,7,22)             110.1289         estimate D2E/DX2                !
 ! A36   A(9,7,23)             109.7874         estimate D2E/DX2                !
 ! A37   A(22,7,23)            106.9703         estimate D2E/DX2                !
 ! A38   A(4,8,11)             111.4498         estimate D2E/DX2                !
 ! A39   A(4,8,24)             111.4909         estimate D2E/DX2                !
 ! A40   A(4,8,25)             110.6691         estimate D2E/DX2                !
 ! A41   A(11,8,24)            105.5294         estimate D2E/DX2                !
 ! A42   A(11,8,25)            109.3864         estimate D2E/DX2                !
 ! A43   A(24,8,25)            108.1336         estimate D2E/DX2                !
 ! A44   A(2,9,7)              111.8926         estimate D2E/DX2                !
 ! A45   A(2,9,26)             107.3863         estimate D2E/DX2                !
 ! A46   A(2,9,27)             108.8847         estimate D2E/DX2                !
 ! A47   A(7,9,26)             109.4378         estimate D2E/DX2                !
 ! A48   A(7,9,27)             111.5658         estimate D2E/DX2                !
 ! A49   A(26,9,27)            107.491          estimate D2E/DX2                !
 ! A50   A(5,10,13)            110.4059         estimate D2E/DX2                !
 ! A51   A(5,10,28)            109.2759         estimate D2E/DX2                !
 ! A52   A(5,10,29)            109.1281         estimate D2E/DX2                !
 ! A53   A(13,10,28)           110.3715         estimate D2E/DX2                !
 ! A54   A(13,10,29)           110.3079         estimate D2E/DX2                !
 ! A55   A(28,10,29)           107.2854         estimate D2E/DX2                !
 ! A56   A(2,11,8)             115.9495         estimate D2E/DX2                !
 ! A57   A(2,12,3)             116.241          estimate D2E/DX2                !
 ! A58   A(3,13,10)            111.1641         estimate D2E/DX2                !
 ! A59   A(3,13,30)            109.9541         estimate D2E/DX2                !
 ! A60   A(3,13,31)            107.9999         estimate D2E/DX2                !
 ! A61   A(10,13,30)           110.9314         estimate D2E/DX2                !
 ! A62   A(10,13,31)           109.4994         estimate D2E/DX2                !
 ! A63   A(30,13,31)           107.1633         estimate D2E/DX2                !
 ! D1    D(6,1,3,12)           -67.3049         estimate D2E/DX2                !
 ! D2    D(6,1,3,13)            53.7302         estimate D2E/DX2                !
 ! D3    D(6,1,3,17)           174.5466         estimate D2E/DX2                !
 ! D4    D(14,1,3,12)          171.2943         estimate D2E/DX2                !
 ! D5    D(14,1,3,13)          -67.6707         estimate D2E/DX2                !
 ! D6    D(14,1,3,17)           53.1457         estimate D2E/DX2                !
 ! D7    D(15,1,3,12)           51.738          estimate D2E/DX2                !
 ! D8    D(15,1,3,13)          172.773          estimate D2E/DX2                !
 ! D9    D(15,1,3,17)          -66.4105         estimate D2E/DX2                !
 ! D10   D(3,1,6,5)            -60.403          estimate D2E/DX2                !
 ! D11   D(14,1,6,5)            60.7677         estimate D2E/DX2                !
 ! D12   D(15,1,6,5)           178.3131         estimate D2E/DX2                !
 ! D13   D(11,2,9,7)            51.8163         estimate D2E/DX2                !
 ! D14   D(11,2,9,26)          -68.2925         estimate D2E/DX2                !
 ! D15   D(11,2,9,27)          175.6053         estimate D2E/DX2                !
 ! D16   D(12,2,9,7)           -71.0994         estimate D2E/DX2                !
 ! D17   D(12,2,9,26)          168.7918         estimate D2E/DX2                !
 ! D18   D(12,2,9,27)           52.6896         estimate D2E/DX2                !
 ! D19   D(16,2,9,7)           168.1114         estimate D2E/DX2                !
 ! D20   D(16,2,9,26)           48.0026         estimate D2E/DX2                !
 ! D21   D(16,2,9,27)          -68.0996         estimate D2E/DX2                !
 ! D22   D(9,2,11,8)           -54.9536         estimate D2E/DX2                !
 ! D23   D(12,2,11,8)           66.6621         estimate D2E/DX2                !
 ! D24   D(16,2,11,8)         -174.8851         estimate D2E/DX2                !
 ! D25   D(9,2,12,3)          -163.8105         estimate D2E/DX2                !
 ! D26   D(11,2,12,3)           73.112          estimate D2E/DX2                !
 ! D27   D(16,2,12,3)          -42.3347         estimate D2E/DX2                !
 ! D28   D(1,3,12,2)          -144.9778         estimate D2E/DX2                !
 ! D29   D(13,3,12,2)           94.1579         Frozen                          !
 ! D30   D(17,3,12,2)          -27.5696         estimate D2E/DX2                !
 ! D31   D(1,3,13,10)          -49.524          estimate D2E/DX2                !
 ! D32   D(1,3,13,30)         -172.7619         estimate D2E/DX2                !
 ! D33   D(1,3,13,31)           70.6185         estimate D2E/DX2                !
 ! D34   D(12,3,13,10)          70.0708         estimate D2E/DX2                !
 ! D35   D(12,3,13,30)         -53.1672         estimate D2E/DX2                !
 ! D36   D(12,3,13,31)        -169.7867         estimate D2E/DX2                !
 ! D37   D(17,3,13,10)        -168.9163         estimate D2E/DX2                !
 ! D38   D(17,3,13,30)          67.8457         estimate D2E/DX2                !
 ! D39   D(17,3,13,31)         -48.7738         estimate D2E/DX2                !
 ! D40   D(8,4,7,9)             53.0174         estimate D2E/DX2                !
 ! D41   D(8,4,7,22)           -68.0222         estimate D2E/DX2                !
 ! D42   D(8,4,7,23)           174.2296         estimate D2E/DX2                !
 ! D43   D(18,4,7,9)           -67.306          estimate D2E/DX2                !
 ! D44   D(18,4,7,22)          171.6544         estimate D2E/DX2                !
 ! D45   D(18,4,7,23)           53.9062         estimate D2E/DX2                !
 ! D46   D(19,4,7,9)           173.9559         estimate D2E/DX2                !
 ! D47   D(19,4,7,22)           52.9163         estimate D2E/DX2                !
 ! D48   D(19,4,7,23)          -64.8319         estimate D2E/DX2                !
 ! D49   D(7,4,8,11)           -54.7852         estimate D2E/DX2                !
 ! D50   D(7,4,8,24)          -172.4206         estimate D2E/DX2                !
 ! D51   D(7,4,8,25)            67.1794         estimate D2E/DX2                !
 ! D52   D(18,4,8,11)           65.8885         estimate D2E/DX2                !
 ! D53   D(18,4,8,24)          -51.747          estimate D2E/DX2                !
 ! D54   D(18,4,8,25)         -172.1469         estimate D2E/DX2                !
 ! D55   D(19,4,8,11)         -176.9645         estimate D2E/DX2                !
 ! D56   D(19,4,8,24)           65.4            estimate D2E/DX2                !
 ! D57   D(19,4,8,25)          -54.9999         estimate D2E/DX2                !
 ! D58   D(10,5,6,1)            60.8236         estimate D2E/DX2                !
 ! D59   D(20,5,6,1)          -177.7604         estimate D2E/DX2                !
 ! D60   D(21,5,6,1)           -61.1609         estimate D2E/DX2                !
 ! D61   D(6,5,10,13)          -55.1216         estimate D2E/DX2                !
 ! D62   D(6,5,10,28)         -176.6937         estimate D2E/DX2                !
 ! D63   D(6,5,10,29)           66.2756         estimate D2E/DX2                !
 ! D64   D(20,5,10,13)        -173.4775         estimate D2E/DX2                !
 ! D65   D(20,5,10,28)          64.9504         estimate D2E/DX2                !
 ! D66   D(20,5,10,29)         -52.0803         estimate D2E/DX2                !
 ! D67   D(21,5,10,13)          65.8688         estimate D2E/DX2                !
 ! D68   D(21,5,10,28)         -55.7034         estimate D2E/DX2                !
 ! D69   D(21,5,10,29)        -172.734          estimate D2E/DX2                !
 ! D70   D(4,7,9,2)            -51.9342         estimate D2E/DX2                !
 ! D71   D(4,7,9,26)            66.9676         estimate D2E/DX2                !
 ! D72   D(4,7,9,27)          -174.2037         estimate D2E/DX2                !
 ! D73   D(22,7,9,2)            68.8293         estimate D2E/DX2                !
 ! D74   D(22,7,9,26)         -172.2689         estimate D2E/DX2                !
 ! D75   D(22,7,9,27)          -53.4402         estimate D2E/DX2                !
 ! D76   D(23,7,9,2)          -173.6395         estimate D2E/DX2                !
 ! D77   D(23,7,9,26)          -54.7376         estimate D2E/DX2                !
 ! D78   D(23,7,9,27)           64.0911         estimate D2E/DX2                !
 ! D79   D(4,8,11,2)            57.0555         estimate D2E/DX2                !
 ! D80   D(24,8,11,2)          178.2341         estimate D2E/DX2                !
 ! D81   D(25,8,11,2)          -65.6477         estimate D2E/DX2                !
 ! D82   D(5,10,13,3)           50.5301         estimate D2E/DX2                !
 ! D83   D(5,10,13,30)         173.2063         estimate D2E/DX2                !
 ! D84   D(5,10,13,31)         -68.7198         estimate D2E/DX2                !
 ! D85   D(28,10,13,3)         171.4513         estimate D2E/DX2                !
 ! D86   D(28,10,13,30)        -65.8725         estimate D2E/DX2                !
 ! D87   D(28,10,13,31)         52.2014         estimate D2E/DX2                !
 ! D88   D(29,10,13,3)         -70.1646         estimate D2E/DX2                !
 ! D89   D(29,10,13,30)         52.5115         estimate D2E/DX2                !
 ! D90   D(29,10,13,31)        170.5855         estimate D2E/DX2                !
 --------------------------------------------------------------------------------
 Trust Radius=3.00D-01 FncErr=1.00D-07 GrdErr=1.00D-06 EigMax=2.50D+02 EigMin=1.00D-04
 Number of steps in this run=    186 maximum allowed number of steps=    186.
 GradGradGradGradGradGradGradGradGradGradGradGradGradGradGradGradGradGrad

                          Input orientation:                          
 ---------------------------------------------------------------------
 Center     Atomic      Atomic             Coordinates (Angstroms)
 Number     Number       Type             X           Y           Z
 ---------------------------------------------------------------------
      1          6           0       -1.712426    1.442977   -0.132019
      2          6           0        1.129780   -0.687181   -0.690781
      3          6           0       -1.061775    0.263607   -0.834383
      4          6           0        3.419139    0.515351    0.607480
      5          6           0       -3.406427    0.113184    0.834291
      6          8           0       -2.370402    1.053304    1.054553
      7          6           0        2.662871   -0.607929    1.316734
      8          6           0        2.491243    1.254136   -0.342292
      9          6           0        1.973578   -1.497491    0.280923
     10          6           0       -2.858514   -1.163238    0.215642
     11          8           0        1.869323    0.363283   -1.259499
     12          8           0        0.004850   -0.204812   -0.018885
     13          6           0       -2.086728   -0.845844   -1.067246
     14          1           0       -2.426118    1.909721   -0.806672
     15          1           0       -0.970056    2.176540    0.148520
     16          1           0        0.820863   -1.293929   -1.530615
     17          1           0       -0.662093    0.613408   -1.778211
     18          1           0        4.251483    0.100184    0.043817
     19          1           0        3.830009    1.222510    1.322484
     20          1           0       -3.857044   -0.075663    1.799101
     21          1           0       -4.157726    0.560985    0.187025
     22          1           0        1.926732   -0.182738    1.993657
     23          1           0        3.341089   -1.203765    1.919827
     24          1           0        3.032086    1.965454   -0.951122
     25          1           0        1.728715    1.793026    0.209411
     26          1           0        2.725172   -2.023044   -0.301835
     27          1           0        1.345133   -2.245198    0.752566
     28          1           0       -3.680658   -1.840945    0.004437
     29          1           0       -2.209872   -1.656637    0.933436
     30          1           0       -1.592245   -1.732188   -1.451577
     31          1           0       -2.780088   -0.507359   -1.833694
 ---------------------------------------------------------------------
                    Distance matrix (angstroms):
                    1          2          3          4          5
     1  C    0.000000
     2  C    3.595542   0.000000
     3  C    1.519071   2.393226   0.000000
     4  C    5.266907   2.893567   4.713909   0.000000
     5  C    2.360454   4.852175   2.881752   6.841165   0.000000
     6  O    1.411641   4.280976   2.429857   5.831642   1.416223
     7  C    5.044633   2.527205   4.388607   1.528640   6.130998
     8  C    4.213159   2.396610   3.721188   1.519494   6.121163
     9  C    4.733233   1.520791   3.682220   2.499564   5.643132
    10  C    2.868230   4.117611   2.523234   6.510002   1.520588
    11  O    3.907157   1.404934   2.963443   2.431186   5.681553
    12  O    2.382655   1.396278   1.422020   3.545185   3.530700
    13  C    2.500691   3.242348   1.528279   5.913724   2.505431
    14  H    1.087365   4.404741   2.138198   6.173421   2.623225
    15  H    1.080708   3.648922   2.152632   4.715424   3.265520
    16  H    3.982999   1.081154   2.540666   3.820469   5.044079
    17  H    2.121634   2.466748   1.083013   4.728381   3.821879
    18  H    6.115736   3.302213   5.387825   1.087601   7.698611
    19  H    5.734350   3.871872   5.431493   1.086333   7.337230
    20  H    3.261116   5.607306   3.855369   7.396763   1.081470
    21  H    2.619006   5.503288   3.273625   7.588659   1.088085
    22  H    4.517180   2.845312   4.138624   2.153159   5.465737
    23  H    6.062452   3.460061   5.396672   2.164187   6.960008
    24  H    4.842965   3.274602   4.435043   2.163758   6.933473
    25  H    3.475710   2.705641   3.348950   2.156025   5.438936
    26  H    5.633331   2.116857   4.455710   2.784222   6.591719
    27  H    4.871734   2.134724   3.821743   3.455891   5.305277
    28  H    3.831018   4.995479   3.462847   7.504859   2.140673
    29  H    3.315155   3.838125   2.851429   6.042313   2.138654
    30  H    3.440545   3.013349   2.155348   5.865588   3.452803
    31  H    2.799895   4.077457   2.132044   6.740600   2.809896
                    6          7          8          9         10
     6  O    0.000000
     7  C    5.306814   0.000000
     8  C    5.062322   2.499822   0.000000
     9  C    5.096589   1.529493   2.868419   0.000000
    10  C    2.419728   5.657426   5.897024   4.844079   0.000000
    11  O    4.879163   2.865301   1.421855   2.417902   5.182543
    12  O    2.894296   3.001909   2.900909   2.374193   3.028603
    13  C    2.861689   5.319648   5.088545   4.327619   1.530423
    14  H    2.049564   6.061784   4.982558   5.670034   3.267288
    15  H    2.010852   4.723997   3.615566   4.709673   3.837303
    16  H    4.730409   3.459911   3.270308   2.156817   4.074838
    17  H    3.337122   4.703800   3.523624   3.955084   3.457772
    18  H    6.766047   2.155326   2.139890   2.792425   7.223421
    19  H    6.208503   2.170887   2.136533   3.453924   7.187018
    20  H    2.009732   6.559366   6.830423   6.190526   2.165000
    21  H    2.046829   7.011644   6.705925   6.468310   2.159101
    22  H    4.568925   1.086698   2.799989   2.159682   5.198201
    23  H    6.201950   1.085689   3.446839   2.154615   6.429694
    24  H    5.834520   3.449897   1.081276   3.824966   6.771205
    25  H    4.250202   2.804175   1.084540   3.300390   5.457308
    26  H    6.104800   2.150860   3.285768   1.086603   5.673147
    27  H    4.977601   2.176090   3.841565   1.084646   4.373737
    28  H    3.346071   6.594150   6.913184   5.671401   1.086193
    29  H    2.717392   4.999033   5.674554   4.237022   1.086005
    30  H    3.826902   5.199377   5.179143   3.971364   2.169507
    31  H    3.308396   6.289763   5.754483   5.296160   2.153162
                   11         12         13         14         15
    11  O    0.000000
    12  O    2.310436   0.000000
    13  C    4.141170   2.425836   0.000000
    14  H    4.587738   3.316845   2.788588   0.000000
    15  H    3.651368   2.578624   3.443813   1.761732   0.000000
    16  H    1.979678   2.034055   2.978183   4.618479   4.251005
    17  H    2.596092   2.051713   2.159739   2.395016   2.500103
    18  H    2.728102   4.258033   6.504026   6.970517   5.620203
    19  H    3.353982   4.297483   6.707956   6.644147   5.032791
    20  H    6.506842   4.270360   3.455885   3.574822   4.016408
    21  H    6.201358   4.237438   2.800249   2.409354   3.573897
    22  H    3.299160   2.782884   5.090845   5.582789   4.166786
    23  H    3.837948   3.985850   6.205796   7.098469   5.757600
    24  H    2.003513   3.839698   5.841159   5.460400   4.155828
    25  H    2.054661   2.648620   4.811558   4.278864   2.726565
    26  H    2.710010   3.284232   5.012588   6.500561   5.611955
    27  H    3.335769   2.560209   4.128871   5.823823   5.027598
    28  H    6.103970   4.032424   2.163179   4.037235   4.848537
    29  H    5.052610   2.814197   2.162239   3.974122   4.104447
    30  H    4.050968   2.633666   1.085279   3.791404   4.269143
    31  H    4.764949   3.337806   1.087549   2.649971   3.795880
                   16         17         18         19         20
    16  H    0.000000
    17  H    2.428662   0.000000
    18  H    4.023871   5.265588   0.000000
    19  H    4.850526   5.492203   1.752782   0.000000
    20  H    5.869753   4.845585   8.298202   7.810455   0.000000
    21  H    5.583667   4.010530   8.423042   8.095109   1.759125
    22  H    3.857225   4.643582   3.047358   2.459199   5.788038
    23  H    4.273783   5.744830   2.459373   2.546109   7.286996
    24  H    3.981067   4.019834   2.440505   2.521494   7.693504
    25  H    3.658029   3.325373   3.042613   2.445375   6.100805
    26  H    2.380736   4.539177   2.637650   3.793771   7.178565
    27  H    2.528376   4.313400   3.801317   4.304000   5.732780
    28  H    4.787411   4.279418   8.166296   8.217793   2.523520
    29  H    3.922813   3.860279   6.754772   6.702314   2.441727
    30  H    2.453856   2.544345   6.304201   6.769527   4.294217
    31  H    3.698297   2.396894   7.303229   7.526439   3.813580
                   21         22         23         24         25
    21  H    0.000000
    22  H    6.390436   0.000000
    23  H    7.896149   1.745953   0.000000
    24  H    7.413589   3.808971   4.287398   0.000000
    25  H    6.014035   2.669530   3.808678   1.753666   0.000000
    26  H    7.368207   3.048527   2.446703   4.052639   3.977020
    27  H    6.202899   2.476349   2.535926   4.845405   4.092604
    28  H    2.455647   6.176526   7.306138   7.775776   6.519898
    29  H    3.044522   4.517515   5.656079   6.644488   5.285533
    30  H    3.811214   5.162716   5.998615   5.942007   5.120038
    31  H    2.668811   6.075208   7.214063   6.377704   5.458512
                   26         27         28         29         30
    26  H    0.000000
    27  H    1.750892   0.000000
    28  H    6.415732   5.097224   0.000000
    29  H    5.100471   3.607933   1.749348   0.000000
    30  H    4.477342   3.708047   2.548190   2.464844   0.000000
    31  H    5.912003   5.169746   2.442991   3.050081   1.748482
                   31
    31  H    0.000000
 Stoichiometry    C10H18O3
 Framework group  C1[X(C10H18O3)]
 Deg. of freedom    87
 Full point group                 C1      NOp   1
 Largest Abelian subgroup         C1      NOp   1
 Largest concise Abelian subgroup C1      NOp   1
                         Standard orientation:                         
 ---------------------------------------------------------------------
 Center     Atomic      Atomic             Coordinates (Angstroms)
 Number     Number       Type             X           Y           Z
 ---------------------------------------------------------------------
      1          6           0        1.712426   -1.442977   -0.132019
      2          6           0       -1.129780    0.687181   -0.690781
      3          6           0        1.061775   -0.263607   -0.834383
      4          6           0       -3.419139   -0.515351    0.607480
      5          6           0        3.406427   -0.113184    0.834291
      6          8           0        2.370402   -1.053304    1.054553
      7          6           0       -2.662871    0.607929    1.316734
      8          6           0       -2.491243   -1.254136   -0.342292
      9          6           0       -1.973578    1.497491    0.280923
     10          6           0        2.858514    1.163238    0.215642
     11          8           0       -1.869323   -0.363283   -1.259499
     12          8           0       -0.004850    0.204812   -0.018885
     13          6           0        2.086728    0.845844   -1.067246
     14          1           0        2.426118   -1.909721   -0.806672
     15          1           0        0.970056   -2.176540    0.148520
     16          1           0       -0.820863    1.293929   -1.530615
     17          1           0        0.662093   -0.613408   -1.778211
     18          1           0       -4.251483   -0.100184    0.043817
     19          1           0       -3.830009   -1.222510    1.322484
     20          1           0        3.857044    0.075663    1.799101
     21          1           0        4.157726   -0.560985    0.187025
     22          1           0       -1.926732    0.182738    1.993657
     23          1           0       -3.341089    1.203765    1.919827
     24          1           0       -3.032086   -1.965454   -0.951122
     25          1           0       -1.728715   -1.793026    0.209411
     26          1           0       -2.725172    2.023044   -0.301835
     27          1           0       -1.345133    2.245198    0.752566
     28          1           0        3.680658    1.840945    0.004437
     29          1           0        2.209872    1.656637    0.933436
     30          1           0        1.592245    1.732188   -1.451577
     31          1           0        2.780088    0.507359   -1.833694
 ---------------------------------------------------------------------
 Rotational constants (GHZ):           1.6600460           0.4514667           0.4374946
 Standard basis: 6-311++G(2d,2p) (5D, 7F)
 There are   557 symmetry adapted cartesian basis functions of A   symmetry.
 There are   531 symmetry adapted basis functions of A   symmetry.
   531 basis functions,   762 primitive gaussians,   557 cartesian basis functions
    51 alpha electrons       51 beta electrons
       nuclear repulsion energy       904.3098065218 Hartrees.
 NAtoms=   31 NActive=   31 NUniq=   31 SFac= 1.00D+00 NAtFMM=   60 NAOKFM=F Big=F
 Integral buffers will be    131072 words long.
 Raffenetti 2 integral format.
 Two-electron integral symmetry is turned on.
 ------------------------------------------------------------------------------
 Polarizable Continuum Model (PCM)
 =================================
 Model                : PCM.
 Atomic radii         : SMD-Coulomb.
 Polarization charges : Total charges.
 Charge compensation  : None.
 Solution method      : On-the-fly selection.
 Cavity type          : VdW (van der Waals Surface) (Alpha=1.000).
 Cavity algorithm     : GePol (No added spheres)
                        Default sphere list used, NSphG=   31.
                        Lebedev-Laikov grids with approx.  5.0 points / Ang**2.
                        Smoothing algorithm: York/Karplus (Gamma=1.0000).
                        Polarization charges: spherical gaussians, with
                                              point-specific exponents (IZeta= 3).
                        Self-potential: point-specific (ISelfS= 7).
                        Self-field    : sphere-specific E.n sum rule (ISelfD= 2).
 1st derivatives      : Analytical E(r).r(x)/FMM algorithm (CHGder, D1EAlg=3).
                        Cavity 1st derivative terms included.
 Solvent              : Water, Eps=  78.355300 Eps(inf)=   1.777849
 ------------------------------------------------------------------------------
 ------------------------------------------------------------------------------
 Atomic radii for non-electrostatic terms: SMD-CDS.
 ------------------------------------------------------------------------------
 Nuclear repulsion after PCM non-electrostatic terms =      904.3162523537 Hartrees.
 One-electron integrals computed using PRISM.
 NBasis=   531 RedAO= T EigKep=  4.51D-06  NBF=   531
 NBsUse=   531 1.00D-06 EigRej= -1.00D+00 NBFU=   531
 ExpMin= 3.60D-02 ExpMax= 8.59D+03 ExpMxC= 1.30D+03 IAcc=3 IRadAn=         5 AccDes= 0.00D+00
 Harris functional with IExCor= 1009 and IRadAn=       5 diagonalized for initial guess.
 HarFok:  IExCor= 1009 AccDes= 0.00D+00 IRadAn=         5 IDoV= 1 UseB2=F ITyADJ=14
 ICtDFT=  3500011 ScaDFX=  1.000000  1.000000  1.000000  1.000000
 FoFCou: FMM=F IPFlag=           0 FMFlag=      100000 FMFlg1=           0
         NFxFlg=           0 DoJE=T BraDBF=F KetDBF=T FulRan=T
         wScrn=  0.000000 ICntrl=       500 IOpCl=  0 I1Cent=   200000004 NGrid=           0
         NMat0=    1 NMatS0=      1 NMatT0=    0 NMatD0=    1 NMtDS0=    0 NMtDT0=    0
 Petite list used in FoFCou.
 Requested convergence on RMS density matrix=1.00D-08 within 128 cycles.
 Requested convergence on MAX density matrix=1.00D-06.
 Requested convergence on             energy=1.00D-06.
 No special actions if energy rises.
 Inv3:  Mode=1 IEnd=    12619803.
 Iteration    1 A*A^-1 deviation from unit magnitude is 6.11D-15 for    203.
 Iteration    1 A*A^-1 deviation from orthogonality  is 4.34D-15 for   2023    901.
 Iteration    1 A^-1*A deviation from unit magnitude is 4.66D-15 for    204.
 Iteration    1 A^-1*A deviation from orthogonality  is 6.25D-15 for   1909   1875.
 Error on total polarization charges =  0.06067
 SCF Done:  E(RM062X) =  -617.507115433     A.U. after   12 cycles
            NFock= 12  Conv=0.43D-08     -V/T= 2.0035
 SMD-CDS (non-electrostatic) energy       (kcal/mol) =       4.04
 (included in total energy above)

 **********************************************************************

            Population analysis using the SCF Density.

 **********************************************************************

 Orbital symmetries:
       Occupied  (A) (A) (A) (A) (A) (A) (A) (A) (A) (A) (A) (A)
                 (A) (A) (A) (A) (A) (A) (A) (A) (A) (A) (A) (A)
                 (A) (A) (A) (A) (A) (A) (A) (A) (A) (A) (A) (A)
                 (A) (A) (A) (A) (A) (A) (A) (A) (A) (A) (A) (A)
                 (A) (A) (A)
       Virtual   (A) (A) (A) (A) (A) (A) (A) (A) (A) (A) (A) (A)
                 (A) (A) (A) (A) (A) (A) (A) (A) (A) (A) (A) (A)
                 (A) (A) (A) (A) (A) (A) (A) (A) (A) (A) (A) (A)
                 (A) (A) (A) (A) (A) (A) (A) (A) (A) (A) (A) (A)
                 (A) (A) (A) (A) (A) (A) (A) (A) (A) (A) (A) (A)
                 (A) (A) (A) (A) (A) (A) (A) (A) (A) (A) (A) (A)
                 (A) (A) (A) (A) (A) (A) (A) (A) (A) (A) (A) (A)
                 (A) (A) (A) (A) (A) (A) (A) (A) (A) (A) (A) (A)
                 (A) (A) (A) (A) (A) (A) (A) (A) (A) (A) (A) (A)
                 (A) (A) (A) (A) (A) (A) (A) (A) (A) (A) (A) (A)
                 (A) (A) (A) (A) (A) (A) (A) (A) (A) (A) (A) (A)
                 (A) (A) (A) (A) (A) (A) (A) (A) (A) (A) (A) (A)
                 (A) (A) (A) (A) (A) (A) (A) (A) (A) (A) (A) (A)
                 (A) (A) (A) (A) (A) (A) (A) (A) (A) (A) (A) (A)
                 (A) (A) (A) (A) (A) (A) (A) (A) (A) (A) (A) (A)
                 (A) (A) (A) (A) (A) (A) (A) (A) (A) (A) (A) (A)
                 (A) (A) (A) (A) (A) (A) (A) (A) (A) (A) (A) (A)
                 (A) (A) (A) (A) (A) (A) (A) (A) (A) (A) (A) (A)
                 (A) (A) (A) (A) (A) (A) (A) (A) (A) (A) (A) (A)
                 (A) (A) (A) (A) (A) (A) (A) (A) (A) (A) (A) (A)
                 (A) (A) (A) (A) (A) (A) (A) (A) (A) (A) (A) (A)
                 (A) (A) (A) (A) (A) (A) (A) (A) (A) (A) (A) (A)
                 (A) (A) (A) (A) (A) (A) (A) (A) (A) (A) (A) (A)
                 (A) (A) (A) (A) (A) (A) (A) (A) (A) (A) (A) (A)
                 (A) (A) (A) (A) (A) (A) (A) (A) (A) (A) (A) (A)
                 (A) (A) (A) (A) (A) (A) (A) (A) (A) (A) (A) (A)
                 (A) (A) (A) (A) (A) (A) (A) (A) (A) (A) (A) (A)
                 (A) (A) (A) (A) (A) (A) (A) (A) (A) (A) (A) (A)
                 (A) (A) (A) (A) (A) (A) (A) (A) (A) (A) (A) (A)
                 (A) (A) (A) (A) (A) (A) (A) (A) (A) (A) (A) (A)
                 (A) (A) (A) (A) (A) (A) (A) (A) (A) (A) (A) (A)
                 (A) (A) (A) (A) (A) (A) (A) (A) (A) (A) (A) (A)
                 (A) (A) (A) (A) (A) (A) (A) (A) (A) (A) (A) (A)
                 (A) (A) (A) (A) (A) (A) (A) (A) (A) (A) (A) (A)
                 (A) (A) (A) (A) (A) (A) (A) (A) (A) (A) (A) (A)
                 (A) (A) (A) (A) (A) (A) (A) (A) (A) (A) (A) (A)
                 (A) (A) (A) (A) (A) (A) (A) (A) (A) (A) (A) (A)
                 (A) (A) (A) (A) (A) (A) (A) (A) (A) (A) (A) (A)
                 (A) (A) (A) (A) (A) (A) (A) (A) (A) (A) (A) (A)
                 (A) (A) (A) (A) (A) (A) (A) (A) (A) (A) (A) (A)
 The electronic state is 1-A.
 Alpha  occ. eigenvalues --  -19.62857 -19.62781 -19.62744 -10.62960 -10.58120
 Alpha  occ. eigenvalues --  -10.57333 -10.57112 -10.57071 -10.52397 -10.52319
 Alpha  occ. eigenvalues --  -10.52268 -10.52151 -10.52065  -1.20226  -1.16607
 Alpha  occ. eigenvalues --   -1.13407  -0.90341  -0.89050  -0.87033  -0.84264
 Alpha  occ. eigenvalues --   -0.74226  -0.73478  -0.72660  -0.71348  -0.65974
 Alpha  occ. eigenvalues --   -0.62214  -0.59546  -0.57979  -0.57419  -0.55162
 Alpha  occ. eigenvalues --   -0.54195  -0.53044  -0.51608  -0.51035  -0.49418
 Alpha  occ. eigenvalues --   -0.47704  -0.46596  -0.45616  -0.45260  -0.44543
 Alpha  occ. eigenvalues --   -0.42780  -0.42697  -0.41545  -0.39366  -0.38750
 Alpha  occ. eigenvalues --   -0.37840  -0.37132  -0.35553  -0.34887  -0.33173
 Alpha  occ. eigenvalues --   -0.31724
 Alpha virt. eigenvalues --    0.00330   0.01297   0.01400   0.01481   0.02689
 Alpha virt. eigenvalues --    0.02968   0.03146   0.03746   0.03874   0.05103
 Alpha virt. eigenvalues --    0.05197   0.05234   0.05901   0.06180   0.07512
 Alpha virt. eigenvalues --    0.08108   0.08449   0.08821   0.09285   0.09915
 Alpha virt. eigenvalues --    0.10010   0.11061   0.11731   0.11944   0.12529
 Alpha virt. eigenvalues --    0.12895   0.13040   0.13616   0.13763   0.14072
 Alpha virt. eigenvalues --    0.14312   0.14527   0.14821   0.15136   0.15274
 Alpha virt. eigenvalues --    0.15640   0.15869   0.16051   0.16353   0.16598
 Alpha virt. eigenvalues --    0.17045   0.17273   0.17873   0.18001   0.18280
 Alpha virt. eigenvalues --    0.18769   0.19081   0.19366   0.19396   0.20088
 Alpha virt. eigenvalues --    0.20346   0.20968   0.21243   0.21444   0.21873
 Alpha virt. eigenvalues --    0.22571   0.22951   0.23558   0.23929   0.24102
 Alpha virt. eigenvalues --    0.24728   0.25844   0.26289   0.27545   0.27904
 Alpha virt. eigenvalues --    0.28140   0.28735   0.29109   0.29445   0.29561
 Alpha virt. eigenvalues --    0.30436   0.30990   0.31191   0.31564   0.31758
 Alpha virt. eigenvalues --    0.32878   0.33825   0.34366   0.34767   0.34952
 Alpha virt. eigenvalues --    0.35248   0.35743   0.35916   0.36587   0.36755
 Alpha virt. eigenvalues --    0.37334   0.37734   0.38110   0.38537   0.38861
 Alpha virt. eigenvalues --    0.39089   0.39539   0.39849   0.40448   0.40932
 Alpha virt. eigenvalues --    0.41449   0.43065   0.43418   0.44911   0.46524
 Alpha virt. eigenvalues --    0.46802   0.48110   0.49946   0.50486   0.51854
 Alpha virt. eigenvalues --    0.52029   0.52662   0.53292   0.54719   0.55688
 Alpha virt. eigenvalues --    0.57469   0.57952   0.58855   0.59327   0.60341
 Alpha virt. eigenvalues --    0.60692   0.60885   0.61898   0.62583   0.62865
 Alpha virt. eigenvalues --    0.63538   0.63742   0.63944   0.64385   0.65227
 Alpha virt. eigenvalues --    0.65577   0.66246   0.66443   0.66829   0.67633
 Alpha virt. eigenvalues --    0.68257   0.69252   0.69354   0.69818   0.70300
 Alpha virt. eigenvalues --    0.70989   0.71319   0.72110   0.73311   0.73685
 Alpha virt. eigenvalues --    0.74208   0.74966   0.75273   0.76399   0.76721
 Alpha virt. eigenvalues --    0.77497   0.77826   0.78071   0.78774   0.79531
 Alpha virt. eigenvalues --    0.80748   0.83049   0.84789   0.85749   0.86148
 Alpha virt. eigenvalues --    0.87055   0.88148   0.88783   0.89181   0.90497
 Alpha virt. eigenvalues --    0.92022   0.92517   0.93674   0.94936   0.97601
 Alpha virt. eigenvalues --    0.98525   0.98804   1.00784   1.01383   1.02289
 Alpha virt. eigenvalues --    1.03289   1.03769   1.05465   1.05984   1.07018
 Alpha virt. eigenvalues --    1.07683   1.08727   1.09988   1.12422   1.12654
 Alpha virt. eigenvalues --    1.14157   1.15164   1.16038   1.16347   1.17377
 Alpha virt. eigenvalues --    1.18333   1.18576   1.19656   1.20616   1.21095
 Alpha virt. eigenvalues --    1.22149   1.23488   1.23964   1.24994   1.25474
 Alpha virt. eigenvalues --    1.26115   1.26295   1.26594   1.27843   1.27918
 Alpha virt. eigenvalues --    1.29199   1.30014   1.30689   1.31092   1.31808
 Alpha virt. eigenvalues --    1.32977   1.33591   1.34146   1.34547   1.35033
 Alpha virt. eigenvalues --    1.36007   1.36627   1.37021   1.37949   1.38917
 Alpha virt. eigenvalues --    1.39472   1.39682   1.40463   1.41617   1.42012
 Alpha virt. eigenvalues --    1.42758   1.43194   1.44349   1.44849   1.46172
 Alpha virt. eigenvalues --    1.46469   1.47388   1.47556   1.48049   1.48724
 Alpha virt. eigenvalues --    1.49601   1.49936   1.50450   1.51252   1.52527
 Alpha virt. eigenvalues --    1.53557   1.54775   1.55162   1.55354   1.55663
 Alpha virt. eigenvalues --    1.56408   1.57342   1.58172   1.58326   1.59671
 Alpha virt. eigenvalues --    1.60431   1.61006   1.61615   1.62372   1.63077
 Alpha virt. eigenvalues --    1.64239   1.64620   1.65674   1.66427   1.66744
 Alpha virt. eigenvalues --    1.68505   1.69052   1.71080   1.71373   1.72853
 Alpha virt. eigenvalues --    1.74486   1.74896   1.76234   1.76595   1.78894
 Alpha virt. eigenvalues --    1.79502   1.80119   1.81985   1.82930   1.84153
 Alpha virt. eigenvalues --    1.85448   1.88477   1.91944   2.00209   2.00505
 Alpha virt. eigenvalues --    2.03871   2.06880   2.14007   2.19032   2.20736
 Alpha virt. eigenvalues --    2.25165   2.27310   2.31026   2.33246   2.41239
 Alpha virt. eigenvalues --    2.41417   2.43524   2.44987   2.46120   2.50520
 Alpha virt. eigenvalues --    2.60374   2.76700   2.78501   2.79462   2.81793
 Alpha virt. eigenvalues --    2.82128   2.87470   2.92369   2.93674   2.94103
 Alpha virt. eigenvalues --    2.95477   2.98404   2.99894   3.01382   3.04003
 Alpha virt. eigenvalues --    3.06279   3.07804   3.09473   3.10389   3.11506
 Alpha virt. eigenvalues --    3.13090   3.15065   3.18637   3.20758   3.23550
 Alpha virt. eigenvalues --    3.27316   3.30591   3.32190   3.33744   3.34744
 Alpha virt. eigenvalues --    3.35744   3.37291   3.39382   3.40954   3.41334
 Alpha virt. eigenvalues --    3.43866   3.44450   3.45445   3.46327   3.47453
 Alpha virt. eigenvalues --    3.48590   3.49566   3.50763   3.52186   3.53013
 Alpha virt. eigenvalues --    3.53197   3.54205   3.54724   3.56494   3.57063
 Alpha virt. eigenvalues --    3.57826   3.58250   3.59248   3.59557   3.60364
 Alpha virt. eigenvalues --    3.61216   3.62379   3.62806   3.65502   3.65805
 Alpha virt. eigenvalues --    3.66371   3.67985   3.68438   3.69387   3.69987
 Alpha virt. eigenvalues --    3.70639   3.71456   3.72039   3.73424   3.74427
 Alpha virt. eigenvalues --    3.75034   3.75817   3.76841   3.77400   3.78290
 Alpha virt. eigenvalues --    3.79457   3.80195   3.82543   3.84150   3.84751
 Alpha virt. eigenvalues --    3.86441   3.89396   3.89680   3.92187   3.93302
 Alpha virt. eigenvalues --    3.93763   3.94488   3.95706   3.97150   3.98305
 Alpha virt. eigenvalues --    3.99963   4.01582   4.03082   4.03598   4.04357
 Alpha virt. eigenvalues --    4.06195   4.06421   4.07569   4.07899   4.08053
 Alpha virt. eigenvalues --    4.09088   4.09654   4.10157   4.10377   4.11562
 Alpha virt. eigenvalues --    4.12660   4.13143   4.14534   4.15642   4.16001
 Alpha virt. eigenvalues --    4.16731   4.17004   4.18950   4.20444   4.20608
 Alpha virt. eigenvalues --    4.22072   4.24398   4.26002   4.26421   4.27272
 Alpha virt. eigenvalues --    4.28599   4.29884   4.31750   4.32143   4.32718
 Alpha virt. eigenvalues --    4.33394   4.34566   4.34923   4.35685   4.38973
 Alpha virt. eigenvalues --    4.42624   4.43801   4.45092   4.46590   4.47799
 Alpha virt. eigenvalues --    4.58156   4.62708   4.74649   4.76610   4.82625
 Alpha virt. eigenvalues --    4.85846   4.95114   4.96434   5.01471   5.05064
 Alpha virt. eigenvalues --    5.07001   5.07608   5.08550   5.09242   5.12179
 Alpha virt. eigenvalues --    5.13019   5.14294   5.14861   5.32037   5.36836
 Alpha virt. eigenvalues --    5.44517   5.58020   5.58944   5.65872   5.86573
 Alpha virt. eigenvalues --    5.87519   6.06784   7.04085   7.05544   7.06460
 Alpha virt. eigenvalues --    7.08536   7.10483   7.12741   7.13584   7.19471
 Alpha virt. eigenvalues --    7.26781   7.36712   7.36991   7.44948   7.53576
 Alpha virt. eigenvalues --    7.54914   7.66843  23.95898  23.98715  24.06375
 Alpha virt. eigenvalues --   24.09044  24.11390  24.12685  24.15124  24.15882
 Alpha virt. eigenvalues --   24.17523  24.21223  50.16116  50.18236  50.27005
          Condensed to atoms (all electrons):
               1          2          3          4          5          6
     1  C    6.547476   0.136218  -0.829285   0.024527  -0.312725   0.085618
     2  C    0.136218   7.151069  -0.916004   0.245374  -0.007315   0.010178
     3  C   -0.829285  -0.916004   7.818722   0.032863   0.286864   0.003043
     4  C    0.024527   0.245374   0.032863   5.825377  -0.000979  -0.000695
     5  C   -0.312725  -0.007315   0.286864  -0.000979   5.484214   0.088750
     6  O    0.085618   0.010178   0.003043  -0.000695   0.088750   8.371393
     7  C   -0.028918  -0.011327  -0.013023  -0.079078  -0.001952   0.005073
     8  C   -0.019452  -0.465417   0.092582  -0.112426   0.000159   0.002433
     9  C   -0.183762  -0.984130   0.197557  -0.129947   0.017290  -0.006557
    10  C    0.150320   0.203897  -0.550665   0.001900  -0.012308   0.000827
    11  O   -0.046181   0.309443   0.038556  -0.067923   0.002584  -0.000956
    12  O   -0.113384   0.197652  -0.107832  -0.031662  -0.013224   0.026541
    13  C    0.129439  -0.046241  -0.422037  -0.026507  -0.059081   0.000459
    14  H    0.461949   0.011522  -0.067867   0.001592   0.000538  -0.048097
    15  H    0.428251   0.003554  -0.032138  -0.001376   0.003558  -0.080819
    16  H    0.015348   0.468990   0.029095   0.009649   0.002814  -0.000606
    17  H    0.035298  -0.049294   0.441049   0.000292  -0.012074   0.008147
    18  H   -0.000225   0.013229  -0.006229   0.492016   0.000079  -0.000048
    19  H    0.003273   0.000030   0.000926   0.438591  -0.000260   0.000131
    20  H    0.000473   0.000878   0.004282  -0.000227   0.443302  -0.064103
    21  H   -0.014852   0.001052   0.017060   0.000041   0.462887  -0.057755
    22  H   -0.003276  -0.024844  -0.005997  -0.074457   0.000507  -0.000640
    23  H   -0.003165   0.018022   0.006057  -0.023726  -0.000003   0.000005
    24  H   -0.001982  -0.003134   0.007137  -0.025511  -0.000008   0.000099
    25  H   -0.017795  -0.014259  -0.019483  -0.097864   0.002700  -0.001066
    26  H   -0.003499  -0.155296   0.001044  -0.017601   0.000090  -0.000109
    27  H    0.002422  -0.028797  -0.003410  -0.011663   0.003319   0.001063
    28  H   -0.002274   0.007078  -0.017202  -0.000230  -0.025121   0.010303
    29  H    0.016721  -0.002229  -0.025481   0.000977  -0.095290  -0.011238
    30  H   -0.007224   0.003686   0.004408   0.000628  -0.010226  -0.001991
    31  H   -0.011457  -0.008920  -0.070643  -0.000610  -0.009614   0.000418
               7          8          9         10         11         12
     1  C   -0.028918  -0.019452  -0.183762   0.150320  -0.046181  -0.113384
     2  C   -0.011327  -0.465417  -0.984130   0.203897   0.309443   0.197652
     3  C   -0.013023   0.092582   0.197557  -0.550665   0.038556  -0.107832
     4  C   -0.079078  -0.112426  -0.129947   0.001900  -0.067923  -0.031662
     5  C   -0.001952   0.000159   0.017290  -0.012308   0.002584  -0.013224
     6  O    0.005073   0.002433  -0.006557   0.000827  -0.000956   0.026541
     7  C    5.716947   0.032697  -0.140112   0.017801   0.001304  -0.014718
     8  C    0.032697   5.507100   0.188388  -0.004957   0.086968   0.017248
     9  C   -0.140112   0.188388   6.697447  -0.038375  -0.051972  -0.030302
    10  C    0.017801  -0.004957  -0.038375   5.750530  -0.009490   0.007839
    11  O    0.001304   0.086968  -0.051972  -0.009490   8.266503  -0.043199
    12  O   -0.014718   0.017248  -0.030302   0.007839  -0.043199   8.406725
    13  C    0.006309  -0.001069   0.029567  -0.032597   0.011223  -0.016360
    14  H   -0.000792  -0.000336   0.003863   0.027583   0.000494   0.014833
    15  H    0.006390  -0.004897  -0.012646   0.010759  -0.001618  -0.001646
    16  H   -0.001531  -0.019002  -0.094423  -0.006435  -0.048755  -0.025518
    17  H   -0.007486   0.008924  -0.010163  -0.035200  -0.005886  -0.019345
    18  H   -0.016757  -0.087681  -0.021776   0.000163  -0.001453  -0.001020
    19  H   -0.041168  -0.036034  -0.002887   0.000068   0.009997   0.000740
    20  H    0.000234   0.000003   0.000839  -0.062622  -0.000018   0.001649
    21  H   -0.000028   0.000439  -0.001528  -0.014192  -0.000083   0.001560
    22  H    0.519857   0.002577  -0.038356   0.000353   0.002308  -0.001207
    23  H    0.429093   0.011516  -0.059756  -0.000423  -0.004169   0.001032
    24  H    0.007606   0.436894  -0.001230   0.000208  -0.073131   0.001625
    25  H    0.005731   0.488182   0.037022   0.000888  -0.034187   0.017569
    26  H   -0.022286   0.014487   0.565392   0.000168  -0.007206   0.011176
    27  H   -0.036278   0.009115   0.431038  -0.004760   0.007725  -0.003240
    28  H    0.000477  -0.000028   0.000081   0.450918  -0.000185   0.001986
    29  H   -0.000825  -0.000497  -0.004043   0.520658   0.000185   0.004850
    30  H    0.000935   0.002880   0.006944  -0.007166  -0.001640  -0.002966
    31  H    0.000697   0.000077   0.003733  -0.038173   0.001189   0.004818
              13         14         15         16         17         18
     1  C    0.129439   0.461949   0.428251   0.015348   0.035298  -0.000225
     2  C   -0.046241   0.011522   0.003554   0.468990  -0.049294   0.013229
     3  C   -0.422037  -0.067867  -0.032138   0.029095   0.441049  -0.006229
     4  C   -0.026507   0.001592  -0.001376   0.009649   0.000292   0.492016
     5  C   -0.059081   0.000538   0.003558   0.002814  -0.012074   0.000079
     6  O    0.000459  -0.048097  -0.080819  -0.000606   0.008147  -0.000048
     7  C    0.006309  -0.000792   0.006390  -0.001531  -0.007486  -0.016757
     8  C   -0.001069  -0.000336  -0.004897  -0.019002   0.008924  -0.087681
     9  C    0.029567   0.003863  -0.012646  -0.094423  -0.010163  -0.021776
    10  C   -0.032597   0.027583   0.010759  -0.006435  -0.035200   0.000163
    11  O    0.011223   0.000494  -0.001618  -0.048755  -0.005886  -0.001453
    12  O   -0.016360   0.014833  -0.001646  -0.025518  -0.019345  -0.001020
    13  C    6.059903  -0.049352   0.007317  -0.004328  -0.017656   0.000335
    14  H   -0.049352   0.455640  -0.002948  -0.000941  -0.008097   0.000018
    15  H    0.007317  -0.002948   0.476280   0.003540  -0.011027   0.000255
    16  H   -0.004328  -0.000941   0.003540   0.417485  -0.001195   0.001694
    17  H   -0.017656  -0.008097  -0.011027  -0.001195   0.412256  -0.000687
    18  H    0.000335   0.000018   0.000255   0.001694  -0.000687   0.477206
    19  H   -0.000265  -0.000073   0.000404   0.000917   0.000267  -0.011054
    20  H    0.018583  -0.000445   0.000735   0.000136  -0.000216  -0.000002
    21  H   -0.045708   0.005172  -0.001383  -0.000249   0.001170  -0.000004
    22  H    0.001057   0.000004  -0.000165  -0.001722  -0.000699   0.001989
    23  H    0.000760  -0.000037   0.000363   0.001753   0.000028  -0.002866
    24  H   -0.000140   0.000069   0.001509   0.000135  -0.000929  -0.007176
    25  H    0.009522   0.000336  -0.004318  -0.001227  -0.001874   0.003052
    26  H    0.000201   0.000070  -0.000427  -0.014175   0.000156  -0.002373
    27  H    0.004790   0.000316  -0.000715  -0.005622  -0.000550  -0.002101
    28  H   -0.051551   0.000494   0.001608   0.000802  -0.001849   0.000007
    29  H   -0.028523  -0.001239  -0.001478  -0.000860   0.001382  -0.000044
    30  H    0.390784  -0.000978  -0.000301  -0.010485  -0.002521  -0.000325
    31  H    0.503345  -0.003202  -0.001643  -0.000347  -0.003289   0.000008
              19         20         21         22         23         24
     1  C    0.003273   0.000473  -0.014852  -0.003276  -0.003165  -0.001982
     2  C    0.000030   0.000878   0.001052  -0.024844   0.018022  -0.003134
     3  C    0.000926   0.004282   0.017060  -0.005997   0.006057   0.007137
     4  C    0.438591  -0.000227   0.000041  -0.074457  -0.023726  -0.025511
     5  C   -0.000260   0.443302   0.462887   0.000507  -0.000003  -0.000008
     6  O    0.000131  -0.064103  -0.057755  -0.000640   0.000005   0.000099
     7  C   -0.041168   0.000234  -0.000028   0.519857   0.429093   0.007606
     8  C   -0.036034   0.000003   0.000439   0.002577   0.011516   0.436894
     9  C   -0.002887   0.000839  -0.001528  -0.038356  -0.059756  -0.001230
    10  C    0.000068  -0.062622  -0.014192   0.000353  -0.000423   0.000208
    11  O    0.009997  -0.000018  -0.000083   0.002308  -0.004169  -0.073131
    12  O    0.000740   0.001649   0.001560  -0.001207   0.001032   0.001625
    13  C   -0.000265   0.018583  -0.045708   0.001057   0.000760  -0.000140
    14  H   -0.000073  -0.000445   0.005172   0.000004  -0.000037   0.000069
    15  H    0.000404   0.000735  -0.001383  -0.000165   0.000363   0.001509
    16  H    0.000917   0.000136  -0.000249  -0.001722   0.001753   0.000135
    17  H    0.000267  -0.000216   0.001170  -0.000699   0.000028  -0.000929
    18  H   -0.011054  -0.000002  -0.000004   0.001989  -0.002866  -0.007176
    19  H    0.479210  -0.000020   0.000025  -0.004568  -0.006310  -0.008672
    20  H   -0.000020   0.467029  -0.004019   0.000134   0.000026   0.000005
    21  H    0.000025  -0.004019   0.482538  -0.000069  -0.000020   0.000037
    22  H   -0.004568   0.000134  -0.000069   0.452591  -0.006485  -0.002279
    23  H   -0.006310   0.000026  -0.000020  -0.006485   0.460881   0.001859
    24  H   -0.008672   0.000005   0.000037  -0.002279   0.001859   0.468953
    25  H   -0.001279   0.000267  -0.000469  -0.000166  -0.002176  -0.019699
    26  H   -0.002456   0.000014  -0.000043   0.001681  -0.002200   0.000334
    27  H    0.001365   0.000168   0.000060  -0.001301  -0.009088   0.000936
    28  H   -0.000006  -0.008508   0.003107   0.000114  -0.000011   0.000003
    29  H    0.000071  -0.003420   0.000259  -0.000697   0.000226   0.000033
    30  H    0.000110   0.000211   0.000259  -0.000498   0.000080   0.000200
    31  H   -0.000005  -0.001608  -0.003169   0.000073   0.000073  -0.000034
              25         26         27         28         29         30
     1  C   -0.017795  -0.003499   0.002422  -0.002274   0.016721  -0.007224
     2  C   -0.014259  -0.155296  -0.028797   0.007078  -0.002229   0.003686
     3  C   -0.019483   0.001044  -0.003410  -0.017202  -0.025481   0.004408
     4  C   -0.097864  -0.017601  -0.011663  -0.000230   0.000977   0.000628
     5  C    0.002700   0.000090   0.003319  -0.025121  -0.095290  -0.010226
     6  O   -0.001066  -0.000109   0.001063   0.010303  -0.011238  -0.001991
     7  C    0.005731  -0.022286  -0.036278   0.000477  -0.000825   0.000935
     8  C    0.488182   0.014487   0.009115  -0.000028  -0.000497   0.002880
     9  C    0.037022   0.565392   0.431038   0.000081  -0.004043   0.006944
    10  C    0.000888   0.000168  -0.004760   0.450918   0.520658  -0.007166
    11  O   -0.034187  -0.007206   0.007725  -0.000185   0.000185  -0.001640
    12  O    0.017569   0.011176  -0.003240   0.001986   0.004850  -0.002966
    13  C    0.009522   0.000201   0.004790  -0.051551  -0.028523   0.390784
    14  H    0.000336   0.000070   0.000316   0.000494  -0.001239  -0.000978
    15  H   -0.004318  -0.000427  -0.000715   0.001608  -0.001478  -0.000301
    16  H   -0.001227  -0.014175  -0.005622   0.000802  -0.000860  -0.010485
    17  H   -0.001874   0.000156  -0.000550  -0.001849   0.001382  -0.002521
    18  H    0.003052  -0.002373  -0.002101   0.000007  -0.000044  -0.000325
    19  H   -0.001279  -0.002456   0.001365  -0.000006   0.000071   0.000110
    20  H    0.000267   0.000014   0.000168  -0.008508  -0.003420   0.000211
    21  H   -0.000469  -0.000043   0.000060   0.003107   0.000259   0.000259
    22  H   -0.000166   0.001681  -0.001301   0.000114  -0.000697  -0.000498
    23  H   -0.002176  -0.002200  -0.009088  -0.000011   0.000226   0.000080
    24  H   -0.019699   0.000334   0.000936   0.000003   0.000033   0.000200
    25  H    0.520209   0.000014   0.000183   0.000155  -0.000455  -0.000864
    26  H    0.000014   0.443450  -0.004878  -0.000034   0.000160   0.000633
    27  H    0.000183  -0.004878   0.473866   0.000089  -0.003211  -0.001361
    28  H    0.000155  -0.000034   0.000089   0.481242  -0.014697  -0.010404
    29  H   -0.000455   0.000160  -0.003211  -0.014697   0.473064   0.001263
    30  H   -0.000864   0.000633  -0.001361  -0.010404   0.001263   0.481458
    31  H   -0.000072  -0.000049  -0.000022  -0.006095   0.001955   0.000778
              31
     1  C   -0.011457
     2  C   -0.008920
     3  C   -0.070643
     4  C   -0.000610
     5  C   -0.009614
     6  O    0.000418
     7  C    0.000697
     8  C    0.000077
     9  C    0.003733
    10  C   -0.038173
    11  O    0.001189
    12  O    0.004818
    13  C    0.503345
    14  H   -0.003202
    15  H   -0.001643
    16  H   -0.000347
    17  H   -0.003289
    18  H    0.000008
    19  H   -0.000005
    20  H   -0.001608
    21  H   -0.003169
    22  H    0.000073
    23  H    0.000073
    24  H   -0.000034
    25  H   -0.000072
    26  H   -0.000049
    27  H   -0.000022
    28  H   -0.006095
    29  H    0.001955
    30  H    0.000778
    31  H    0.425811
 Mulliken charges:
               1
     1  C   -0.437878
     2  C   -0.064664
     3  C    0.106053
     4  C   -0.371345
     5  C   -0.239476
     6  O   -0.339800
     7  C   -0.334870
     8  C   -0.150872
     9  C   -0.367192
    10  C   -0.327517
    11  O   -0.340428
    12  O   -0.292222
    13  C   -0.372178
    14  H    0.199911
    15  H    0.215022
    16  H    0.285062
    17  H    0.281067
    18  H    0.171772
    19  H    0.178931
    20  H    0.206239
    21  H    0.167906
    22  H    0.184181
    23  H    0.188661
    24  H    0.216283
    25  H    0.131425
    26  H    0.193563
    27  H    0.180542
    28  H    0.179732
    29  H    0.172425
    30  H    0.163690
    31  H    0.215978
 Sum of Mulliken charges =  -0.00000
 Mulliken charges with hydrogens summed into heavy atoms:
               1
     1  C   -0.022945
     2  C    0.220398
     3  C    0.387120
     4  C   -0.020642
     5  C    0.134669
     6  O   -0.339800
     7  C    0.037972
     8  C    0.196835
     9  C    0.006913
    10  C    0.024640
    11  O   -0.340428
    12  O   -0.292222
    13  C    0.007490
 Electronic spatial extent (au):  <R**2>=           2834.4599
 Charge=             -0.0000 electrons
 Dipole moment (field-independent basis, Debye):
    X=              0.4550    Y=              1.2639    Z=             -1.6002  Tot=              2.0893
 Quadrupole moment (field-independent basis, Debye-Ang):
   XX=            -69.3618   YY=            -76.0590   ZZ=            -83.8276
   XY=              3.0956   XZ=             -8.4888   YZ=              1.6980
 Traceless Quadrupole moment (field-independent basis, Debye-Ang):
   XX=              7.0544   YY=              0.3571   ZZ=             -7.4115
   XY=              3.0956   XZ=             -8.4888   YZ=              1.6980
 Octapole moment (field-independent basis, Debye-Ang**2):
  XXX=             16.1172  YYY=             -4.8546  ZZZ=             -0.2441  XYY=             -8.5430
  XXY=              4.9712  XXZ=              2.5667  XZZ=              5.1634  YZZ=              5.0674
  YYZ=             -6.2885  XYZ=              8.8946
 Hexadecapole moment (field-independent basis, Debye-Ang**3):
 XXXX=          -2588.9747 YYYY=           -566.0928 ZZZZ=           -468.0713 XXXY=             30.9688
 XXXZ=             -4.9439 YYYX=              5.3741 YYYZ=              3.2528 ZZZX=             -3.4622
 ZZZY=              1.2468 XXYY=           -539.0529 XXZZ=           -541.3491 YYZZ=           -172.4304
 XXYZ=             20.7467 YYXZ=             -5.1108 ZZXY=              5.5488
 N-N= 9.043162523537D+02 E-N=-3.251139135378D+03  KE= 6.153657625656D+02
 D1PCM: PCM CHGder 1st derivatives, ID1Alg=3 FixD1E=F DoIter=F DoCFld=F I1PDM=0.
 Calling FoFJK, ICntrl=      2127 FMM=F ISym2X=0 I1Cent= 0 IOpClX= 0 NMat=1 NMatS=1 NMatT=0.
 ***** Axes restored to original set *****
 -------------------------------------------------------------------
 Center     Atomic                   Forces (Hartrees/Bohr)
 Number     Number              X              Y              Z
 -------------------------------------------------------------------
      1        6           0.000034857   -0.005309086   -0.003960040
      2        6           0.003690039   -0.002917578    0.005274107
      3        6          -0.003956631   -0.000640494   -0.000559485
      4        6          -0.003167758   -0.000170914    0.000565880
      5        6           0.002528265   -0.004912111   -0.004489927
      6        8           0.003616249    0.003592482    0.011168954
      7        6          -0.000107732    0.000896932   -0.004249808
      8        6           0.002777388   -0.004561563    0.005339406
      9        6          -0.000291046    0.002709733    0.001463754
     10        6          -0.000279562    0.002763347   -0.001940240
     11        8           0.001877920    0.002472213   -0.013703249
     12        8          -0.002390896    0.000974424    0.014704920
     13        6          -0.000505462    0.002053236    0.003173546
     14        1          -0.003430649    0.001756948   -0.004282767
     15        1           0.004350670    0.003030615    0.001292693
     16        1          -0.001968794   -0.004045725   -0.006079819
     17        1           0.002111343    0.002132911   -0.005389004
     18        1           0.001988082   -0.001585324   -0.002263973
     19        1           0.000905720    0.001791720    0.001867212
     20        1          -0.001759214   -0.000996941    0.004007227
     21        1          -0.003633385    0.001702999   -0.004136229
     22        1          -0.002952358    0.001774248    0.001547412
     23        1           0.001604505   -0.001500987    0.001249157
     24        1           0.002297707    0.002949340   -0.002380967
     25        1          -0.004342023    0.002646058    0.003936404
     26        1           0.002299523   -0.000959313   -0.002188210
     27        1          -0.002255541   -0.002014744    0.001359859
     28        1          -0.002003891   -0.001677538   -0.000627987
     29        1           0.002695328   -0.000922378    0.002507309
     30        1           0.002491381   -0.002555751   -0.001080508
     31        1          -0.002224035    0.001523240   -0.002125628
 -------------------------------------------------------------------
 Cartesian Forces:  Max     0.014704920 RMS     0.003644794

 GradGradGradGradGradGradGradGradGradGradGradGradGradGradGradGradGradGrad
 Berny optimization.
 FormGI is forming the generalized inverse of G from B-inverse, IUseBI=4.
 Internal  Forces:  Max     0.010447016 RMS     0.002143345
 Search for a local minimum.
 Step number   1 out of a maximum of  186
 All quantities printed in internal units (Hartrees-Bohrs-Radians)
 Mixed Optimization -- RFO/linear search
 Second derivative matrix not updated -- first step.
 ITU=  0
     Eigenvalues ---    0.00605   0.00626   0.00728   0.00741   0.01409
     Eigenvalues ---    0.01452   0.01741   0.02701   0.02808   0.03075
     Eigenvalues ---    0.03111   0.04098   0.04330   0.04631   0.04749
     Eigenvalues ---    0.04877   0.04889   0.05045   0.05139   0.05151
     Eigenvalues ---    0.05250   0.05687   0.05704   0.06170   0.06191
     Eigenvalues ---    0.06356   0.06763   0.06982   0.07595   0.07851
     Eigenvalues ---    0.07961   0.07962   0.07991   0.08124   0.08229
     Eigenvalues ---    0.08826   0.09293   0.09368   0.10700   0.11607
     Eigenvalues ---    0.11698   0.11714   0.11764   0.12404   0.12536
     Eigenvalues ---    0.14663   0.14748   0.15738   0.16490   0.17490
     Eigenvalues ---    0.19187   0.21304   0.21953   0.25000   0.28515
     Eigenvalues ---    0.28661   0.28784   0.28865   0.28949   0.28996
     Eigenvalues ---    0.30353   0.30385   0.35035   0.35091   0.35097
     Eigenvalues ---    0.35119   0.35197   0.35208   0.35240   0.35256
     Eigenvalues ---    0.35278   0.35316   0.35364   0.35439   0.35451
     Eigenvalues ---    0.35633   0.35817   0.35841   0.35855   0.35909
     Eigenvalues ---    0.40815   0.41395   0.42158   0.42229   0.43296
     Eigenvalues ---    0.462431000.000001000.000001000.000001000.00000
     Eigenvalues --- 1000.000001000.000001000.000001000.000001000.00000
     Eigenvalues --- 1000.000001000.000001000.000001000.000001000.00000
     Eigenvalues --- 1000.000001000.000001000.000001000.000001000.00000
     Eigenvalues --- 1000.000001000.000001000.000001000.000001000.00000
     Eigenvalues --- 1000.000001000.000001000.000001000.000001000.00000
     Eigenvalues --- 1000.000001000.000001000.000001000.000001000.00000
     Eigenvalues --- 1000.000001000.000001000.000001000.000001000.00000
     Eigenvalues --- 1000.000001000.000001000.000001000.000001000.00000
     Eigenvalues --- 1000.000001000.000001000.000001000.000001000.00000
     Eigenvalues --- 1000.000001000.000001000.000001000.000001000.00000
     Eigenvalues --- 1000.000001000.000001000.000001000.000001000.00000
     Eigenvalues --- 1000.000001000.000001000.000001000.000001000.00000
     Eigenvalues --- 1000.000001000.000001000.000001000.000001000.00000
     Eigenvalues --- 1000.000001000.000001000.000001000.000001000.00000
     Eigenvalues --- 1000.000001000.000001000.000001000.000001000.00000
     Eigenvalues --- 1000.000001000.000001000.000001000.000001000.00000
     Eigenvalues --- 1000.000001000.000001000.000001000.000001000.00000
     Eigenvalues --- 1000.000001000.000001000.000001000.000001000.00000
     Eigenvalues --- 1000.000001000.000001000.000001000.000001000.00000
 RFO step:  Lambda=-3.20227187D-03 EMin= 6.04898787D-03
 Linear search not attempted -- first point.
 Iteration  1 RMS(Cart)=  0.03248979 RMS(Int)=  0.00027095
 Iteration  2 RMS(Cart)=  0.00103054 RMS(Int)=  0.00003558
 Iteration  3 RMS(Cart)=  0.00000032 RMS(Int)=  0.00003558
 Iteration  1 RMS(Cart)=  0.00000157 RMS(Int)=  0.00000036
 Iteration  2 RMS(Cart)=  0.00000087 RMS(Int)=  0.00000040
 Variable       Old X    -DE/DX   Delta X   Delta X   Delta X     New X
                                 (Linear)    (Quad)   (Total)
    R1        2.87063  -0.00110   0.00000  -0.00320  -0.00319   2.86744
    R2        2.66762   0.00606   0.00000   0.01448   0.01450   2.68212
    R3        2.05482   0.00567   0.00000   0.01599   0.01599   2.07081
    R4        2.04224   0.00538   0.00000   0.01484   0.01484   2.05709
    R5        2.87388  -0.00122   0.00000  -0.00400  -0.00401   2.86987
    R6        2.65494   0.00749   0.00000   0.01689   0.01692   2.67186
    R7        2.63858   0.00671   0.00000   0.01441   0.01441   2.65300
    R8        2.04308   0.00755   0.00000   0.02088   0.02088   2.06397
    R9        2.68723   0.00418   0.00000   0.00984   0.00984   2.69707
   R10        2.88803  -0.00159   0.00000  -0.00579  -0.00582   2.88221
   R11        2.04660   0.00617   0.00000   0.01715   0.01715   2.06375
   R12        2.88871  -0.00093   0.00000  -0.00353  -0.00356   2.88516
   R13        2.87143  -0.00076   0.00000  -0.00241  -0.00240   2.86903
   R14        2.05527   0.00330   0.00000   0.00931   0.00931   2.06458
   R15        2.05287   0.00274   0.00000   0.00771   0.00771   2.06058
   R16        2.67627   0.00633   0.00000   0.01493   0.01495   2.69123
   R17        2.87350  -0.00063   0.00000  -0.00233  -0.00235   2.87115
   R18        2.04368   0.00448   0.00000   0.01240   0.01240   2.05608
   R19        2.05618   0.00567   0.00000   0.01604   0.01604   2.07223
   R20        2.89032  -0.00123   0.00000  -0.00457  -0.00460   2.88573
   R21        2.05356   0.00366   0.00000   0.01031   0.01031   2.06387
   R22        2.05166   0.00252   0.00000   0.00707   0.00707   2.05872
   R23        2.68692   0.00578   0.00000   0.01391   0.01394   2.70086
   R24        2.04332   0.00443   0.00000   0.01225   0.01225   2.05557
   R25        2.04948   0.00637   0.00000   0.01781   0.01781   2.06730
   R26        2.05338   0.00323   0.00000   0.00908   0.00908   2.06246
   R27        2.04968   0.00329   0.00000   0.00919   0.00919   2.05887
   R28        2.89208  -0.00109   0.00000  -0.00474  -0.00476   2.88732
   R29        2.05261   0.00269   0.00000   0.00755   0.00755   2.06016
   R30        2.05225   0.00369   0.00000   0.01036   0.01036   2.06261
   R31        2.05088   0.00361   0.00000   0.01011   0.01011   2.06099
   R32        2.05517   0.00339   0.00000   0.00957   0.00957   2.06473
    A1        1.95409   0.00023   0.00000   0.00026   0.00026   1.95435
    A2        1.90446  -0.00116   0.00000  -0.00485  -0.00488   1.89958
    A3        1.93134  -0.00055   0.00000  -0.00852  -0.00853   1.92282
    A4        1.91143   0.00126   0.00000   0.00994   0.00994   1.92137
    A5        1.86435  -0.00040   0.00000  -0.00164  -0.00167   1.86268
    A6        1.89712   0.00068   0.00000   0.00529   0.00526   1.90238
    A7        1.94440   0.00245   0.00000   0.00981   0.00967   1.95407
    A8        1.90035  -0.00231   0.00000  -0.01243  -0.01238   1.88798
    A9        1.93461   0.00019   0.00000   0.00483   0.00486   1.93947
   A10        1.93969  -0.00003   0.00000  -0.00568  -0.00560   1.93408
   A11        1.82923  -0.00155   0.00000  -0.00503  -0.00505   1.82418
   A12        1.91503   0.00134   0.00000   0.00921   0.00922   1.92425
   A13        1.88795  -0.00056   0.00000  -0.00613  -0.00611   1.88183
   A14        1.92495   0.00111   0.00000   0.00071   0.00060   1.92555
   A15        1.88626  -0.00017   0.00000   0.00135   0.00137   1.88763
   A16        1.92975  -0.00035   0.00000  -0.00672  -0.00670   1.92305
   A17        1.90642   0.00073   0.00000   0.00877   0.00877   1.91519
   A18        1.92750  -0.00076   0.00000   0.00213   0.00215   1.92965
   A19        1.92322  -0.00036   0.00000  -0.00460  -0.00476   1.91846
   A20        1.91620   0.00070   0.00000   0.00166   0.00171   1.91792
   A21        1.93915  -0.00054   0.00000  -0.00072  -0.00070   1.93844
   A22        1.90603  -0.00012   0.00000  -0.00145  -0.00141   1.90463
   A23        1.90272   0.00013   0.00000   0.00014   0.00018   1.90290
   A24        1.87565   0.00020   0.00000   0.00518   0.00516   1.88081
   A25        1.93575   0.00087   0.00000   0.00512   0.00504   1.94080
   A26        1.85665  -0.00087   0.00000  -0.00240  -0.00238   1.85427
   A27        1.90121   0.00086   0.00000   0.00471   0.00476   1.90597
   A28        1.94606  -0.00037   0.00000  -0.00317  -0.00316   1.94290
   A29        1.93076  -0.00102   0.00000  -0.00718  -0.00717   1.92359
   A30        1.89111   0.00056   0.00000   0.00331   0.00328   1.89439
   A31        1.97522  -0.00424   0.00000  -0.02539  -0.02532   1.94990
   A32        1.91359   0.00241   0.00000  -0.00120  -0.00126   1.91233
   A33        1.91415  -0.00106   0.00000  -0.00199  -0.00203   1.91212
   A34        1.93046  -0.00042   0.00000   0.00127   0.00132   1.93178
   A35        1.92211  -0.00088   0.00000  -0.00306  -0.00305   1.91906
   A36        1.91615  -0.00082   0.00000  -0.00020  -0.00018   1.91597
   A37        1.86698   0.00068   0.00000   0.00528   0.00528   1.87226
   A38        1.94517   0.00163   0.00000   0.00447   0.00445   1.94962
   A39        1.94588  -0.00014   0.00000  -0.00184  -0.00180   1.94408
   A40        1.93154  -0.00133   0.00000  -0.00615  -0.00618   1.92536
   A41        1.84184  -0.00105   0.00000  -0.00103  -0.00105   1.84079
   A42        1.90915   0.00040   0.00000   0.00249   0.00253   1.91168
   A43        1.88729   0.00052   0.00000   0.00238   0.00237   1.88966
   A44        1.95289  -0.00109   0.00000  -0.01205  -0.01217   1.94073
   A45        1.87424  -0.00016   0.00000   0.00125   0.00127   1.87552
   A46        1.90040   0.00039   0.00000  -0.00234  -0.00231   1.89808
   A47        1.91005   0.00109   0.00000   0.00716   0.00720   1.91725
   A48        1.94719  -0.00027   0.00000  -0.00008  -0.00014   1.94705
   A49        1.87607   0.00010   0.00000   0.00685   0.00682   1.88289
   A50        1.92695  -0.00001   0.00000  -0.00622  -0.00630   1.92065
   A51        1.90722   0.00043   0.00000   0.00230   0.00235   1.90958
   A52        1.90464  -0.00054   0.00000  -0.00174  -0.00176   1.90288
   A53        1.92635  -0.00067   0.00000  -0.00004  -0.00003   1.92632
   A54        1.92524   0.00055   0.00000   0.00066   0.00067   1.92591
   A55        1.87248   0.00025   0.00000   0.00537   0.00536   1.87785
   A56        2.02370  -0.00580   0.00000  -0.03402  -0.03392   1.98978
   A57        2.02879  -0.01045   0.00000  -0.04126  -0.04126   1.98753
   A58        1.94018   0.00099   0.00000  -0.00773  -0.00782   1.93236
   A59        1.91906  -0.00074   0.00000  -0.00805  -0.00802   1.91104
   A60        1.88495  -0.00051   0.00000   0.00300   0.00301   1.88797
   A61        1.93612  -0.00005   0.00000   0.00185   0.00178   1.93790
   A62        1.91112  -0.00018   0.00000   0.00501   0.00503   1.91616
   A63        1.87035   0.00045   0.00000   0.00658   0.00656   1.87691
    D1       -1.17469   0.00124   0.00000   0.03238   0.03237  -1.14232
    D2        0.93777   0.00114   0.00000   0.02072   0.02072   0.95849
    D3        3.04641   0.00077   0.00000   0.02459   0.02458   3.07099
    D4        2.98965   0.00030   0.00000   0.02300   0.02302   3.01266
    D5       -1.18108   0.00020   0.00000   0.01134   0.01137  -1.16971
    D6        0.92757  -0.00017   0.00000   0.01522   0.01522   0.94279
    D7        0.90300   0.00053   0.00000   0.02477   0.02477   0.92777
[...]
 .00080041,0.00154891,0.00151009,0.00000414,0.00001358,-0.00001195,-0.0
 0000886,0.00002467,0.00001548,-0.00002198,0.00000636,0.00004218,-0.000
 28106,-0.00020957,0.00010904,0.00003558,-0.00003282,-0.00001016,-0.002
 97356,0.00287185,-0.00204032,0.00095279,-0.00070366,0.00083453,0.00000
 087,0.00000493,0.00000155,-0.00000369,-0.00000135,-0.00000116,0.000310
 31,-0.00041249,-0.00013583,0.00008794,-0.00022150,-0.00001852,0.014039
 61,-0.00737129,-0.00763449,-0.10055420,0.06658347,0.12792944,-0.000308
 79,0.00008601,-0.00055808,-0.01366718,0.00598642,0.01297108,0.00071360
 ,0.00047319,0.00146299,0.00092575,0.00034755,-0.00026676,0.00008105,0.
 00001688,0.00001077,-0.00008737,-0.00003224,0.00011138,0.01088804,-0.0
 0772870,-0.00838712,-0.00007075,-0.00001026,-0.00016656,-0.18292739,0.
 08708630,0.09935213,-0.00000300,-0.00001446,-0.00004842,0.00133757,-0.
 00092708,0.00007107,-0.00482112,0.00339524,-0.00380296,-0.00005865,0.0
 0012202,-0.00009323,-0.00012644,0.00016035,0.00010816,0.00001978,-0.00
 000624,0.00001005,0.00042373,-0.00050739,0.00005538,-0.00008469,0.0000
 7360,-0.00013180,-0.00014189,0.00040101,0.00000701,0.00003065,0.000216
 09,-0.00005142,-0.00001421,0.00000019,0.00000838,-0.00000937,0.0000033
 3,-0.00000940,-0.00043439,-0.00245519,-0.00207897,0.00083114,0.0005673
 3,0.00064324,0.00003586,0.00001237,0.00002001,-0.00003678,-0.00001698,
 0.00003155,0.19931461,0.00015183,-0.00001474,0.00028589,0.01078944,-0.
 00882762,-0.01064373,-0.00002976,0.00013147,-0.00097853,0.00102675,0.0
 0053358,-0.00001794,-0.00004814,-0.00000811,-0.00000434,0.00005505,0.0
 0001756,-0.00006528,0.01363991,-0.00996506,-0.01098957,-0.00003351,-0.
 00008435,-0.00006497,0.08487862,-0.10334930,-0.06081935,0.00000691,-0.
 00000057,0.00002890,-0.00035861,0.00080916,-0.00000411,0.00310835,-0.0
 0111406,0.00268792,0.00010114,-0.00015516,0.00010176,0.00006049,-0.000
 09000,-0.00005177,-0.00001071,0.00000069,-0.00001242,-0.00045256,0.000
 61616,0.00019926,-0.00001930,0.00000095,0.00005124,-0.00019929,-0.0000
 7068,0.00018327,-0.00019233,0.00017870,0.00005197,0.00000808,-0.000000
 36,-0.00000512,0.00000583,-0.00000243,0.00000625,-0.00179875,-0.001622
 42,-0.00253841,-0.00019306,0.00091398,0.00061686,0.00002088,-0.0000437
 1,0.00003828,-0.00002288,0.00004584,-0.00001230,-0.09472262,0.11030881
 ,-0.00025853,0.00008688,-0.00039604,-0.01426585,0.00931308,0.01100902,
 -0.00017297,0.00042937,0.00103569,0.00037991,0.00108701,0.00070563,0.0
 0004821,0.00000904,0.00000357,-0.00004281,-0.00002312,0.00006817,0.015
 87915,-0.01137567,-0.01447533,-0.00032579,-0.00010434,-0.00016909,0.10
 334131,-0.06314275,-0.12260852,-0.00000698,-0.00000411,-0.00003270,0.0
 0003944,-0.00082145,0.00050669,-0.00467050,0.00331818,-0.00229581,-0.0
 0004797,0.00011233,-0.00006533,-0.00010191,0.00012382,0.00007050,0.000
 00996,-0.00000674,0.00000063,0.00036888,-0.00058808,0.00091515,0.00000
 298,0.00001172,-0.00005554,-0.00029417,-0.00017784,0.00045718,-0.00025
 985,0.00021094,0.00002428,-0.00000974,-0.00000007,0.00000563,-0.000004
 57,0.00000199,-0.00000555,-0.00262445,-0.00322327,-0.00212674,0.000290
 49,0.00077046,0.00077452,0.00006715,-0.00002278,0.00006370,0.00001174,
 -0.00001306,-0.00002829,-0.10682566,0.07085895,0.13424625,0.00004422,-
 0.00000659,0.00002544,0.00977067,0.01314897,-0.00671774,0.00035317,-0.
 00019323,0.00003355,-0.00011998,-0.00165548,-0.00311453,0.00000610,0.,
 0.00001169,-0.00000074,0.00000468,-0.00000666,-0.00739112,-0.00784592,
 0.00684589,-0.00071335,-0.00036607,-0.00078969,-0.13224004,-0.10636533
 ,0.06895376,-0.00000121,0.00000591,-0.00002519,-0.00048140,0.00464499,
 -0.00362875,0.00067725,0.00047362,-0.00040523,0.00000030,-0.00000634,0
 .00000988,0.00000771,-0.00001604,-0.00000338,-0.00000296,-0.00000214,-
 0.00000121,0.00044871,-0.00076861,0.00048085,0.00001644,0.00005335,-0.
 00005045,0.00018416,0.00030338,-0.00021265,-0.00018139,-0.00100449,0.0
 0054712,0.00000019,0.00000094,-0.00000046,0.00000101,-0.00000497,-0.00
 000137,0.00073209,0.00028894,-0.00022238,0.00006296,0.00044598,0.00028
 841,0.00013730,0.00003509,0.00018697,0.00005349,0.00003248,0.00008737,
 -0.01169574,-0.01584980,0.00955799,0.14025570,-0.00003889,0.00001833,-
 0.00003584,-0.01053675,-0.01234020,0.00581243,0.00010707,0.00032468,-0
 .00002917,-0.00119505,-0.00098031,-0.00406032,0.00000415,0.00000141,0.
 00000228,0.00000158,0.00000018,-0.00000416,-0.00975586,-0.01348569,0.0
 0885966,0.00010652,0.00125150,0.00023249,-0.10245033,-0.17898571,0.085
 10289,0.00001213,-0.00001321,0.00000381,0.00154502,-0.00255497,0.00338
 393,-0.00054880,0.00101875,-0.00051123,0.00003385,-0.00002580,0.000022
 19,-0.00001202,0.00001210,0.00000860,0.00000066,-0.00000028,0.00000002
 ,0.00040089,0.00030003,0.00001378,-0.00006098,0.00002443,-0.00004275,-
 0.00015506,0.00002814,0.00017147,-0.00056112,-0.00081502,0.00071415,0.
 00000120,-0.00000127,-0.00000132,-0.00000079,0.00000122,-0.00000036,0.
 00056009,0.00057559,0.00042328,0.00018071,0.00075565,-0.00006492,-0.00
 001083,-0.00005639,0.00002178,0.00004730,-0.00009743,-0.00006923,0.007
 56712,0.01172132,-0.00676028,0.11471586,0.19335375,0.00003139,-0.00003
 102,0.00003548,0.01467730,0.01196126,-0.00827065,-0.00014103,-0.000290
 55,-0.00003124,-0.00185789,-0.00279778,-0.00353400,0.00000307,0.000001
 58,-0.00000171,-0.00000590,0.00000987,-0.00000348,-0.01325493,-0.01721
 740,0.01235480,-0.00078289,-0.00092865,-0.00120971,0.06628916,0.086593
 72,-0.10318409,-0.00000240,-0.00000050,0.00000063,-0.00207225,0.005779
 30,-0.00349973,0.00075532,-0.00104267,0.00105440,-0.00003894,0.0000243
 6,-0.00001227,0.00000450,-0.00000792,-0.00001145,-0.00000057,0.0000000
 4,-0.00000078,0.00003173,-0.00071265,0.00037569,0.00003980,-0.00002795
 ,0.00004357,-0.00008909,0.00004396,0.00006264,-0.00065645,-0.00121608,
 0.00060442,-0.00000072,0.00000004,0.00000087,-0.00000096,-0.00000035,0
 .00000013,0.00072584,0.00071387,0.00096872,0.00045767,0.00098235,0.000
 84281,0.00016942,0.00013064,0.00022227,0.00008405,0.00011998,0.0001756
 9,0.00754686,0.01110351,-0.00763117,-0.07187471,-0.09319878,0.11066065
 ,-0.00046931,0.00036950,0.00049513,0.00042433,-0.00017135,-0.00022401,
 -0.00004955,0.00024246,0.00373356,0.00000338,-0.00000951,-0.00001112,0
 .00940284,0.00643545,0.00161018,0.00124944,0.00370654,0.00168606,-0.00
 000014,0.00001292,0.00000453,0.00004134,0.00005500,0.00005515,-0.00004
 183,0.00000057,0.00004137,-0.20371413,-0.12555517,-0.04370094,-0.00026
 552,-0.00005529,0.00004165,-0.00016530,0.00005568,0.00023566,-0.011690
 62,-0.00938661,-0.00391061,0.00006714,-0.00001690,-0.00005463,0.000083
 09,-0.00003235,-0.00020100,0.00000253,0.00000386,0.00002509,-0.0006390
 0,-0.00078503,-0.00038085,-0.00000223,0.00000101,0.00000201,-0.0000059
 6,-0.00000062,-0.00000498,0.00029429,-0.00079668,-0.00015089,0.0004077
 5,-0.00065611,-0.00052631,-0.00000003,0.00000114,0.00000244,-0.0000070
 1,-0.00000265,-0.00000841,-0.00000821,-0.00000824,-0.00000333,0.000003
 01,-0.00000261,-0.00000619,-0.00002454,0.00001286,-0.00001358,0.000003
 45,-0.00000026,-0.00000222,0.21799509,0.00094600,0.00095159,-0.0013475
 8,0.00018963,-0.00000489,-0.00016116,0.00038787,0.00093450,0.00203248,
 0.00000196,-0.00000283,-0.00000318,-0.02264961,-0.01320542,-0.00339680
 ,0.00036068,-0.00766213,-0.00314934,-0.00000093,0.00000827,-0.00000059
 ,0.00001688,0.00001644,0.00001671,-0.00003281,-0.00000243,0.00002842,-
 0.12321929,-0.14921990,-0.03531398,-0.00006744,-0.00003053,-0.00000003
 ,-0.00025641,0.00026953,-0.00040138,-0.00442975,-0.00442202,-0.0005033
 5,-0.00004974,-0.00007901,0.00018771,-0.00014149,-0.00003958,0.0001358
 7,0.00000604,-0.00000646,0.00000863,-0.00027409,-0.00023248,-0.0002047
 6,-0.00000189,0.00000090,0.00000069,-0.00000265,-0.00000051,-0.0000020
 3,0.00017494,0.00087734,-0.00017036,0.00019982,0.00094488,0.00087141,-
 0.00000174,0.00000042,0.00000158,-0.00000457,-0.00000144,-0.00000419,-
 0.00000453,-0.00000353,-0.00000011,-0.00000380,0.00000002,-0.00000041,
 -0.00001372,0.00000959,-0.00000925,-0.00000138,0.00000108,-0.00000023,
 0.13728589,0.16019994,0.00067072,-0.00021652,-0.00117745,-0.00033304,0
 .00011509,0.00023760,0.00187721,0.00063939,-0.00622419,-0.00000336,0.0
 0000849,0.00001075,-0.01164201,-0.00471690,-0.00320654,0.00009697,-0.0
 0522916,-0.00040784,0.00000220,-0.00001479,-0.00000328,-0.00003475,-0.
 00004929,-0.00005166,0.00004400,0.00000194,-0.00004130,-0.04428081,-0.
 03688972,-0.05795633,0.00020711,0.00002144,0.00000944,0.00026030,-0.00
 037872,0.00043691,0.02271607,0.01980833,0.00602222,-0.00011748,-0.0000
 1070,0.00014206,-0.00013185,0.00001731,0.00025894,-0.00002246,0.000002
 81,-0.00002326,0.00108779,0.00130233,0.00033106,0.00000085,-0.00000036
 ,-0.00000102,0.00000529,0.00000030,0.00000436,-0.00003676,0.00075887,0
 .00009104,0.00018460,0.00013455,0.00046796,0.00000200,-0.00000054,-0.0
 0000034,0.00000585,0.00000291,0.00000689,0.00000684,0.00000618,0.00000
 235,-0.00000555,0.00000423,0.00000339,0.00001887,-0.00001343,0.0000136
 5,0.00000241,-0.00000234,0.00000006,0.04540171,0.03880399,0.06305139,-
 0.00023213,-0.00009387,0.00042746,0.00019023,-0.00021387,-0.00002427,0
 .00030922,0.00014844,-0.00095930,0.00000093,0.00000036,0.00000129,-0.0
 1028536,0.00559032,-0.00830171,0.00193126,-0.00070490,0.00037708,0.000
 00514,0.00000019,-0.00000367,0.00000806,0.00000780,0.00000837,0.000010
 25,-0.00001963,0.00000877,-0.14366174,0.07269918,-0.10445051,-0.000064
 31,-0.00002619,0.00004987,-0.00122021,-0.00038754,0.00061842,0.0114602
 0,-0.00791770,0.01176837,-0.00009714,-0.00000097,-0.00004603,0.0000426
 5,0.00000609,-0.00004047,-0.00001756,0.00000310,0.00000781,0.00001891,
 0.00020733,-0.00000805,-0.00000017,0.00000002,0.00000074,0.00000002,0.
 00000159,-0.00000095,0.00026237,-0.00045165,-0.00002222,0.00032921,0.0
 0233926,0.00153182,0.00000350,-0.00000132,0.00000055,0.00000080,-0.000
 00007,0.00000034,-0.00000014,-0.00000234,-0.00000112,0.00000335,0.0000
 0032,-0.00000358,0.00000236,0.00000651,-0.00000435,0.00006072,0.000029
 92,-0.00002389,-0.01400511,0.01135316,-0.01445643,0.15526428,-0.000086
 98,0.00000475,-0.00001542,-0.00010775,0.00006355,0.00007353,0.00079782
 ,-0.00017473,0.00029790,-0.00000283,0.00000066,0.00000044,0.01916819,-
 0.01553444,0.01810743,-0.00052291,0.00277739,0.00055739,-0.00000708,-0
 .00000093,-0.00000011,-0.00001021,-0.00000668,-0.00000589,-0.00000053,
 0.00000511,-0.00000786,0.07014752,-0.10343349,0.07833901,0.00005774,0.
 00002017,-0.00004527,-0.00009947,0.00018491,-0.00021376,0.00347811,-0.
 00328609,0.00386662,0.00006978,0.00004388,-0.00000679,-0.00001951,-0.0
 0003688,0.00000076,0.00001195,-0.00001030,-0.00001987,-0.00008725,-0.0
 0003683,-0.00004865,0.00000174,0.00000013,-0.00000066,0.00000054,-0.00
 000041,0.00000073,-0.00077888,0.00129985,-0.00009171,0.00185974,-0.004
 25081,-0.00246195,-0.00000051,-0.00000458,-0.00000403,0.00000167,0.000
 00128,0.00000051,0.00000195,0.00000109,-0.00000019,0.00000005,-0.00000
 183,0.00000174,0.00000349,-0.00000471,0.00000237,-0.00003762,-0.000012
 51,0.00001237,-0.01134777,0.01021227,-0.01316587,-0.08161840,0.1110361
 3,0.00019723,-0.00002630,-0.00013285,0.00007327,-0.00015228,0.00001804
 ,-0.00135165,-0.00027097,-0.00014559,-0.00000132,-0.00000220,-0.000002
 26,0.01029581,-0.00820810,0.00966567,0.00031926,0.00183401,0.00032834,
 0.00000394,-0.00000397,0.00000474,0.00000151,0.00000998,0.00001116,0.0
 0002527,-0.00000169,-0.00001448,-0.10472945,0.07956559,-0.16042776,-0.
 00010692,-0.00002243,0.00006869,-0.00002188,-0.00043721,0.00104075,-0.
 01646576,0.01238433,-0.01991454,0.00003248,-0.00000361,-0.00003258,-0.
 00003364,0.00008832,0.00006876,-0.00000722,0.00002275,0.00000731,0.000
 18540,-0.00002117,0.00006681,0.,0.00000044,0.00000008,-0.00000025,-0.0
 0000077,-0.00000021,-0.00020630,0.00086903,0.00100648,0.00077033,-0.00
 327654,-0.00022338,0.00000488,0.00000066,-0.00000105,0.00000218,0.0000
 0087,0.00000035,-0.00000057,-0.00000191,-0.00000183,0.00000129,0.00000
 062,-0.00000296,0.00000248,-0.00000278,0.00000256,0.00002981,0.0000035
 1,-0.00000701,-0.00372142,0.00250203,-0.00455784,0.11136346,-0.0858889
 1,0.17590348,-0.00427932,-0.00315299,-0.00018172,-0.00062118,-0.000280
 39,0.00006082,0.01039395,-0.02097426,-0.01002315,-0.00000470,-0.000000
 59,0.00000644,-0.00154415,-0.00281648,0.00330760,0.00075585,0.00093212
 ,-0.00034024,0.00001898,-0.00001985,0.00000154,-0.00002415,-0.00002116
 ,0.00001192,0.00002510,0.00012751,0.00004192,-0.00749910,0.01365768,0.
 00465237,-0.00003504,-0.00010373,-0.00011827,0.00240791,0.00109303,0.0
 0117578,-0.10157566,0.09883084,0.04477054,0.00004040,0.00002344,0.0000
 6100,0.00055210,-0.00108544,-0.00081187,-0.00113004,-0.00005015,0.0000
 5025,0.00086536,0.00115363,0.00039018,-0.00000026,-0.00000043,-0.00000
 123,0.00000219,0.00000296,-0.00000162,-0.00012257,0.00112183,0.0007147
 0,0.00015762,-0.00032849,-0.00017415,0.00000481,-0.00000261,-0.0000003
 1,0.00000672,0.00000610,0.00000967,-0.00000028,-0.00000453,-0.00000846
 ,0.00000787,-0.00000122,-0.00000249,-0.00000028,-0.00001284,-0.0000024
 1,0.00001215,0.00000607,-0.00000557,0.00011984,0.00008081,-0.00066098,
 0.00080140,-0.00037692,-0.00029780,0.10957588,-0.00572738,-0.00186073,
 0.00068650,-0.00021981,-0.00004457,-0.00035058,0.01207281,-0.02146256,
 -0.00863940,-0.00001089,0.00000285,-0.00000240,-0.00158494,0.00010540,
 0.00166730,0.00090822,0.00046441,-0.00039203,0.00002512,-0.00004578,0.
 00003328,0.00002077,0.00000634,-0.00004244,-0.00009307,0.00011137,0.00
 010699,-0.00439712,0.00872307,0.00362303,-0.00000509,0.00015659,0.0000
 8604,0.00092251,0.00192052,0.00113179,0.09708227,-0.22361115,-0.081411
 63,-0.00001336,0.00025874,0.00016524,0.00067176,-0.00107421,-0.0011204
 4,-0.00040552,0.00006892,0.00018605,0.00017182,0.00077964,0.00033756,-
 0.00000025,-0.00000036,-0.00000117,0.00000247,-0.00000071,0.00000221,-
 0.00021470,0.00036078,0.00033608,-0.00004008,0.00003159,0.00006902,-0.
 00000184,0.00000009,0.00000151,0.00001026,0.00000962,0.00000935,0.0000
 1106,0.00000996,0.00000886,0.00000272,0.00000515,0.00000280,-0.0000233
 2,0.00001194,-0.00002038,-0.00002143,-0.00002394,0.00000517,0.00039802
 ,0.00032969,-0.00069408,0.00037894,0.00044225,-0.00056912,-0.10383031,
 0.24251389,-0.00109636,-0.00006794,0.00075555,-0.00022540,-0.00011199,
 0.00007143,0.00058263,-0.00580537,-0.00364076,-0.00000623,-0.00000050,
 0.00000483,0.00332178,0.00415467,-0.00403432,-0.00065615,-0.00004043,0
 .00060756,0.00000871,-0.00002107,0.00000248,-0.00000808,0.00000059,-0.
 00003509,-0.00000681,0.00000439,0.00000648,0.01246977,-0.02337050,-0.0
 1094004,0.00002738,0.00013024,0.00001293,0.00110757,0.00003239,0.00029
 255,0.04436687,-0.07915576,-0.08398018,0.00024881,-0.00018030,0.000074
 04,0.00022583,-0.00021647,0.00003196,-0.00008296,0.00003554,0.00006863
 ,-0.00043163,0.00023868,0.00017903,0.00000118,-0.00000060,-0.00000155,
 0.00000312,0.00000183,-0.00000024,0.00049683,-0.00158369,-0.00074297,0
 .00011375,-0.00015853,0.00008997,-0.00000167,0.00000088,0.00000058,0.0
 0000663,0.00000393,0.00000639,0.00000480,0.00000945,0.00000621,0.00000
 315,0.00000178,0.00000303,0.00000676,-0.00000547,0.00000522,-0.0000007
 3,0.00000328,-0.00000223,-0.00036987,0.00029757,0.00108788,-0.00092149
 ,-0.00021484,0.00115032,-0.05053805,0.08796928,0.09000701,0.00030437,0
 .00095947,0.00020302,0.00205982,-0.00085474,-0.00182956,-0.01264399,0.
 01080932,-0.01350924,0.00002788,-0.00001190,-0.00002512,0.00098543,-0.
 00046267,-0.00031434,-0.00006013,-0.00016170,-0.00010559,0.00000501,0.
 00006939,0.00001345,0.00012516,0.00011366,0.00015488,-0.00015460,0.000
 04023,0.00019530,0.01123005,-0.00676021,0.01364697,-0.00060027,-0.0003
 6931,0.00035841,-0.00702488,-0.00295599,-0.00263823,-0.15345077,0.0573
 9969,-0.11546023,0.00042930,-0.00023635,0.00006858,0.00003920,-0.00014
 974,0.00024208,0.00018685,0.00011131,0.00020545,0.00046895,0.00045128,
 0.00057843,-0.00000923,0.00000333,0.00000454,-0.00001876,-0.00000614,-
 0.00001028,-0.00002373,-0.00017977,-0.00018243,-0.00018293,-0.00000307
 ,-0.00041928,-0.00001560,0.00001183,0.00001622,-0.00003693,-0.00001080
 ,-0.00002573,-0.00003390,-0.00002079,-0.00000102,-0.00001977,0.0000072
 1,-0.00001197,-0.00009157,0.00007151,-0.00006515,0.00000014,0.00000660
 ,-0.00000571,0.00099095,0.00015217,-0.00086530,-0.00112101,-0.00049569
 ,0.00363554,-0.00891141,0.00391034,-0.00865014,0.16754639,0.00079792,0
 .00004430,0.00013142,0.00081655,-0.00050418,-0.00111278,-0.01233037,0.
 00886696,-0.01504065,0.00001300,-0.00000999,-0.00001493,-0.00039174,0.
 00008310,-0.00090687,0.00000970,-0.00005280,0.00000213,0.00001256,0.00
 002349,0.00001487,0.00006612,0.00007627,0.00006460,-0.00011888,0.00006
 297,0.00016266,0.00458558,-0.00424583,0.00659382,-0.00036929,-0.000190
 40,0.00023715,-0.00619991,-0.00160274,-0.00248417,0.05984182,-0.081139
 73,0.06253217,-0.00012445,-0.00040092,-0.00035968,-0.00006407,0.000231
 79,0.00025059,-0.00009882,0.00001750,0.00021777,0.00039043,0.00097839,
 0.00053896,-0.00000396,0.00000111,0.00000283,-0.00001068,-0.00000253,-
 0.00000628,-0.00012641,0.00003598,-0.00003086,-0.00007416,0.00032881,0
 .00002540,-0.00001484,0.00000879,0.00001087,-0.00001772,-0.00000164,-0
 .00001041,-0.00001322,-0.00000782,0.00000151,-0.00000612,0.00000421,-0
 .00001169,-0.00006031,0.00005352,-0.00004296,-0.00000875,0.00000457,-0
 .00000951,0.00024625,0.00015672,-0.00024573,-0.00133409,0.00070181,0.0
 0160781,0.01602637,-0.00818880,0.01804896,-0.06143849,0.08466708,-0.00
 009688,0.00047585,-0.00006412,0.00032235,-0.00026847,-0.00041170,-0.00
 250596,0.00246476,-0.00515091,0.00000309,-0.00000792,-0.00000840,-0.00
 125826,0.00062439,0.00099041,0.00010620,-0.00039884,-0.00027142,0.0000
 1341,0.00000163,0.00001438,0.00003044,0.00004655,0.00003752,-0.0000391
 5,0.00002876,0.00005278,-0.01661130,0.01022323,-0.02052548,-0.00022855
 ,-0.00008390,0.00012842,-0.00114659,-0.00025032,0.00099227,-0.11498637
 ,0.06094568,-0.17100307,0.00017165,-0.00020856,0.00002419,0.00003482,-
 0.00008157,0.00012886,-0.00009426,-0.00000451,0.00008785,0.00000704,-0
 .00030040,0.00045144,-0.00000199,0.00000077,0.00000154,-0.00000431,-0.
 00000080,-0.00000360,0.00028425,-0.00001411,0.00025442,0.00026391,-0.0
 0056792,0.00010313,-0.00000142,0.00000163,0.00000192,-0.00000272,-0.00
 000149,-0.00000464,-0.00000464,-0.00000383,0.00000018,-0.00000048,0.00
 000150,-0.00000466,-0.00001782,0.00001547,-0.00001793,-0.00000602,0.00
 000116,-0.00000330,-0.00004417,-0.00021839,0.00147311,0.00310369,0.000
 93101,-0.00387920,0.00791360,-0.00318438,0.00891330,0.12479643,-0.0701
 6697,0.18769268\\0.00001917,0.00002277,-0.00002093,0.00028458,0.000607
 60,0.00003231,0.00054345,0.00000426,-0.00070440,-0.00000356,0.00000303
 ,0.00000153,-0.00002555,-0.00001073,0.00000385,-0.00000290,0.00000173,
 0.00000748,0.00000701,0.00000421,0.00001052,-0.00000123,0.00002325,-0.
 00000543,-0.00001583,0.00001027,-0.00000273,-0.00000148,-0.00000369,-0
 .00000235,0.00000607,0.00001206,0.00000032,-0.00051770,-0.00082542,0.0
 0014516,-0.00031557,0.00016008,0.00051083,0.00000068,-0.00001047,0.000
 00982,-0.00000764,-0.00000314,-0.00000574,0.00000130,0.00000619,0.0000
 1355,0.00000188,-0.00000755,0.00000889,-0.00000357,0.00000324,-0.00000
 029,0.00000190,0.00000526,-0.00000935,0.00000068,0.00000250,-0.0000037
 7,0.00000842,-0.00000306,0.00000638,0.00000525,0.00000303,-0.00000218,
 -0.00000392,0.00000648,-0.00000126,-0.00000225,0.00000051,-0.00000065,
 0.00000346,-0.00000675,-0.00001325,0.00000437,0.00000255,0.00000334,0.
 00000941,0.00000067,0.00000058,0.00000609,-0.00000335,0.00001007,0.000
 00153,0.00000127,-0.00000074,-0.00000491,-0.00000013,0.00000347,0.0000
 0085,-0.00000665,0.00000496\\\@


    WHAT WE HAVE LEARNED
 IS LIKE A HANDFUL OF EARTH;
  WHAT WE HAVE YET TO LEARN
   IS LIKE THE WHOLE WORLD.

         -- AVVAYIAR
 Job cpu time:       0 days 12 hours  8 minutes 54.5 seconds.
 Elapsed time:       0 days  1 hours  0 minutes 46.3 seconds.
 File lengths (MBytes):  RWF=    723 Int=      0 D2E=      0 Chk=     34 Scr=      1
 Normal termination of Gaussian 16 at Sat Mar  9 05:28:48 2019.
