 Entering Gaussian System, Link 0=g16
 Initial command:
 /sw/Projects/G16/g16/l1.exe "/nvme/pbs/tmpdir/pbs.74203[10].flm1/Gau-1317.inp" -scrdir="/nvme/pbs/tmpdir/pbs.74203[10].flm1/"
 Entering Link 1 = /sw/Projects/G16/g16/l1.exe PID=      1318.
  
 Copyright (c) 1988-2017, Gaussian, Inc.  All Rights Reserved.
  
 This is part of the Gaussian(R) 16 program.  It is based on
 the Gaussian(R) 09 system (copyright 2009, Gaussian, Inc.),
 the Gaussian(R) 03 system (copyright 2003, Gaussian, Inc.),
 the Gaussian(R) 98 system (copyright 1998, Gaussian, Inc.),
 the Gaussian(R) 94 system (copyright 1995, Gaussian, Inc.),
 the Gaussian 92(TM) system (copyright 1992, Gaussian, Inc.),
 the Gaussian 90(TM) system (copyright 1990, Gaussian, Inc.),
 the Gaussian 88(TM) system (copyright 1988, Gaussian, Inc.),
 the Gaussian 86(TM) system (copyright 1986, Carnegie Mellon
 University), and the Gaussian 82(TM) system (copyright 1983,
 Carnegie Mellon University). Gaussian is a federally registered
 trademark of Gaussian, Inc.
  
 This software contains proprietary and confidential information,
 including trade secrets, belonging to Gaussian, Inc.
  
 This software is provided under written license and may be
 used, copied, transmitted, or stored only in accord with that
 written license.
  
 The following legend is applicable only to US Government
 contracts under FAR:
  
                    RESTRICTED RIGHTS LEGEND
  
 Use, reproduction and disclosure by the US Government is
 subject to restrictions as set forth in subparagraphs (a)
 and (c) of the Commercial Computer Software - Restricted
 Rights clause in FAR 52.227-19.
  
 Gaussian, Inc.
 340 Quinnipiac St., Bldg. 40, Wallingford CT 06492
  
  
 ---------------------------------------------------------------
 Warning -- This program may not be used in any manner that
 competes with the business of Gaussian, Inc. or will provide
 assistance to any competitor of Gaussian, Inc.  The licensee
 of this program is prohibited from giving any competitor of
 Gaussian, Inc. access to this program.  By using this program,
 the user acknowledges that Gaussian, Inc. is engaged in the
 business of creating and licensing software in the field of
 computational chemistry and represents and warrants to the
 licensee that it is not a competitor of Gaussian, Inc. and that
 it will not use this program in any manner prohibited above.
 ---------------------------------------------------------------
  

 Cite this work as:
 Gaussian 16, Revision B.01,
 M. J. Frisch, G. W. Trucks, H. B. Schlegel, G. E. Scuseria, 
 M. A. Robb, J. R. Cheeseman, G. Scalmani, V. Barone, 
 G. A. Petersson, H. Nakatsuji, X. Li, M. Caricato, A. V. Marenich, 
 J. Bloino, B. G. Janesko, R. Gomperts, B. Mennucci, H. P. Hratchian, 
 J. V. Ortiz, A. F. Izmaylov, J. L. Sonnenberg, D. Williams-Young, 
 F. Ding, F. Lipparini, F. Egidi, J. Goings, B. Peng, A. Petrone, 
 T. Henderson, D. Ranasinghe, V. G. Zakrzewski, J. Gao, N. Rega, 
 G. Zheng, W. Liang, M. Hada, M. Ehara, K. Toyota, R. Fukuda, 
 J. Hasegawa, M. Ishida, T. Nakajima, Y. Honda, O. Kitao, H. Nakai, 
 T. Vreven, K. Throssell, J. A. Montgomery, Jr., J. E. Peralta, 
 F. Ogliaro, M. J. Bearpark, J. J. Heyd, E. N. Brothers, K. N. Kudin, 
 V. N. Staroverov, T. A. Keith, R. Kobayashi, J. Normand, 
 K. Raghavachari, A. P. Rendell, J. C. Burant, S. S. Iyengar, 
 J. Tomasi, M. Cossi, J. M. Millam, M. Klene, C. Adamo, R. Cammi, 
 J. W. Ochterski, R. L. Martin, K. Morokuma, O. Farkas, 
 J. B. Foresman, and D. J. Fox, Gaussian, Inc., Wallingford CT, 2016.
 
 ******************************************
 Gaussian 16:  ES64L-G16RevB.01 20-Dec-2017
                 9-Mar-2019 
 ******************************************
 %mem=20gb
 %nproc=12
 Will use up to   12 processors via shared memory.
 %chk=4c1_a1_a4_4c1_PSI.inp_extract_10.chk
 ----------------------------------------------------------------------
 #M062X/6-311++G(2d,2p) opt=ModRedundant freq=noraman SCRF=(SMD,solvent
 =water)
 ----------------------------------------------------------------------
 1/18=120,19=15,26=3,38=1/1,3;
 2/9=110,12=2,17=6,18=5,40=1/2;
 3/5=4,6=6,7=1212,11=2,25=1,30=1,70=32201,71=1,72=1,74=-55/1,2,3;
 4//1;
 5/5=2,38=5,53=1/2;
 6/7=2,8=2,9=2,10=2,28=1/1;
 7//1,2,3,16;
 1/18=20,19=15,26=3/3(2);
 2/9=110/2;
 99//99;
 2/9=110/2;
 3/5=4,6=6,7=1212,11=2,25=1,30=1,70=32205,71=1,72=1,74=-55/1,2,3;
 4/5=5,16=3,69=1/1;
 5/5=2,38=5,53=1/2;
 7//1,2,3,16;
 1/18=20,19=15,26=3/3(-5);
 2/9=110/2;
 6/7=2,8=2,9=2,10=2,19=2,28=1/1;
 99/9=1/99;
 --------------------------------
 4c1_a1_a4_4c1_PSI.inp_extract_10
 --------------------------------
 Symbolic Z-matrix:
 Charge =  0 Multiplicity = 1
 C                    -1.99248  -1.33012  -0.42444 
 C                     0.85475  -0.6611   -0.51348 
 C                    -1.22908  -0.98769   0.84646 
 C                     3.18007   0.98585   0.02471 
 C                    -2.87416   0.8435   -0.68186 
 O                    -2.16055  -0.22337  -1.28135 
 C                     3.15782  -0.45912   0.52253 
 C                     1.76166   1.51738  -0.09736 
 C                     2.23394  -1.29217  -0.36651 
 C                    -2.15297   1.35954   0.55403 
 O                     0.9609    0.67972  -0.91933 
 O                     0.17874  -0.77294   0.70463 
 C                    -1.88116   0.21371   1.53061 
 H                    -2.96734  -1.70166  -0.11833 
 H                    -1.51032  -2.10953  -0.99564 
 H                     0.30938  -1.14698  -1.30263 
 H                    -1.30908  -1.84832   1.49936 
 H                     3.66549   1.03308  -0.94746 
 H                     3.74131   1.62475   0.70082 
 H                    -2.96367   1.61159  -1.43781 
 H                    -3.87344   0.49763  -0.42556 
 H                     2.81122  -0.48607   1.55225 
 H                     4.15764  -0.88242   0.51368 
 H                     1.74277   2.49057  -0.56843 
 H                     1.3037    1.60795   0.88167 
 H                     2.66341  -1.36548  -1.36226 
 H                     2.1183   -2.30159   0.0135 
 H                    -2.76457   2.12069   1.03021 
 H                    -1.2242    1.83253   0.25552 
 H                    -1.25963   0.54221   2.35701 
 H                    -2.82399  -0.12491   1.95431 
 
 The following ModRedundant input section has been read:
 D      13       3      12       2 F                                           
 

 GradGradGradGradGradGradGradGradGradGradGradGradGradGradGradGradGradGrad
 Berny optimization.
 Initialization pass.
                           ----------------------------
                           !    Initial Parameters    !
                           ! (Angstroms and Degrees)  !
 --------------------------                            --------------------------
 ! Name  Definition              Value          Derivative Info.                !
 --------------------------------------------------------------------------------
 ! R1    R(1,3)                  1.5216         estimate D2E/DX2                !
 ! R2    R(1,6)                  1.4098         estimate D2E/DX2                !
 ! R3    R(1,14)                 1.0872         estimate D2E/DX2                !
 ! R4    R(1,15)                 1.0799         estimate D2E/DX2                !
 ! R5    R(2,9)                  1.5238         estimate D2E/DX2                !
 ! R6    R(2,11)                 1.4049         estimate D2E/DX2                !
 ! R7    R(2,12)                 1.3976         estimate D2E/DX2                !
 ! R8    R(2,16)                 1.0753         estimate D2E/DX2                !
 ! R9    R(3,12)                 1.4312         estimate D2E/DX2                !
 ! R10   R(3,13)                 1.5286         estimate D2E/DX2                !
 ! R11   R(3,17)                 1.0832         estimate D2E/DX2                !
 ! R12   R(4,7)                  1.5285         estimate D2E/DX2                !
 ! R13   R(4,8)                  1.5196         estimate D2E/DX2                !
 ! R14   R(4,18)                 1.0876         estimate D2E/DX2                !
 ! R15   R(4,19)                 1.0864         estimate D2E/DX2                !
 ! R16   R(5,6)                  1.4166         estimate D2E/DX2                !
 ! R17   R(5,10)                 1.5211         estimate D2E/DX2                !
 ! R18   R(5,20)                 1.0814         estimate D2E/DX2                !
 ! R19   R(5,21)                 1.0881         estimate D2E/DX2                !
 ! R20   R(7,9)                  1.529          estimate D2E/DX2                !
 ! R21   R(7,22)                 1.0868         estimate D2E/DX2                !
 ! R22   R(7,23)                 1.0858         estimate D2E/DX2                !
 ! R23   R(8,11)                 1.4208         estimate D2E/DX2                !
 ! R24   R(8,24)                 1.0814         estimate D2E/DX2                !
 ! R25   R(8,25)                 1.0846         estimate D2E/DX2                !
 ! R26   R(9,26)                 1.0869         estimate D2E/DX2                !
 ! R27   R(9,27)                 1.0848         estimate D2E/DX2                !
 ! R28   R(10,13)                1.5299         estimate D2E/DX2                !
 ! R29   R(10,28)                1.0863         estimate D2E/DX2                !
 ! R30   R(10,29)                1.0842         estimate D2E/DX2                !
 ! R31   R(13,30)                1.085          estimate D2E/DX2                !
 ! R32   R(13,31)                1.0877         estimate D2E/DX2                !
 ! A1    A(3,1,6)              113.006          estimate D2E/DX2                !
 ! A2    A(3,1,14)             106.9534         estimate D2E/DX2                !
 ! A3    A(3,1,15)             112.3467         estimate D2E/DX2                !
 ! A4    A(6,1,14)             109.4216         estimate D2E/DX2                !
 ! A5    A(6,1,15)             107.3575         estimate D2E/DX2                !
 ! A6    A(14,1,15)            107.6141         estimate D2E/DX2                !
 ! A7    A(9,2,11)             110.7765         estimate D2E/DX2                !
 ! A8    A(9,2,12)             108.6981         estimate D2E/DX2                !
 ! A9    A(9,2,16)             110.0409         estimate D2E/DX2                !
 ! A10   A(11,2,12)            111.3889         estimate D2E/DX2                !
 ! A11   A(11,2,16)            104.925          estimate D2E/DX2                !
 ! A12   A(12,2,16)            110.9876         estimate D2E/DX2                !
 ! A13   A(1,3,12)             116.3929         estimate D2E/DX2                !
 ! A14   A(1,3,13)             109.675          estimate D2E/DX2                !
 ! A15   A(1,3,17)             106.7131         estimate D2E/DX2                !
 ! A16   A(12,3,13)            110.2461         estimate D2E/DX2                !
 ! A17   A(12,3,17)            104.572          estimate D2E/DX2                !
 ! A18   A(13,3,17)            108.8552         estimate D2E/DX2                !
 ! A19   A(7,4,8)              110.0741         estimate D2E/DX2                !
 ! A20   A(7,4,18)             109.7958         estimate D2E/DX2                !
 ! A21   A(7,4,19)             111.1483         estimate D2E/DX2                !
 ! A22   A(8,4,18)             109.2434         estimate D2E/DX2                !
 ! A23   A(8,4,19)             109.055          estimate D2E/DX2                !
 ! A24   A(18,4,19)            107.4671         estimate D2E/DX2                !
 ! A25   A(6,5,10)             111.1302         estimate D2E/DX2                !
 ! A26   A(6,5,20)             106.3073         estimate D2E/DX2                !
 ! A27   A(6,5,21)             108.84           estimate D2E/DX2                !
 ! A28   A(10,5,20)            111.4841         estimate D2E/DX2                !
 ! A29   A(10,5,21)            110.6023         estimate D2E/DX2                !
 ! A30   A(20,5,21)            108.3258         estimate D2E/DX2                !
 ! A31   A(1,6,5)              113.2079         estimate D2E/DX2                !
 ! A32   A(4,7,9)              109.5411         estimate D2E/DX2                !
 ! A33   A(4,7,22)             109.6745         estimate D2E/DX2                !
 ! A34   A(4,7,23)             110.6407         estimate D2E/DX2                !
 ! A35   A(9,7,22)             110.1624         estimate D2E/DX2                !
 ! A36   A(9,7,23)             109.8307         estimate D2E/DX2                !
 ! A37   A(22,7,23)            106.9609         estimate D2E/DX2                !
 ! A38   A(4,8,11)             111.4889         estimate D2E/DX2                !
 ! A39   A(4,8,24)             111.474          estimate D2E/DX2                !
 ! A40   A(4,8,25)             110.5361         estimate D2E/DX2                !
 ! A41   A(11,8,24)            105.5888         estimate D2E/DX2                !
 ! A42   A(11,8,25)            109.4801         estimate D2E/DX2                !
 ! A43   A(24,8,25)            108.1006         estimate D2E/DX2                !
 ! A44   A(2,9,7)              112.1679         estimate D2E/DX2                !
 ! A45   A(2,9,26)             107.2899         estimate D2E/DX2                !
 ! A46   A(2,9,27)             108.8246         estimate D2E/DX2                !
 ! A47   A(7,9,26)             109.3101         estimate D2E/DX2                !
 ! A48   A(7,9,27)             111.5746         estimate D2E/DX2                !
 ! A49   A(26,9,27)            107.4758         estimate D2E/DX2                !
 ! A50   A(5,10,13)            110.4127         estimate D2E/DX2                !
 ! A51   A(5,10,28)            109.0814         estimate D2E/DX2                !
 ! A52   A(5,10,29)            109.2963         estimate D2E/DX2                !
 ! A53   A(13,10,28)           110.1811         estimate D2E/DX2                !
 ! A54   A(13,10,29)           110.5059         estimate D2E/DX2                !
 ! A55   A(28,10,29)           107.2961         estimate D2E/DX2                !
 ! A56   A(2,11,8)             115.9858         estimate D2E/DX2                !
 ! A57   A(2,12,3)             125.0428         estimate D2E/DX2                !
 ! A58   A(3,13,10)            112.256          estimate D2E/DX2                !
 ! A59   A(3,13,30)            109.542          estimate D2E/DX2                !
 ! A60   A(3,13,31)            107.4236         estimate D2E/DX2                !
 ! A61   A(10,13,30)           111.1748         estimate D2E/DX2                !
 ! A62   A(10,13,31)           109.1364         estimate D2E/DX2                !
 ! A63   A(30,13,31)           107.1039         estimate D2E/DX2                !
 ! D1    D(6,1,3,12)           -73.4769         estimate D2E/DX2                !
 ! D2    D(6,1,3,13)            52.5179         estimate D2E/DX2                !
 ! D3    D(6,1,3,17)           170.2745         estimate D2E/DX2                !
 ! D4    D(14,1,3,12)          166.0524         estimate D2E/DX2                !
 ! D5    D(14,1,3,13)          -67.9528         estimate D2E/DX2                !
 ! D6    D(14,1,3,17)           49.8038         estimate D2E/DX2                !
 ! D7    D(15,1,3,12)           48.1896         estimate D2E/DX2                !
 ! D8    D(15,1,3,13)          174.1844         estimate D2E/DX2                !
 ! D9    D(15,1,3,17)          -68.059          estimate D2E/DX2                !
 ! D10   D(3,1,6,5)            -59.9032         estimate D2E/DX2                !
 ! D11   D(14,1,6,5)            59.1492         estimate D2E/DX2                !
 ! D12   D(15,1,6,5)           175.6607         estimate D2E/DX2                !
 ! D13   D(11,2,9,7)            52.132          estimate D2E/DX2                !
 ! D14   D(11,2,9,26)          -67.9207         estimate D2E/DX2                !
 ! D15   D(11,2,9,27)          176.0772         estimate D2E/DX2                !
 ! D16   D(12,2,9,7)           -70.5652         estimate D2E/DX2                !
 ! D17   D(12,2,9,26)          169.382          estimate D2E/DX2                !
 ! D18   D(12,2,9,27)           53.38           estimate D2E/DX2                !
 ! D19   D(16,2,9,7)           167.7024         estimate D2E/DX2                !
 ! D20   D(16,2,9,26)           47.6496         estimate D2E/DX2                !
 ! D21   D(16,2,9,27)          -68.3524         estimate D2E/DX2                !
 ! D22   D(9,2,11,8)           -55.4059         estimate D2E/DX2                !
 ! D23   D(12,2,11,8)           65.7145         estimate D2E/DX2                !
 ! D24   D(16,2,11,8)         -174.1207         estimate D2E/DX2                !
 ! D25   D(9,2,12,3)          -144.9097         estimate D2E/DX2                !
 ! D26   D(11,2,12,3)           92.7635         estimate D2E/DX2                !
 ! D27   D(16,2,12,3)          -23.7566         estimate D2E/DX2                !
 ! D28   D(1,3,12,2)             9.8655         estimate D2E/DX2                !
 ! D29   D(13,3,12,2)         -115.8422         Frozen                          !
 ! D30   D(17,3,12,2)          127.299          estimate D2E/DX2                !
 ! D31   D(1,3,13,10)          -48.1642         estimate D2E/DX2                !
 ! D32   D(1,3,13,30)         -172.1787         estimate D2E/DX2                !
 ! D33   D(1,3,13,31)           71.8141         estimate D2E/DX2                !
 ! D34   D(12,3,13,10)          81.26           estimate D2E/DX2                !
 ! D35   D(12,3,13,30)         -42.7545         estimate D2E/DX2                !
 ! D36   D(12,3,13,31)        -158.7617         estimate D2E/DX2                !
 ! D37   D(17,3,13,10)        -164.577          estimate D2E/DX2                !
 ! D38   D(17,3,13,30)          71.4084         estimate D2E/DX2                !
 ! D39   D(17,3,13,31)         -44.5987         estimate D2E/DX2                !
 ! D40   D(8,4,7,9)             52.8196         estimate D2E/DX2                !
 ! D41   D(8,4,7,22)           -68.1998         estimate D2E/DX2                !
 ! D42   D(8,4,7,23)           174.0421         estimate D2E/DX2                !
 ! D43   D(18,4,7,9)           -67.4767         estimate D2E/DX2                !
 ! D44   D(18,4,7,22)          171.5039         estimate D2E/DX2                !
 ! D45   D(18,4,7,23)           53.7459         estimate D2E/DX2                !
 ! D46   D(19,4,7,9)           173.7541         estimate D2E/DX2                !
 ! D47   D(19,4,7,22)           52.7347         estimate D2E/DX2                !
 ! D48   D(19,4,7,23)          -65.0234         estimate D2E/DX2                !
 ! D49   D(7,4,8,11)           -54.8716         estimate D2E/DX2                !
 ! D50   D(7,4,8,24)          -172.5962         estimate D2E/DX2                !
 ! D51   D(7,4,8,25)            67.1467         estimate D2E/DX2                !
 ! D52   D(18,4,8,11)           65.7576         estimate D2E/DX2                !
 ! D53   D(18,4,8,24)          -51.9669         estimate D2E/DX2                !
 ! D54   D(18,4,8,25)         -172.2241         estimate D2E/DX2                !
 ! D55   D(19,4,8,11)         -177.0534         estimate D2E/DX2                !
 ! D56   D(19,4,8,24)           65.222          estimate D2E/DX2                !
 ! D57   D(19,4,8,25)          -55.0351         estimate D2E/DX2                !
 ! D58   D(10,5,6,1)            60.196          estimate D2E/DX2                !
 ! D59   D(20,5,6,1)          -178.3262         estimate D2E/DX2                !
 ! D60   D(21,5,6,1)           -61.8409         estimate D2E/DX2                !
 ! D61   D(6,5,10,13)          -54.3784         estimate D2E/DX2                !
 ! D62   D(6,5,10,28)         -175.5925         estimate D2E/DX2                !
 ! D63   D(6,5,10,29)           67.3789         estimate D2E/DX2                !
 ! D64   D(20,5,10,13)        -172.778          estimate D2E/DX2                !
 ! D65   D(20,5,10,28)          66.0078         estimate D2E/DX2                !
 ! D66   D(20,5,10,29)         -51.0208         estimate D2E/DX2                !
 ! D67   D(21,5,10,13)          66.6285         estimate D2E/DX2                !
 ! D68   D(21,5,10,28)         -54.5857         estimate D2E/DX2                !
 ! D69   D(21,5,10,29)        -171.6142         estimate D2E/DX2                !
 ! D70   D(4,7,9,2)            -52.1131         estimate D2E/DX2                !
 ! D71   D(4,7,9,26)            66.7568         estimate D2E/DX2                !
 ! D72   D(4,7,9,27)          -174.5102         estimate D2E/DX2                !
 ! D73   D(22,7,9,2)            68.6106         estimate D2E/DX2                !
 ! D74   D(22,7,9,26)         -172.5195         estimate D2E/DX2                !
 ! D75   D(22,7,9,27)          -53.7865         estimate D2E/DX2                !
 ! D76   D(23,7,9,2)          -173.8235         estimate D2E/DX2                !
 ! D77   D(23,7,9,26)          -54.9536         estimate D2E/DX2                !
 ! D78   D(23,7,9,27)           63.7794         estimate D2E/DX2                !
 ! D79   D(4,8,11,2)            57.6952         estimate D2E/DX2                !
 ! D80   D(24,8,11,2)          178.9127         estimate D2E/DX2                !
 ! D81   D(25,8,11,2)          -64.9308         estimate D2E/DX2                !
 ! D82   D(5,10,13,3)           49.7774         estimate D2E/DX2                !
 ! D83   D(5,10,13,30)         172.8784         estimate D2E/DX2                !
 ! D84   D(5,10,13,31)         -69.2            estimate D2E/DX2                !
 ! D85   D(28,10,13,3)         170.3357         estimate D2E/DX2                !
 ! D86   D(28,10,13,30)        -66.5632         estimate D2E/DX2                !
 ! D87   D(28,10,13,31)         51.3584         estimate D2E/DX2                !
 ! D88   D(29,10,13,3)         -71.2624         estimate D2E/DX2                !
 ! D89   D(29,10,13,30)         51.8387         estimate D2E/DX2                !
 ! D90   D(29,10,13,31)        169.7603         estimate D2E/DX2                !
 --------------------------------------------------------------------------------
 Trust Radius=3.00D-01 FncErr=1.00D-07 GrdErr=1.00D-06 EigMax=2.50D+02 EigMin=1.00D-04
 Number of steps in this run=    186 maximum allowed number of steps=    186.
 GradGradGradGradGradGradGradGradGradGradGradGradGradGradGradGradGradGrad

                          Input orientation:                          
 ---------------------------------------------------------------------
 Center     Atomic      Atomic             Coordinates (Angstroms)
 Number     Number       Type             X           Y           Z
 ---------------------------------------------------------------------
      1          6           0       -1.992480   -1.330121   -0.424443
      2          6           0        0.854747   -0.661099   -0.513479
      3          6           0       -1.229084   -0.987686    0.846464
      4          6           0        3.180073    0.985849    0.024710
      5          6           0       -2.874158    0.843496   -0.681863
      6          8           0       -2.160551   -0.223369   -1.281346
      7          6           0        3.157821   -0.459116    0.522530
      8          6           0        1.761656    1.517381   -0.097357
      9          6           0        2.233942   -1.292174   -0.366511
     10          6           0       -2.152969    1.359544    0.554030
     11          8           0        0.960896    0.679718   -0.919328
     12          8           0        0.178743   -0.772938    0.704631
     13          6           0       -1.881159    0.213705    1.530608
     14          1           0       -2.967338   -1.701664   -0.118333
     15          1           0       -1.510323   -2.109533   -0.995641
     16          1           0        0.309382   -1.146976   -1.302629
     17          1           0       -1.309078   -1.848315    1.499359
     18          1           0        3.665485    1.033081   -0.947455
     19          1           0        3.741313    1.624753    0.700815
     20          1           0       -2.963674    1.611589   -1.437811
     21          1           0       -3.873440    0.497628   -0.425560
     22          1           0        2.811218   -0.486074    1.552252
     23          1           0        4.157636   -0.882423    0.513680
     24          1           0        1.742765    2.490572   -0.568431
     25          1           0        1.303703    1.607952    0.881667
     26          1           0        2.663411   -1.365482   -1.362260
     27          1           0        2.118297   -2.301592    0.013500
     28          1           0       -2.764572    2.120691    1.030210
     29          1           0       -1.224201    1.832530    0.255521
     30          1           0       -1.259627    0.542211    2.357012
     31          1           0       -2.823988   -0.124912    1.954314
 ---------------------------------------------------------------------
                    Distance matrix (angstroms):
                    1          2          3          4          5
     1  C    0.000000
     2  C    2.926127   0.000000
     3  C    1.521591   2.509672   0.000000
     4  C    5.685135   2.899867   4.900080   0.000000
     5  C    2.359710   4.024536   2.897461   6.096985   0.000000
     6  O    1.409763   3.142173   2.445278   5.629410   1.416621
     7  C    5.308579   2.533429   4.430492   1.528478   6.287458
     8  C    4.723218   2.396125   4.013812   1.519649   4.720862
     9  C    4.226989   1.523822   3.681925   2.497520   5.545558
    10  C    2.866612   3.777424   2.539403   5.372259   1.521135
    11  O    3.606493   1.404910   3.270209   2.430981   3.845888
    12  O    2.509875   1.397598   1.431157   3.544518   3.722288
    13  C    2.493595   3.525444   1.528593   5.336666   2.505536
    14  H    1.087242   3.980860   2.112374   6.710726   2.608465
    15  H    1.079919   2.814960   2.175083   5.711595   3.267856
    16  H    2.470490   1.075294   2.647801   3.814661   3.805556
    17  H    2.106318   3.184829   1.083214   5.509950   3.801717
    18  H    6.153928   3.310412   5.590926   1.087640   6.547779
    19  H    6.547814   3.877098   5.617019   1.086419   6.803427
    20  H    3.259416   4.538705   3.870781   6.346349   1.081405
    21  H    2.622723   4.868894   3.288894   7.084712   1.088063
    22  H    5.262628   2.850554   4.132044   2.153136   6.251602
    23  H    6.237342   3.465994   5.398016   2.164523   7.338545
    24  H    5.345136   3.274847   4.788747   2.163761   4.903234
    25  H    4.604674   2.701219   3.626787   2.154565   4.525875
    26  H    4.749534   2.118455   4.491404   2.778378   6.000599
    27  H    4.246650   2.136699   3.691224   3.454673   5.941356
    28  H    3.823643   4.818797   3.471814   6.134957   2.138792
    29  H    3.324901   3.336401   2.881468   4.490854   2.139915
    30  H    3.432083   3.762745   2.150180   5.034618   3.454308
    31  H    2.793281   4.462128   2.124954   6.403586   2.808872
                    6          7          8          9         10
     6  O    0.000000
     7  C    5.620910   0.000000
     8  C    4.451488   2.498015   0.000000
     9  C    4.614199   1.529030   2.861660   0.000000
    10  C    2.423691   5.613645   3.971587   5.208070   0.000000
    11  O    3.269565   2.863979   1.420751   2.411350   3.511282
    12  O    3.117439   3.001092   2.897302   2.375036   3.163391
    13  C    2.859402   5.182685   4.197611   4.775017   1.529880
    14  H    2.046671   6.282691   5.720671   5.223274   3.238250
    15  H    2.015450   5.178831   4.966615   3.883735   3.853436
    16  H    2.637057   3.452240   3.265054   2.145071   3.974040
    17  H    3.331332   4.778834   4.827714   4.042741   3.449081
    18  H    5.969325   2.155280   2.140509   2.791706   6.017927
    19  H    6.494345   2.171349   2.137206   3.452509   5.902071
    20  H    2.009119   6.753033   4.912681   6.049358   2.165225
    21  H    2.046019   7.159111   5.736020   6.364510   2.159286
    22  H    5.728593   1.086825   2.799397   2.159791   5.389425
    23  H    6.601209   1.085770   3.445743   2.154816   6.697147
    24  H    4.807244   3.448658   1.081373   3.819842   4.209024
    25  H    4.475871   2.799911   1.084625   3.291508   3.481039
    26  H    4.957981   2.149040   3.274758   1.086892   5.856232
    27  H    4.929927   2.175877   3.837191   1.084761   5.651531
    28  H    3.347051   6.479806   4.703417   6.211571   1.086347
    29  H    2.732294   4.952277   3.023108   4.702069   1.084174
    30  H    3.825627   4.886904   4.012859   4.794535   2.171828
    31  H    3.304442   6.159849   5.285320   5.686069   2.148179
                   11         12         13         14         15
    11  O    0.000000
    12  O    2.314998   0.000000
    13  C    3.781089   2.428765   0.000000
    14  H    4.663003   3.381956   2.750896   0.000000
    15  H    3.727287   2.744149   3.452085   1.748977   0.000000
    16  H    1.976917   2.045987   3.831077   3.528049   2.081366
    17  H    4.170585   2.000410   2.140135   2.321263   2.516696
    18  H    2.727720   4.260101   6.130043   7.222231   6.055356
    19  H    3.353904   4.294280   5.855920   7.532732   6.663523
    20  H    4.066873   4.488966   3.455059   3.566326   4.019265
    21  H    4.862897   4.394526   2.806491   2.398394   3.564632
    22  H    3.300223   2.780409   4.744319   6.136793   5.272864
    23  H    3.835745   3.984977   6.221148   7.199712   5.992463
    24  H    2.003407   3.836320   4.766856   6.321590   5.650315
    25  H    2.054925   2.639226   3.536721   5.495030   5.026204
    26  H    2.697701   3.285837   5.613879   5.776306   4.255359
    27  H    3.331359   2.564433   4.962256   5.122595   3.771225
    28  H    4.444796   4.140313   2.160419   3.996331   4.855101
    29  H    2.735671   2.993061   2.162877   3.958386   4.145737
    30  H    3.960307   2.555169   1.084971   3.752144   4.281924
    31  H    4.819813   3.316329   1.087711   2.608172   3.790339
                   16         17         18         19         20
    16  H    0.000000
    17  H    3.310955   0.000000
    18  H    4.017739   6.247849   0.000000
    19  H    4.845041   6.181126   1.752889   0.000000
    20  H    4.282622   4.830693   6.672396   7.037808   0.000000
    21  H    4.579298   3.972998   7.575914   7.779691   1.758760
    22  H    3.853092   4.339970   3.047317   2.458783   6.833011
    23  H    4.263570   5.638215   2.458919   2.548387   7.793681
    24  H    3.978114   5.693456   2.442292   2.520877   4.866107
    25  H    3.653690   4.376523   3.042068   2.444367   4.857005
    26  H    2.364900   4.919620   2.632360   3.789414   6.366533
    27  H    2.517441   3.762996   3.799641   4.303809   6.576148
    28  H    5.056578   4.253419   6.814667   6.533069   2.527836
    29  H    3.695560   3.886252   5.098559   4.989768   2.437612
    30  H    4.325288   2.540202   5.951234   5.378130   4.295117
    31  H    4.633606   2.339242   7.202393   6.909107   3.813327
                   21         22         23         24         25
    21  H    0.000000
    22  H    7.040175   0.000000
    23  H    8.202737   1.746014   0.000000
    24  H    5.961040   3.807796   4.287151   0.000000
    25  H    5.453849   2.665939   3.805564   1.753447   0.000000
    26  H    6.861414   3.047882   2.446468   4.043131   3.965517
    27  H    6.627920   2.478710   2.534388   4.841952   4.086785
    28  H    2.446056   6.177150   7.563231   4.796723   4.103149
    29  H    3.043732   4.831360   6.033389   3.148778   2.613961
    30  H    3.817946   4.275136   5.896965   4.622628   3.143741
    31  H    2.674454   5.661063   7.168844   5.836114   4.603392
                   26         27         28         29         30
    26  H    0.000000
    27  H    1.751047   0.000000
    28  H    6.880430   6.665785   0.000000
    29  H    5.287535   5.321826   1.748120   0.000000
    30  H    5.732583   4.998963   2.552815   2.466261   0.000000
    31  H    6.530714   5.738543   2.429039   3.045783   1.747697
                   31
    31  H    0.000000
 Stoichiometry    C10H18O3
 Framework group  C1[X(C10H18O3)]
 Deg. of freedom    87
 Full point group                 C1      NOp   1
 Largest Abelian subgroup         C1      NOp   1
 Largest concise Abelian subgroup C1      NOp   1
                         Standard orientation:                         
 ---------------------------------------------------------------------
 Center     Atomic      Atomic             Coordinates (Angstroms)
 Number     Number       Type             X           Y           Z
 ---------------------------------------------------------------------
      1          6           0       -1.992480   -1.330121   -0.424443
      2          6           0        0.854747   -0.661099   -0.513479
      3          6           0       -1.229084   -0.987686    0.846464
      4          6           0        3.180073    0.985849    0.024710
      5          6           0       -2.874158    0.843496   -0.681863
      6          8           0       -2.160551   -0.223369   -1.281346
      7          6           0        3.157821   -0.459116    0.522530
      8          6           0        1.761656    1.517381   -0.097357
      9          6           0        2.233942   -1.292174   -0.366511
     10          6           0       -2.152969    1.359544    0.554030
     11          8           0        0.960896    0.679718   -0.919328
     12          8           0        0.178743   -0.772938    0.704631
     13          6           0       -1.881159    0.213705    1.530608
     14          1           0       -2.967338   -1.701664   -0.118333
     15          1           0       -1.510323   -2.109533   -0.995641
     16          1           0        0.309382   -1.146976   -1.302629
     17          1           0       -1.309078   -1.848315    1.499359
     18          1           0        3.665485    1.033081   -0.947455
     19          1           0        3.741313    1.624753    0.700815
     20          1           0       -2.963674    1.611589   -1.437811
     21          1           0       -3.873440    0.497628   -0.425560
     22          1           0        2.811218   -0.486074    1.552252
     23          1           0        4.157636   -0.882423    0.513680
     24          1           0        1.742765    2.490572   -0.568431
     25          1           0        1.303703    1.607952    0.881667
     26          1           0        2.663411   -1.365482   -1.362260
     27          1           0        2.118297   -2.301592    0.013500
     28          1           0       -2.764572    2.120691    1.030210
     29          1           0       -1.224201    1.832530    0.255521
     30          1           0       -1.259627    0.542211    2.357012
     31          1           0       -2.823988   -0.124912    1.954314
 ---------------------------------------------------------------------
 Rotational constants (GHZ):           1.5695654           0.5298233           0.4962372
 Standard basis: 6-311++G(2d,2p) (5D, 7F)
 There are   557 symmetry adapted cartesian basis functions of A   symmetry.
 There are   531 symmetry adapted basis functions of A   symmetry.
   531 basis functions,   762 primitive gaussians,   557 cartesian basis functions
    51 alpha electrons       51 beta electrons
       nuclear repulsion energy       921.8598575712 Hartrees.
 NAtoms=   31 NActive=   31 NUniq=   31 SFac= 1.00D+00 NAtFMM=   60 NAOKFM=F Big=F
 Integral buffers will be    131072 words long.
 Raffenetti 2 integral format.
 Two-electron integral symmetry is turned on.
 ------------------------------------------------------------------------------
 Polarizable Continuum Model (PCM)
 =================================
 Model                : PCM.
 Atomic radii         : SMD-Coulomb.
 Polarization charges : Total charges.
 Charge compensation  : None.
 Solution method      : On-the-fly selection.
 Cavity type          : VdW (van der Waals Surface) (Alpha=1.000).
 Cavity algorithm     : GePol (No added spheres)
                        Default sphere list used, NSphG=   31.
                        Lebedev-Laikov grids with approx.  5.0 points / Ang**2.
                        Smoothing algorithm: York/Karplus (Gamma=1.0000).
                        Polarization charges: spherical gaussians, with
                                              point-specific exponents (IZeta= 3).
                        Self-potential: point-specific (ISelfS= 7).
                        Self-field    : sphere-specific E.n sum rule (ISelfD= 2).
 1st derivatives      : Analytical E(r).r(x)/FMM algorithm (CHGder, D1EAlg=3).
                        Cavity 1st derivative terms included.
 Solvent              : Water, Eps=  78.355300 Eps(inf)=   1.777849
 ------------------------------------------------------------------------------
 ------------------------------------------------------------------------------
 Atomic radii for non-electrostatic terms: SMD-CDS.
 ------------------------------------------------------------------------------
 Nuclear repulsion after PCM non-electrostatic terms =      921.8660426529 Hartrees.
 One-electron integrals computed using PRISM.
 NBasis=   531 RedAO= T EigKep=  4.02D-06  NBF=   531
 NBsUse=   531 1.00D-06 EigRej= -1.00D+00 NBFU=   531
 ExpMin= 3.60D-02 ExpMax= 8.59D+03 ExpMxC= 1.30D+03 IAcc=3 IRadAn=         5 AccDes= 0.00D+00
 Harris functional with IExCor= 1009 and IRadAn=       5 diagonalized for initial guess.
 HarFok:  IExCor= 1009 AccDes= 0.00D+00 IRadAn=         5 IDoV= 1 UseB2=F ITyADJ=14
 ICtDFT=  3500011 ScaDFX=  1.000000  1.000000  1.000000  1.000000
 FoFCou: FMM=F IPFlag=           0 FMFlag=      100000 FMFlg1=           0
         NFxFlg=           0 DoJE=T BraDBF=F KetDBF=T FulRan=T
         wScrn=  0.000000 ICntrl=       500 IOpCl=  0 I1Cent=   200000004 NGrid=           0
         NMat0=    1 NMatS0=      1 NMatT0=    0 NMatD0=    1 NMtDS0=    0 NMtDT0=    0
 Petite list used in FoFCou.
 Requested convergence on RMS density matrix=1.00D-08 within 128 cycles.
 Requested convergence on MAX density matrix=1.00D-06.
 Requested convergence on             energy=1.00D-06.
 No special actions if energy rises.
 Inv3:  Mode=1 IEnd=    12048048.
 Iteration    1 A*A^-1 deviation from unit magnitude is 5.77D-15 for    393.
 Iteration    1 A*A^-1 deviation from orthogonality  is 2.79D-15 for   1522    168.
 Iteration    1 A^-1*A deviation from unit magnitude is 6.00D-15 for    757.
 Iteration    1 A^-1*A deviation from orthogonality  is 1.93D-14 for   1935   1934.
 Error on total polarization charges =  0.05952
 SCF Done:  E(RM062X) =  -617.498984780     A.U. after   13 cycles
            NFock= 13  Conv=0.20D-08     -V/T= 2.0035
 SMD-CDS (non-electrostatic) energy       (kcal/mol) =       3.88
 (included in total energy above)

 **********************************************************************

            Population analysis using the SCF Density.

 **********************************************************************

 Orbital symmetries:
       Occupied  (A) (A) (A) (A) (A) (A) (A) (A) (A) (A) (A) (A)
                 (A) (A) (A) (A) (A) (A) (A) (A) (A) (A) (A) (A)
                 (A) (A) (A) (A) (A) (A) (A) (A) (A) (A) (A) (A)
                 (A) (A) (A) (A) (A) (A) (A) (A) (A) (A) (A) (A)
                 (A) (A) (A)
       Virtual   (A) (A) (A) (A) (A) (A) (A) (A) (A) (A) (A) (A)
                 (A) (A) (A) (A) (A) (A) (A) (A) (A) (A) (A) (A)
                 (A) (A) (A) (A) (A) (A) (A) (A) (A) (A) (A) (A)
                 (A) (A) (A) (A) (A) (A) (A) (A) (A) (A) (A) (A)
                 (A) (A) (A) (A) (A) (A) (A) (A) (A) (A) (A) (A)
                 (A) (A) (A) (A) (A) (A) (A) (A) (A) (A) (A) (A)
                 (A) (A) (A) (A) (A) (A) (A) (A) (A) (A) (A) (A)
                 (A) (A) (A) (A) (A) (A) (A) (A) (A) (A) (A) (A)
                 (A) (A) (A) (A) (A) (A) (A) (A) (A) (A) (A) (A)
                 (A) (A) (A) (A) (A) (A) (A) (A) (A) (A) (A) (A)
                 (A) (A) (A) (A) (A) (A) (A) (A) (A) (A) (A) (A)
                 (A) (A) (A) (A) (A) (A) (A) (A) (A) (A) (A) (A)
                 (A) (A) (A) (A) (A) (A) (A) (A) (A) (A) (A) (A)
                 (A) (A) (A) (A) (A) (A) (A) (A) (A) (A) (A) (A)
                 (A) (A) (A) (A) (A) (A) (A) (A) (A) (A) (A) (A)
                 (A) (A) (A) (A) (A) (A) (A) (A) (A) (A) (A) (A)
                 (A) (A) (A) (A) (A) (A) (A) (A) (A) (A) (A) (A)
                 (A) (A) (A) (A) (A) (A) (A) (A) (A) (A) (A) (A)
                 (A) (A) (A) (A) (A) (A) (A) (A) (A) (A) (A) (A)
                 (A) (A) (A) (A) (A) (A) (A) (A) (A) (A) (A) (A)
                 (A) (A) (A) (A) (A) (A) (A) (A) (A) (A) (A) (A)
                 (A) (A) (A) (A) (A) (A) (A) (A) (A) (A) (A) (A)
                 (A) (A) (A) (A) (A) (A) (A) (A) (A) (A) (A) (A)
                 (A) (A) (A) (A) (A) (A) (A) (A) (A) (A) (A) (A)
                 (A) (A) (A) (A) (A) (A) (A) (A) (A) (A) (A) (A)
                 (A) (A) (A) (A) (A) (A) (A) (A) (A) (A) (A) (A)
                 (A) (A) (A) (A) (A) (A) (A) (A) (A) (A) (A) (A)
                 (A) (A) (A) (A) (A) (A) (A) (A) (A) (A) (A) (A)
                 (A) (A) (A) (A) (A) (A) (A) (A) (A) (A) (A) (A)
                 (A) (A) (A) (A) (A) (A) (A) (A) (A) (A) (A) (A)
                 (A) (A) (A) (A) (A) (A) (A) (A) (A) (A) (A) (A)
                 (A) (A) (A) (A) (A) (A) (A) (A) (A) (A) (A) (A)
                 (A) (A) (A) (A) (A) (A) (A) (A) (A) (A) (A) (A)
                 (A) (A) (A) (A) (A) (A) (A) (A) (A) (A) (A) (A)
                 (A) (A) (A) (A) (A) (A) (A) (A) (A) (A) (A) (A)
                 (A) (A) (A) (A) (A) (A) (A) (A) (A) (A) (A) (A)
                 (A) (A) (A) (A) (A) (A) (A) (A) (A) (A) (A) (A)
                 (A) (A) (A) (A) (A) (A) (A) (A) (A) (A) (A) (A)
                 (A) (A) (A) (A) (A) (A) (A) (A) (A) (A) (A) (A)
                 (A) (A) (A) (A) (A) (A) (A) (A) (A) (A) (A) (A)
 The electronic state is 1-A.
 Alpha  occ. eigenvalues --  -19.62835 -19.62605 -19.62582 -10.62923 -10.58475
 Alpha  occ. eigenvalues --  -10.57607 -10.57155 -10.57013 -10.52364 -10.52228
 Alpha  occ. eigenvalues --  -10.52168 -10.52108 -10.52023  -1.19658  -1.16625
 Alpha  occ. eigenvalues --   -1.13138  -0.90386  -0.89080  -0.86742  -0.84600
 Alpha  occ. eigenvalues --   -0.74932  -0.73551  -0.72865  -0.70749  -0.65979
 Alpha  occ. eigenvalues --   -0.62034  -0.59251  -0.58336  -0.57425  -0.55027
 Alpha  occ. eigenvalues --   -0.54290  -0.52614  -0.51516  -0.50483  -0.49666
 Alpha  occ. eigenvalues --   -0.48342  -0.46048  -0.45622  -0.45166  -0.44957
 Alpha  occ. eigenvalues --   -0.42869  -0.42051  -0.41440  -0.39683  -0.39008
 Alpha  occ. eigenvalues --   -0.37712  -0.36885  -0.36278  -0.33345  -0.33030
 Alpha  occ. eigenvalues --   -0.31799
 Alpha virt. eigenvalues --    0.00270   0.01257   0.01434   0.01495   0.02742
 Alpha virt. eigenvalues --    0.03014   0.03231   0.03617   0.03785   0.05164
 Alpha virt. eigenvalues --    0.05256   0.05578   0.06037   0.06183   0.07821
 Alpha virt. eigenvalues --    0.07845   0.08226   0.08917   0.09224   0.09832
 Alpha virt. eigenvalues --    0.10453   0.11137   0.11816   0.12094   0.12582
 Alpha virt. eigenvalues --    0.12839   0.13349   0.13526   0.13625   0.14031
 Alpha virt. eigenvalues --    0.14179   0.14798   0.14936   0.15111   0.15293
 Alpha virt. eigenvalues --    0.15721   0.16012   0.16111   0.16375   0.16833
 Alpha virt. eigenvalues --    0.17012   0.17169   0.17890   0.18347   0.18521
 Alpha virt. eigenvalues --    0.18623   0.18861   0.19442   0.19641   0.19950
 Alpha virt. eigenvalues --    0.20234   0.20853   0.21133   0.21571   0.22746
 Alpha virt. eigenvalues --    0.22891   0.23022   0.23791   0.24574   0.24763
 Alpha virt. eigenvalues --    0.25017   0.25324   0.26848   0.27196   0.27448
 Alpha virt. eigenvalues --    0.27930   0.28510   0.28795   0.29617   0.30116
 Alpha virt. eigenvalues --    0.30357   0.30951   0.31146   0.31892   0.32409
 Alpha virt. eigenvalues --    0.32851   0.33934   0.34601   0.34779   0.35195
 Alpha virt. eigenvalues --    0.35688   0.35822   0.36708   0.36770   0.37137
 Alpha virt. eigenvalues --    0.37277   0.37563   0.38337   0.38607   0.38836
 Alpha virt. eigenvalues --    0.39158   0.39546   0.40249   0.41379   0.41758
 Alpha virt. eigenvalues --    0.42509   0.43583   0.43771   0.44534   0.45670
 Alpha virt. eigenvalues --    0.46475   0.49299   0.50085   0.50471   0.51256
 Alpha virt. eigenvalues --    0.52772   0.53726   0.55055   0.55435   0.57242
 Alpha virt. eigenvalues --    0.58101   0.58547   0.60027   0.60321   0.60587
 Alpha virt. eigenvalues --    0.60812   0.60988   0.61560   0.61896   0.62755
 Alpha virt. eigenvalues --    0.62843   0.63285   0.64375   0.64523   0.64943
 Alpha virt. eigenvalues --    0.65177   0.65840   0.66841   0.67321   0.67895
 Alpha virt. eigenvalues --    0.68066   0.70228   0.70464   0.70676   0.71497
 Alpha virt. eigenvalues --    0.71855   0.72815   0.72988   0.73585   0.74017
 Alpha virt. eigenvalues --    0.74109   0.74770   0.75738   0.76180   0.76437
 Alpha virt. eigenvalues --    0.76920   0.78243   0.78554   0.78885   0.80112
 Alpha virt. eigenvalues --    0.80638   0.82146   0.84019   0.86155   0.86634
 Alpha virt. eigenvalues --    0.87098   0.88278   0.88867   0.89352   0.89614
 Alpha virt. eigenvalues --    0.91983   0.93521   0.93995   0.97419   0.98423
 Alpha virt. eigenvalues --    0.98840   0.99848   1.00745   1.01637   1.02882
 Alpha virt. eigenvalues --    1.03347   1.04329   1.04678   1.05276   1.06350
 Alpha virt. eigenvalues --    1.07718   1.08803   1.10521   1.11748   1.13140
 Alpha virt. eigenvalues --    1.13998   1.14337   1.16074   1.16748   1.17646
 Alpha virt. eigenvalues --    1.18659   1.19388   1.19975   1.20454   1.21026
 Alpha virt. eigenvalues --    1.22229   1.22288   1.23654   1.24131   1.24964
 Alpha virt. eigenvalues --    1.25627   1.26283   1.26351   1.28229   1.29907
 Alpha virt. eigenvalues --    1.30054   1.31240   1.31878   1.32926   1.33260
 Alpha virt. eigenvalues --    1.33997   1.34536   1.35495   1.35880   1.36105
 Alpha virt. eigenvalues --    1.36819   1.37630   1.38105   1.38692   1.39912
 Alpha virt. eigenvalues --    1.40570   1.41086   1.41307   1.42193   1.43371
 Alpha virt. eigenvalues --    1.43767   1.44248   1.44698   1.44932   1.45969
 Alpha virt. eigenvalues --    1.46455   1.47487   1.48681   1.49223   1.49588
 Alpha virt. eigenvalues --    1.50599   1.51146   1.51937   1.52651   1.53313
 Alpha virt. eigenvalues --    1.54491   1.54761   1.55355   1.56174   1.56805
 Alpha virt. eigenvalues --    1.56994   1.58575   1.58993   1.59176   1.59926
 Alpha virt. eigenvalues --    1.60579   1.61112   1.61817   1.63199   1.63908
 Alpha virt. eigenvalues --    1.64353   1.66283   1.66790   1.67811   1.68202
 Alpha virt. eigenvalues --    1.68860   1.69865   1.70819   1.72526   1.72888
 Alpha virt. eigenvalues --    1.73841   1.75330   1.76496   1.77462   1.77715
 Alpha virt. eigenvalues --    1.80149   1.81272   1.82097   1.83358   1.85831
 Alpha virt. eigenvalues --    1.87361   1.89054   1.93196   1.95224   1.99729
 Alpha virt. eigenvalues --    2.00746   2.08966   2.14570   2.17113   2.20535
 Alpha virt. eigenvalues --    2.25231   2.28209   2.30934   2.34154   2.40757
 Alpha virt. eigenvalues --    2.42305   2.43277   2.45418   2.48934   2.53617
 Alpha virt. eigenvalues --    2.61282   2.77619   2.79140   2.82563   2.82798
 Alpha virt. eigenvalues --    2.85363   2.87178   2.93560   2.94171   2.95453
 Alpha virt. eigenvalues --    2.97308   2.97663   2.99208   3.02826   3.04799
 Alpha virt. eigenvalues --    3.07542   3.08987   3.10454   3.11026   3.13233
 Alpha virt. eigenvalues --    3.13850   3.17895   3.18072   3.19725   3.20948
 Alpha virt. eigenvalues --    3.24954   3.28918   3.31361   3.34176   3.35051
 Alpha virt. eigenvalues --    3.36665   3.37822   3.39186   3.39830   3.41402
 Alpha virt. eigenvalues --    3.43862   3.44486   3.45203   3.46323   3.47227
 Alpha virt. eigenvalues --    3.50266   3.50395   3.51921   3.52271   3.53393
 Alpha virt. eigenvalues --    3.54134   3.54781   3.55653   3.56938   3.57028
 Alpha virt. eigenvalues --    3.57715   3.58321   3.58573   3.59817   3.60288
 Alpha virt. eigenvalues --    3.61387   3.62396   3.62992   3.64575   3.66167
 Alpha virt. eigenvalues --    3.67239   3.68418   3.69331   3.69974   3.70559
 Alpha virt. eigenvalues --    3.71057   3.71590   3.72948   3.74112   3.74882
 Alpha virt. eigenvalues --    3.75789   3.76518   3.77050   3.78023   3.78626
 Alpha virt. eigenvalues --    3.80190   3.81656   3.83442   3.84050   3.85447
 Alpha virt. eigenvalues --    3.86162   3.89101   3.90406   3.91556   3.92865
 Alpha virt. eigenvalues --    3.94347   3.94448   3.95889   3.96764   3.97785
 Alpha virt. eigenvalues --    4.00231   4.00658   4.02591   4.03482   4.04536
 Alpha virt. eigenvalues --    4.06500   4.06926   4.07744   4.07814   4.08481
 Alpha virt. eigenvalues --    4.08950   4.09404   4.10598   4.11580   4.12232
 Alpha virt. eigenvalues --    4.13188   4.14745   4.15724   4.16606   4.17862
 Alpha virt. eigenvalues --    4.18048   4.19056   4.19726   4.21222   4.22071
 Alpha virt. eigenvalues --    4.22964   4.24736   4.25185   4.26862   4.28887
 Alpha virt. eigenvalues --    4.30186   4.31447   4.32181   4.32929   4.33722
 Alpha virt. eigenvalues --    4.33814   4.34344   4.35622   4.38186   4.39575
 Alpha virt. eigenvalues --    4.41857   4.43298   4.46222   4.47275   4.48620
 Alpha virt. eigenvalues --    4.58609   4.61035   4.74813   4.76471   4.82171
 Alpha virt. eigenvalues --    4.86655   4.94437   4.96385   5.02529   5.03763
 Alpha virt. eigenvalues --    5.07791   5.07937   5.08704   5.09400   5.12626
 Alpha virt. eigenvalues --    5.13232   5.14441   5.16345   5.34011   5.41919
 Alpha virt. eigenvalues --    5.44338   5.57893   5.62073   5.66467   5.86674
 Alpha virt. eigenvalues --    5.87860   6.03126   6.99159   7.06508   7.07527
 Alpha virt. eigenvalues --    7.10208   7.11436   7.12689   7.15079   7.19331
 Alpha virt. eigenvalues --    7.31077   7.37154   7.44054   7.46316   7.52131
 Alpha virt. eigenvalues --    7.53712   7.61670  23.97399  23.97846  24.07114
 Alpha virt. eigenvalues --   24.09477  24.11078  24.12654  24.15351  24.15991
 Alpha virt. eigenvalues --   24.16944  24.19880  50.17036  50.18981  50.27415
          Condensed to atoms (all electrons):
               1          2          3          4          5          6
     1  C    6.502943   0.205574  -1.308349   0.003846  -0.340138   0.116637
     2  C    0.205574   7.287633  -0.855879   0.354850  -0.020069  -0.023368
     3  C   -1.308349  -0.855879   8.188406  -0.057189   0.263250   0.020968
     4  C    0.003846   0.354850  -0.057189   6.038355   0.028478  -0.002340
     5  C   -0.340138  -0.020069   0.263250   0.028478   5.762012   0.030032
     6  O    0.116637  -0.023368   0.020968  -0.002340   0.030032   8.344637
     7  C    0.028480  -0.167422  -0.003561  -0.014723  -0.008122  -0.001219
     8  C   -0.006828  -0.428287   0.062676  -0.278659  -0.018125   0.003168
     9  C   -0.127092  -1.216759   0.213384  -0.246427  -0.037050   0.029784
    10  C    0.067835   0.006647   0.031541  -0.057514  -0.242883   0.064613
    11  O   -0.013636   0.206027   0.056246  -0.114290   0.017774   0.020042
    12  O    0.052440   0.249517  -0.078819  -0.005761  -0.016643  -0.009234
    13  C    0.598588   0.274967  -1.458108   0.060176   0.024215  -0.006464
    14  H    0.403339  -0.018184   0.084473   0.000514   0.012828  -0.047840
    15  H    0.443449   0.039801  -0.076427  -0.004485  -0.005055  -0.066733
    16  H   -0.069361   0.494130   0.062336   0.037537   0.013948  -0.005699
    17  H   -0.036680  -0.025836   0.473144  -0.003085  -0.013099   0.006307
    18  H   -0.000184  -0.007643  -0.001879   0.475356  -0.000809   0.000064
    19  H    0.000353   0.005703   0.000509   0.446721   0.000011  -0.000111
    20  H   -0.013756   0.000727   0.028211   0.000084   0.463338  -0.069368
    21  H   -0.050417  -0.005328   0.083124  -0.000117   0.463336  -0.061579
    22  H    0.001175  -0.039965  -0.006777  -0.071265   0.000256  -0.000223
    23  H   -0.003450   0.009358   0.007867  -0.015323   0.000051   0.000154
    24  H    0.001764   0.002629  -0.002860  -0.008008   0.004344  -0.000270
    25  H   -0.002960  -0.022250  -0.006310  -0.071115  -0.001128   0.000565
    26  H    0.003629  -0.171003   0.002186  -0.018203   0.001422  -0.000661
    27  H    0.001127  -0.022040   0.002741  -0.009584  -0.000148   0.000248
    28  H   -0.008898   0.003276   0.007272   0.001703  -0.025145   0.011594
    29  H    0.042340  -0.036062   0.015395  -0.040220  -0.152849  -0.015159
    30  H   -0.019498  -0.001176  -0.025517   0.007014   0.008122   0.001541
    31  H    0.006081   0.001429  -0.077473  -0.000824  -0.021836  -0.003088
               7          8          9         10         11         12
     1  C    0.028480  -0.006828  -0.127092   0.067835  -0.013636   0.052440
     2  C   -0.167422  -0.428287  -1.216759   0.006647   0.206027   0.249517
     3  C   -0.003561   0.062676   0.213384   0.031541   0.056246  -0.078819
     4  C   -0.014723  -0.278659  -0.246427  -0.057514  -0.114290  -0.005761
     5  C   -0.008122  -0.018125  -0.037050  -0.242883   0.017774  -0.016643
     6  O   -0.001219   0.003168   0.029784   0.064613   0.020042  -0.009234
     7  C    5.724752  -0.026254  -0.074219  -0.000748   0.007853   0.005278
     8  C   -0.026254   5.604803   0.253504   0.057975   0.121287  -0.006576
     9  C   -0.074219   0.253504   7.017567   0.041652  -0.050203  -0.067574
    10  C   -0.000748   0.057975   0.041652   5.836165  -0.034146  -0.047327
    11  O    0.007853   0.121287  -0.050203  -0.034146   8.259577  -0.038803
    12  O    0.005278  -0.006576  -0.067574  -0.047327  -0.038803   8.368135
    13  C    0.022432  -0.046495  -0.075838  -0.302972  -0.003791   0.051564
    14  H    0.000314   0.000036   0.002077   0.010787   0.000931  -0.002465
    15  H    0.001953   0.006639  -0.000608   0.014052  -0.000283  -0.008023
    16  H   -0.037459  -0.037951  -0.078673  -0.004314  -0.077810  -0.030431
    17  H    0.001624   0.001170   0.002752   0.001527   0.001500  -0.041280
    18  H   -0.010721  -0.078212  -0.012379   0.001158   0.004673   0.000156
    19  H   -0.052136  -0.037919  -0.002212  -0.000068   0.010786  -0.000151
    20  H   -0.000258  -0.001291  -0.002189  -0.062510  -0.001288  -0.001541
    21  H   -0.000344   0.001090  -0.000437  -0.005177   0.000736  -0.001401
    22  H    0.534663   0.003995  -0.047492  -0.001124   0.003927   0.001402
    23  H    0.413126   0.003954  -0.035258  -0.000027  -0.007206   0.000465
    24  H    0.007373   0.424475  -0.005766  -0.006588  -0.067913   0.000581
    25  H   -0.008793   0.478711   0.018746   0.013433  -0.024616   0.005593
    26  H    0.000072   0.011894   0.546991  -0.002138  -0.002133   0.011756
    27  H   -0.036852   0.009943   0.416823   0.001008   0.011311  -0.003984
    28  H    0.000105  -0.001044   0.002303   0.417127   0.001571   0.001300
    29  H    0.005229   0.029229   0.008594   0.585334  -0.008316   0.002219
    30  H   -0.003510  -0.005661   0.008585  -0.026471   0.004290  -0.007954
    31  H    0.001438   0.001083  -0.002671  -0.025662  -0.002570   0.005277
              13         14         15         16         17         18
     1  C    0.598588   0.403339   0.443449  -0.069361  -0.036680  -0.000184
     2  C    0.274967  -0.018184   0.039801   0.494130  -0.025836  -0.007643
     3  C   -1.458108   0.084473  -0.076427   0.062336   0.473144  -0.001879
     4  C    0.060176   0.000514  -0.004485   0.037537  -0.003085   0.475356
     5  C    0.024215   0.012828  -0.005055   0.013948  -0.013099  -0.000809
     6  O   -0.006464  -0.047840  -0.066733  -0.005699   0.006307   0.000064
     7  C    0.022432   0.000314   0.001953  -0.037459   0.001624  -0.010721
     8  C   -0.046495   0.000036   0.006639  -0.037951   0.001170  -0.078212
     9  C   -0.075838   0.002077  -0.000608  -0.078673   0.002752  -0.012379
    10  C   -0.302972   0.010787   0.014052  -0.004314   0.001527   0.001158
    11  O   -0.003791   0.000931  -0.000283  -0.077810   0.001500   0.004673
    12  O    0.051564  -0.002465  -0.008023  -0.030431  -0.041280   0.000156
    13  C    6.850806  -0.092293   0.015144  -0.024695  -0.047033   0.000112
    14  H   -0.092293   0.457994  -0.010541   0.003386  -0.001386  -0.000068
    15  H    0.015144  -0.010541   0.467929  -0.016348  -0.010841  -0.000118
    16  H   -0.024695   0.003386  -0.016348   0.462139   0.000307   0.000031
    17  H   -0.047033  -0.001386  -0.010841   0.000307   0.440243   0.000012
    18  H    0.000112  -0.000068  -0.000118   0.000031   0.000012   0.477996
    19  H    0.000440   0.000024   0.000057   0.000971   0.000014  -0.011699
    20  H    0.002205  -0.000350   0.001423   0.001435   0.000589  -0.000009
    21  H   -0.075441   0.002860  -0.002578   0.000243   0.003471  -0.000022
    22  H    0.006147  -0.000242   0.000326  -0.005180  -0.000135   0.001308
    23  H   -0.001531   0.000049  -0.000284   0.003426   0.000308   0.000068
    24  H    0.004600   0.000058  -0.000087  -0.000435  -0.000101  -0.006697
    25  H   -0.007327  -0.000014   0.000047  -0.000696  -0.000045   0.003701
    26  H    0.001226   0.000018   0.001358  -0.018302  -0.000356  -0.002266
    27  H   -0.002911   0.000392  -0.000814  -0.009987  -0.000106  -0.001659
    28  H   -0.027902  -0.000772   0.001076  -0.000383   0.000563   0.000070
    29  H   -0.100270  -0.001601   0.000056  -0.001249   0.003230   0.000772
    30  H    0.437688   0.000482   0.000142   0.000724  -0.011633   0.000009
    31  H    0.501346  -0.006818  -0.000257  -0.000384  -0.002915  -0.000004
              19         20         21         22         23         24
     1  C    0.000353  -0.013756  -0.050417   0.001175  -0.003450   0.001764
     2  C    0.005703   0.000727  -0.005328  -0.039965   0.009358   0.002629
     3  C    0.000509   0.028211   0.083124  -0.006777   0.007867  -0.002860
     4  C    0.446721   0.000084  -0.000117  -0.071265  -0.015323  -0.008008
     5  C    0.000011   0.463338   0.463336   0.000256   0.000051   0.004344
     6  O   -0.000111  -0.069368  -0.061579  -0.000223   0.000154  -0.000270
     7  C   -0.052136  -0.000258  -0.000344   0.534663   0.413126   0.007373
     8  C   -0.037919  -0.001291   0.001090   0.003995   0.003954   0.424475
     9  C   -0.002212  -0.002189  -0.000437  -0.047492  -0.035258  -0.005766
    10  C   -0.000068  -0.062510  -0.005177  -0.001124  -0.000027  -0.006588
    11  O    0.010786  -0.001288   0.000736   0.003927  -0.007206  -0.067913
    12  O   -0.000151  -0.001541  -0.001401   0.001402   0.000465   0.000581
    13  C    0.000440   0.002205  -0.075441   0.006147  -0.001531   0.004600
    14  H    0.000024  -0.000350   0.002860  -0.000242   0.000049   0.000058
    15  H    0.000057   0.001423  -0.002578   0.000326  -0.000284  -0.000087
    16  H    0.000971   0.001435   0.000243  -0.005180   0.003426  -0.000435
    17  H    0.000014   0.000589   0.003471  -0.000135   0.000308  -0.000101
    18  H   -0.011699  -0.000009  -0.000022   0.001308   0.000068  -0.006697
    19  H    0.479521  -0.000016   0.000033  -0.003429  -0.008843  -0.009879
    20  H   -0.000016   0.471754  -0.005637  -0.000016   0.000003  -0.000487
    21  H    0.000033  -0.005637   0.473111   0.000007  -0.000010   0.000091
    22  H   -0.003429  -0.000016   0.000007   0.452055  -0.005606  -0.001984
    23  H   -0.008843   0.000003  -0.000010  -0.005606   0.458565   0.001032
    24  H   -0.009879  -0.000487   0.000091  -0.001984   0.001032   0.463092
    25  H    0.000487   0.000848  -0.000357   0.000623  -0.002310  -0.015207
    26  H   -0.002448  -0.000096  -0.000038   0.001788  -0.001751   0.000716
    27  H    0.001480   0.000065   0.000045  -0.000996  -0.010581   0.001071
    28  H   -0.000190  -0.008348   0.003118  -0.000063   0.000052  -0.000096
    29  H    0.000275  -0.009475   0.001578  -0.000117  -0.000018  -0.004578
    30  H   -0.000029  -0.000226   0.000260  -0.000315   0.000362   0.000194
    31  H    0.000056  -0.001311  -0.005246   0.000199  -0.000049   0.000130
              25         26         27         28         29         30
     1  C   -0.002960   0.003629   0.001127  -0.008898   0.042340  -0.019498
     2  C   -0.022250  -0.171003  -0.022040   0.003276  -0.036062  -0.001176
     3  C   -0.006310   0.002186   0.002741   0.007272   0.015395  -0.025517
     4  C   -0.071115  -0.018203  -0.009584   0.001703  -0.040220   0.007014
     5  C   -0.001128   0.001422  -0.000148  -0.025145  -0.152849   0.008122
     6  O    0.000565  -0.000661   0.000248   0.011594  -0.015159   0.001541
     7  C   -0.008793   0.000072  -0.036852   0.000105   0.005229  -0.003510
     8  C    0.478711   0.011894   0.009943  -0.001044   0.029229  -0.005661
     9  C    0.018746   0.546991   0.416823   0.002303   0.008594   0.008585
    10  C    0.013433  -0.002138   0.001008   0.417127   0.585334  -0.026471
    11  O   -0.024616  -0.002133   0.011311   0.001571  -0.008316   0.004290
    12  O    0.005593   0.011756  -0.003984   0.001300   0.002219  -0.007954
    13  C   -0.007327   0.001226  -0.002911  -0.027902  -0.100270   0.437688
    14  H   -0.000014   0.000018   0.000392  -0.000772  -0.001601   0.000482
    15  H    0.000047   0.001358  -0.000814   0.001076   0.000056   0.000142
    16  H   -0.000696  -0.018302  -0.009987  -0.000383  -0.001249   0.000724
    17  H   -0.000045  -0.000356  -0.000106   0.000563   0.003230  -0.011633
    18  H    0.003701  -0.002266  -0.001659   0.000070   0.000772   0.000009
    19  H    0.000487  -0.002448   0.001480  -0.000190   0.000275  -0.000029
    20  H    0.000848  -0.000096   0.000065  -0.008348  -0.009475  -0.000226
    21  H   -0.000357  -0.000038   0.000045   0.003118   0.001578   0.000260
    22  H    0.000623   0.001788  -0.000996  -0.000063  -0.000117  -0.000315
    23  H   -0.002310  -0.001751  -0.010581   0.000052  -0.000018   0.000362
    24  H   -0.015207   0.000716   0.001071  -0.000096  -0.004578   0.000194
    25  H    0.497957   0.000245  -0.000763   0.001743  -0.003954  -0.007366
    26  H    0.000245   0.444425  -0.001500   0.000068  -0.000552   0.000076
    27  H   -0.000763  -0.001500   0.466521  -0.000140   0.000113  -0.000426
    28  H    0.001743   0.000068  -0.000140   0.453874  -0.021715  -0.005560
    29  H   -0.003954  -0.000552   0.000113  -0.021715   0.540868  -0.008181
    30  H   -0.007366   0.000076  -0.000426  -0.005560  -0.008181   0.468824
    31  H   -0.000028   0.000011   0.000075  -0.005020   0.005332  -0.001765
              31
     1  C    0.006081
     2  C    0.001429
     3  C   -0.077473
     4  C   -0.000824
     5  C   -0.021836
     6  O   -0.003088
     7  C    0.001438
     8  C    0.001083
     9  C   -0.002671
    10  C   -0.025662
    11  O   -0.002570
    12  O    0.005277
    13  C    0.501346
    14  H   -0.006818
    15  H   -0.000257
    16  H   -0.000384
    17  H   -0.002915
    18  H   -0.000004
    19  H    0.000056
    20  H   -0.001311
    21  H   -0.005246
    22  H    0.000199
    23  H   -0.000049
    24  H    0.000130
    25  H   -0.000028
    26  H    0.000011
    27  H    0.000075
    28  H   -0.005020
    29  H    0.005332
    30  H   -0.001765
    31  H    0.420840
 Mulliken charges:
               1
     1  C   -0.478354
     2  C   -0.080997
     3  C    0.355418
     4  C   -0.435501
     5  C   -0.190319
     6  O   -0.336999
     7  C   -0.308350
     8  C   -0.102330
     9  C   -0.479917
    10  C   -0.331182
    11  O   -0.281528
    12  O   -0.387719
    13  C   -0.578585
    14  H    0.202015
    15  H    0.210030
    16  H    0.338744
    17  H    0.257771
    18  H    0.168883
    19  H    0.181689
    20  H    0.207487
    21  H    0.181027
    22  H    0.177058
    23  H    0.193404
    24  H    0.218807
    25  H    0.152539
    26  H    0.193566
    27  H    0.189531
    28  H    0.198460
    29  H    0.163752
    30  H    0.186976
    31  H    0.214624
 Sum of Mulliken charges =  -0.00000
 Mulliken charges with hydrogens summed into heavy atoms:
               1
     1  C   -0.066309
     2  C    0.257748
     3  C    0.613189
     4  C   -0.084929
     5  C    0.198195
     6  O   -0.336999
     7  C    0.062112
     8  C    0.269016
     9  C   -0.096821
    10  C    0.031030
    11  O   -0.281528
    12  O   -0.387719
    13  C   -0.176985
 Electronic spatial extent (au):  <R**2>=           2558.2784
 Charge=              0.0000 electrons
 Dipole moment (field-independent basis, Debye):
    X=             -0.6620    Y=             -0.7644    Z=              2.3778  Tot=              2.5839
 Quadrupole moment (field-independent basis, Debye-Ang):
   XX=            -68.0952   YY=            -73.0335   ZZ=            -85.1147
   XY=              0.9926   XZ=             -4.8237   YZ=              2.3206
 Traceless Quadrupole moment (field-independent basis, Debye-Ang):
   XX=              7.3193   YY=              2.3809   ZZ=             -9.7002
   XY=              0.9926   XZ=             -4.8237   YZ=              2.3206
 Octapole moment (field-independent basis, Debye-Ang**2):
  XXX=            -10.6187  YYY=             -1.9625  ZZZ=              5.3438  XYY=             -5.6940
  XXY=              4.2516  XXZ=              8.3201  XZZ=              2.0548  YZZ=             -1.1322
  YYZ=             -4.3324  XYZ=              5.8732
 Hexadecapole moment (field-independent basis, Debye-Ang**3):
 XXXX=          -2238.0795 YYYY=           -614.3786 ZZZZ=           -449.7241 XXXY=             -4.6097
 XXXZ=            -16.7170 YYYX=             15.9941 YYYZ=             -4.7290 ZZZX=            -10.6741
 ZZZY=             -0.2488 XXYY=           -466.3356 XXZZ=           -476.6684 YYZZ=           -172.4780
 XXYZ=             -5.8804 YYXZ=              3.4970 ZZXY=             -3.1259
 N-N= 9.218660426529D+02 E-N=-3.286541940026D+03  KE= 6.153415897668D+02
 D1PCM: PCM CHGder 1st derivatives, ID1Alg=3 FixD1E=F DoIter=F DoCFld=F I1PDM=0.
 Calling FoFJK, ICntrl=      2127 FMM=F ISym2X=0 I1Cent= 0 IOpClX= 0 NMat=1 NMatS=1 NMatT=0.
 ***** Axes restored to original set *****
 -------------------------------------------------------------------
 Center     Atomic                   Forces (Hartrees/Bohr)
 Number     Number              X              Y              Z
 -------------------------------------------------------------------
      1        6           0.002084435    0.002907876    0.006602566
      2        6           0.004727480   -0.002184214    0.002928710
      3        6          -0.004297999    0.002746827   -0.004009466
      4        6          -0.002214833   -0.001418273    0.001797115
      5        6           0.002782244    0.000946155    0.006434247
      6        8           0.005958186    0.001192488   -0.011536187
      7        6          -0.002512933    0.001613735   -0.003110447
      8        6           0.005751242   -0.004034751    0.001460472
      9        6           0.000368886    0.001896706    0.002036209
     10        6          -0.001848105   -0.003804164    0.000356630
     11        8          -0.006595227    0.006132260   -0.011524685
     12        8           0.005624277    0.000631988    0.010423427
     13        6          -0.000392499    0.000428662   -0.004436915
     14        1          -0.004978109   -0.002100396    0.002594441
     15        1           0.003280057   -0.003698429   -0.002550690
     16        1          -0.004586788   -0.003517555   -0.006394929
     17        1          -0.001359202   -0.004185716    0.003202684
     18        1           0.000789544   -0.000212425   -0.003290934
     19        1           0.001309074    0.001558028    0.001793562
     20        1          -0.000188563    0.003324586   -0.003028150
     21        1          -0.004920489   -0.001747935    0.002360024
     22        1          -0.002019277    0.000198183    0.003198351
     23        1           0.002296460   -0.001017622   -0.000184857
     24        1          -0.000031095    0.004074735   -0.001857192
     25        1          -0.002426302    0.000034751    0.006234059
     26        1           0.001081865    0.000448914   -0.003160249
     27        1          -0.000702311   -0.002785937    0.001282557
     28        1          -0.001385060    0.001913899    0.001240784
     29        1           0.004953336    0.001300051   -0.001916059
     30        1           0.002550023    0.000667997    0.002224895
     31        1          -0.003098316   -0.001310424    0.000830027
 -------------------------------------------------------------------
 Cartesian Forces:  Max     0.011536187 RMS     0.003659427

 GradGradGradGradGradGradGradGradGradGradGradGradGradGradGradGradGradGrad
 Berny optimization.
 FormGI is forming the generalized inverse of G from B-inverse, IUseBI=4.
 Internal  Forces:  Max     0.017421481 RMS     0.002472596
 Search for a local minimum.
 Step number   1 out of a maximum of  186
 All quantities printed in internal units (Hartrees-Bohrs-Radians)
 Mixed Optimization -- RFO/linear search
 Second derivative matrix not updated -- first step.
 ITU=  0
     Eigenvalues ---    0.00592   0.00624   0.00717   0.00719   0.01410
     Eigenvalues ---    0.01426   0.01724   0.02701   0.02796   0.03053
     Eigenvalues ---    0.03081   0.04083   0.04208   0.04530   0.04748
     Eigenvalues ---    0.04788   0.04894   0.04986   0.05103   0.05138
     Eigenvalues ---    0.05297   0.05620   0.05693   0.06170   0.06183
     Eigenvalues ---    0.06236   0.06491   0.07029   0.07608   0.07838
     Eigenvalues ---    0.07944   0.07988   0.08040   0.08262   0.08294
     Eigenvalues ---    0.08837   0.09175   0.09573   0.10909   0.11600
     Eigenvalues ---    0.11731   0.11763   0.11799   0.12396   0.12610
     Eigenvalues ---    0.14657   0.14918   0.16032   0.16477   0.17928
     Eigenvalues ---    0.19076   0.21563   0.21960   0.25000   0.28514
     Eigenvalues ---    0.28586   0.28825   0.28843   0.28947   0.28955
     Eigenvalues ---    0.30218   0.30233   0.35037   0.35079   0.35087
     Eigenvalues ---    0.35133   0.35174   0.35182   0.35230   0.35238
     Eigenvalues ---    0.35306   0.35400   0.35425   0.35441   0.35495
     Eigenvalues ---    0.35609   0.35825   0.35829   0.36004   0.36569
     Eigenvalues ---    0.40824   0.40958   0.41368   0.42505   0.43297
     Eigenvalues ---    0.460211000.000001000.000001000.000001000.00000
     Eigenvalues --- 1000.000001000.000001000.000001000.000001000.00000
     Eigenvalues --- 1000.000001000.000001000.000001000.000001000.00000
     Eigenvalues --- 1000.000001000.000001000.000001000.000001000.00000
     Eigenvalues --- 1000.000001000.000001000.000001000.000001000.00000
     Eigenvalues --- 1000.000001000.000001000.000001000.000001000.00000
     Eigenvalues --- 1000.000001000.000001000.000001000.000001000.00000
     Eigenvalues --- 1000.000001000.000001000.000001000.000001000.00000
     Eigenvalues --- 1000.000001000.000001000.000001000.000001000.00000
     Eigenvalues --- 1000.000001000.000001000.000001000.000001000.00000
     Eigenvalues --- 1000.000001000.000001000.000001000.000001000.00000
     Eigenvalues --- 1000.000001000.000001000.000001000.000001000.00000
     Eigenvalues --- 1000.000001000.000001000.000001000.000001000.00000
     Eigenvalues --- 1000.000001000.000001000.000001000.000001000.00000
     Eigenvalues --- 1000.000001000.000001000.000001000.000001000.00000
     Eigenvalues --- 1000.000001000.000001000.000001000.000001000.00000
     Eigenvalues --- 1000.000001000.000001000.000001000.000001000.00000
     Eigenvalues --- 1000.000001000.000001000.000001000.000001000.00000
     Eigenvalues --- 1000.000001000.000001000.000001000.000001000.00000
     Eigenvalues --- 1000.000001000.000001000.000001000.000001000.00000
 RFO step:  Lambda=-5.86022783D-03 EMin= 5.91882209D-03
 Linear search not attempted -- first point.
 Iteration  1 RMS(Cart)=  0.14569821 RMS(Int)=  0.00374562
 Iteration  2 RMS(Cart)=  0.00918525 RMS(Int)=  0.00011065
 Iteration  3 RMS(Cart)=  0.00002844 RMS(Int)=  0.00010999
 Iteration  4 RMS(Cart)=  0.00000000 RMS(Int)=  0.00010999
 Iteration  1 RMS(Cart)=  0.00013429 RMS(Int)=  0.00002959
 Iteration  2 RMS(Cart)=  0.00007490 RMS(Int)=  0.00003304
 Iteration  3 RMS(Cart)=  0.00004177 RMS(Int)=  0.00003742
 Iteration  4 RMS(Cart)=  0.00002330 RMS(Int)=  0.00004037
 Iteration  5 RMS(Cart)=  0.00001299 RMS(Int)=  0.00004215
 Iteration  6 RMS(Cart)=  0.00000725 RMS(Int)=  0.00004318
 Iteration  7 RMS(Cart)=  0.00000404 RMS(Int)=  0.00004376
 Iteration  8 RMS(Cart)=  0.00000225 RMS(Int)=  0.00004408
 Iteration  9 RMS(Cart)=  0.00000126 RMS(Int)=  0.00004427
 Iteration 10 RMS(Cart)=  0.00000070 RMS(Int)=  0.00004437
 Variable       Old X    -DE/DX   Delta X   Delta X   Delta X     New X
                                 (Linear)    (Quad)   (Total)
    R1        2.87539  -0.00216   0.00000  -0.00698  -0.00685   2.86854
    R2        2.66407   0.00638   0.00000   0.01549   0.01553   2.67960
    R3        2.05459   0.00591   0.00000   0.01655   0.01655   2.07114
    R4        2.04075   0.00548   0.00000   0.01499   0.01499   2.05574
    R5        2.87961  -0.00102   0.00000  -0.00348  -0.00350   2.87611
    R6        2.65489   0.00779   0.00000   0.01716   0.01717   2.67207
    R7        2.64108   0.00540   0.00000   0.01159   0.01159   2.65267
    R8        2.03201   0.00861   0.00000   0.02317   0.02317   2.05518
    R9        2.70449   0.00090   0.00000   0.00217   0.00217   2.70666
   R10        2.88862  -0.00219   0.00000  -0.00821  -0.00811   2.88051
   R11        2.04698   0.00536   0.00000   0.01480   0.01480   2.06178
   R12        2.88840  -0.00066   0.00000  -0.00216  -0.00217   2.88623
   R13        2.87172  -0.00048   0.00000  -0.00142  -0.00140   2.87032
   R14        2.05534   0.00328   0.00000   0.00920   0.00920   2.06454
   R15        2.05303   0.00271   0.00000   0.00757   0.00757   2.06060
   R16        2.67703   0.00606   0.00000   0.01453   0.01443   2.69146
   R17        2.87453  -0.00071   0.00000  -0.00214  -0.00228   2.87225
   R18        2.04356   0.00450   0.00000   0.01235   0.01235   2.05591
   R19        2.05614   0.00563   0.00000   0.01580   0.01580   2.07194
   R20        2.88945  -0.00104   0.00000  -0.00384  -0.00385   2.88559
   R21        2.05380   0.00367   0.00000   0.01026   0.01026   2.06406
   R22        2.05181   0.00251   0.00000   0.00700   0.00700   2.05881
   R23        2.68483   0.00546   0.00000   0.01298   0.01300   2.69783
   R24        2.04350   0.00448   0.00000   0.01229   0.01229   2.05579
   R25        2.04964   0.00666   0.00000   0.01848   0.01848   2.06812
   R26        2.05393   0.00329   0.00000   0.00921   0.00921   2.06314
   R27        2.04990   0.00312   0.00000   0.00865   0.00865   2.05855
   R28        2.89105  -0.00100   0.00000  -0.00504  -0.00509   2.88597
   R29        2.05290   0.00266   0.00000   0.00744   0.00744   2.06034
   R30        2.04879   0.00534   0.00000   0.01479   0.01479   2.06359
   R31        2.05030   0.00336   0.00000   0.00932   0.00932   2.05962
   R32        2.05548   0.00342   0.00000   0.00958   0.00958   2.06506
    A1        1.97233  -0.00057   0.00000  -0.00540  -0.00522   1.96711
    A2        1.86669  -0.00102   0.00000   0.00046   0.00043   1.86712
    A3        1.96082  -0.00020   0.00000  -0.00990  -0.01008   1.95074
    A4        1.90977   0.00199   0.00000   0.01807   0.01802   1.92779
    A5        1.87374  -0.00063   0.00000  -0.00765  -0.00788   1.86586
    A6        1.87822   0.00057   0.00000   0.00601   0.00604   1.88426
    A7        1.93341   0.00280   0.00000   0.01125   0.01106   1.94448
    A8        1.89714  -0.00143   0.00000  -0.00747  -0.00740   1.88974
    A9        1.92058   0.00052   0.00000   0.01080   0.01082   1.93139
   A10        1.94410  -0.00107   0.00000  -0.01280  -0.01270   1.93140
   A11        1.83129  -0.00191   0.00000  -0.01017  -0.01021   1.82107
   A12        1.93710   0.00118   0.00000   0.00903   0.00898   1.94608
   A13        2.03144  -0.00310   0.00000  -0.03089  -0.03132   2.00012
   A14        1.91419   0.00263   0.00000   0.00330   0.00259   1.91678
   A15        1.86250  -0.00040   0.00000   0.01214   0.01222   1.87471
   A16        1.92416  -0.00142   0.00000  -0.02320  -0.02376   1.90040
   A17        1.82513   0.00292   0.00000   0.03585   0.03626   1.86138
   A18        1.89988  -0.00053   0.00000   0.00804   0.00822   1.90810
   A19        1.92116  -0.00024   0.00000  -0.00190  -0.00207   1.91908
   A20        1.91630   0.00065   0.00000   0.00116   0.00123   1.91753
   A21        1.93990  -0.00053   0.00000  -0.00111  -0.00109   1.93881
   A22        1.90666  -0.00011   0.00000  -0.00220  -0.00215   1.90450
   A23        1.90337   0.00003   0.00000  -0.00040  -0.00035   1.90302
   A24        1.87565   0.00022   0.00000   0.00455   0.00453   1.88018
   A25        1.93959   0.00020   0.00000   0.00526   0.00512   1.94471
   A26        1.85541  -0.00085   0.00000  -0.00317  -0.00311   1.85230
   A27        1.89962   0.00130   0.00000   0.00531   0.00536   1.90498
   A28        1.94576  -0.00027   0.00000  -0.00297  -0.00293   1.94284
   A29        1.93037  -0.00084   0.00000  -0.00747  -0.00746   1.92291
   A30        1.89064   0.00052   0.00000   0.00344   0.00341   1.89405
   A31        1.97585  -0.00370   0.00000  -0.02302  -0.02298   1.95287
   A32        1.91185   0.00267   0.00000   0.00136   0.00135   1.91320
   A33        1.91418  -0.00124   0.00000  -0.00273  -0.00278   1.91140
   A34        1.93104  -0.00039   0.00000   0.00089   0.00094   1.93198
   A35        1.92270  -0.00091   0.00000  -0.00384  -0.00383   1.91886
   A36        1.91691  -0.00093   0.00000  -0.00032  -0.00032   1.91658
   A37        1.86682   0.00072   0.00000   0.00463   0.00463   1.87145
   A38        1.94585   0.00139   0.00000   0.00305   0.00303   1.94888
   A39        1.94559  -0.00004   0.00000  -0.00142  -0.00136   1.94423
   A40        1.92922  -0.00109   0.00000  -0.00385  -0.00390   1.92532
   A41        1.84287  -0.00096   0.00000  -0.00117  -0.00119   1.84168
   A42        1.91079   0.00030   0.00000   0.00166   0.00171   1.91249
   A43        1.88671   0.00040   0.00000   0.00191   0.00190   1.88861
   A44        1.95770  -0.00165   0.00000  -0.01479  -0.01490   1.94280
   A45        1.87256  -0.00005   0.00000   0.00289   0.00290   1.87546
   A46        1.89935   0.00068   0.00000  -0.00169  -0.00168   1.89767
   A47        1.90782   0.00130   0.00000   0.00825   0.00831   1.91613
   A48        1.94734  -0.00022   0.00000  -0.00048  -0.00058   1.94676
   A49        1.87581   0.00001   0.00000   0.00686   0.00683   1.88264
   A50        1.92707   0.00076   0.00000  -0.00484  -0.00497   1.92210
   A51        1.90383   0.00044   0.00000   0.00241   0.00244   1.90627
   A52        1.90758  -0.00098   0.00000  -0.00193  -0.00190   1.90568
   A53        1.92302  -0.00100   0.00000   0.00023   0.00028   1.92331
   A54        1.92869   0.00035   0.00000  -0.00103  -0.00102   1.92767
   A55        1.87267   0.00041   0.00000   0.00547   0.00545   1.87812
   A56        2.02433  -0.00582   0.00000  -0.03432  -0.03422   1.99011
   A57        2.18241  -0.01742   0.00000  -0.06809  -0.06809   2.11432
   A58        1.95924  -0.00021   0.00000  -0.01669  -0.01665   1.94259
   A59        1.91187   0.00001   0.00000  -0.00808  -0.00832   1.90354
   A60        1.87490  -0.00039   0.00000   0.00894   0.00900   1.88389
   A61        1.94037  -0.00047   0.00000  -0.00420  -0.00450   1.93587
   A62        1.90479   0.00083   0.00000   0.01394   0.01397   1.91876
[...]
 023600,0.00167957,0.00253129,-0.00014323,-0.00011489,0.00011936,-0.000
 00103,0.00000915,0.00001784,-0.00001035,0.00002687,0.00001238,-0.00007
 959,-0.00037079,0.00017568,-0.00005908,0.00000653,-0.00000011,-0.00096
 442,0.00075151,0.00120715,0.00086056,-0.00015259,0.00032178,0.00000079
 ,-0.00000110,0.00000361,0.00002124,0.00004395,0.00007005,0.00018961,-0
 .00052734,-0.00008634,0.00004909,-0.00007466,0.00008180,0.00673552,0.0
 0085960,-0.01065401,-0.10706590,0.00999705,0.28096278,-0.00006535,-0.0
 0010301,0.00026630,-0.00969251,-0.00075745,0.02805621,0.00144683,0.001
 50333,0.00079099,0.00053196,0.00089808,0.00007188,0.00007481,-0.000039
 36,0.00000119,-0.00006838,0.00010664,-0.00012629,0.00751179,-0.0015073
 3,-0.01975522,-0.00029530,-0.00009033,-0.00009386,-0.09083260,0.006477
 92,0.09603929,-0.00001661,-0.00002139,0.00006422,0.00141669,-0.0007061
 7,-0.00084515,-0.00980553,0.00122218,0.00208424,-0.00073900,-0.0003231
 4,0.00007965,-0.00008499,-0.00000407,-0.00011007,0.00001088,0.00000610
 ,-0.00004196,0.00098723,-0.00064019,-0.00011548,-0.00025036,-0.0000907
 3,0.00009476,-0.00011454,0.00012532,0.00035812,-0.00012792,0.00021669,
 0.00008004,-0.00001291,0.00001036,-0.00001485,-0.00001341,-0.00000162,
 0.00000588,-0.00156007,-0.00310975,-0.00251514,0.00101309,0.00079364,0
 .00053792,0.00006811,0.00002164,0.00000646,0.00000651,-0.00003282,0.00
 000106,0.10175013,0.00001535,0.00002106,-0.00007438,0.00393955,-0.0026
 5094,-0.01118216,-0.00026174,-0.00008800,-0.00033523,0.00074136,0.0008
 6814,-0.00061519,-0.00001804,0.00001059,0.00000056,0.00000830,-0.00002
 543,0.00003232,0.00755313,-0.00174135,-0.01767111,-0.00000261,-0.00001
 370,-0.00007618,0.00410026,-0.05004661,-0.00654643,0.00000460,-0.00000
 906,-0.00001322,0.00013820,0.00042771,0.00011449,0.00252018,0.00092427
 ,-0.00019326,0.00010083,0.00005864,-0.00000434,0.00002338,-0.00000316,
 0.00002855,-0.00000644,0.00000500,0.00001028,-0.00039961,0.00031978,0.
 00030526,0.00010652,0.00001104,-0.00002270,-0.00015235,-0.00001610,0.0
 0019435,-0.00012065,0.00014495,0.00013499,0.00000293,-0.00000260,0.000
 00267,0.00000331,0.00000057,-0.00000124,-0.00211598,-0.00154003,-0.002
 34257,0.00020696,0.00071012,0.00082526,0.00003703,-0.00002667,0.000003
 30,-0.00003195,0.00002598,0.00002501,-0.00394258,0.04992874,0.00004214
 ,0.00001301,-0.00003982,-0.00225527,0.00121872,0.00102043,-0.00039261,
 -0.00017231,0.00025492,0.00040099,0.00088148,0.00081348,-0.00000709,0.
 00001101,0.00000104,0.00002570,-0.00001845,0.00000626,0.00667222,-0.00
 130379,-0.01958861,-0.00022258,-0.00020809,-0.00004571,0.10001525,-0.0
 0874794,-0.26729212,0.00000250,0.00000765,-0.00000724,-0.00042706,-0.0
 0022898,0.00068653,-0.00026465,0.00047649,0.00119590,0.00002519,0.0000
 3704,0.00000039,0.00001292,-0.00000249,0.00001723,-0.00000868,-0.00001
 264,-0.00001035,0.00037315,-0.00020549,0.00073030,0.00000779,0.0000148
 3,-0.00001084,0.00010131,-0.00049772,0.00036461,-0.00024969,0.00001809
 ,0.00023670,0.00000187,-0.00000195,0.00000245,0.00000306,-0.00000133,-
 0.00000075,-0.00266491,-0.00263917,-0.00119192,-0.00000139,0.00048479,
 0.00084144,0.00008154,-0.00002972,0.00001590,-0.00002289,0.00002034,-0
 .00002321,-0.10521949,0.01123821,0.29139531,-0.00001597,-0.00001061,-0
 .00002655,0.00384131,0.02671400,-0.00926939,0.00020719,-0.00038378,-0.
 00002081,-0.00195925,-0.00202419,-0.00353178,0.00001504,-0.00000512,-0
 .00000105,-0.00003467,-0.00002777,-0.00000915,-0.00084564,-0.01752399,
 0.00859242,-0.00135652,-0.00111594,-0.00108479,-0.04987175,-0.01733796
 ,0.00758505,0.00000466,0.00003032,0.00001503,-0.00584101,0.00743209,-0
 .00141259,0.00129237,0.00034503,-0.00090920,0.00007738,0.00000738,-0.0
 0002785,-0.00000701,0.00000793,0.00000782,-0.00001795,0.00000730,0.000
 01207,0.00090741,-0.00096869,0.00000875,-0.00006115,-0.00003885,0.0000
 1845,-0.00003896,0.00033480,-0.00011720,0.00030161,-0.00144781,0.00021
 292,0.00000247,0.00000116,-0.00000054,-0.00000335,0.00000004,-0.000001
 81,0.00070858,0.00072771,-0.00000006,0.00044218,0.00060740,0.00072715,
 0.00028524,0.00012694,0.00017492,0.00012194,0.00009463,0.00016272,-0.0
 0099563,-0.01247095,0.00398938,0.05284413,-0.00002209,-0.00000915,0.00
 002126,-0.00316322,-0.01180033,0.00433982,0.00013133,0.00028037,-0.000
 11517,-0.00261380,-0.00035395,-0.00347909,-0.00000928,0.00001386,0.000
 00254,0.00006257,0.00001595,-0.00000219,-0.00044893,-0.01561280,0.0064
 3256,-0.00015957,0.00109409,0.00058714,-0.01353200,-0.28178106,0.08980
 318,0.00000037,-0.00004269,-0.00000870,0.00305487,-0.00162091,0.000741
 33,-0.00100274,0.00147951,-0.00002311,-0.00006929,-0.00001455,0.000033
 70,0.00000766,-0.00001336,-0.00000799,0.00002076,-0.00001918,-0.000015
 40,0.00043354,0.00031392,-0.00011702,0.00005608,-0.00003122,-0.0000019
 3,-0.00004374,0.00008401,0.00012520,0.00020564,-0.00111939,0.00049579,
 -0.00000057,-0.00000229,0.00000010,0.00000582,-0.00000206,0.00000007,0
 .00046138,0.00063937,-0.00001077,-0.00013250,0.00067472,0.00008988,0.0
 0004341,-0.00007280,0.00001006,0.00002762,-0.00006815,-0.00011310,-0.0
 0028359,0.00276716,-0.00033039,0.01696406,0.30517501,-0.00000253,0.000
 00293,-0.00001688,0.00274136,0.00169340,-0.00344940,-0.00013730,-0.000
 09531,0.00008130,-0.00272413,-0.00187558,-0.00236625,0.00000487,-0.000
 00280,0.00000081,-0.00002328,-0.00001178,-0.00000472,-0.00029094,-0.02
 047432,0.00783140,-0.00053491,-0.00015568,-0.00042541,0.00507042,0.092
 72231,-0.08311545,-0.00000169,0.00002591,0.00000878,-0.00135511,0.0013
 6492,0.00101929,0.00071463,-0.00106823,0.00052554,0.00001923,0.0000142
 5,-0.00000886,-0.00000296,0.00000245,0.00000189,-0.00001413,0.00000663
 ,0.00000382,0.00008810,-0.00016556,0.00004568,-0.00001013,0.00003128,-
 0.00000299,-0.00004802,-0.00019479,0.00023215,-0.00008485,-0.00113021,
 0.00041634,0.00000079,0.00000021,-0.00000101,-0.00000170,0.00000053,0.
 00000021,0.00082798,0.00060528,0.00089514,0.00045173,0.00086523,0.0006
 2041,0.00010837,0.00007519,0.00008613,0.00007275,0.00005191,0.00006553
 ,0.00024402,0.02617062,-0.00936425,-0.00509164,-0.09844759,0.08691489,
 -0.00028658,0.00050408,-0.00048825,0.00004192,-0.00032655,-0.00000445,
 0.00074022,0.00015843,-0.00077277,-0.00001737,-0.00000472,0.00005095,0
 .00845887,-0.01210592,-0.00501496,0.00005827,-0.00284793,-0.00428249,-
 0.00000480,-0.00000152,0.00001570,0.00016174,0.00017613,0.00000780,0.0
 0001427,0.00002885,-0.00001595,-0.12226113,0.10438898,0.06076684,-0.00
 084598,0.00029825,0.00035374,0.00045392,-0.00002164,-0.00019409,-0.001
 88070,0.00072663,0.00136796,0.00000793,-0.00005785,0.00005602,0.000017
 46,-0.00009814,0.00014350,-0.00000845,0.00001980,0.00000966,-0.0000797
 3,0.00027376,0.00026042,-0.00002902,0.00001197,-0.00000201,-0.00001162
 ,-0.00000006,-0.00000838,0.00041432,0.00049402,0.00044999,0.00048359,0
 .00022186,0.00099462,0.00000204,-0.00000026,-0.00000188,-0.00000724,0.
 00000578,-0.00000581,0.00000674,-0.00002773,-0.00000595,-0.00001595,-0
 .00002754,0.00010146,-0.00000646,0.00000275,0.00000013,-0.00001419,0.0
 0001400,-0.00000685,0.12757577,0.00028103,0.00101207,0.00022031,-0.000
 23121,-0.00039582,0.00057765,-0.00141914,-0.00227708,0.00526974,-0.000
 00683,-0.00000065,0.00001764,0.00565602,-0.00782764,-0.00259878,-0.001
 00379,-0.00052868,-0.00235744,0.00000581,-0.00001795,-0.00000690,0.000
 01907,0.00001247,-0.00000802,0.00003073,0.00005121,-0.00009462,0.10187
 890,-0.19092011,-0.08593744,-0.00029988,0.00035211,0.00006514,0.000820
 30,0.00049315,-0.00061697,0.01231790,-0.01940464,-0.01087644,-0.000063
 77,-0.00004788,0.00002785,0.00001191,0.00000165,-0.00009851,-0.0000118
 5,0.00002006,-0.00003755,0.00057707,-0.00128362,-0.00079276,-0.0000040
 8,0.00000202,-0.00000323,0.00000282,0.00000446,-0.00000087,-0.00017807
 ,0.00019692,-0.00024824,-0.00015781,0.00033694,0.00039648,0.00000083,0
 .00000116,-0.00000194,0.00000974,0.00000684,0.00000472,0.00000984,0.00
 000472,0.00000008,0.00003206,-0.00000994,0.00000605,0.00004681,-0.0000
 0947,-0.00000370,-0.00000405,0.00000326,-0.00000282,-0.11276500,0.2085
 6386,-0.00031282,0.00143634,-0.00145013,0.00004398,0.00018120,-0.00034
 524,0.00035262,0.00343124,-0.00342277,0.00000432,0.00000380,-0.0000120
 2,0.01724457,-0.01753321,-0.00813890,-0.00263621,-0.00563141,-0.006212
 90,0.00000356,0.00000268,-0.00000158,-0.00002905,-0.00004619,0.0000093
 3,-0.00001787,-0.00001573,0.00006943,0.05931851,-0.08666919,-0.0967858
 0,0.00018551,-0.00017011,0.00001645,-0.00025016,-0.00032804,0.00032346
 ,-0.01223902,0.01811496,0.01070616,0.00002753,-0.00018380,0.00015914,0
 .00007703,-0.00022345,0.00027769,-0.00001927,0.00000349,0.00003904,-0.
 00035701,0.00127200,0.00054939,0.00000473,-0.00000234,0.00000084,0.000
 00211,-0.00000099,0.00000216,0.00035928,0.00091457,0.00057195,-0.00021
 567,0.00023183,0.00109671,-0.00000021,0.00000002,0.00000217,-0.0000008
 6,-0.00000164,0.00000034,-0.00000525,0.00000491,0.00000252,0.00001266,
 0.00000651,-0.00002459,-0.00002271,0.00000586,0.00000033,0.00000578,-0
 .00000299,0.00000143,-0.06513461,0.09231428,0.10483001,0.00002410,0.00
 019556,-0.00025881,0.00000557,-0.00038643,0.00009097,-0.00025554,-0.00
 026446,0.00034272,-0.00014161,0.00001925,-0.00003388,-0.01679019,-0.00
 486407,0.00351757,0.00172439,-0.00009394,0.00042737,0.00004483,0.00001
 674,-0.00000666,-0.00177877,0.00094685,0.00077768,0.00001262,0.0000049
 4,-0.00001312,-0.26184951,-0.08739223,0.06221048,-0.00215607,0.0005218
 9,0.00088229,0.00014917,0.00028893,-0.00042359,0.00532947,0.00112683,-
 0.00088062,-0.00009809,0.00003230,0.00004545,0.00000014,-0.00004693,0.
 00000820,-0.00000723,-0.00000437,0.00000614,0.00002214,-0.00015797,-0.
 00006712,0.00001637,-0.00001743,-0.00002072,0.00001634,0.00001077,0.00
 000002,0.00071605,0.00038835,0.00015103,-0.00026538,-0.00096963,-0.002
 97553,-0.00000024,-0.00000199,0.00000552,0.00000154,-0.00002274,0.0000
 0858,0.00019622,-0.00022960,-0.00001392,-0.00148451,0.00020924,-0.0004
 2062,0.00000159,-0.00000263,-0.00000328,0.00000259,0.00000304,-0.00001
 328,-0.01348078,-0.00514923,0.00339663,0.28856442,0.00014839,-0.000250
 97,0.00021284,0.00008955,-0.00036225,0.00007917,-0.00110269,0.00061427
 ,-0.00019665,-0.00006678,0.00000396,0.00014808,-0.00893956,-0.00451668
 ,0.00161110,0.00009288,0.00077801,0.00086318,-0.00000873,-0.00000403,0
 .00001334,0.00015878,0.00031767,-0.00022811,0.00001253,0.00004383,-0.0
 0004877,-0.08463201,-0.08408415,0.02480536,-0.00052456,0.00032804,-0.0
 0010781,0.00056252,0.00020767,-0.00030119,-0.02287214,-0.00913901,0.00
 702589,0.00002401,0.00004166,0.00001915,-0.00003176,-0.00001304,-0.000
 07959,0.00000682,0.00001874,0.00000990,0.00018772,0.00005606,-0.000031
 39,-0.00005692,0.00002339,0.00000167,-0.00000616,-0.00000248,-0.000008
 78,0.00067344,0.00038104,-0.00018062,-0.00104597,0.00050046,-0.0014091
 9,0.00000294,-0.00000180,-0.00000313,-0.00000766,0.00000860,-0.0000076
 7,0.00006488,-0.00011349,0.00000620,0.00006471,0.00003159,0.00019241,0
 .00000563,-0.00000154,-0.00000026,-0.00002040,0.00001675,-0.00000324,0
 .02106601,0.00968347,-0.00514827,0.09504654,0.08761510,-0.00005262,0.0
 0023790,-0.00019342,-0.00007206,0.00036770,-0.00025565,0.00041946,-0.0
 0068095,0.00011827,0.00002125,0.00001554,-0.00008851,-0.02876858,-0.01
 066195,0.00613126,0.00122796,0.00179378,0.00178262,-0.00000563,0.00000
 630,-0.00000290,-0.00013607,-0.00022318,0.00019853,-0.00001700,-0.0000
 1647,0.00005593,0.06464969,0.02537877,-0.06518072,0.00158082,-0.000754
 67,-0.00080794,-0.00070257,-0.00022293,0.00047110,0.02005924,0.0080285
 1,-0.00750283,-0.00007261,0.00005160,-0.00000913,0.00004107,-0.0000169
 1,0.00008644,0.00000232,-0.00001898,0.00000162,-0.00015431,-0.00005020
 ,-0.00000190,0.00003064,-0.00001130,0.00000743,0.00000152,-0.00000167,
 0.00000712,0.00078468,0.00047788,0.00147055,-0.00289546,-0.00262257,-0
 .00426704,-0.00000154,-0.00000022,-0.00000261,0.00000267,-0.00000298,0
 .00000182,-0.00003735,0.00008457,-0.00003242,-0.00038875,0.00011240,-0
 .00014926,-0.00001675,0.00000471,0.00000250,0.00000328,-0.00000966,0.0
 0000848,0.01174240,0.00537285,-0.00392936,-0.06636459,-0.02975451,0.07
 323958,-0.00117736,0.00223214,0.00097576,0.00010716,-0.00006444,0.0001
 0574,0.00550884,0.00481003,0.01262829,-0.00000145,-0.00000345,-0.00001
 938,0.00096578,0.00124189,-0.00016896,-0.00003279,-0.00051660,-0.00028
 957,0.00000541,-0.00000717,0.00000301,-0.00001881,-0.00004570,0.000068
 16,0.00000890,0.00002959,-0.00007033,-0.00163989,-0.00092662,-0.000426
 58,0.00006002,0.00008459,-0.00008822,0.00191961,-0.00000180,0.00051122
 ,-0.13554240,-0.04133817,-0.12173517,0.00018054,0.00006150,0.00003756,
 0.00038275,0.00021678,0.00061476,0.00004450,0.00003019,0.00000431,0.00
 032038,-0.00082159,-0.00049434,0.00000623,-0.00000310,-0.00000132,0.00
 000063,0.00000288,0.00000173,0.00005810,-0.00021730,-0.00039688,0.0002
 2147,0.00009747,0.00031331,0.00000542,-0.00000263,-0.00001172,0.000004
 83,0.00000102,0.00000244,-0.00000589,0.00000648,0.00000235,0.00008700,
 0.00001674,-0.00012121,0.00003009,-0.00000406,-0.00000977,-0.00000092,
 0.00000003,-0.00000169,-0.00012918,0.00004450,-0.00003187,0.00048072,0
 .00041066,0.00006332,0.14335103,0.00399548,-0.00526298,-0.00104540,-0.
 00003492,0.00028060,0.00006749,-0.01677801,-0.00796926,-0.02199087,-0.
 00000325,0.00000214,-0.00000557,0.00043099,-0.00587750,0.00258392,-0.0
 0067310,0.00156306,-0.00028650,0.00000624,-0.00000537,-0.00000183,0.00
 001144,0.00001798,0.00000929,-0.00001577,0.00000829,0.00003015,0.01604
 515,0.00824022,0.02120030,-0.00000041,0.00004834,0.00000459,-0.0014156
 9,0.00126684,0.00164551,-0.03916130,-0.06578128,-0.05413355,0.00026140
 ,0.00013822,0.00026949,-0.00069478,-0.00004087,-0.00176982,-0.00009187
 ,-0.00001194,0.00010848,-0.00037961,0.00100016,0.00077855,0.00000142,-
 0.00000272,-0.00000093,-0.00000031,0.00000080,0.00000108,0.00063229,0.
 00056176,0.00158358,0.00001303,-0.00001245,-0.00008626,0.00000294,-0.0
 0000085,-0.00000389,0.00000262,0.00000195,0.00000078,0.00000208,-0.000
 00038,-0.00000385,0.00003184,-0.00000751,-0.00004298,-0.00001092,-0.00
 000377,-0.00000445,0.00000134,-0.00000537,-0.00000073,0.00001341,0.000
 90299,-0.00106436,-0.00046991,0.00115752,-0.00089257,0.04209269,0.0725
 4404,0.00267281,-0.00275625,0.00067500,-0.00003317,0.00023652,0.000027
 55,-0.00800959,-0.00543854,-0.01349363,-0.00000103,0.00000363,-0.00000
 055,0.00042257,0.00516335,-0.00060517,0.00001807,-0.00011981,0.0003531
 2,0.00000644,-0.00000471,-0.00000589,0.00001356,-0.00004417,-0.0000311
 2,-0.00001774,0.00001838,0.00002459,-0.01134466,-0.00536517,-0.0159668
 3,0.00009297,0.00002179,0.00000032,-0.00084024,0.00090103,0.00116111,-
 0.11865830,-0.05353417,-0.20947278,-0.00022225,0.00004360,0.00018243,-
 0.00057359,-0.00003472,-0.00078999,-0.00006266,0.00000845,0.00011190,0
 .00038546,0.00003445,0.00059231,0.00000017,-0.00000191,0.00000094,0.00
 000497,0.00000240,0.00000133,-0.00058007,-0.00059736,-0.00111294,-0.00
 014516,-0.00010648,0.00004367,0.00000917,-0.00000589,-0.00000367,0.000
 00291,0.00000358,0.00000297,-0.00000954,0.00000544,0.00000805,0.000067
 75,0.00002633,-0.00007055,-0.00000683,-0.00000317,-0.00000323,-0.00000
 153,-0.00000534,0.00000101,0.00005701,0.00002209,0.00071511,0.00031098
 ,-0.00054636,0.00073478,0.13050374,0.05884349,0.22693174,-0.00049821,-
 0.00081956,-0.00057344,0.00026772,0.00126170,-0.00165074,-0.01150159,-
 0.00538247,0.00254385,0.00000150,0.00000306,-0.00002601,0.00069996,0.0
 0001197,-0.00008889,0.00003344,0.00018953,0.00024777,-0.00000261,0.000
 03825,0.00003733,0.00011141,0.00007209,0.00006076,-0.00011363,-0.00010
 997,0.00041667,0.00412372,0.00086710,-0.00181980,-0.00011790,-0.000432
 83,0.00019014,-0.00288596,0.00219994,0.00344279,-0.25959963,-0.0610449
 4,0.08210168,0.00058410,-0.00006248,-0.00013882,0.00026121,0.00024111,
 0.00001348,-0.00004789,-0.00000106,0.00017836,0.00042512,0.00002218,-0
 .00039338,-0.00000450,-0.00000046,0.00000650,-0.00001334,-0.00000906,-
 0.00000209,0.00013237,0.00005378,0.00016406,-0.00002988,0.00009989,0.0
 0044783,0.00000418,-0.00000619,-0.00000458,-0.00002642,-0.00001041,-0.
 00001989,-0.00002287,-0.00002375,-0.00000844,-0.00000429,0.00000185,-0
 .00000984,-0.00016813,0.00002498,-0.00000576,0.00000988,-0.00001086,0.
 00000088,0.00064215,-0.00045063,0.00023379,0.00099964,0.00069734,-0.00
 094441,-0.01520073,-0.00381450,0.00593778,0.28194116,-0.00053207,0.000
 33921,0.00022339,0.00050883,-0.00138551,0.00173407,0.02156419,0.007674
 84,-0.00668286,0.00000011,-0.00000138,0.00004109,-0.00033995,0.0005418
 0,-0.00138620,0.00008453,0.00005248,0.00015870,-0.00000277,-0.00005024
 ,-0.00004540,-0.00003486,-0.00008820,-0.00008887,0.00019372,0.00017008
 ,-0.00059157,-0.02415866,-0.00992082,0.01038650,-0.00007379,0.00062107
 ,-0.00012279,0.00546675,-0.00298255,-0.00523682,-0.06377356,-0.0652511
 3,0.02226075,-0.00005896,-0.00013848,-0.00042494,0.00001121,-0.0000340
 4,0.00028699,0.00000925,-0.00000301,-0.00011745,0.00002850,0.00103332,
 0.00081523,-0.00000358,0.00000356,-0.00000604,0.00001213,0.00001156,0.
 00000011,0.00024762,-0.00005387,-0.00018836,0.00044651,0.00038740,0.00
 008406,-0.00000622,0.00000668,0.00000689,0.00002741,0.00001727,0.00002
 673,0.00001281,0.00003180,0.00000247,0.00005238,-0.00000162,0.00001921
 ,0.00023014,-0.00004532,-0.00001280,-0.00002203,0.00001127,-0.00000443
 ,-0.00011983,0.00107411,-0.00090195,0.00126234,-0.00333839,0.00400918,
 -0.00742654,-0.00275266,0.00322955,0.06639439,0.07407075,0.00000073,0.
 00034100,0.00009192,0.00000028,-0.00046665,0.00103347,0.01207728,0.005
 47613,-0.00575939,-0.00000573,-0.00000929,-0.00000654,0.00124541,-0.00
 031903,0.00084476,-0.00012116,-0.00013456,-0.00032939,0.00000809,-0.00
 002194,-0.00002565,-0.00002584,-0.00007027,-0.00001184,0.00007516,0.00
 008634,-0.00025409,0.01872410,0.00647583,-0.00829274,0.00010532,0.0002
 1723,-0.00013694,0.00206378,-0.00196697,-0.00100601,0.08020802,0.02160
 796,-0.08032757,-0.00015054,-0.00023282,-0.00042530,-0.00006033,-0.000
 06213,0.00021259,0.00000506,0.00000027,-0.00004279,-0.00035069,0.00006
 334,0.00070803,0.00000934,-0.00000471,-0.00000489,0.00000815,0.0000069
 3,0.00000212,-0.00021310,0.00001136,0.00017714,-0.00031639,-0.00021832
 ,-0.00005098,-0.00000236,-0.00000046,0.00000122,0.00001518,0.00000427,
 0.00001625,-0.00000311,0.00001481,0.00001775,0.00004347,0.00001803,-0.
 00004810,0.00010157,-0.00001527,-0.00000768,-0.00000979,0.00000784,-0.
 00000501,-0.00043976,-0.00060866,0.00094963,-0.00068587,0.00306730,-0.
 00189435,-0.02196869,-0.00579316,0.00998843,-0.09033758,-0.02747442,0.
 08458595\\0.00000761,-0.00002430,0.00001787,0.00017704,-0.00123601,-0.
 00005122,-0.00010126,-0.00005042,-0.00122472,-0.00000543,-0.00000730,0
 .00000457,-0.00000971,0.00001549,0.00001105,0.00000653,0.00002113,-0.0
 0002009,0.00000437,0.00000589,-0.00000083,0.00000694,0.00002076,0.0000
 2666,-0.00001900,-0.00000079,-0.00000270,-0.00000512,-0.00000659,0.000
 00729,-0.00000967,0.00001181,-0.00001104,-0.00020707,0.00167401,0.0003
 6320,0.00013874,-0.00042870,0.00088777,0.00000774,0.00000463,-0.000011
 58,0.00000147,0.00000257,-0.00000760,-0.00000177,0.00001732,0.00000598
 ,0.00000118,-0.00000532,-0.00000422,-0.00000157,0.00000506,0.00000464,
 0.00000229,-0.00000299,0.00000500,0.00000016,0.00000274,0.00000867,0.0
 0000090,0.00000208,-0.00000065,0.00000213,-0.00000667,-0.00000411,-0.0
 0000163,0.00000065,-0.00000259,0.00000098,0.00000032,0.00000562,-0.000
 00192,-0.00000258,-0.00000706,-0.00000022,0.00000391,-0.00000390,0.000
 00412,0.00000176,-0.00000922,0.00000144,-0.00000156,0.00000129,-0.0000
 0053,-0.00000110,0.00000923,-0.00000305,-0.00000654,-0.00000008,0.0000
 0429,-0.00000926,0.00000278\\\@


 STEINBACH'S GUIDELINES FOR SYSTEMS PROGRAMMING:
 NEVER TEST FOR AN ERROR CONDITION YOU DON'T KNOW HOW
 TO HANDLE.
 Job cpu time:       0 days 12 hours 35 minutes 43.6 seconds.
 Elapsed time:       0 days  1 hours  3 minutes  0.2 seconds.
 File lengths (MBytes):  RWF=    720 Int=      0 D2E=      0 Chk=     34 Scr=      1
 Normal termination of Gaussian 16 at Sat Mar  9 02:18:14 2019.
