 Entering Gaussian System, Link 0=g16
 Initial command:
 /sw/Projects/G16/g16/l1.exe "/nvme/pbs/tmpdir/pbs.74203[19].flm1/Gau-30092.inp" -scrdir="/nvme/pbs/tmpdir/pbs.74203[19].flm1/"
 Entering Link 1 = /sw/Projects/G16/g16/l1.exe PID=     30093.
  
 Copyright (c) 1988-2017, Gaussian, Inc.  All Rights Reserved.
  
 This is part of the Gaussian(R) 16 program.  It is based on
 the Gaussian(R) 09 system (copyright 2009, Gaussian, Inc.),
 the Gaussian(R) 03 system (copyright 2003, Gaussian, Inc.),
 the Gaussian(R) 98 system (copyright 1998, Gaussian, Inc.),
 the Gaussian(R) 94 system (copyright 1995, Gaussian, Inc.),
 the Gaussian 92(TM) system (copyright 1992, Gaussian, Inc.),
 the Gaussian 90(TM) system (copyright 1990, Gaussian, Inc.),
 the Gaussian 88(TM) system (copyright 1988, Gaussian, Inc.),
 the Gaussian 86(TM) system (copyright 1986, Carnegie Mellon
 University), and the Gaussian 82(TM) system (copyright 1983,
 Carnegie Mellon University). Gaussian is a federally registered
 trademark of Gaussian, Inc.
  
 This software contains proprietary and confidential information,
 including trade secrets, belonging to Gaussian, Inc.
  
 This software is provided under written license and may be
 used, copied, transmitted, or stored only in accord with that
 written license.
  
 The following legend is applicable only to US Government
 contracts under FAR:
  
                    RESTRICTED RIGHTS LEGEND
  
 Use, reproduction and disclosure by the US Government is
 subject to restrictions as set forth in subparagraphs (a)
 and (c) of the Commercial Computer Software - Restricted
 Rights clause in FAR 52.227-19.
  
 Gaussian, Inc.
 340 Quinnipiac St., Bldg. 40, Wallingford CT 06492
  
  
 ---------------------------------------------------------------
 Warning -- This program may not be used in any manner that
 competes with the business of Gaussian, Inc. or will provide
 assistance to any competitor of Gaussian, Inc.  The licensee
 of this program is prohibited from giving any competitor of
 Gaussian, Inc. access to this program.  By using this program,
 the user acknowledges that Gaussian, Inc. is engaged in the
 business of creating and licensing software in the field of
 computational chemistry and represents and warrants to the
 licensee that it is not a competitor of Gaussian, Inc. and that
 it will not use this program in any manner prohibited above.
 ---------------------------------------------------------------
  

 Cite this work as:
 Gaussian 16, Revision B.01,
 M. J. Frisch, G. W. Trucks, H. B. Schlegel, G. E. Scuseria, 
 M. A. Robb, J. R. Cheeseman, G. Scalmani, V. Barone, 
 G. A. Petersson, H. Nakatsuji, X. Li, M. Caricato, A. V. Marenich, 
 J. Bloino, B. G. Janesko, R. Gomperts, B. Mennucci, H. P. Hratchian, 
 J. V. Ortiz, A. F. Izmaylov, J. L. Sonnenberg, D. Williams-Young, 
 F. Ding, F. Lipparini, F. Egidi, J. Goings, B. Peng, A. Petrone, 
 T. Henderson, D. Ranasinghe, V. G. Zakrzewski, J. Gao, N. Rega, 
 G. Zheng, W. Liang, M. Hada, M. Ehara, K. Toyota, R. Fukuda, 
 J. Hasegawa, M. Ishida, T. Nakajima, Y. Honda, O. Kitao, H. Nakai, 
 T. Vreven, K. Throssell, J. A. Montgomery, Jr., J. E. Peralta, 
 F. Ogliaro, M. J. Bearpark, J. J. Heyd, E. N. Brothers, K. N. Kudin, 
 V. N. Staroverov, T. A. Keith, R. Kobayashi, J. Normand, 
 K. Raghavachari, A. P. Rendell, J. C. Burant, S. S. Iyengar, 
 J. Tomasi, M. Cossi, J. M. Millam, M. Klene, C. Adamo, R. Cammi, 
 J. W. Ochterski, R. L. Martin, K. Morokuma, O. Farkas, 
 J. B. Foresman, and D. J. Fox, Gaussian, Inc., Wallingford CT, 2016.
 
 ******************************************
 Gaussian 16:  ES64L-G16RevB.01 20-Dec-2017
                 9-Mar-2019 
 ******************************************
 %mem=20gb
 %nproc=12
 Will use up to   12 processors via shared memory.
 %chk=4c1_a1_a4_4c1_PSI.inp_extract_19.chk
 ----------------------------------------------------------------------
 #M062X/6-311++G(2d,2p) opt=ModRedundant freq=noraman SCRF=(SMD,solvent
 =water)
 ----------------------------------------------------------------------
 1/18=120,19=15,26=3,38=1/1,3;
 2/9=110,12=2,17=6,18=5,40=1/2;
 3/5=4,6=6,7=1212,11=2,25=1,30=1,70=32201,71=1,72=1,74=-55/1,2,3;
 4//1;
 5/5=2,38=5,53=1/2;
 6/7=2,8=2,9=2,10=2,28=1/1;
 7//1,2,3,16;
 1/18=20,19=15,26=3/3(2);
 2/9=110/2;
 99//99;
 2/9=110/2;
 3/5=4,6=6,7=1212,11=2,25=1,30=1,70=32205,71=1,72=1,74=-55/1,2,3;
 4/5=5,16=3,69=1/1;
 5/5=2,38=5,53=1/2;
 7//1,2,3,16;
 1/18=20,19=15,26=3/3(-5);
 2/9=110/2;
 6/7=2,8=2,9=2,10=2,19=2,28=1/1;
 99/9=1/99;
 --------------------------------
 4c1_a1_a4_4c1_PSI.inp_extract_19
 --------------------------------
 Symbolic Z-matrix:
 Charge =  0 Multiplicity = 1
 C                    -2.06276  -0.67958   1.33741 
 C                     0.85986   0.11368  -0.65076 
 C                    -1.03277   0.35634   0.92194 
 C                     3.61303  -0.0272    0.23596 
 C                    -3.4417   -0.31179  -0.53472 
 O                    -2.71388  -1.2572    0.22757 
 C                     2.8764   -1.31902  -0.11842 
 C                     2.62369   1.03588   0.68323 
 C                     1.76208  -1.01797  -1.12168 
 C                    -2.51278   0.74051  -1.1193 
 O                     1.61192   1.24724  -0.29212 
 O                     0.10331  -0.35012   0.42401 
 C                    -1.66927   1.38762  -0.01443 
 H                    -2.79848  -0.20884   1.98485 
 H                    -1.58996  -1.4854    1.88103 
 H                     0.22494   0.44573  -1.45327 
 H                    -0.70574   0.87197   1.81909 
 H                     4.15852   0.33554  -0.63227 
 H                     4.33657  -0.19442   1.02892 
 H                    -3.94655  -0.86794  -1.31269 
 H                    -4.19475   0.14909   0.10083 
 H                     2.45952  -1.76134   0.78231 
 H                     3.5633   -2.04669  -0.53971 
 H                     3.10585   1.99489   0.8143 
 H                     2.16328   0.75847   1.62566 
 H                     2.20042  -0.70836  -2.06659 
 H                     1.1538   -1.8945   -1.31692 
 H                    -3.10365   1.49744  -1.62698 
 H                    -1.8816    0.27188  -1.86751 
 H                    -0.92942   2.06237  -0.42477 
 H                    -2.3216    1.98993   0.61267 
 
 The following ModRedundant input section has been read:
 D      13       3      12       2 F                                           
 

 GradGradGradGradGradGradGradGradGradGradGradGradGradGradGradGradGradGrad
 Berny optimization.
 Initialization pass.
                           ----------------------------
                           !    Initial Parameters    !
                           ! (Angstroms and Degrees)  !
 --------------------------                            --------------------------
 ! Name  Definition              Value          Derivative Info.                !
 --------------------------------------------------------------------------------
 ! R1    R(1,3)                  1.5188         estimate D2E/DX2                !
 ! R2    R(1,6)                  1.4104         estimate D2E/DX2                !
 ! R3    R(1,14)                 1.0872         estimate D2E/DX2                !
 ! R4    R(1,15)                 1.0809         estimate D2E/DX2                !
 ! R5    R(2,9)                  1.522          estimate D2E/DX2                !
 ! R6    R(2,11)                 1.4068         estimate D2E/DX2                !
 ! R7    R(2,12)                 1.3938         estimate D2E/DX2                !
 ! R8    R(2,16)                 1.0758         estimate D2E/DX2                !
 ! R9    R(3,12)                 1.4275         estimate D2E/DX2                !
 ! R10   R(3,13)                 1.5315         estimate D2E/DX2                !
 ! R11   R(3,17)                 1.0852         estimate D2E/DX2                !
 ! R12   R(4,7)                  1.5287         estimate D2E/DX2                !
 ! R13   R(4,8)                  1.5195         estimate D2E/DX2                !
 ! R14   R(4,18)                 1.0876         estimate D2E/DX2                !
 ! R15   R(4,19)                 1.0864         estimate D2E/DX2                !
 ! R16   R(5,6)                  1.4158         estimate D2E/DX2                !
 ! R17   R(5,10)                 1.5205         estimate D2E/DX2                !
 ! R18   R(5,20)                 1.0814         estimate D2E/DX2                !
 ! R19   R(5,21)                 1.0878         estimate D2E/DX2                !
 ! R20   R(7,9)                  1.5293         estimate D2E/DX2                !
 ! R21   R(7,22)                 1.0866         estimate D2E/DX2                !
 ! R22   R(7,23)                 1.0857         estimate D2E/DX2                !
 ! R23   R(8,11)                 1.4211         estimate D2E/DX2                !
 ! R24   R(8,24)                 1.0814         estimate D2E/DX2                !
 ! R25   R(8,25)                 1.0849         estimate D2E/DX2                !
 ! R26   R(9,26)                 1.0867         estimate D2E/DX2                !
 ! R27   R(9,27)                 1.0846         estimate D2E/DX2                !
 ! R28   R(10,13)                1.5333         estimate D2E/DX2                !
 ! R29   R(10,28)                1.0862         estimate D2E/DX2                !
 ! R30   R(10,29)                1.0853         estimate D2E/DX2                !
 ! R31   R(13,30)                1.0821         estimate D2E/DX2                !
 ! R32   R(13,31)                1.087          estimate D2E/DX2                !
 ! A1    A(3,1,6)              112.1574         estimate D2E/DX2                !
 ! A2    A(3,1,14)             109.0566         estimate D2E/DX2                !
 ! A3    A(3,1,15)             110.4522         estimate D2E/DX2                !
 ! A4    A(6,1,14)             109.4815         estimate D2E/DX2                !
 ! A5    A(6,1,15)             106.9993         estimate D2E/DX2                !
 ! A6    A(14,1,15)            108.6194         estimate D2E/DX2                !
 ! A7    A(9,2,11)             111.1675         estimate D2E/DX2                !
 ! A8    A(9,2,12)             108.2372         estimate D2E/DX2                !
 ! A9    A(9,2,16)             110.398          estimate D2E/DX2                !
 ! A10   A(11,2,12)            111.2057         estimate D2E/DX2                !
 ! A11   A(11,2,16)            104.8893         estimate D2E/DX2                !
 ! A12   A(12,2,16)            110.9512         estimate D2E/DX2                !
 ! A13   A(1,3,12)             107.3135         estimate D2E/DX2                !
 ! A14   A(1,3,13)             110.1636         estimate D2E/DX2                !
 ! A15   A(1,3,17)             107.5955         estimate D2E/DX2                !
 ! A16   A(12,3,13)            116.7927         estimate D2E/DX2                !
 ! A17   A(12,3,17)            106.48           estimate D2E/DX2                !
 ! A18   A(13,3,17)            108.1039         estimate D2E/DX2                !
 ! A19   A(7,4,8)              110.2239         estimate D2E/DX2                !
 ! A20   A(7,4,18)             109.7824         estimate D2E/DX2                !
 ! A21   A(7,4,19)             111.1033         estimate D2E/DX2                !
 ! A22   A(8,4,18)             109.1583         estimate D2E/DX2                !
 ! A23   A(8,4,19)             109.0539         estimate D2E/DX2                !
 ! A24   A(18,4,19)            107.4561         estimate D2E/DX2                !
 ! A25   A(6,5,10)             110.7976         estimate D2E/DX2                !
 ! A26   A(6,5,20)             106.4934         estimate D2E/DX2                !
 ! A27   A(6,5,21)             108.9165         estimate D2E/DX2                !
 ! A28   A(10,5,20)            111.38           estimate D2E/DX2                !
 ! A29   A(10,5,21)            110.752          estimate D2E/DX2                !
 ! A30   A(20,5,21)            108.3613         estimate D2E/DX2                !
 ! A31   A(1,6,5)              112.799          estimate D2E/DX2                !
 ! A32   A(4,7,9)              109.6833         estimate D2E/DX2                !
 ! A33   A(4,7,22)             109.6752         estimate D2E/DX2                !
 ! A34   A(4,7,23)             110.5754         estimate D2E/DX2                !
 ! A35   A(9,7,22)             110.1435         estimate D2E/DX2                !
 ! A36   A(9,7,23)             109.7772         estimate D2E/DX2                !
 ! A37   A(22,7,23)            106.9507         estimate D2E/DX2                !
 ! A38   A(4,8,11)             111.4425         estimate D2E/DX2                !
 ! A39   A(4,8,24)             111.4577         estimate D2E/DX2                !
 ! A40   A(4,8,25)             110.6765         estimate D2E/DX2                !
 ! A41   A(11,8,24)            105.5887         estimate D2E/DX2                !
 ! A42   A(11,8,25)            109.3945         estimate D2E/DX2                !
 ! A43   A(24,8,25)            108.1008         estimate D2E/DX2                !
 ! A44   A(2,9,7)              112.0442         estimate D2E/DX2                !
 ! A45   A(2,9,26)             107.2373         estimate D2E/DX2                !
 ! A46   A(2,9,27)             108.9126         estimate D2E/DX2                !
 ! A47   A(7,9,26)             109.427          estimate D2E/DX2                !
 ! A48   A(7,9,27)             111.5693         estimate D2E/DX2                !
 ! A49   A(26,9,27)            107.4543         estimate D2E/DX2                !
 ! A50   A(5,10,13)            110.5564         estimate D2E/DX2                !
 ! A51   A(5,10,28)            109.2469         estimate D2E/DX2                !
 ! A52   A(5,10,29)            108.755          estimate D2E/DX2                !
 ! A53   A(13,10,28)           109.9956         estimate D2E/DX2                !
 ! A54   A(13,10,29)           111.0439         estimate D2E/DX2                !
 ! A55   A(28,10,29)           107.1609         estimate D2E/DX2                !
 ! A56   A(2,11,8)             115.8301         estimate D2E/DX2                !
 ! A57   A(2,12,3)             122.4319         estimate D2E/DX2                !
 ! A58   A(3,13,10)            112.6445         estimate D2E/DX2                !
 ! A59   A(3,13,30)            111.5654         estimate D2E/DX2                !
 ! A60   A(3,13,31)            105.6534         estimate D2E/DX2                !
 ! A61   A(10,13,30)           111.4708         estimate D2E/DX2                !
 ! A62   A(10,13,31)           108.6283         estimate D2E/DX2                !
 ! A63   A(30,13,31)           106.4727         estimate D2E/DX2                !
 ! D1    D(6,1,3,12)           -75.4598         estimate D2E/DX2                !
 ! D2    D(6,1,3,13)            52.6704         estimate D2E/DX2                !
 ! D3    D(6,1,3,17)           170.2985         estimate D2E/DX2                !
 ! D4    D(14,1,3,12)          163.0977         estimate D2E/DX2                !
 ! D5    D(14,1,3,13)          -68.7721         estimate D2E/DX2                !
 ! D6    D(14,1,3,17)           48.856          estimate D2E/DX2                !
 ! D7    D(15,1,3,12)           43.8004         estimate D2E/DX2                !
 ! D8    D(15,1,3,13)          171.9306         estimate D2E/DX2                !
 ! D9    D(15,1,3,17)          -70.4413         estimate D2E/DX2                !
 ! D10   D(3,1,6,5)            -62.0427         estimate D2E/DX2                !
 ! D11   D(14,1,6,5)            59.1556         estimate D2E/DX2                !
 ! D12   D(15,1,6,5)           176.6907         estimate D2E/DX2                !
 ! D13   D(11,2,9,7)            51.874          estimate D2E/DX2                !
 ! D14   D(11,2,9,26)          -68.2151         estimate D2E/DX2                !
 ! D15   D(11,2,9,27)          175.791          estimate D2E/DX2                !
 ! D16   D(12,2,9,7)           -70.5373         estimate D2E/DX2                !
 ! D17   D(12,2,9,26)          169.3735         estimate D2E/DX2                !
 ! D18   D(12,2,9,27)           53.3796         estimate D2E/DX2                !
 ! D19   D(16,2,9,7)           167.8484         estimate D2E/DX2                !
 ! D20   D(16,2,9,26)           47.7593         estimate D2E/DX2                !
 ! D21   D(16,2,9,27)          -68.2347         estimate D2E/DX2                !
 ! D22   D(9,2,11,8)           -55.3196         estimate D2E/DX2                !
 ! D23   D(12,2,11,8)           65.358          estimate D2E/DX2                !
 ! D24   D(16,2,11,8)         -174.6402         estimate D2E/DX2                !
 ! D25   D(9,2,12,3)          -166.6157         estimate D2E/DX2                !
 ! D26   D(11,2,12,3)           70.9963         estimate D2E/DX2                !
 ! D27   D(16,2,12,3)          -45.3429         estimate D2E/DX2                !
 ! D28   D(1,3,12,2)           143.3452         estimate D2E/DX2                !
 ! D29   D(13,3,12,2)           19.1579         Frozen                          !
 ! D30   D(17,3,12,2)         -101.667          estimate D2E/DX2                !
 ! D31   D(1,3,13,10)          -46.4832         estimate D2E/DX2                !
 ! D32   D(1,3,13,30)         -172.7348         estimate D2E/DX2                !
 ! D33   D(1,3,13,31)           71.963          estimate D2E/DX2                !
 ! D34   D(12,3,13,10)          76.2405         estimate D2E/DX2                !
 ! D35   D(12,3,13,30)         -50.011          estimate D2E/DX2                !
 ! D36   D(12,3,13,31)        -165.3132         estimate D2E/DX2                !
 ! D37   D(17,3,13,10)        -163.7965         estimate D2E/DX2                !
 ! D38   D(17,3,13,30)          69.952          estimate D2E/DX2                !
 ! D39   D(17,3,13,31)         -45.3502         estimate D2E/DX2                !
 ! D40   D(8,4,7,9)             52.6951         estimate D2E/DX2                !
 ! D41   D(8,4,7,22)           -68.3912         estimate D2E/DX2                !
 ! D42   D(8,4,7,23)           173.902          estimate D2E/DX2                !
 ! D43   D(18,4,7,9)           -67.5818         estimate D2E/DX2                !
 ! D44   D(18,4,7,22)          171.3318         estimate D2E/DX2                !
 ! D45   D(18,4,7,23)           53.6251         estimate D2E/DX2                !
 ! D46   D(19,4,7,9)           173.6991         estimate D2E/DX2                !
 ! D47   D(19,4,7,22)           52.6127         estimate D2E/DX2                !
 ! D48   D(19,4,7,23)          -65.094          estimate D2E/DX2                !
 ! D49   D(7,4,8,11)           -54.8489         estimate D2E/DX2                !
 ! D50   D(7,4,8,24)          -172.5325         estimate D2E/DX2                !
 ! D51   D(7,4,8,25)            67.1261         estimate D2E/DX2                !
 ! D52   D(18,4,8,11)           65.8032         estimate D2E/DX2                !
 ! D53   D(18,4,8,24)          -51.8804         estimate D2E/DX2                !
 ! D54   D(18,4,8,25)         -172.2218         estimate D2E/DX2                !
 ! D55   D(19,4,8,11)         -177.07           estimate D2E/DX2                !
 ! D56   D(19,4,8,24)           65.2464         estimate D2E/DX2                !
 ! D57   D(19,4,8,25)          -55.095          estimate D2E/DX2                !
 ! D58   D(10,5,6,1)            62.3062         estimate D2E/DX2                !
 ! D59   D(20,5,6,1)          -176.4183         estimate D2E/DX2                !
 ! D60   D(21,5,6,1)           -59.7548         estimate D2E/DX2                !
 ! D61   D(6,5,10,13)          -54.0715         estimate D2E/DX2                !
 ! D62   D(6,5,10,28)         -175.2535         estimate D2E/DX2                !
 ! D63   D(6,5,10,29)           68.0922         estimate D2E/DX2                !
 ! D64   D(20,5,10,13)        -172.4199         estimate D2E/DX2                !
 ! D65   D(20,5,10,28)          66.3981         estimate D2E/DX2                !
 ! D66   D(20,5,10,29)         -50.2562         estimate D2E/DX2                !
 ! D67   D(21,5,10,13)          66.9099         estimate D2E/DX2                !
 ! D68   D(21,5,10,28)         -54.2721         estimate D2E/DX2                !
 ! D69   D(21,5,10,29)        -170.9264         estimate D2E/DX2                !
 ! D70   D(4,7,9,2)            -51.708          estimate D2E/DX2                !
 ! D71   D(4,7,9,26)            67.0959         estimate D2E/DX2                !
 ! D72   D(4,7,9,27)          -174.1259         estimate D2E/DX2                !
 ! D73   D(22,7,9,2)            69.0955         estimate D2E/DX2                !
 ! D74   D(22,7,9,26)         -172.1007         estimate D2E/DX2                !
 ! D75   D(22,7,9,27)          -53.3224         estimate D2E/DX2                !
 ! D76   D(23,7,9,2)          -173.3945         estimate D2E/DX2                !
 ! D77   D(23,7,9,26)          -54.5907         estimate D2E/DX2                !
 ! D78   D(23,7,9,27)           64.1876         estimate D2E/DX2                !
 ! D79   D(4,8,11,2)            57.5135         estimate D2E/DX2                !
 ! D80   D(24,8,11,2)          178.6849         estimate D2E/DX2                !
 ! D81   D(25,8,11,2)          -65.1998         estimate D2E/DX2                !
 ! D82   D(5,10,13,3)           47.6294         estimate D2E/DX2                !
 ! D83   D(5,10,13,30)         173.9317         estimate D2E/DX2                !
 ! D84   D(5,10,13,31)         -69.0591         estimate D2E/DX2                !
 ! D85   D(28,10,13,3)         168.3665         estimate D2E/DX2                !
 ! D86   D(28,10,13,30)        -65.3312         estimate D2E/DX2                !
 ! D87   D(28,10,13,31)         51.6779         estimate D2E/DX2                !
 ! D88   D(29,10,13,3)         -73.1815         estimate D2E/DX2                !
 ! D89   D(29,10,13,30)         53.1208         estimate D2E/DX2                !
 ! D90   D(29,10,13,31)        170.13           estimate D2E/DX2                !
 --------------------------------------------------------------------------------
 Trust Radius=3.00D-01 FncErr=1.00D-07 GrdErr=1.00D-06 EigMax=2.50D+02 EigMin=1.00D-04
 Number of steps in this run=    186 maximum allowed number of steps=    186.
 GradGradGradGradGradGradGradGradGradGradGradGradGradGradGradGradGradGrad

                          Input orientation:                          
 ---------------------------------------------------------------------
 Center     Atomic      Atomic             Coordinates (Angstroms)
 Number     Number       Type             X           Y           Z
 ---------------------------------------------------------------------
      1          6           0       -2.062758   -0.679581    1.337412
      2          6           0        0.859862    0.113675   -0.650758
      3          6           0       -1.032766    0.356340    0.921935
      4          6           0        3.613035   -0.027202    0.235960
      5          6           0       -3.441698   -0.311787   -0.534721
      6          8           0       -2.713883   -1.257203    0.227568
      7          6           0        2.876401   -1.319022   -0.118418
      8          6           0        2.623687    1.035881    0.683229
      9          6           0        1.762082   -1.017965   -1.121676
     10          6           0       -2.512775    0.740508   -1.119300
     11          8           0        1.611916    1.247241   -0.292124
     12          8           0        0.103314   -0.350118    0.424010
     13          6           0       -1.669274    1.387624   -0.014428
     14          1           0       -2.798480   -0.208839    1.984849
     15          1           0       -1.589957   -1.485397    1.881032
     16          1           0        0.224937    0.445728   -1.453270
     17          1           0       -0.705738    0.871972    1.819091
     18          1           0        4.158524    0.335540   -0.632270
     19          1           0        4.336565   -0.194418    1.028920
     20          1           0       -3.946553   -0.867940   -1.312691
     21          1           0       -4.194748    0.149086    0.100830
     22          1           0        2.459516   -1.761341    0.782311
     23          1           0        3.563303   -2.046691   -0.539707
     24          1           0        3.105851    1.994889    0.814296
     25          1           0        2.163278    0.758470    1.625662
     26          1           0        2.200422   -0.708358   -2.066594
     27          1           0        1.153802   -1.894498   -1.316915
     28          1           0       -3.103646    1.497441   -1.626982
     29          1           0       -1.881595    0.271878   -1.867505
     30          1           0       -0.929422    2.062371   -0.424768
     31          1           0       -2.321600    1.989927    0.612666
 ---------------------------------------------------------------------
                    Distance matrix (angstroms):
                    1          2          3          4          5
     1  C    0.000000
     2  C    3.622676   0.000000
     3  C    1.518762   2.472709   0.000000
     4  C    5.818369   2.895872   4.711808   0.000000
     5  C    2.354067   4.324107   2.893302   7.102408   0.000000
     6  O    1.410448   3.927138   2.431424   6.445375   1.415843
     7  C    5.188797   2.530304   4.378443   1.528729   6.411412
     8  C    5.033243   2.396052   3.726715   1.519541   6.331549
     9  C    4.559717   1.521964   3.725082   2.500163   5.284177
    10  C    2.873082   3.462244   2.550422   6.320732   1.520512
    11  O    4.457719   1.406832   3.043351   2.430546   5.294189
    12  O    2.373756   1.393770   1.427477   3.529558   3.672566
    13  C    2.501127   2.902480   1.531491   5.474232   2.510018
    14  H    1.087226   4.520388   2.137045   6.648243   2.602414
    15  H    1.080927   3.868928   2.149959   5.648338   3.262234
    16  H    3.779917   1.075832   2.689127   3.815281   3.855097
    17  H    2.116798   3.020972   1.085225   4.686856   3.798315
    18  H    6.604125   3.306166   5.418992   1.087641   7.628363
    19  H    6.425098   3.873461   5.398564   1.086390   7.934742
    20  H    3.256871   4.950086   3.870732   7.762250   1.081398
    21  H    2.600232   5.110305   3.273423   7.810942   1.087848
    22  H    4.682873   2.851011   4.086576   2.153217   6.217725
    23  H    6.086471   3.462385   5.388395   2.163901   7.216644
    24  H    5.843027   3.275640   4.452480   2.163460   7.071846
    25  H    4.473305   2.701248   3.297217   2.156466   6.101513
    26  H    5.455528   2.115994   4.529723   2.785894   5.859814
    27  H    4.343700   2.136100   3.854841   3.456305   4.922948
    28  H    3.822369   4.310130   3.476727   7.135047   2.140238
    29  H    3.348072   3.003513   2.916954   5.891093   2.133284
    30  H    3.450801   2.655188   2.175967   5.043490   3.458359
    31  H    2.778224   3.903622   2.103651   6.279380   2.805174
                    6          7          8          9         10
     6  O    0.000000
     7  C    5.601322   0.000000
     8  C    5.827136   2.500414   0.000000
     9  C    4.681021   1.529336   2.866763   0.000000
    10  C    2.417715   5.855480   5.451568   4.622406   0.000000
    11  O    5.025421   2.866148   1.421150   2.416995   4.237225
    12  O    2.966141   2.987142   2.887987   2.363615   3.227258
    13  C    2.853924   5.291494   4.363481   4.334404   1.533296
    14  H    2.047989   6.153090   5.713444   5.577088   3.258624
    15  H    2.012269   4.896308   5.054342   4.524479   3.848147
    16  H    3.789704   3.453467   3.266024   2.148294   2.773716
    17  H    3.331513   4.624512   3.521664   4.279031   3.452073
    18  H    7.106766   2.155333   2.139332   2.795430   6.701300
    19  H    7.174991   2.170990   2.137075   3.454165   7.238950
    20  H    2.010820   6.941359   7.125748   5.713800   2.163383
    21  H    2.046136   7.225272   6.900482   6.191959   2.160447
    22  H    5.227423   1.086624   2.803787   2.159673   5.882096
    23  H    6.372995   1.085735   3.446839   2.154382   6.709928
    24  H    6.692507   3.450306   1.081368   3.825048   6.072991
    25  H    5.459332   2.804698   1.084949   3.296141   5.422233
    26  H    5.451129   2.150639   3.283755   1.086678   5.021036
    27  H    4.213141   2.175986   3.840346   1.084635   4.519524
    28  H    3.343551   6.780058   6.192936   5.500719   1.086194
    29  H    2.723990   5.313078   5.233308   3.936539   1.085271
    30  H    3.824842   5.100192   3.860819   4.149499   2.176397
    31  H    3.293333   6.205066   5.036968   5.360207   2.144132
                   11         12         13         14         15
    11  O    0.000000
    12  O    2.310905   0.000000
    13  C    3.295911   2.520723   0.000000
    14  H    5.172656   3.297967   2.796589   0.000000
    15  H    4.737289   2.505781   3.442864   1.760939   0.000000
    16  H    1.978483   2.042631   2.558412   4.624951   4.259185
    17  H    3.157463   2.023443   2.134500   2.361186   2.518505
    18  H    2.726190   4.246243   5.954145   7.452890   6.532804
    19  H    3.353692   4.279085   6.297740   7.198811   6.125062
    20  H    6.034246   4.436856   3.458187   3.553344   4.016798
    21  H    5.922643   4.339008   2.815187   2.372172   3.553251
    22  H    3.305208   2.769769   5.253349   5.612743   4.204945
    23  H    3.836561   3.972233   6.280947   7.086845   5.721112
    24  H    2.003743   3.829701   4.884401   6.409972   5.941459
    25  H    2.054459   2.629902   4.215944   5.067913   4.380288
    26  H    2.705448   3.275562   4.855829   6.453893   5.527614
    27  H    3.336254   2.553322   4.520902   5.418821   4.233491
    28  H    4.907237   4.231387   2.160975   4.006225   4.847137
    29  H    3.954463   3.094799   2.173445   3.989035   4.150253
    30  H    2.672158   2.758092   1.082148   3.802371   4.282485
    31  H    4.103995   3.375146   1.086989   2.635313   3.771198
                   16         17         18         19         20
    16  H    0.000000
    17  H    3.428730   0.000000
    18  H    4.019862   5.473388   0.000000
    19  H    4.845259   5.214056   1.752743   0.000000
    20  H    4.375707   4.830966   8.222141   8.634050   0.000000
    21  H    4.694341   3.955778   8.387452   8.588518   1.758973
    22  H    3.855168   4.245949   3.047060   2.457514   6.798891
    23  H    4.265142   5.683945   2.457210   2.547438   7.641001
    24  H    3.980128   4.098630   2.440105   2.520672   7.902928
    25  H    3.651684   2.877768   3.042718   2.446890   6.972027
    26  H    2.368675   5.103112   2.642191   3.795978   6.195090
    27  H    2.521516   4.576656   3.803967   4.303858   5.202640
    28  H    3.495102   4.244596   7.421494   8.079167   2.530672
    29  H    2.153901   3.915832   6.165460   6.875480   2.423026
    30  H    2.236939   2.549900   5.377006   5.910747   4.298629
    31  H    3.624568   2.305709   6.802857   7.019672   3.809839
                   21         22         23         24         25
    21  H    0.000000
    22  H    6.956535   0.000000
    23  H    8.088206   1.745710   0.000000
    24  H    7.564044   3.811566   4.286835   0.000000
    25  H    6.566655   2.673658   3.810226   1.753708   0.000000
    26  H    6.806698   3.048305   2.445396   4.053008   3.973125
    27  H    5.898578   2.475756   2.536318   4.845605   4.088525
    28  H    2.448244   6.882814   7.628319   6.690676   6.234281
    29  H    3.039753   5.477294   6.065124   5.919074   5.366562
    30  H    3.820899   5.250020   6.089514   4.221760   3.933092
    31  H    2.675697   6.079462   7.228716   5.431197   4.759914
                   26         27         28         29         30
    26  H    0.000000
    27  H    1.750531   0.000000
    28  H    5.761245   5.452271   0.000000
    29  H    4.202780   3.769611   1.747359   0.000000
    30  H    4.490930   4.559886   2.547884   2.488773   0.000000
    31  H    5.908287   5.557919   2.422842   3.049024   1.737722
                   31
    31  H    0.000000
 Stoichiometry    C10H18O3
 Framework group  C1[X(C10H18O3)]
 Deg. of freedom    87
 Full point group                 C1      NOp   1
 Largest Abelian subgroup         C1      NOp   1
 Largest concise Abelian subgroup C1      NOp   1
                         Standard orientation:                         
 ---------------------------------------------------------------------
 Center     Atomic      Atomic             Coordinates (Angstroms)
 Number     Number       Type             X           Y           Z
 ---------------------------------------------------------------------
      1          6           0       -2.062758   -0.679581    1.337412
      2          6           0        0.859862    0.113675   -0.650758
      3          6           0       -1.032766    0.356340    0.921935
      4          6           0        3.613035   -0.027202    0.235960
      5          6           0       -3.441698   -0.311787   -0.534721
      6          8           0       -2.713883   -1.257203    0.227568
      7          6           0        2.876401   -1.319022   -0.118418
      8          6           0        2.623687    1.035881    0.683229
      9          6           0        1.762082   -1.017965   -1.121676
     10          6           0       -2.512775    0.740508   -1.119300
     11          8           0        1.611916    1.247241   -0.292124
     12          8           0        0.103314   -0.350118    0.424010
     13          6           0       -1.669274    1.387624   -0.014428
     14          1           0       -2.798480   -0.208839    1.984849
     15          1           0       -1.589957   -1.485397    1.881032
     16          1           0        0.224937    0.445728   -1.453270
     17          1           0       -0.705738    0.871972    1.819091
     18          1           0        4.158524    0.335540   -0.632270
     19          1           0        4.336565   -0.194418    1.028920
     20          1           0       -3.946553   -0.867940   -1.312691
     21          1           0       -4.194748    0.149086    0.100830
     22          1           0        2.459516   -1.761341    0.782311
     23          1           0        3.563303   -2.046691   -0.539707
     24          1           0        3.105851    1.994889    0.814296
     25          1           0        2.163278    0.758470    1.625662
     26          1           0        2.200422   -0.708358   -2.066594
     27          1           0        1.153802   -1.894498   -1.316915
     28          1           0       -3.103646    1.497441   -1.626982
     29          1           0       -1.881595    0.271878   -1.867505
     30          1           0       -0.929422    2.062371   -0.424768
     31          1           0       -2.321600    1.989927    0.612666
 ---------------------------------------------------------------------
 Rotational constants (GHZ):           1.7916923           0.4534544           0.4331769
 Standard basis: 6-311++G(2d,2p) (5D, 7F)
 There are   557 symmetry adapted cartesian basis functions of A   symmetry.
 There are   531 symmetry adapted basis functions of A   symmetry.
   531 basis functions,   762 primitive gaussians,   557 cartesian basis functions
    51 alpha electrons       51 beta electrons
       nuclear repulsion energy       907.3415367926 Hartrees.
 NAtoms=   31 NActive=   31 NUniq=   31 SFac= 1.00D+00 NAtFMM=   60 NAOKFM=F Big=F
 Integral buffers will be    131072 words long.
 Raffenetti 2 integral format.
 Two-electron integral symmetry is turned on.
 ------------------------------------------------------------------------------
 Polarizable Continuum Model (PCM)
 =================================
 Model                : PCM.
 Atomic radii         : SMD-Coulomb.
 Polarization charges : Total charges.
 Charge compensation  : None.
 Solution method      : On-the-fly selection.
 Cavity type          : VdW (van der Waals Surface) (Alpha=1.000).
 Cavity algorithm     : GePol (No added spheres)
                        Default sphere list used, NSphG=   31.
                        Lebedev-Laikov grids with approx.  5.0 points / Ang**2.
                        Smoothing algorithm: York/Karplus (Gamma=1.0000).
                        Polarization charges: spherical gaussians, with
                                              point-specific exponents (IZeta= 3).
                        Self-potential: point-specific (ISelfS= 7).
                        Self-field    : sphere-specific E.n sum rule (ISelfD= 2).
 1st derivatives      : Analytical E(r).r(x)/FMM algorithm (CHGder, D1EAlg=3).
                        Cavity 1st derivative terms included.
 Solvent              : Water, Eps=  78.355300 Eps(inf)=   1.777849
 ------------------------------------------------------------------------------
 ------------------------------------------------------------------------------
 Atomic radii for non-electrostatic terms: SMD-CDS.
 ------------------------------------------------------------------------------
 Nuclear repulsion after PCM non-electrostatic terms =      907.3479190461 Hartrees.
 One-electron integrals computed using PRISM.
 NBasis=   531 RedAO= T EigKep=  3.45D-06  NBF=   531
 NBsUse=   531 1.00D-06 EigRej= -1.00D+00 NBFU=   531
 ExpMin= 3.60D-02 ExpMax= 8.59D+03 ExpMxC= 1.30D+03 IAcc=3 IRadAn=         5 AccDes= 0.00D+00
 Harris functional with IExCor= 1009 and IRadAn=       5 diagonalized for initial guess.
 HarFok:  IExCor= 1009 AccDes= 0.00D+00 IRadAn=         5 IDoV= 1 UseB2=F ITyADJ=14
 ICtDFT=  3500011 ScaDFX=  1.000000  1.000000  1.000000  1.000000
 FoFCou: FMM=F IPFlag=           0 FMFlag=      100000 FMFlg1=           0
         NFxFlg=           0 DoJE=T BraDBF=F KetDBF=T FulRan=T
         wScrn=  0.000000 ICntrl=       500 IOpCl=  0 I1Cent=   200000004 NGrid=           0
         NMat0=    1 NMatS0=      1 NMatT0=    0 NMatD0=    1 NMtDS0=    0 NMtDT0=    0
 Petite list used in FoFCou.
 Requested convergence on RMS density matrix=1.00D-08 within 128 cycles.
 Requested convergence on MAX density matrix=1.00D-06.
 Requested convergence on             energy=1.00D-06.
 No special actions if energy rises.
 Inv3:  Mode=1 IEnd=    12012003.
 Iteration    1 A*A^-1 deviation from unit magnitude is 7.88D-15 for    358.
 Iteration    1 A*A^-1 deviation from orthogonality  is 4.60D-15 for   1669   1015.
 Iteration    1 A^-1*A deviation from unit magnitude is 7.88D-15 for    358.
 Iteration    1 A^-1*A deviation from orthogonality  is 5.55D-15 for   1213   1211.
 Error on total polarization charges =  0.06056
 SCF Done:  E(RM062X) =  -617.502240158     A.U. after   12 cycles
            NFock= 12  Conv=0.53D-08     -V/T= 2.0035
 SMD-CDS (non-electrostatic) energy       (kcal/mol) =       4.00
 (included in total energy above)

 **********************************************************************

            Population analysis using the SCF Density.

 **********************************************************************

 Orbital symmetries:
       Occupied  (A) (A) (A) (A) (A) (A) (A) (A) (A) (A) (A) (A)
                 (A) (A) (A) (A) (A) (A) (A) (A) (A) (A) (A) (A)
                 (A) (A) (A) (A) (A) (A) (A) (A) (A) (A) (A) (A)
                 (A) (A) (A) (A) (A) (A) (A) (A) (A) (A) (A) (A)
                 (A) (A) (A)
       Virtual   (A) (A) (A) (A) (A) (A) (A) (A) (A) (A) (A) (A)
                 (A) (A) (A) (A) (A) (A) (A) (A) (A) (A) (A) (A)
                 (A) (A) (A) (A) (A) (A) (A) (A) (A) (A) (A) (A)
                 (A) (A) (A) (A) (A) (A) (A) (A) (A) (A) (A) (A)
                 (A) (A) (A) (A) (A) (A) (A) (A) (A) (A) (A) (A)
                 (A) (A) (A) (A) (A) (A) (A) (A) (A) (A) (A) (A)
                 (A) (A) (A) (A) (A) (A) (A) (A) (A) (A) (A) (A)
                 (A) (A) (A) (A) (A) (A) (A) (A) (A) (A) (A) (A)
                 (A) (A) (A) (A) (A) (A) (A) (A) (A) (A) (A) (A)
                 (A) (A) (A) (A) (A) (A) (A) (A) (A) (A) (A) (A)
                 (A) (A) (A) (A) (A) (A) (A) (A) (A) (A) (A) (A)
                 (A) (A) (A) (A) (A) (A) (A) (A) (A) (A) (A) (A)
                 (A) (A) (A) (A) (A) (A) (A) (A) (A) (A) (A) (A)
                 (A) (A) (A) (A) (A) (A) (A) (A) (A) (A) (A) (A)
                 (A) (A) (A) (A) (A) (A) (A) (A) (A) (A) (A) (A)
                 (A) (A) (A) (A) (A) (A) (A) (A) (A) (A) (A) (A)
                 (A) (A) (A) (A) (A) (A) (A) (A) (A) (A) (A) (A)
                 (A) (A) (A) (A) (A) (A) (A) (A) (A) (A) (A) (A)
                 (A) (A) (A) (A) (A) (A) (A) (A) (A) (A) (A) (A)
                 (A) (A) (A) (A) (A) (A) (A) (A) (A) (A) (A) (A)
                 (A) (A) (A) (A) (A) (A) (A) (A) (A) (A) (A) (A)
                 (A) (A) (A) (A) (A) (A) (A) (A) (A) (A) (A) (A)
                 (A) (A) (A) (A) (A) (A) (A) (A) (A) (A) (A) (A)
                 (A) (A) (A) (A) (A) (A) (A) (A) (A) (A) (A) (A)
                 (A) (A) (A) (A) (A) (A) (A) (A) (A) (A) (A) (A)
                 (A) (A) (A) (A) (A) (A) (A) (A) (A) (A) (A) (A)
                 (A) (A) (A) (A) (A) (A) (A) (A) (A) (A) (A) (A)
                 (A) (A) (A) (A) (A) (A) (A) (A) (A) (A) (A) (A)
                 (A) (A) (A) (A) (A) (A) (A) (A) (A) (A) (A) (A)
                 (A) (A) (A) (A) (A) (A) (A) (A) (A) (A) (A) (A)
                 (A) (A) (A) (A) (A) (A) (A) (A) (A) (A) (A) (A)
                 (A) (A) (A) (A) (A) (A) (A) (A) (A) (A) (A) (A)
                 (A) (A) (A) (A) (A) (A) (A) (A) (A) (A) (A) (A)
                 (A) (A) (A) (A) (A) (A) (A) (A) (A) (A) (A) (A)
                 (A) (A) (A) (A) (A) (A) (A) (A) (A) (A) (A) (A)
                 (A) (A) (A) (A) (A) (A) (A) (A) (A) (A) (A) (A)
                 (A) (A) (A) (A) (A) (A) (A) (A) (A) (A) (A) (A)
                 (A) (A) (A) (A) (A) (A) (A) (A) (A) (A) (A) (A)
                 (A) (A) (A) (A) (A) (A) (A) (A) (A) (A) (A) (A)
                 (A) (A) (A) (A) (A) (A) (A) (A) (A) (A) (A) (A)
 The electronic state is 1-A.
 Alpha  occ. eigenvalues --  -19.62812 -19.62786 -19.62658 -10.62887 -10.58402
 Alpha  occ. eigenvalues --  -10.57330 -10.57153 -10.57045 -10.52763 -10.52285
 Alpha  occ. eigenvalues --  -10.52278 -10.52230 -10.52040  -1.19948  -1.16675
 Alpha  occ. eigenvalues --   -1.13186  -0.90348  -0.88966  -0.87404  -0.84308
 Alpha  occ. eigenvalues --   -0.74928  -0.73717  -0.72548  -0.70785  -0.66174
 Alpha  occ. eigenvalues --   -0.61657  -0.59724  -0.58656  -0.56605  -0.55332
 Alpha  occ. eigenvalues --   -0.53550  -0.53199  -0.52664  -0.50928  -0.49431
 Alpha  occ. eigenvalues --   -0.47037  -0.46310  -0.46060  -0.45383  -0.44891
 Alpha  occ. eigenvalues --   -0.43251  -0.42714  -0.40468  -0.39815  -0.38656
 Alpha  occ. eigenvalues --   -0.38097  -0.37230  -0.35348  -0.34232  -0.33238
 Alpha  occ. eigenvalues --   -0.31924
 Alpha virt. eigenvalues --    0.00295   0.01302   0.01329   0.01576   0.02738
 Alpha virt. eigenvalues --    0.02916   0.03124   0.03869   0.03890   0.05016
 Alpha virt. eigenvalues --    0.05147   0.05322   0.05842   0.06324   0.07447
 Alpha virt. eigenvalues --    0.07973   0.08142   0.08893   0.09247   0.10184
 Alpha virt. eigenvalues --    0.10321   0.10662   0.11386   0.11962   0.12453
 Alpha virt. eigenvalues --    0.13034   0.13127   0.13415   0.13732   0.14168
 Alpha virt. eigenvalues --    0.14321   0.14707   0.14837   0.14947   0.15518
 Alpha virt. eigenvalues --    0.15576   0.15760   0.16171   0.16232   0.16937
 Alpha virt. eigenvalues --    0.17169   0.17551   0.17977   0.18024   0.18388
 Alpha virt. eigenvalues --    0.18595   0.18808   0.19339   0.19890   0.20184
 Alpha virt. eigenvalues --    0.20324   0.20594   0.20879   0.22025   0.22179
 Alpha virt. eigenvalues --    0.22332   0.22846   0.24011   0.24193   0.24464
 Alpha virt. eigenvalues --    0.25404   0.25776   0.26992   0.27040   0.27588
 Alpha virt. eigenvalues --    0.28376   0.28600   0.29244   0.29671   0.29839
 Alpha virt. eigenvalues --    0.30428   0.30804   0.31043   0.32313   0.32607
 Alpha virt. eigenvalues --    0.32882   0.33326   0.33619   0.34468   0.35281
 Alpha virt. eigenvalues --    0.35598   0.35838   0.35989   0.36424   0.36914
 Alpha virt. eigenvalues --    0.37125   0.37480   0.37803   0.38840   0.39192
 Alpha virt. eigenvalues --    0.39377   0.40021   0.40172   0.40590   0.41404
 Alpha virt. eigenvalues --    0.42365   0.43183   0.43768   0.44568   0.45302
 Alpha virt. eigenvalues --    0.46490   0.48701   0.49980   0.50633   0.50931
 Alpha virt. eigenvalues --    0.51941   0.53425   0.54448   0.54809   0.55151
 Alpha virt. eigenvalues --    0.56694   0.58566   0.58784   0.59266   0.60069
 Alpha virt. eigenvalues --    0.60646   0.61306   0.61460   0.62071   0.62329
 Alpha virt. eigenvalues --    0.63211   0.63808   0.64370   0.65108   0.65548
 Alpha virt. eigenvalues --    0.65966   0.66037   0.66822   0.67613   0.68020
 Alpha virt. eigenvalues --    0.68252   0.68351   0.69772   0.70144   0.70746
 Alpha virt. eigenvalues --    0.71281   0.72088   0.72495   0.73033   0.73762
 Alpha virt. eigenvalues --    0.73927   0.74536   0.75037   0.75549   0.76140
 Alpha virt. eigenvalues --    0.77001   0.78139   0.78765   0.79358   0.79755
 Alpha virt. eigenvalues --    0.81196   0.82289   0.84745   0.84871   0.86092
 Alpha virt. eigenvalues --    0.87827   0.88233   0.88367   0.89852   0.90884
 Alpha virt. eigenvalues --    0.91418   0.91938   0.93625   0.95943   0.97848
 Alpha virt. eigenvalues --    0.98688   0.99848   0.99920   1.00980   1.01947
 Alpha virt. eigenvalues --    1.03487   1.03993   1.04955   1.05998   1.06616
 Alpha virt. eigenvalues --    1.08023   1.08670   1.09955   1.12149   1.12623
 Alpha virt. eigenvalues --    1.14129   1.15591   1.16205   1.17073   1.17682
 Alpha virt. eigenvalues --    1.18490   1.19646   1.20502   1.20828   1.21472
 Alpha virt. eigenvalues --    1.22553   1.22632   1.23381   1.24056   1.24485
 Alpha virt. eigenvalues --    1.25389   1.25849   1.26712   1.27088   1.28267
 Alpha virt. eigenvalues --    1.28850   1.30778   1.31306   1.32039   1.32987
 Alpha virt. eigenvalues --    1.33351   1.33848   1.34502   1.34862   1.36287
 Alpha virt. eigenvalues --    1.37059   1.37419   1.37699   1.38540   1.39168
 Alpha virt. eigenvalues --    1.39651   1.39856   1.41102   1.41535   1.42252
 Alpha virt. eigenvalues --    1.42871   1.43434   1.44908   1.45041   1.46035
 Alpha virt. eigenvalues --    1.46554   1.46746   1.47516   1.48500   1.49231
 Alpha virt. eigenvalues --    1.49960   1.50524   1.50875   1.51841   1.52022
 Alpha virt. eigenvalues --    1.53380   1.53864   1.54668   1.55588   1.56440
 Alpha virt. eigenvalues --    1.57197   1.57869   1.58422   1.58736   1.59748
 Alpha virt. eigenvalues --    1.60036   1.60683   1.60882   1.62553   1.63428
 Alpha virt. eigenvalues --    1.64405   1.65132   1.66133   1.66423   1.67393
 Alpha virt. eigenvalues --    1.68758   1.69286   1.70480   1.71180   1.72305
 Alpha virt. eigenvalues --    1.73206   1.74991   1.75800   1.77151   1.77773
 Alpha virt. eigenvalues --    1.78103   1.80500   1.81952   1.83118   1.86561
 Alpha virt. eigenvalues --    1.87541   1.88743   1.91154   1.97309   2.00596
 Alpha virt. eigenvalues --    2.05533   2.08255   2.15034   2.19203   2.22425
 Alpha virt. eigenvalues --    2.25716   2.26877   2.29980   2.35330   2.38821
 Alpha virt. eigenvalues --    2.42262   2.43548   2.44342   2.46344   2.53791
 Alpha virt. eigenvalues --    2.61864   2.76649   2.77479   2.78546   2.83686
 Alpha virt. eigenvalues --    2.84854   2.89100   2.93576   2.94159   2.95028
 Alpha virt. eigenvalues --    2.96364   2.98080   2.99610   3.02762   3.04241
 Alpha virt. eigenvalues --    3.06335   3.08198   3.09117   3.09988   3.12805
 Alpha virt. eigenvalues --    3.14138   3.14987   3.18642   3.20084   3.22123
 Alpha virt. eigenvalues --    3.24745   3.30407   3.32678   3.33445   3.35419
 Alpha virt. eigenvalues --    3.36523   3.37977   3.38626   3.40693   3.42429
 Alpha virt. eigenvalues --    3.43196   3.44564   3.45606   3.47187   3.47897
 Alpha virt. eigenvalues --    3.49580   3.50288   3.50702   3.51471   3.52120
 Alpha virt. eigenvalues --    3.53657   3.54012   3.55369   3.55700   3.56327
 Alpha virt. eigenvalues --    3.56760   3.57631   3.58699   3.59271   3.60060
 Alpha virt. eigenvalues --    3.60469   3.61988   3.63549   3.65475   3.66033
 Alpha virt. eigenvalues --    3.66971   3.68070   3.68939   3.69319   3.70188
 Alpha virt. eigenvalues --    3.70959   3.72356   3.72965   3.74426   3.74954
 Alpha virt. eigenvalues --    3.75959   3.76425   3.76802   3.77264   3.77710
 Alpha virt. eigenvalues --    3.79814   3.80401   3.81735   3.83581   3.84799
 Alpha virt. eigenvalues --    3.86389   3.87500   3.89932   3.90581   3.92254
 Alpha virt. eigenvalues --    3.93591   3.94334   3.95694   3.98101   3.98767
 Alpha virt. eigenvalues --    4.00698   4.01353   4.02139   4.03426   4.04943
 Alpha virt. eigenvalues --    4.05751   4.06892   4.07357   4.07766   4.08501
 Alpha virt. eigenvalues --    4.09247   4.09843   4.10110   4.11506   4.12501
 Alpha virt. eigenvalues --    4.12546   4.13765   4.15133   4.16282   4.17468
 Alpha virt. eigenvalues --    4.17834   4.18810   4.19154   4.21031   4.21627
 Alpha virt. eigenvalues --    4.22586   4.24466   4.25411   4.27374   4.27830
 Alpha virt. eigenvalues --    4.28751   4.29698   4.31067   4.31819   4.32806
 Alpha virt. eigenvalues --    4.33277   4.34186   4.34836   4.38852   4.41262
 Alpha virt. eigenvalues --    4.42481   4.43373   4.46416   4.48174   4.48724
 Alpha virt. eigenvalues --    4.58788   4.62891   4.73921   4.76148   4.82343
 Alpha virt. eigenvalues --    4.85993   4.94342   4.96330   5.01877   5.03887
 Alpha virt. eigenvalues --    5.07202   5.08263   5.09295   5.09957   5.12046
 Alpha virt. eigenvalues --    5.12606   5.14691   5.17030   5.32263   5.38552
 Alpha virt. eigenvalues --    5.42973   5.58716   5.59795   5.65735   5.86482
 Alpha virt. eigenvalues --    5.87311   6.03994   7.03076   7.05154   7.06399
 Alpha virt. eigenvalues --    7.09825   7.10534   7.12324   7.15614   7.18940
 Alpha virt. eigenvalues --    7.27378   7.36058   7.40302   7.46236   7.53028
 Alpha virt. eigenvalues --    7.54993   7.65417  23.96935  23.98107  24.07180
 Alpha virt. eigenvalues --   24.08060  24.11894  24.12391  24.14659  24.16216
 Alpha virt. eigenvalues --   24.16849  24.22428  50.15473  50.18602  50.27335
          Condensed to atoms (all electrons):
               1          2          3          4          5          6
     1  C    5.957515   0.211561  -0.704331   0.019376  -0.274487   0.112361
     2  C    0.211561   8.090048  -0.936954   0.503167   0.086196  -0.038066
     3  C   -0.704331  -0.936954   7.656590  -0.063150   0.231066   0.027180
     4  C    0.019376   0.503167  -0.063150   5.675982   0.001968  -0.000579
     5  C   -0.274487   0.086196   0.231066   0.001968   5.604312   0.096177
     6  O    0.112361  -0.038066   0.027180  -0.000579   0.096177   8.360694
     7  C   -0.027486  -0.499674   0.155232  -0.033249   0.006052   0.001427
     8  C   -0.002262  -0.521072   0.050763  -0.072791  -0.005524   0.000165
     9  C   -0.093381  -1.634396   0.495784  -0.317977   0.001913   0.017483
    10  C    0.054006  -0.063757   0.006550  -0.011133   0.012131   0.014984
    11  O   -0.007686   0.183288   0.116570  -0.080374  -0.002323   0.000047
    12  O   -0.097301   0.151657  -0.008472  -0.023993  -0.031956   0.028704
    13  C    0.408589   0.250036  -1.378185   0.028892  -0.169420  -0.020449
    14  H    0.454967  -0.018339  -0.001896  -0.001031  -0.005587  -0.060813
    15  H    0.433832  -0.001297  -0.042631   0.001862   0.006378  -0.070255
    16  H    0.014688   0.541506  -0.092746   0.042891  -0.001731   0.000812
    17  H   -0.010501  -0.051069   0.436878  -0.005829  -0.019437   0.010456
    18  H   -0.000193  -0.006364  -0.001566   0.492987   0.000046  -0.000016
    19  H    0.000448   0.009653  -0.001051   0.445471  -0.000039  -0.000011
    20  H    0.001586  -0.003334   0.008169  -0.000130   0.446693  -0.063546
    21  H   -0.028292  -0.005656   0.064531   0.000153   0.443605  -0.058813
    22  H    0.000740  -0.020697  -0.004781  -0.068027  -0.000134  -0.000184
    23  H   -0.002212  -0.009833   0.010792  -0.025939   0.000027   0.000223
    24  H    0.002165   0.004125  -0.002392  -0.028858  -0.000235  -0.000027
    25  H   -0.002268  -0.006507  -0.002463  -0.061100   0.002790  -0.000081
    26  H    0.001621  -0.145454   0.004657  -0.018968  -0.000194  -0.000192
    27  H   -0.005336   0.000599  -0.008195  -0.006494   0.000522  -0.000971
    28  H    0.000088  -0.000556   0.002626  -0.000725  -0.024714   0.010365
    29  H    0.015531  -0.019229   0.002766  -0.002473  -0.113261  -0.015257
    30  H    0.008259   0.000584  -0.030528  -0.000727  -0.012974  -0.004096
    31  H   -0.006770  -0.003855  -0.057609   0.000661  -0.022506  -0.001556
               7          8          9         10         11         12
     1  C   -0.027486  -0.002262  -0.093381   0.054006  -0.007686  -0.097301
     2  C   -0.499674  -0.521072  -1.634396  -0.063757   0.183288   0.151657
     3  C    0.155232   0.050763   0.495784   0.006550   0.116570  -0.008472
     4  C   -0.033249  -0.072791  -0.317977  -0.011133  -0.080374  -0.023993
     5  C    0.006052  -0.005524   0.001913   0.012131  -0.002323  -0.031956
     6  O    0.001427   0.000165   0.017483   0.014984   0.000047   0.028704
     7  C    5.754067  -0.018490   0.215979   0.011636   0.029105  -0.001927
     8  C   -0.018490   5.585702   0.212247  -0.010907   0.085256   0.017273
     9  C    0.215979   0.212247   7.320605   0.087958  -0.003088  -0.035645
    10  C    0.011636  -0.010907   0.087958   5.720734   0.005301   0.056092
    11  O    0.029105   0.085256  -0.003088   0.005301   8.329545  -0.056838
    12  O   -0.001927   0.017273  -0.035645   0.056092  -0.056838   8.416291
    13  C   -0.092028   0.040380  -0.492983  -0.440811  -0.092410  -0.011381
    14  H    0.002481   0.001202   0.005459   0.036382  -0.000417   0.011571
    15  H   -0.001415  -0.002662  -0.001435   0.000386   0.000010   0.001236
    16  H   -0.032724  -0.064697  -0.160084  -0.015727  -0.099656  -0.037234
    17  H    0.002937   0.011614   0.011166  -0.017935   0.005163  -0.038844
    18  H   -0.021270  -0.085288  -0.006274  -0.000417   0.000431  -0.001243
    19  H   -0.050528  -0.037464  -0.006416  -0.000129   0.008509   0.001614
    20  H    0.000709  -0.000495   0.001014  -0.062780   0.000169   0.000675
    21  H   -0.000389   0.000326   0.001117  -0.000032  -0.000052   0.000561
    22  H    0.520453   0.008589  -0.053297  -0.000764   0.003037  -0.002672
    23  H    0.439849   0.004719  -0.034999   0.001233  -0.004512   0.001305
    24  H    0.010396   0.433588  -0.003192   0.000181  -0.067515   0.003095
    25  H   -0.006119   0.462500   0.034484   0.002630  -0.037705   0.006010
    26  H    0.000351   0.020127   0.529406  -0.002502  -0.000569   0.009130
    27  H   -0.047738   0.004337   0.412235  -0.002368   0.007880  -0.002717
    28  H    0.000751   0.000169   0.001538   0.446426   0.000154   0.000874
    29  H    0.001346   0.005052   0.019617   0.543086   0.002235   0.004609
    30  H   -0.003599   0.006577  -0.008640  -0.022699  -0.000966  -0.009586
    31  H   -0.001026  -0.000439  -0.010003  -0.033520  -0.002272   0.000800
              13         14         15         16         17         18
     1  C    0.408589   0.454967   0.433832   0.014688  -0.010501  -0.000193
     2  C    0.250036  -0.018339  -0.001297   0.541506  -0.051069  -0.006364
     3  C   -1.378185  -0.001896  -0.042631  -0.092746   0.436878  -0.001566
     4  C    0.028892  -0.001031   0.001862   0.042891  -0.005829   0.492987
     5  C   -0.169420  -0.005587   0.006378  -0.001731  -0.019437   0.000046
     6  O   -0.020449  -0.060813  -0.070255   0.000812   0.010456  -0.000016
     7  C   -0.092028   0.002481  -0.001415  -0.032724   0.002937  -0.021270
     8  C    0.040380   0.001202  -0.002662  -0.064697   0.011614  -0.085288
     9  C   -0.492983   0.005459  -0.001435  -0.160084   0.011166  -0.006274
    10  C   -0.440811   0.036382   0.000386  -0.015727  -0.017935  -0.000417
    11  O   -0.092410  -0.000417   0.000010  -0.099656   0.005163   0.000431
    12  O   -0.011381   0.011571   0.001236  -0.037234  -0.038844  -0.001243
    13  C    7.458393  -0.077797   0.019814   0.093705   0.007578  -0.001047
    14  H   -0.077797   0.454961  -0.001198  -0.000825  -0.001218  -0.000039
    15  H    0.019814  -0.001198   0.458330  -0.001276  -0.012528  -0.000015
    16  H    0.093705  -0.000825  -0.001276   0.532661  -0.002517   0.002389
    17  H    0.007578  -0.001218  -0.012528  -0.002517   0.445359  -0.000123
    18  H   -0.001047  -0.000039  -0.000015   0.002389  -0.000123   0.477952
    19  H    0.002759   0.000008  -0.000023   0.001357   0.000337  -0.012365
    20  H    0.012802   0.000327   0.000492   0.002681  -0.000079   0.000014
    21  H   -0.065081   0.004225  -0.001239  -0.000589   0.003469   0.000001
    22  H    0.004221  -0.000167  -0.001026  -0.004517   0.000362   0.001225
    23  H   -0.005781   0.000122   0.000087   0.003127   0.000437  -0.001831
    24  H    0.003456   0.000065   0.000101  -0.001438   0.000201  -0.005719
    25  H   -0.018482   0.000423  -0.000367   0.005238  -0.007698   0.003990
    26  H   -0.000934  -0.000015   0.000333  -0.026865  -0.000043  -0.002512
    27  H    0.013200  -0.000008   0.000172  -0.006785  -0.000525  -0.000997
    28  H   -0.062482   0.001275   0.000951  -0.002484  -0.000284  -0.000018
    29  H   -0.056448  -0.001136   0.000616  -0.017111   0.001367  -0.000398
    30  H    0.433200  -0.002283   0.000873  -0.014186  -0.003332  -0.000028
    31  H    0.488726  -0.002616   0.000031   0.002112  -0.006686  -0.000071
              19         20         21         22         23         24
     1  C    0.000448   0.001586  -0.028292   0.000740  -0.002212   0.002165
     2  C    0.009653  -0.003334  -0.005656  -0.020697  -0.009833   0.004125
     3  C   -0.001051   0.008169   0.064531  -0.004781   0.010792  -0.002392
     4  C    0.445471  -0.000130   0.000153  -0.068027  -0.025939  -0.028858
     5  C   -0.000039   0.446693   0.443605  -0.000134   0.000027  -0.000235
     6  O   -0.000011  -0.063546  -0.058813  -0.000184   0.000223  -0.000027
     7  C   -0.050528   0.000709  -0.000389   0.520453   0.439849   0.010396
     8  C   -0.037464  -0.000495   0.000326   0.008589   0.004719   0.433588
     9  C   -0.006416   0.001014   0.001117  -0.053297  -0.034999  -0.003192
    10  C   -0.000129  -0.062780  -0.000032  -0.000764   0.001233   0.000181
    11  O    0.008509   0.000169  -0.000052   0.003037  -0.004512  -0.067515
    12  O    0.001614   0.000675   0.000561  -0.002672   0.001305   0.003095
    13  C    0.002759   0.012802  -0.065081   0.004221  -0.005781   0.003456
    14  H    0.000008   0.000327   0.004225  -0.000167   0.000122   0.000065
    15  H   -0.000023   0.000492  -0.001239  -0.001026   0.000087   0.000101
    16  H    0.001357   0.002681  -0.000589  -0.004517   0.003127  -0.001438
    17  H    0.000337  -0.000079   0.003469   0.000362   0.000437   0.000201
    18  H   -0.012365   0.000014   0.000001   0.001225  -0.001831  -0.005719
    19  H    0.480584  -0.000012   0.000002  -0.004005  -0.007592  -0.009700
    20  H   -0.000012   0.465447  -0.002203   0.000017   0.000050  -0.000045
    21  H    0.000002  -0.002203   0.475741  -0.000034  -0.000012   0.000036
    22  H   -0.004005   0.000017  -0.000034   0.456121  -0.009358  -0.002098
    23  H   -0.007592   0.000050  -0.000012  -0.009358   0.466420   0.001103
    24  H   -0.009700  -0.000045   0.000036  -0.002098   0.001103   0.464017
    25  H   -0.000007   0.000192  -0.000256  -0.002911  -0.000769  -0.012184
    26  H   -0.002402  -0.000180   0.000021   0.002408  -0.005277   0.000403
    27  H    0.000898  -0.000023  -0.000143  -0.000165  -0.009692   0.000878
    28  H    0.000004  -0.009830   0.005255   0.000025   0.000036   0.000037
    29  H    0.000068  -0.005652   0.001660  -0.000082   0.000069   0.000338
    30  H    0.000128  -0.000396  -0.001128   0.000063  -0.000257  -0.000636
    31  H    0.000078  -0.001204  -0.003509  -0.000011  -0.000054   0.000040
              25         26         27         28         29         30
     1  C   -0.002268   0.001621  -0.005336   0.000088   0.015531   0.008259
     2  C   -0.006507  -0.145454   0.000599  -0.000556  -0.019229   0.000584
     3  C   -0.002463   0.004657  -0.008195   0.002626   0.002766  -0.030528
     4  C   -0.061100  -0.018968  -0.006494  -0.000725  -0.002473  -0.000727
     5  C    0.002790  -0.000194   0.000522  -0.024714  -0.113261  -0.012974
     6  O   -0.000081  -0.000192  -0.000971   0.010365  -0.015257  -0.004096
     7  C   -0.006119   0.000351  -0.047738   0.000751   0.001346  -0.003599
     8  C    0.462500   0.020127   0.004337   0.000169   0.005052   0.006577
     9  C    0.034484   0.529406   0.412235   0.001538   0.019617  -0.008640
    10  C    0.002630  -0.002502  -0.002368   0.446426   0.543086  -0.022699
    11  O   -0.037705  -0.000569   0.007880   0.000154   0.002235  -0.000966
    12  O    0.006010   0.009130  -0.002717   0.000874   0.004609  -0.009586
    13  C   -0.018482  -0.000934   0.013200  -0.062482  -0.056448   0.433200
    14  H    0.000423  -0.000015  -0.000008   0.001275  -0.001136  -0.002283
    15  H   -0.000367   0.000333   0.000172   0.000951   0.000616   0.000873
    16  H    0.005238  -0.026865  -0.006785  -0.002484  -0.017111  -0.014186
    17  H   -0.007698  -0.000043  -0.000525  -0.000284   0.001367  -0.003332
    18  H    0.003990  -0.002512  -0.000997  -0.000018  -0.000398  -0.000028
    19  H   -0.000007  -0.002402   0.000898   0.000004   0.000068   0.000128
    20  H    0.000192  -0.000180  -0.000023  -0.009830  -0.005652  -0.000396
    21  H   -0.000256   0.000021  -0.000143   0.005255   0.001660  -0.001128
    22  H   -0.002911   0.002408  -0.000165   0.000025  -0.000082   0.000063
    23  H   -0.000769  -0.005277  -0.009692   0.000036   0.000069  -0.000257
    24  H   -0.012184   0.000403   0.000878   0.000037   0.000338  -0.000636
    25  H    0.494630  -0.001378  -0.000359   0.000041  -0.000862  -0.000494
    26  H   -0.001378   0.443532  -0.002275  -0.000187   0.002165   0.000424
    27  H   -0.000359  -0.002275   0.462212   0.000224  -0.002259  -0.000272
    28  H    0.000041  -0.000187   0.000224   0.472022  -0.009246  -0.005736
    29  H   -0.000862   0.002165  -0.002259  -0.009246   0.492090   0.001697
    30  H   -0.000494   0.000424  -0.000272  -0.005736   0.001697   0.457587
    31  H   -0.000502  -0.000066   0.000330  -0.007859   0.003827   0.003307
              31
     1  C   -0.006770
     2  C   -0.003855
     3  C   -0.057609
     4  C    0.000661
     5  C   -0.022506
     6  O   -0.001556
     7  C   -0.001026
     8  C   -0.000439
     9  C   -0.010003
    10  C   -0.033520
    11  O   -0.002272
    12  O    0.000800
    13  C    0.488726
    14  H   -0.002616
    15  H    0.000031
    16  H    0.002112
    17  H   -0.006686
    18  H   -0.000071
    19  H    0.000078
    20  H   -0.001204
    21  H   -0.003509
    22  H   -0.000011
    23  H   -0.000054
    24  H    0.000040
    25  H   -0.000502
    26  H   -0.000066
    27  H    0.000330
    28  H   -0.007859
    29  H    0.003827
    30  H    0.003307
    31  H    0.410997
 Mulliken charges:
               1
     1  C   -0.434826
     2  C   -0.046308
     3  C    0.066796
     4  C   -0.389863
     5  C   -0.255355
     6  O   -0.346164
     7  C   -0.315110
     8  C   -0.128493
     9  C   -0.506195
    10  C   -0.314235
    11  O   -0.320320
    12  O   -0.351689
    13  C   -0.280034
    14  H    0.201920
    15  H    0.211863
    16  H    0.340025
    17  H    0.241323
    18  H    0.168761
    19  H    0.179824
    20  H    0.208870
    21  H    0.166728
    22  H    0.177669
    23  H    0.188521
    24  H    0.209814
    25  H    0.149584
    26  H    0.195434
    27  H    0.193836
    28  H    0.181262
    29  H    0.145275
    30  H    0.209862
    31  H    0.251224
 Sum of Mulliken charges =  -0.00000
 Mulliken charges with hydrogens summed into heavy atoms:
               1
     1  C   -0.021043
     2  C    0.293717
     3  C    0.308119
     4  C   -0.041278
     5  C    0.120243
     6  O   -0.346164
     7  C    0.051080
     8  C    0.230905
     9  C   -0.116925
    10  C    0.012302
    11  O   -0.320320
    12  O   -0.351689
    13  C    0.181052
 Electronic spatial extent (au):  <R**2>=           2818.2519
 Charge=             -0.0000 electrons
 Dipole moment (field-independent basis, Debye):
    X=             -0.1717    Y=              1.8467    Z=              0.3378  Tot=              1.8852
 Quadrupole moment (field-independent basis, Debye-Ang):
   XX=            -70.0850   YY=            -85.5654   ZZ=            -74.4050
   XY=             -9.0098   XZ=              1.4071   YZ=              2.4794
 Traceless Quadrupole moment (field-independent basis, Debye-Ang):
   XX=              6.6002   YY=             -8.8803   ZZ=              2.2801
   XY=             -9.0098   XZ=              1.4071   YZ=              2.4794
 Octapole moment (field-independent basis, Debye-Ang**2):
  XXX=              0.5329  YYY=              3.2822  ZZZ=              4.2478  XYY=              5.9394
  XXY=             17.8064  XXZ=              1.1211  XZZ=             -7.2850  YZZ=             -1.7556
  YYZ=              2.6519  XYZ=              3.7563
 Hexadecapole moment (field-independent basis, Debye-Ang**3):
 XXXX=          -2644.1535 YYYY=           -556.5973 ZZZZ=           -419.3206 XXXY=            -30.7105
 XXXZ=             35.7386 YYYX=             -8.4828 YYYZ=              3.4722 ZZZX=             -8.2168
 ZZZY=             -2.8504 XXYY=           -572.8946 XXZZ=           -504.5078 YYZZ=           -157.8685
 XXYZ=             19.3991 YYXZ=              7.0186 ZZXY=              7.1134
 N-N= 9.073479190461D+02 E-N=-3.257127810580D+03  KE= 6.153524495239D+02
 D1PCM: PCM CHGder 1st derivatives, ID1Alg=3 FixD1E=F DoIter=F DoCFld=F I1PDM=0.
 Calling FoFJK, ICntrl=      2127 FMM=F ISym2X=0 I1Cent= 0 IOpClX= 0 NMat=1 NMatS=1 NMatT=0.
 ***** Axes restored to original set *****
 -------------------------------------------------------------------
 Center     Atomic                   Forces (Hartrees/Bohr)
 Number     Number              X              Y              Z
 -------------------------------------------------------------------
      1        6           0.001695930    0.005809213   -0.001988278
      2        6           0.006084389   -0.002416677    0.003297558
      3        6           0.001014656    0.008562391    0.000186771
      4        6          -0.002853416   -0.000929344    0.001056797
      5        6           0.004242150    0.005492788   -0.001075091
      6        8           0.001293992   -0.011690731   -0.003139363
      7        6          -0.001162087    0.004047777   -0.001201376
      8        6           0.003284606   -0.006607151   -0.001828245
      9        6           0.000833100   -0.000035661    0.002910286
     10        6          -0.000318433    0.000192939    0.003636383
     11        8          -0.001759272    0.013409415   -0.005186064
     12        8          -0.003488726   -0.017413788    0.000369086
     13        6          -0.003446868   -0.008039864   -0.001943093
     14        1          -0.003223131    0.003400917    0.003384139
     15        1           0.002952980   -0.003563306    0.002248748
     16        1          -0.005079624    0.003288529   -0.006447016
     17        1           0.000980107    0.003152941    0.004743434
     18        1           0.000942373    0.001302571   -0.002993965
     19        1           0.001691725   -0.000484083    0.002076291
     20        1          -0.001939551   -0.002194341   -0.003390116
     21        1          -0.003391375    0.003286081    0.003306345
     22        1          -0.001989507   -0.000759094    0.003117552
     23        1           0.001563033   -0.001614981   -0.001164263
     24        1           0.002089603    0.003851152    0.000570045
     25        1          -0.002347928   -0.002416166    0.005202657
     26        1           0.001342345    0.001642909   -0.002560586
     27        1          -0.002112358   -0.002485319   -0.000323483
     28        1          -0.001478893    0.002012123   -0.001271381
     29        1           0.002834455   -0.002332761   -0.002241848
     30        1           0.004039360    0.001990258   -0.001628653
     31        1          -0.002293633    0.001541264    0.002276729
 -------------------------------------------------------------------
 Cartesian Forces:  Max     0.017413788 RMS     0.003999599

 GradGradGradGradGradGradGradGradGradGradGradGradGradGradGradGradGradGrad
 Berny optimization.
 FormGI is forming the generalized inverse of G from B-inverse, IUseBI=4.
 Internal  Forces:  Max     0.017312582 RMS     0.002437278
 Search for a local minimum.
 Step number   1 out of a maximum of  186
 All quantities printed in internal units (Hartrees-Bohrs-Radians)
 Mixed Optimization -- RFO/linear search
 Second derivative matrix not updated -- first step.
 ITU=  0
     Eigenvalues ---    0.00545   0.00622   0.00722   0.00728   0.01409
     Eigenvalues ---    0.01463   0.01774   0.02698   0.02800   0.02975
     Eigenvalues ---    0.03073   0.04082   0.04192   0.04394   0.04748
     Eigenvalues ---    0.04891   0.04912   0.04936   0.05111   0.05142
     Eigenvalues ---    0.05278   0.05587   0.05685   0.06170   0.06174
     Eigenvalues ---    0.06356   0.06762   0.07055   0.07621   0.07859
     Eigenvalues ---    0.07968   0.08011   0.08055   0.08250   0.08419
     Eigenvalues ---    0.08835   0.09209   0.09552   0.10714   0.11600
     Eigenvalues ---    0.11695   0.11723   0.11765   0.12398   0.12620
     Eigenvalues ---    0.14691   0.14832   0.16222   0.16473   0.17632
     Eigenvalues ---    0.19097   0.21477   0.21947   0.25000   0.28403
     Eigenvalues ---    0.28558   0.28635   0.28860   0.28934   0.28953
     Eigenvalues ---    0.30299   0.30404   0.35063   0.35087   0.35135
     Eigenvalues ---    0.35163   0.35199   0.35206   0.35233   0.35256
     Eigenvalues ---    0.35310   0.35365   0.35370   0.35403   0.35440
     Eigenvalues ---    0.35736   0.35826   0.35830   0.35883   0.36503
     Eigenvalues ---    0.40905   0.41354   0.41439   0.42347   0.43007
     Eigenvalues ---    0.466691000.000001000.000001000.000001000.00000
     Eigenvalues --- 1000.000001000.000001000.000001000.000001000.00000
     Eigenvalues --- 1000.000001000.000001000.000001000.000001000.00000
     Eigenvalues --- 1000.000001000.000001000.000001000.000001000.00000
     Eigenvalues --- 1000.000001000.000001000.000001000.000001000.00000
     Eigenvalues --- 1000.000001000.000001000.000001000.000001000.00000
     Eigenvalues --- 1000.000001000.000001000.000001000.000001000.00000
     Eigenvalues --- 1000.000001000.000001000.000001000.000001000.00000
     Eigenvalues --- 1000.000001000.000001000.000001000.000001000.00000
     Eigenvalues --- 1000.000001000.000001000.000001000.000001000.00000
     Eigenvalues --- 1000.000001000.000001000.000001000.000001000.00000
     Eigenvalues --- 1000.000001000.000001000.000001000.000001000.00000
     Eigenvalues --- 1000.000001000.000001000.000001000.000001000.00000
     Eigenvalues --- 1000.000001000.000001000.000001000.000001000.00000
     Eigenvalues --- 1000.000001000.000001000.000001000.000001000.00000
     Eigenvalues --- 1000.000001000.000001000.000001000.000001000.00000
     Eigenvalues --- 1000.000001000.000001000.000001000.000001000.00000
     Eigenvalues --- 1000.000001000.000001000.000001000.000001000.00000
     Eigenvalues --- 1000.000001000.000001000.000001000.000001000.00000
     Eigenvalues --- 1000.000001000.000001000.000001000.000001000.00000
 RFO step:  Lambda=-4.38141081D-03 EMin= 5.44893696D-03
 Linear search not attempted -- first point.
 Iteration  1 RMS(Cart)=  0.06665316 RMS(Int)=  0.00096737
 Iteration  2 RMS(Cart)=  0.00287313 RMS(Int)=  0.00005270
 Iteration  3 RMS(Cart)=  0.00000291 RMS(Int)=  0.00005267
 Iteration  4 RMS(Cart)=  0.00000000 RMS(Int)=  0.00005267
 Iteration  1 RMS(Cart)=  0.00006010 RMS(Int)=  0.00001282
 Iteration  2 RMS(Cart)=  0.00003316 RMS(Int)=  0.00001432
 Iteration  3 RMS(Cart)=  0.00001830 RMS(Int)=  0.00001620
 Iteration  4 RMS(Cart)=  0.00001010 RMS(Int)=  0.00001745
 Iteration  5 RMS(Cart)=  0.00000557 RMS(Int)=  0.00001819
 Iteration  6 RMS(Cart)=  0.00000307 RMS(Int)=  0.00001862
 Iteration  7 RMS(Cart)=  0.00000170 RMS(Int)=  0.00001886
 Iteration  8 RMS(Cart)=  0.00000094 RMS(Int)=  0.00001899
 Variable       Old X    -DE/DX   Delta X   Delta X   Delta X     New X
                                 (Linear)    (Quad)   (Total)
    R1        2.87004  -0.00080   0.00000  -0.00247  -0.00241   2.86764
    R2        2.66536   0.00613   0.00000   0.01454   0.01458   2.67994
    R3        2.05456   0.00567   0.00000   0.01593   0.01593   2.07049
    R4        2.04266   0.00508   0.00000   0.01399   0.01399   2.05664
    R5        2.87609  -0.00103   0.00000  -0.00334  -0.00335   2.87275
    R6        2.65853   0.00769   0.00000   0.01747   0.01750   2.67602
    R7        2.63384   0.00623   0.00000   0.01323   0.01323   2.64708
    R8        2.03303   0.00882   0.00000   0.02388   0.02388   2.05691
    R9        2.69754   0.00248   0.00000   0.00594   0.00594   2.70348
   R10        2.89410  -0.00232   0.00000  -0.00953  -0.00950   2.88460
   R11        2.05078   0.00571   0.00000   0.01596   0.01596   2.06673
   R12        2.88888  -0.00086   0.00000  -0.00339  -0.00342   2.88546
   R13        2.87152  -0.00078   0.00000  -0.00250  -0.00249   2.86902
   R14        2.05534   0.00330   0.00000   0.00928   0.00928   2.06463
   R15        2.05298   0.00272   0.00000   0.00762   0.00762   2.06059
   R16        2.67555   0.00583   0.00000   0.01462   0.01459   2.69014
   R17        2.87335  -0.00077   0.00000  -0.00241  -0.00247   2.87088
   R18        2.04355   0.00447   0.00000   0.01234   0.01234   2.05589
   R19        2.05573   0.00567   0.00000   0.01597   0.01597   2.07170
   R20        2.89003  -0.00128   0.00000  -0.00478  -0.00481   2.88521
   R21        2.05342   0.00365   0.00000   0.01025   0.01025   2.06368
   R22        2.05174   0.00252   0.00000   0.00705   0.00705   2.05880
   R23        2.68558   0.00592   0.00000   0.01424   0.01427   2.69985
   R24        2.04349   0.00442   0.00000   0.01218   0.01218   2.05567
   R25        2.05026   0.00613   0.00000   0.01711   0.01711   2.06737
   R26        2.05352   0.00324   0.00000   0.00908   0.00908   2.06261
   R27        2.04966   0.00325   0.00000   0.00906   0.00906   2.05872
   R28        2.89751  -0.00141   0.00000  -0.00592  -0.00597   2.89154
   R29        2.05261   0.00280   0.00000   0.00784   0.00784   2.06045
   R30        2.05086   0.00420   0.00000   0.01174   0.01174   2.06260
   R31        2.04496   0.00462   0.00000   0.01277   0.01277   2.05773
   R32        2.05411   0.00354   0.00000   0.00995   0.00995   2.06407
    A1        1.95752   0.00027   0.00000   0.00034   0.00044   1.95796
    A2        1.90340  -0.00138   0.00000  -0.00516  -0.00520   1.89819
    A3        1.92775  -0.00032   0.00000  -0.00797  -0.00802   1.91973
    A4        1.91081   0.00165   0.00000   0.01210   0.01209   1.92290
    A5        1.86749  -0.00080   0.00000  -0.00373  -0.00381   1.86368
    A6        1.89577   0.00065   0.00000   0.00486   0.00484   1.90061
    A7        1.94024   0.00241   0.00000   0.01103   0.01095   1.95119
    A8        1.88910  -0.00193   0.00000  -0.00918  -0.00914   1.87996
    A9        1.92681   0.00032   0.00000   0.00521   0.00522   1.93203
   A10        1.94091  -0.00003   0.00000  -0.00429  -0.00422   1.93669
   A11        1.83066  -0.00171   0.00000  -0.00841  -0.00844   1.82223
   A12        1.93646   0.00104   0.00000   0.00620   0.00619   1.94266
   A13        1.87297   0.00047   0.00000  -0.00216  -0.00252   1.87045
   A14        1.92272   0.00068   0.00000   0.00142   0.00115   1.92387
   A15        1.87790  -0.00068   0.00000   0.00717   0.00710   1.88499
   A16        2.03842  -0.00317   0.00000  -0.03235  -0.03236   2.00606
   A17        1.85843   0.00206   0.00000   0.02372   0.02380   1.88223
   A18        1.88677   0.00079   0.00000   0.00563   0.00578   1.89255
   A19        1.92377  -0.00029   0.00000  -0.00420  -0.00434   1.91943
   A20        1.91606   0.00067   0.00000   0.00194   0.00198   1.91805
   A21        1.93912  -0.00055   0.00000  -0.00119  -0.00117   1.93795
   A22        1.90517  -0.00012   0.00000  -0.00097  -0.00093   1.90424
   A23        1.90335   0.00009   0.00000  -0.00042  -0.00038   1.90297
   A24        1.87546   0.00021   0.00000   0.00505   0.00503   1.88049
   A25        1.93378   0.00043   0.00000   0.00481   0.00474   1.93852
   A26        1.85866  -0.00070   0.00000  -0.00248  -0.00245   1.85621
   A27        1.90095   0.00098   0.00000   0.00490   0.00493   1.90588
   A28        1.94395  -0.00027   0.00000  -0.00296  -0.00295   1.94100
   A29        1.93299  -0.00092   0.00000  -0.00722  -0.00722   1.92577
   A30        1.89126   0.00052   0.00000   0.00334   0.00332   1.89458
   A31        1.96871  -0.00360   0.00000  -0.02260  -0.02253   1.94618
   A32        1.91433   0.00241   0.00000  -0.00086  -0.00092   1.91342
   A33        1.91419  -0.00103   0.00000  -0.00170  -0.00172   1.91247
   A34        1.92990  -0.00044   0.00000   0.00086   0.00091   1.93082
   A35        1.92237  -0.00087   0.00000  -0.00277  -0.00276   1.91961
   A36        1.91597  -0.00083   0.00000  -0.00067  -0.00065   1.91532
   A37        1.86664   0.00069   0.00000   0.00522   0.00522   1.87186
   A38        1.94504   0.00159   0.00000   0.00476   0.00476   1.94980
   A39        1.94530  -0.00013   0.00000  -0.00195  -0.00193   1.94338
   A40        1.93167  -0.00136   0.00000  -0.00639  -0.00642   1.92525
   A41        1.84287  -0.00105   0.00000  -0.00144  -0.00145   1.84142
   A42        1.90929   0.00045   0.00000   0.00296   0.00299   1.91228
   A43        1.88671   0.00052   0.00000   0.00237   0.00236   1.88908
   A44        1.95554  -0.00112   0.00000  -0.01159  -0.01168   1.94386
   A45        1.87164  -0.00016   0.00000   0.00073   0.00075   1.87239
   A46        1.90088   0.00039   0.00000  -0.00199  -0.00197   1.89892
   A47        1.90986   0.00106   0.00000   0.00668   0.00671   1.91657
   A48        1.94725  -0.00021   0.00000   0.00046   0.00040   1.94765
   A49        1.87543   0.00009   0.00000   0.00646   0.00644   1.88187
   A50        1.92957  -0.00019   0.00000  -0.00651  -0.00661   1.92296
   A51        1.90672   0.00033   0.00000   0.00197   0.00199   1.90871
   A52        1.89813  -0.00026   0.00000  -0.00039  -0.00036   1.89777
   A53        1.91979  -0.00056   0.00000  -0.00019  -0.00016   1.91963
   A54        1.93808   0.00047   0.00000   0.00022   0.00023   1.93832
   A55        1.87031   0.00023   0.00000   0.00530   0.00528   1.87559
   A56        2.02162  -0.00583   0.00000  -0.03305  -0.03294   1.98868
   A57        2.13684  -0.01731   0.00000  -0.06806  -0.06806   2.06878
   A58        1.96602   0.00173   0.00000  -0.00790  -0.00794   1.95808
   A59        1.94718  -0.00125   0.00000  -0.01137  -0.01146   1.93572
   A60        1.84400  -0.00053   0.00000   0.00586   0.00590   1.84990
   A61        1.94553  -0.00034   0.00000  -0.00204  -0.00220   1.94333
   A62        1.89592  -0.00029   0.00000   0.00901   0.00901   1.90493
   A63        1.85830   0.00064   0.00000   0.00863   0.00865   1.86695
    D1       -1.31702   0.00337   0.00000   0.06025   0.06031  -1.25671
[...]
 00943,0.00000233,-0.00000253,-0.00031422,-0.00037733,0.00002045,-0.000
 21106,-0.00002318,-0.00005813,0.00131484,-0.00108336,0.00067791,0.0003
 2016,-0.00028323,0.00040292,-0.00000227,-0.00000553,0.00000153,-0.0000
 0248,-0.00000327,0.00000300,-0.00018110,-0.00036476,-0.00021240,-0.000
 03781,-0.00010082,0.00016012,-0.00101234,-0.00077040,0.00591206,-0.103
 58749,-0.07179215,0.25241346,-0.00006204,0.00035445,0.00020514,-0.0084
 4529,-0.00954331,0.01582874,0.00119613,-0.00071382,0.00062501,0.001228
 26,0.00061158,0.00019507,0.00006286,-0.00003556,0.00001816,-0.00010492
 ,-0.00006391,-0.00009603,0.00968097,0.00792938,-0.02258269,-0.00024393
 ,0.00012784,-0.00010094,-0.09355128,-0.03354942,0.09503765,0.00001800,
 0.00004874,0.00000753,0.00103063,-0.00045105,-0.00104487,-0.00534559,0
 .00414133,0.00360142,-0.00007603,0.00001308,0.00012835,-0.00013622,-0.
 00009958,0.00001535,0.00000987,-0.00001270,-0.00000682,0.00036576,-0.0
 0052364,-0.00037753,-0.00034440,0.00025139,0.00025937,-0.00014351,-0.0
 0004292,0.00041922,-0.00002633,0.00016832,0.00026050,-0.00001452,-0.00
 000354,-0.00000592,-0.00000664,0.00000677,0.00000439,-0.00306113,0.000
 54541,-0.00386457,0.00126019,-0.00020309,0.00095506,0.00006507,-0.0000
 3302,-0.00000054,-0.00003182,-0.00002789,0.00001250,0.10392730,0.00013
 028,-0.00036787,-0.00022977,0.00866401,0.00690169,-0.02044234,-0.00022
 816,0.00091459,-0.00057943,0.00000789,0.00029098,-0.00088066,-0.000046
 85,0.00002846,-0.00001341,0.00007928,0.00004713,0.00008838,-0.00225055
 ,-0.00338575,0.00674408,0.00026335,-0.00000830,-0.00000595,-0.03718857
 ,-0.07555968,0.07126204,-0.00000693,-0.00003695,-0.00000064,0.00004982
 ,0.00079324,0.00062291,0.00487681,-0.00311195,-0.00294790,0.00001099,0
 .00003185,-0.00007285,0.00013011,0.00010039,-0.00002625,-0.00001304,0.
 00000869,0.00000435,-0.00050011,0.00093668,0.00045842,0.00016061,-0.00
 013329,-0.00014199,0.00003297,0.00034698,-0.00003995,0.00010714,-0.000
 00347,-0.00008513,0.00001053,0.00000137,0.00000441,0.00000399,-0.00000
 592,-0.00000462,0.00151484,0.00081306,0.00096764,-0.00031113,0.0001257
 5,-0.00012168,-0.00004568,0.00001875,-0.00000112,-0.00001001,-0.000004
 50,0.00004621,0.03483747,0.07836869,0.00006356,-0.00022246,-0.00013812
 ,0.00308333,0.00508679,-0.00990689,-0.00052910,0.00064635,0.00013119,0
 .00094732,0.00022682,0.00061269,-0.00003202,0.00001802,-0.00001094,0.0
 0005694,0.00002664,0.00005927,0.00810754,0.00740524,-0.01980856,-0.000
 19449,-0.00001516,-0.00008798,0.09558799,0.06762609,-0.23948844,-0.000
 00966,-0.00001789,-0.00000802,-0.00048685,-0.00001059,0.00081637,0.002
 55896,-0.00193096,-0.00017156,0.00004151,-0.00002461,-0.00009879,0.000
 07413,0.00006300,-0.00001705,-0.00001234,0.00000771,0.00000343,-0.0001
 3240,-0.00029098,0.00075059,0.00009553,-0.00005932,-0.00009564,-0.0002
 0762,-0.00047631,0.00002804,-0.00021708,-0.00001513,0.00026602,0.00000
 811,0.00000272,0.00000390,0.00000458,-0.00000351,-0.00000302,-0.003503
 79,0.00063254,-0.00197836,0.00010487,-0.00011457,0.00117027,0.00004097
 ,-0.00007007,-0.00003155,-0.00000176,0.00004717,0.00001438,-0.10269130
 ,-0.07726053,0.26144368,0.00001480,-0.00002537,-0.00000623,0.01091530,
 0.01452673,0.00388600,0.00023289,-0.00007610,-0.00018799,-0.00273539,0
 .00257799,-0.00397976,-0.00000910,0.00000498,-0.00001465,0.00003601,-0
 .00000916,-0.00001737,-0.01167188,-0.01956356,-0.00294079,-0.00117673,
 0.00055295,-0.00050431,-0.12657118,-0.12056966,-0.02789992,-0.00001987
 ,-0.00000792,0.00002773,-0.00052389,0.00589975,0.00308475,0.00074941,0
 .00048735,-0.00011677,0.00000284,0.00001407,-0.00002678,0.00000162,0.0
 0001032,0.00000161,-0.00000085,0.00000091,-0.00000019,0.00049704,-0.00
 086796,-0.00061949,0.00000557,0.00002210,-0.00001511,0.00012359,0.0002
 9409,0.00014867,-0.00051342,-0.00153067,-0.00067802,0.00000124,0.00000
 027,0.00000217,0.00000234,-0.00000287,-0.00000047,0.00110355,0.0003217
 5,0.00022172,0.00051986,0.00005891,0.00085033,0.00024250,-0.00015032,0
 .00010163,0.00012196,-0.00006345,0.00006358,-0.00717379,-0.01031680,-0
 .00280283,0.13579571,0.00005201,-0.00005586,-0.00005407,-0.01576771,-0
 .01739175,-0.00258932,0.00029464,0.00033132,0.00024537,0.00132693,0.00
 060520,0.00122051,0.00001645,-0.00001725,0.00000354,0.00000845,-0.0000
 0422,-0.00000331,0.00468066,0.00811766,0.00147020,0.00115930,-0.000056
 29,0.00143843,-0.11715683,-0.23092386,-0.04409220,0.00002349,0.0000043
 5,0.00000100,0.00237461,-0.00612279,-0.00348821,-0.00090338,0.00154794
 ,0.00102562,-0.00000799,-0.00002247,0.00004540,0.00001630,0.00001082,-
 0.00000709,-0.00000168,-0.00000145,-0.00000082,0.00025129,0.00062718,0
 .00033013,-0.00010389,0.00005750,0.00006528,0.00002380,0.00000741,0.00
 001412,0.00029648,0.00032659,0.00027687,0.00000444,0.00000544,0.000000
 79,0.00000261,0.00000404,-0.00000008,-0.00044482,0.00036079,-0.0004342
 4,-0.00054703,0.00035948,-0.00053809,-0.00019338,0.00003840,-0.0001390
 2,-0.00011594,0.00006602,-0.00019053,-0.00377744,-0.00706224,-0.001254
 84,0.12845060,0.24917712,0.00001253,-0.00000398,-0.00000660,-0.0056260
 8,-0.00806909,-0.00439231,-0.00006279,0.00012357,0.00012943,-0.0031291
 2,0.00226448,-0.00248323,0.00000943,-0.00001081,0.00000637,-0.00000772
 ,0.00000524,-0.00000842,-0.01133320,-0.01925694,-0.00487747,0.00009429
 ,0.00045561,0.00058007,-0.02628958,-0.04086750,-0.05727984,-0.00000183
 ,0.00001127,0.00000820,0.00086713,-0.00249149,0.00009775,-0.00024143,-
 0.00016590,0.00046294,-0.00001276,-0.00001367,0.00002421,-0.00000083,-
 0.00000134,-0.00000429,0.00000230,-0.00000147,-0.00000601,0.00021108,0
 .00013055,0.00007960,-0.00002327,0.00000984,0.00002247,-0.00015700,-0.
 00026146,0.00013894,-0.00064778,-0.00114727,-0.00020823,0.00000034,0.0
 0000160,0.00000001,0.00000057,0.00000262,-0.00000177,0.00091188,-0.000
 28036,0.00079892,0.00056186,0.00033217,0.00075128,0.00004170,-0.000048
 02,0.00001908,0.00004502,-0.00000260,-0.00005384,0.01332431,0.02256810
 ,0.00649079,0.03143685,0.04671102,0.05974456,-0.00091517,-0.00071822,-
 0.00060069,0.00046224,-0.00003881,0.00041935,-0.00058521,-0.00344433,-
 0.00207410,0.00000272,0.00000626,-0.00001869,0.01273317,-0.01273882,0.
 00922727,-0.00115361,-0.00566230,0.00404523,-0.00001117,0.00004163,0.0
 0004313,0.00005840,-0.00004698,0.00006538,-0.00006007,-0.00004499,-0.0
 0008761,-0.11993658,0.09906935,-0.06609116,-0.00028898,-0.00009571,-0.
 00018189,-0.00007630,0.00013339,0.00026772,-0.00936366,0.01322197,-0.0
 0885457,0.00010261,0.00007237,0.00009514,0.00015667,0.00019582,0.00015
 888,-0.00014079,0.00005161,-0.00025641,-0.00034500,0.00088676,-0.00087
 897,-0.00000351,-0.00000213,0.00000484,-0.00001184,0.00000335,-0.00000
 090,0.00049239,0.00059028,-0.00084186,0.00071728,0.00100211,-0.0002212
 8,-0.00000158,-0.00000106,-0.00000469,-0.00002334,0.00000988,-0.000016
 74,-0.00002432,-0.00000407,-0.00001915,-0.00000295,0.00000622,-0.00000
 920,-0.00002411,0.00001580,0.00001328,0.00000054,0.00001052,0.00000289
 ,0.12652397,-0.00089923,-0.00079717,-0.00129595,0.00000055,0.00010364,
 -0.00019345,-0.00183043,-0.00117549,-0.00246023,-0.00000113,-0.0000005
 1,0.00000380,0.01426233,-0.01282151,0.00733308,-0.00284627,-0.00454227
 ,0.00488839,0.00000372,-0.00000847,-0.00001008,-0.00000822,0.00001691,
 -0.00001548,0.00000322,-0.00000921,0.00004453,0.09748836,-0.18215959,0
 .09351826,0.00005941,-0.00000373,0.00005449,-0.00011903,0.00011426,0.0
 0006004,-0.00832468,0.01208929,-0.00894762,0.00010578,0.00010331,0.000
 17201,0.00016880,0.00012203,0.00016828,0.00001634,-0.00007565,0.000139
 64,-0.00025072,0.00042749,-0.00072449,0.00000064,0.00000062,-0.0000009
 0,0.00000201,-0.00000063,0.00000029,0.00004621,0.00040403,-0.00072652,
 -0.00010494,0.00088696,-0.00001112,-0.00000064,-0.00000067,0.00000166,
 0.00000359,-0.00000214,0.00000400,0.00000437,-0.00000010,0.00000469,0.
 00000287,-0.00000205,0.00000159,-0.00000425,0.00000410,-0.00000023,-0.
 00000184,-0.00000258,-0.00000155,-0.10518190,0.19643785,0.00011710,-0.
 00021956,0.00106461,0.00041094,0.00029808,-0.00043172,-0.00189898,-0.0
 0418401,-0.00242503,-0.00000433,0.00000405,-0.00000868,-0.00798652,0.0
 0740020,-0.00690981,0.00145779,0.00309051,-0.00113628,0.00000622,-0.00
 000613,0.00000304,0.00003821,0.00001852,0.00003434,-0.00003051,-0.0000
 5015,0.00007599,-0.06424927,0.09116651,-0.10883251,-0.00009340,-0.0000
 7924,0.00006680,-0.00056228,0.00038826,0.00028719,-0.01171516,0.016701
 89,-0.01297381,0.00004633,-0.00003419,-0.00007516,-0.00000803,0.000065
 86,-0.00001156,-0.00004561,-0.00010107,0.00012075,-0.00048198,0.000945
 55,-0.00094645,-0.00000113,-0.00000066,0.00000174,-0.00000483,0.000001
 68,-0.00000073,0.00017373,0.00003887,0.00025333,-0.00014338,-0.0006337
 6,0.00030757,-0.00000258,-0.00000289,0.00000358,-0.00000495,0.00000162
 ,0.00000117,-0.00000348,-0.00000304,0.00000069,0.00000026,0.00000359,0
 .00000154,-0.00002754,0.00002082,0.00001399,-0.00000457,-0.00000336,-0
 .00000389,0.07387008,-0.10004693,0.11829791,-0.00026873,-0.00027835,-0
 .00030963,-0.00129916,-0.00040810,-0.00086217,0.00068994,0.00034317,0.
 00045948,0.00000511,-0.00001074,0.00000688,-0.01686812,0.01121818,0.01
 518955,0.00235843,0.00016964,-0.00123846,0.00000826,-0.00000833,-0.000
 03589,-0.00004176,0.00001485,-0.00000577,0.00007918,-0.00000246,0.0000
 7995,-0.13457437,0.07297517,0.10009349,0.00000999,-0.00002742,0.000005
 03,-0.00007629,0.00034881,0.00061222,0.01206931,-0.00998870,-0.0127649
 9,-0.00010954,0.00006027,-0.00000899,0.00004324,0.00002686,0.00003405,
 -0.00344952,-0.00042092,-0.00082891,-0.00005140,-0.00001444,0.00015615
 ,-0.00000066,0.00000010,-0.00000151,0.00000430,0.00000491,0.00000167,0
 .00076577,0.00046036,-0.00058420,-0.00184706,-0.00370482,0.00210388,0.
 00000247,-0.00000061,0.00000515,0.00001176,-0.00000271,0.00000763,0.00
 000324,-0.00000012,0.00000393,0.00000690,0.00000009,0.00000191,0.00000
 717,-0.00000245,-0.00000261,0.00002595,0.00002546,0.00001428,-0.009457
 61,0.00654688,0.01013538,0.15286387,-0.00002894,0.00003499,0.00004292,
 0.00023789,0.00042663,-0.00050997,0.00016427,-0.00029395,0.00024515,-0
 .00000837,0.00000391,0.00001101,-0.01542128,0.00925585,0.01672636,0.00
 010491,0.00202687,-0.00192851,0.00001940,-0.00006297,-0.00004245,-0.00
 001181,0.00006779,-0.00005756,0.00001271,0.00000439,0.00016065,0.07503
 869,-0.10842724,-0.08358068,0.00025300,0.00004422,0.00030187,-0.000261
 75,0.00043303,0.00006577,0.00757325,-0.00796989,-0.00908180,-0.0000064
 1,-0.00002887,-0.00005251,0.00003984,0.00004947,-0.00002116,-0.0004476
 7,0.00039921,0.00023388,-0.00012702,0.00009664,-0.00001973,0.00000091,
 0.00000117,-0.00000267,0.00000691,-0.00000523,-0.00000082,0.00087577,0
 .00114160,-0.00044169,-0.00282518,-0.00233673,0.00252290,-0.00000038,-
 0.00000222,0.00000630,0.00002167,-0.00000668,0.00001713,0.00002494,-0.
 00000044,0.00002090,0.00000350,-0.00000428,0.00001251,-0.00000983,0.00
 000411,0.00000066,-0.00003013,-0.00004303,-0.00001684,0.01268261,-0.01
 035149,-0.01521833,-0.07597250,0.11524766,-0.00026724,-0.00006058,-0.0
 0012260,-0.00033073,0.00041282,-0.00119905,0.00108915,-0.00038377,-0.0
 0005070,-0.00001049,-0.00000424,0.00002523,0.00878364,-0.00537584,-0.0
 0958440,-0.00067082,-0.00081156,0.00087438,0.00003969,-0.00009464,-0.0
 0008165,-0.00003770,0.00012414,-0.00009142,0.00006255,0.00002319,0.000
 28670,0.09946860,-0.08274375,-0.16494880,0.00044860,0.00009992,0.00047
 870,-0.00069137,0.00034130,0.00036242,0.01339971,-0.01139822,-0.015167
 12,0.00000732,-0.00002259,0.00003118,0.00004440,0.00007239,-0.00003171
 ,-0.00009030,-0.00025316,0.00097007,-0.00021232,0.00015956,0.00003778,
 0.00000333,0.00000345,-0.00000521,0.00001596,-0.00000465,0.00000040,-0
 .00055871,0.00037588,0.00078257,0.00164996,0.00163791,0.00008372,-0.00
 000042,-0.00000178,0.00001124,0.00004013,-0.00001578,0.00003395,0.0000
 4322,0.00000151,0.00004042,0.00000978,-0.00000971,0.00002095,0.0000016
 1,0.00000063,-0.00000643,-0.00001486,-0.00002755,-0.00001549,-0.009243
 63,0.00660371,0.01146142,-0.11020885,0.09257364,0.17741515,-0.00146146
 ,0.00197983,-0.00224036,-0.00067965,0.00149887,0.00111150,0.01185654,0
 .00928576,-0.00542938,-0.00003914,0.00005610,0.00000676,-0.00102645,-0
 .00032235,-0.00437895,0.00037774,-0.00027870,0.00084741,-0.00005486,0.
 00002953,0.00000963,-0.00012717,-0.00002116,0.00002850,-0.00006510,-0.
 00010422,-0.00011125,-0.01178629,-0.00881873,0.00688885,-0.00235038,0.
 00088507,-0.00026819,0.00071171,-0.00153605,0.00040615,-0.18419830,-0.
 11801349,0.07432969,0.00001940,0.00001096,-0.00002785,0.00054661,0.000
 68805,-0.00026823,-0.00081719,0.00109415,0.00032828,0.00025039,-0.0006
 6549,0.00065094,0.00000195,-0.00000466,-0.00000211,0.00000280,0.000001
 74,-0.00000526,-0.00050609,-0.00101625,0.00053906,0.00020055,0.0002289
 9,-0.00007233,0.00000232,0.00000295,-0.00001379,-0.00000807,0.00000115
 ,-0.00001511,0.00000192,0.00000260,0.00000769,0.00002892,-0.00000077,0
 .00002319,-0.00000451,-0.00000626,-0.00000045,0.00000720,-0.00001795,-
 0.00000426,0.00022030,0.00046676,0.00027468,0.00065574,0.00030403,0.00
 004226,0.20125460,0.00405357,-0.00133152,0.00290484,0.00090695,-0.0017
 1255,0.00006475,-0.01665217,-0.01518545,0.00963855,-0.00009169,0.00004
 255,-0.00015460,-0.00077896,0.00037963,-0.00296056,0.00006382,0.000512
 49,-0.00033097,-0.00007996,0.00006012,0.00010178,0.00019323,0.00008130
 ,0.00055458,-0.00007654,-0.00000439,-0.00031675,-0.00885265,-0.0078843
 6,0.00451224,-0.00118124,0.00084354,-0.00033064,-0.00054667,0.00173933
 ,-0.00101408,-0.11479705,-0.14390070,0.06217339,-0.00020060,0.00015240
 ,0.00006857,-0.00098701,-0.00086168,0.00026981,0.00076672,-0.00101743,
 -0.00093935,0.00038923,0.00060989,-0.00039243,0.00000143,-0.00000846,0
 .00000607,-0.00005710,0.00004692,0.00000565,-0.00045997,-0.00044701,0.
 00045877,-0.00014239,-0.00002879,0.00015431,0.00000299,0.00000446,-0.0
 0000849,-0.00004756,0.00002408,-0.00003365,-0.00005049,-0.00001981,-0.
 00004257,-0.00000246,0.00002331,-0.00007149,-0.00000037,-0.00000898,0.
 00001389,-0.00000664,0.00004662,0.00001665,0.00024081,0.00046313,-0.00
 011016,0.00044800,0.00026466,0.00036568,0.12497625,0.15488819,-0.00395
 800,0.00206956,-0.00286389,0.00044657,-0.00012654,0.00015180,0.0165211
 6,0.01035223,-0.00848467,0.00003527,-0.00001779,0.00003784,-0.00303699
 ,-0.00102413,-0.00518576,0.00109788,-0.00006656,0.00112836,0.00005421,
 -0.00002632,-0.00002958,0.00001299,-0.00006423,-0.00013314,-0.00001963
 ,-0.00007211,0.00020854,-0.01858558,-0.01572350,0.01141499,0.00005231,
 -0.00056817,0.00006939,-0.00000340,-0.00088534,0.00083951,0.07304750,0
 .06394716,-0.08800660,-0.00020031,-0.00019441,0.00015359,0.00096829,0.
 00115157,-0.00005868,0.00059085,-0.00105113,-0.00021817,0.00020757,-0.
 00066334,0.00041308,0.00000156,0.00000063,-0.00000157,0.00000955,-0.00
 001183,-0.00000206,-0.00097568,-0.00122816,0.00062421,-0.00007035,0.00
 001174,0.00005780,-0.00000641,-0.00000199,0.00000026,0.00001323,-0.000
 00142,0.00000690,-0.00000332,0.00000140,0.00000543,-0.00000581,0.00000
 560,0.00000194,-0.00003409,0.00002775,0.00001317,0.00000563,-0.0000127
 7,-0.00000334,0.00069647,0.00082396,0.00089697,0.00106203,0.00038267,0
 .00099545,-0.07954674,-0.06765178,0.09515881,-0.00006539,-0.00057099,0
 .00063662,0.00122883,0.00033540,-0.00082102,-0.00968624,0.00642807,0.0
 0813774,-0.00002645,0.00003753,-0.00007166,0.00136881,0.00002812,-0.00
 011214,-0.00009547,0.00013974,-0.00009609,-0.00003533,0.00005787,0.000
 10170,0.00019941,0.00000087,0.00027763,-0.00010808,-0.00009672,-0.0000
 8443,0.01085160,-0.01177269,-0.01219855,-0.00082020,0.00000338,-0.0001
 4323,-0.00187371,0.00283848,-0.00105451,-0.14136096,0.08969619,0.09009
 807,0.00038584,-0.00023445,-0.00000785,0.00007375,-0.00005753,-0.00025
 064,-0.00012655,-0.00002588,-0.00023571,0.00008853,-0.00031763,0.00013
 962,-0.00000220,-0.00000766,0.00000587,-0.00003319,0.00001811,-0.00000
 098,0.00005771,0.00027064,-0.00004124,-0.00006586,0.00043142,0.0002161
 8,0.00000172,-0.00000620,0.00000840,-0.00005350,0.00001282,-0.00002517
 ,-0.00003854,-0.00001597,-0.00002273,-0.00001724,0.00002310,-0.0000301
 2,-0.00005618,0.00003065,0.00003568,-0.00000382,0.00002002,0.00000120,
 0.00095553,0.00039146,0.00073780,-0.00156641,-0.00221302,-0.00281247,-
 0.01301402,0.01296851,0.01162328,0.15383762,-0.00025126,0.00029702,-0.
 00070826,-0.00126321,-0.00057894,0.00169250,0.01414729,-0.01354138,-0.
 01399245,-0.00001801,0.00000418,-0.00001156,0.00100081,0.00020853,-0.0
 0000884,-0.00019098,-0.00039337,0.00025647,-0.00002996,0.00000487,-0.0
 0001401,-0.00006166,0.00004459,0.00004515,0.00005432,0.00010258,-0.000
 21154,0.00706468,-0.00845989,-0.00884102,0.00004290,0.00040946,-0.0000
 8465,0.00302439,-0.00330616,0.00252363,0.08866751,-0.13241355,-0.08278
 648,-0.00032160,-0.00021391,0.00022575,0.00005714,0.00029432,0.0001596
 2,-0.00037549,0.00027059,-0.00005848,-0.00013251,0.00119114,-0.0000494
 1,0.00000495,0.00000162,-0.00000297,0.00000439,0.00000539,0.00000296,-
 0.00013108,0.00015425,0.00008133,-0.00022986,-0.00012662,0.00022382,0.
 00000937,0.00000962,-0.00002484,0.00001593,0.00000125,-0.00000625,0.00
 001485,0.00000466,0.00000026,0.00001967,0.00000371,-0.00002198,0.00005
 956,-0.00004763,-0.00003650,-0.00000031,0.00000990,0.00000757,-0.00026
 141,0.00077964,0.00054747,-0.00180006,0.00003081,-0.00158792,-0.010706
 71,0.01222848,0.01061728,-0.09841363,0.14302483,0.00067401,-0.00014402
 ,-0.00007925,0.00071886,0.00061095,-0.00156869,-0.01246591,0.01015516,
 0.01026051,0.00001044,-0.00000156,0.00000939,0.00075076,0.00102183,0.0
 0063238,-0.00014476,-0.00023665,-0.00003236,0.00002543,-0.00001896,-0.
 00000750,0.00005132,-0.00001672,-0.00003486,0.,-0.00010203,0.00025792,
 0.01347539,-0.01465539,-0.01699857,-0.00006554,-0.00032522,0.00011530,
 -0.00366386,0.00505847,-0.00110565,0.09163795,-0.08451710,-0.13032225,
 0.00000119,0.00033778,-0.00005854,-0.00015856,-0.00023516,0.00009891,-
 0.00008041,-0.00016036,0.00018271,-0.00042990,-0.00025065,0.00111692,-
 0.00000324,-0.00000101,0.00000050,-0.00000216,-0.00000317,-0.00000195,
 -0.00020634,0.00023460,0.00005929,-0.00027834,-0.00013692,0.00048097,-
 0.00000491,-0.00000795,0.00002058,-0.00000613,-0.00000147,0.00001269,-
 0.00000543,-0.00000181,0.00000675,-0.00001245,-0.00000223,0.00001871,-
 0.00006654,0.00003847,0.00003357,-0.00000056,-0.00001277,-0.00000989,0
 .00049190,0.00061216,0.00086299,-0.00312065,-0.00234960,-0.00260718,0.
 00688970,-0.00695201,-0.00719060,-0.09401127,0.09206335,0.14584721\\0.
 00001032,0.00001512,0.00001985,-0.00336917,-0.00270932,-0.00350732,-0.
 00617939,-0.00632710,-0.00431108,0.00000197,0.00000618,-0.00000397,-0.
 00001149,-0.00000731,-0.00000199,0.00000170,-0.00001793,-0.00000891,0.
 00000989,-0.00000301,0.00000191,-0.00000936,0.00000366,-0.00000093,0.0
 0000355,0.00000765,0.00000250,0.00001157,-0.00000611,0.00000672,0.0000
 1442,0.00002909,-0.00000364,0.00644899,0.00557614,0.00600152,0.0030959
 5,0.00344063,0.00179714,0.00000687,-0.00000083,0.00000195,-0.00000101,
 0.00001001,0.00000065,-0.00000887,-0.00001534,0.00001330,-0.00000910,0
 .00000693,0.00000186,-0.00000589,0.00000152,0.00000140,0.00000344,0.00
 001692,-0.00000052,0.00000198,-0.00000395,0.00000573,0.00000709,-0.000
 00939,-0.00000251,0.00000506,0.00001054,-0.00000485,0.00000068,0.00000
 422,0.00000763,-0.00000456,0.00000374,-0.00000607,0.00000512,0.0000100
 2,-0.00000683,-0.00000021,-0.00000460,0.00000824,-0.00000064,-0.000000
 64,-0.00000465,-0.00000668,-0.00001181,-0.00000712,0.00000306,-0.00000
 594,0.00000121,-0.00002171,-0.00001350,0.00000232,-0.00000357,-0.00000
 560,-0.00000354\\\@


 THEORY:  SUPPOSITION WHICH HAS SCIENTIFIC BASIS,
          BUT NOT EXPERIMENTALLY PROVEN.
 FACT:    A THEORY WHICH HAS BEEN PROVEN BY ENOUGH 
          MONEY TO PAY FOR THE EXPERIMENTS.

                          --  THE WIZARD OF ID
 Job cpu time:       0 days 13 hours  8 minutes 51.9 seconds.
 Elapsed time:       0 days  1 hours  6 minutes  1.9 seconds.
 File lengths (MBytes):  RWF=    720 Int=      0 D2E=      0 Chk=     34 Scr=      1
 Normal termination of Gaussian 16 at Sat Mar  9 04:36:43 2019.
