 Entering Gaussian System, Link 0=g16
 Initial command:
 /apps/gaussian/g16a03/g16/l1.exe "/jobfs/local/2012041.r-man2/Gau-27560.inp" -scrdir="/jobfs/local/2012041.r-man2/"
 Entering Link 1 = /apps/gaussian/g16a03/g16/l1.exe PID=     27561.
  
 Copyright (c) 1988,1990,1992,1993,1995,1998,2003,2009,2016,
            Gaussian, Inc.  All Rights Reserved.
  
 This is part of the Gaussian(R) 16 program.  It is based on
 the Gaussian(R) 09 system (copyright 2009, Gaussian, Inc.),
 the Gaussian(R) 03 system (copyright 2003, Gaussian, Inc.),
 the Gaussian(R) 98 system (copyright 1998, Gaussian, Inc.),
 the Gaussian(R) 94 system (copyright 1995, Gaussian, Inc.),
 the Gaussian 92(TM) system (copyright 1992, Gaussian, Inc.),
 the Gaussian 90(TM) system (copyright 1990, Gaussian, Inc.),
 the Gaussian 88(TM) system (copyright 1988, Gaussian, Inc.),
 the Gaussian 86(TM) system (copyright 1986, Carnegie Mellon
 University), and the Gaussian 82(TM) system (copyright 1983,
 Carnegie Mellon University). Gaussian is a federally registered
 trademark of Gaussian, Inc.
  
 This software contains proprietary and confidential information,
 including trade secrets, belonging to Gaussian, Inc.
  
 This software is provided under written license and may be
 used, copied, transmitted, or stored only in accord with that
 written license.
  
 The following legend is applicable only to US Government
 contracts under FAR:
  
                    RESTRICTED RIGHTS LEGEND
  
 Use, reproduction and disclosure by the US Government is
 subject to restrictions as set forth in subparagraphs (a)
 and (c) of the Commercial Computer Software - Restricted
 Rights clause in FAR 52.227-19.
  
 Gaussian, Inc.
 340 Quinnipiac St., Bldg. 40, Wallingford CT 06492
  
  
 ---------------------------------------------------------------
 Warning -- This program may not be used in any manner that
 competes with the business of Gaussian, Inc. or will provide
 assistance to any competitor of Gaussian, Inc.  The licensee
 of this program is prohibited from giving any competitor of
 Gaussian, Inc. access to this program.  By using this program,
 the user acknowledges that Gaussian, Inc. is engaged in the
 business of creating and licensing software in the field of
 computational chemistry and represents and warrants to the
 licensee that it is not a competitor of Gaussian, Inc. and that
 it will not use this program in any manner prohibited above.
 ---------------------------------------------------------------
  

 Cite this work as:
 Gaussian 16, Revision A.03,
 M. J. Frisch, G. W. Trucks, H. B. Schlegel, G. E. Scuseria, 
 M. A. Robb, J. R. Cheeseman, G. Scalmani, V. Barone, 
 G. A. Petersson, H. Nakatsuji, X. Li, M. Caricato, A. V. Marenich, 
 J. Bloino, B. G. Janesko, R. Gomperts, B. Mennucci, H. P. Hratchian, 
 J. V. Ortiz, A. F. Izmaylov, J. L. Sonnenberg, D. Williams-Young, 
 F. Ding, F. Lipparini, F. Egidi, J. Goings, B. Peng, A. Petrone, 
 T. Henderson, D. Ranasinghe, V. G. Zakrzewski, J. Gao, N. Rega, 
 G. Zheng, W. Liang, M. Hada, M. Ehara, K. Toyota, R. Fukuda, 
 J. Hasegawa, M. Ishida, T. Nakajima, Y. Honda, O. Kitao, H. Nakai, 
 T. Vreven, K. Throssell, J. A. Montgomery, Jr., J. E. Peralta, 
 F. Ogliaro, M. J. Bearpark, J. J. Heyd, E. N. Brothers, K. N. Kudin, 
 V. N. Staroverov, T. A. Keith, R. Kobayashi, J. Normand, 
 K. Raghavachari, A. P. Rendell, J. C. Burant, S. S. Iyengar, 
 J. Tomasi, M. Cossi, J. M. Millam, M. Klene, C. Adamo, R. Cammi, 
 J. W. Ochterski, R. L. Martin, K. Morokuma, O. Farkas, 
 J. B. Foresman, and D. J. Fox, Gaussian, Inc., Wallingford CT, 2016.
 
 ******************************************
 Gaussian 16:  ES64L-G16RevA.03 25-Dec-2016
                 4-Nov-2018 
 ******************************************
 %mem=6000mb
 %nproc=24
 Will use up to   24 processors via shared memory.
 %chk=L_a1-e4_D_PHI.inp_extract_14.chk
 ----------------------------------------------------------------------
 #M062X/6-311++G(2d,2p) opt=ModRedundant freq=noraman SCRF=(Solvent=Wat
 er)
 ----------------------------------------------------------------------
 1/18=120,19=15,26=3,38=1/1,3;
 2/9=110,12=2,17=6,18=5,40=1/2;
 3/5=4,6=6,7=1212,11=2,25=1,30=1,70=2201,71=1,72=1,74=-55/1,2,3;
 4//1;
 5/5=2,38=5,53=1/2;
 6/7=2,8=2,9=2,10=2,28=1/1;
 7//1,2,3,16;
 1/18=20,19=15,26=3/3(2);
 2/9=110/2;
 99//99;
 2/9=110/2;
 3/5=4,6=6,7=1212,11=2,25=1,30=1,70=2205,71=1,72=1,74=-55/1,2,3;
 4/5=5,16=3,69=1/1;
 5/5=2,38=5,53=1/2;
 7//1,2,3,16;
 1/18=20,19=15,26=3/3(-5);
 2/9=110/2;
 6/7=2,8=2,9=2,10=2,19=2,28=1/1;
 99/9=1/99;
 ----------------------------
 L_a1-e4_D_PHI.inp_extract_14
 ----------------------------
 Symbolic Z-matrix:
 Charge =  0 Multiplicity = 1
 C                    -2.8214   -1.11904   0.34693 
 O                    -2.45589  -0.10224   1.26938 
 C                    -2.13007   0.35282  -1.53576 
 O                     2.72503  -1.33515  -0.58467 
 C                    -1.3959    0.7338    0.8933 
 C                    -1.66556   1.35696  -0.47612 
 C                     3.11432   1.04366  -0.37132 
 O                    -0.20833  -0.01265   1.03792 
 C                     1.84422   1.17106   0.47381 
 C                     3.69336  -0.3566   -0.24975 
 C                     0.87759   0.04104   0.13345 
 C                     1.58497  -1.3035    0.24585 
 C                    -3.25381  -0.51816  -0.97747 
 H                    -1.98778  -1.79944   0.20776 
 H                    -3.62582  -1.66338   0.8216 
 H                    -1.30959  -0.28466  -1.8504 
 H                    -2.46453   0.89242  -2.41646 
 H                    -1.37761   1.5103    1.64353 
 H                    -2.46245   2.07601  -0.30771 
 H                    -0.8059    1.92409  -0.81136 
 H                     3.85721   1.76893  -0.05304 
 H                     2.88909   1.24608  -1.41552 
 H                     2.09718   1.10146   1.52961 
 H                     1.37126   2.13504   0.31531 
 H                     4.52099  -0.50374  -0.93 
 H                     4.04467  -0.5391    0.76334 
 H                     0.52635   0.15268  -0.8813 
 H                     0.93564  -2.10455  -0.07925 
 H                     1.87508  -1.48639   1.27775 
 H                    -3.50711  -1.31657  -1.66901 
 H                    -4.14955   0.0788   -0.8233 
 
 The following ModRedundant input section has been read:
 D       2       5       8      11 F                                           
 

 GradGradGradGradGradGradGradGradGradGradGradGradGradGradGradGradGradGrad
 Berny optimization.
 Initialization pass.
                           ----------------------------
                           !    Initial Parameters    !
                           ! (Angstroms and Degrees)  !
 --------------------------                            --------------------------
 ! Name  Definition              Value          Derivative Info.                !
 --------------------------------------------------------------------------------
 ! R1    R(1,2)                  1.4207         estimate D2E/DX2                !
 ! R2    R(1,13)                 1.5173         estimate D2E/DX2                !
 ! R3    R(1,14)                 1.085          estimate D2E/DX2                !
 ! R4    R(1,15)                 1.0811         estimate D2E/DX2                !
 ! R5    R(2,5)                  1.4014         estimate D2E/DX2                !
 ! R6    R(3,6)                  1.532          estimate D2E/DX2                !
 ! R7    R(3,13)                 1.5274         estimate D2E/DX2                !
 ! R8    R(3,16)                 1.0856         estimate D2E/DX2                !
 ! R9    R(3,17)                 1.0857         estimate D2E/DX2                !
 ! R10   R(4,10)                 1.4168         estimate D2E/DX2                !
 ! R11   R(4,12)                 1.4109         estimate D2E/DX2                !
 ! R12   R(5,6)                  1.5285         estimate D2E/DX2                !
 ! R13   R(5,8)                  1.4101         estimate D2E/DX2                !
 ! R14   R(5,18)                 1.0799         estimate D2E/DX2                !
 ! R15   R(6,19)                 1.0865         estimate D2E/DX2                !
 ! R16   R(6,20)                 1.0831         estimate D2E/DX2                !
 ! R17   R(7,9)                  1.5309         estimate D2E/DX2                !
 ! R18   R(7,10)                 1.5201         estimate D2E/DX2                !
 ! R19   R(7,21)                 1.0859         estimate D2E/DX2                !
 ! R20   R(7,22)                 1.0872         estimate D2E/DX2                !
 ! R21   R(8,11)                 1.4143         estimate D2E/DX2                !
 ! R22   R(9,11)                 1.5255         estimate D2E/DX2                !
 ! R23   R(9,23)                 1.0879         estimate D2E/DX2                !
 ! R24   R(9,24)                 1.0854         estimate D2E/DX2                !
 ! R25   R(10,25)                1.0814         estimate D2E/DX2                !
 ! R26   R(10,26)                1.0877         estimate D2E/DX2                !
 ! R27   R(11,12)                1.5234         estimate D2E/DX2                !
 ! R28   R(11,27)                1.0796         estimate D2E/DX2                !
 ! R29   R(12,28)                1.0812         estimate D2E/DX2                !
 ! R30   R(12,29)                1.0874         estimate D2E/DX2                !
 ! R31   R(13,30)                1.0862         estimate D2E/DX2                !
 ! R32   R(13,31)                1.0874         estimate D2E/DX2                !
 ! A1    A(2,1,13)             110.8941         estimate D2E/DX2                !
 ! A2    A(2,1,14)             109.5381         estimate D2E/DX2                !
 ! A3    A(2,1,15)             105.4694         estimate D2E/DX2                !
 ! A4    A(13,1,14)            110.8148         estimate D2E/DX2                !
 ! A5    A(13,1,15)            111.7531         estimate D2E/DX2                !
 ! A6    A(14,1,15)            108.1954         estimate D2E/DX2                !
 ! A7    A(1,2,5)              116.5715         estimate D2E/DX2                !
 ! A8    A(6,3,13)             110.1216         estimate D2E/DX2                !
 ! A9    A(6,3,16)             110.8666         estimate D2E/DX2                !
 ! A10   A(6,3,17)             109.1922         estimate D2E/DX2                !
 ! A11   A(13,3,16)            109.0938         estimate D2E/DX2                !
 ! A12   A(13,3,17)            110.6878         estimate D2E/DX2                !
 ! A13   A(16,3,17)            106.8324         estimate D2E/DX2                !
 ! A14   A(10,4,12)            113.4296         estimate D2E/DX2                !
 ! A15   A(2,5,6)              110.4999         estimate D2E/DX2                !
 ! A16   A(2,5,8)              107.0788         estimate D2E/DX2                !
 ! A17   A(2,5,18)             104.794          estimate D2E/DX2                !
 ! A18   A(6,5,8)              117.1467         estimate D2E/DX2                !
 ! A19   A(6,5,18)             109.4057         estimate D2E/DX2                !
 ! A20   A(8,5,18)             107.1646         estimate D2E/DX2                !
 ! A21   A(3,6,5)              113.9514         estimate D2E/DX2                !
 ! A22   A(3,6,19)             108.5787         estimate D2E/DX2                !
 ! A23   A(3,6,20)             111.7024         estimate D2E/DX2                !
 ! A24   A(5,6,19)             105.0905         estimate D2E/DX2                !
 ! A25   A(5,6,20)             110.5346         estimate D2E/DX2                !
 ! A26   A(19,6,20)            106.4753         estimate D2E/DX2                !
 ! A27   A(9,7,10)             110.3976         estimate D2E/DX2                !
 ! A28   A(9,7,21)             110.4985         estimate D2E/DX2                !
 ! A29   A(9,7,22)             110.0499         estimate D2E/DX2                !
 ! A30   A(10,7,21)            109.3411         estimate D2E/DX2                !
 ! A31   A(10,7,22)            109.1005         estimate D2E/DX2                !
 ! A32   A(21,7,22)            107.3902         estimate D2E/DX2                !
 ! A33   A(5,8,11)             124.1228         estimate D2E/DX2                !
 ! A34   A(7,9,11)             109.9313         estimate D2E/DX2                !
 ! A35   A(7,9,23)             109.7266         estimate D2E/DX2                !
 ! A36   A(7,9,24)             110.7822         estimate D2E/DX2                !
 ! A37   A(11,9,23)            108.4495         estimate D2E/DX2                !
 ! A38   A(11,9,24)            110.4383         estimate D2E/DX2                !
 ! A39   A(23,9,24)            107.4485         estimate D2E/DX2                !
 ! A40   A(4,10,7)             110.9133         estimate D2E/DX2                !
 ! A41   A(4,10,25)            106.2837         estimate D2E/DX2                !
 ! A42   A(4,10,26)            108.9678         estimate D2E/DX2                !
 ! A43   A(7,10,25)            111.5037         estimate D2E/DX2                !
 ! A44   A(7,10,26)            110.6145         estimate D2E/DX2                !
 ! A45   A(25,10,26)           108.415          estimate D2E/DX2                !
 ! A46   A(8,11,9)             111.8367         estimate D2E/DX2                !
 ! A47   A(8,11,12)            106.0126         estimate D2E/DX2                !
 ! A48   A(8,11,27)            110.8078         estimate D2E/DX2                !
 ! A49   A(9,11,12)            110.0646         estimate D2E/DX2                !
 ! A50   A(9,11,27)            109.8314         estimate D2E/DX2                !
 ! A51   A(12,11,27)           108.161          estimate D2E/DX2                !
 ! A52   A(4,12,11)            110.5846         estimate D2E/DX2                !
 ! A53   A(4,12,28)            106.9582         estimate D2E/DX2                !
 ! A54   A(4,12,29)            109.8319         estimate D2E/DX2                !
 ! A55   A(11,12,28)           110.6616         estimate D2E/DX2                !
 ! A56   A(11,12,29)           110.0194         estimate D2E/DX2                !
 ! A57   A(28,12,29)           108.7198         estimate D2E/DX2                !
 ! A58   A(1,13,3)             109.5849         estimate D2E/DX2                !
 ! A59   A(1,13,30)            109.3347         estimate D2E/DX2                !
 ! A60   A(1,13,31)            109.1724         estimate D2E/DX2                !
 ! A61   A(3,13,30)            110.9774         estimate D2E/DX2                !
 ! A62   A(3,13,31)            110.1701         estimate D2E/DX2                !
 ! A63   A(30,13,31)           107.5588         estimate D2E/DX2                !
 ! D1    D(13,1,2,5)           -60.2614         estimate D2E/DX2                !
 ! D2    D(14,1,2,5)            62.3588         estimate D2E/DX2                !
 ! D3    D(15,1,2,5)           178.5905         estimate D2E/DX2                !
 ! D4    D(2,1,13,3)            56.9826         estimate D2E/DX2                !
 ! D5    D(2,1,13,30)          178.8215         estimate D2E/DX2                !
 ! D6    D(2,1,13,31)          -63.7598         estimate D2E/DX2                !
 ! D7    D(14,1,13,3)          -64.894          estimate D2E/DX2                !
 ! D8    D(14,1,13,30)          56.9449         estimate D2E/DX2                !
 ! D9    D(14,1,13,31)         174.3636         estimate D2E/DX2                !
 ! D10   D(15,1,13,3)          174.3511         estimate D2E/DX2                !
 ! D11   D(15,1,13,30)         -63.81           estimate D2E/DX2                !
 ! D12   D(15,1,13,31)          53.6087         estimate D2E/DX2                !
 ! D13   D(1,2,5,6)             54.0378         estimate D2E/DX2                !
 ! D14   D(1,2,5,8)            -74.6047         estimate D2E/DX2                !
 ! D15   D(1,2,5,18)           171.7884         estimate D2E/DX2                !
 ! D16   D(13,3,6,5)            48.3925         estimate D2E/DX2                !
 ! D17   D(13,3,6,19)          -68.3413         estimate D2E/DX2                !
 ! D18   D(13,3,6,20)          174.5426         estimate D2E/DX2                !
 ! D19   D(16,3,6,5)           -72.4376         estimate D2E/DX2                !
 ! D20   D(16,3,6,19)          170.8285         estimate D2E/DX2                !
 ! D21   D(16,3,6,20)           53.7125         estimate D2E/DX2                !
 ! D22   D(17,3,6,5)           170.1221         estimate D2E/DX2                !
 ! D23   D(17,3,6,19)           53.3883         estimate D2E/DX2                !
 ! D24   D(17,3,6,20)          -63.7278         estimate D2E/DX2                !
 ! D25   D(6,3,13,1)           -51.8949         estimate D2E/DX2                !
 ! D26   D(6,3,13,30)         -172.7438         estimate D2E/DX2                !
 ! D27   D(6,3,13,31)           68.2405         estimate D2E/DX2                !
 ! D28   D(16,3,13,1)           69.9929         estimate D2E/DX2                !
 ! D29   D(16,3,13,30)         -50.856          estimate D2E/DX2                !
 ! D30   D(16,3,13,31)        -169.8717         estimate D2E/DX2                !
 ! D31   D(17,3,13,1)         -172.7315         estimate D2E/DX2                !
 ! D32   D(17,3,13,30)          66.4196         estimate D2E/DX2                !
 ! D33   D(17,3,13,31)         -52.5961         estimate D2E/DX2                !
 ! D34   D(12,4,10,7)          -60.4023         estimate D2E/DX2                !
 ! D35   D(12,4,10,25)         178.2362         estimate D2E/DX2                !
 ! D36   D(12,4,10,26)          61.5955         estimate D2E/DX2                !
 ! D37   D(10,4,12,11)          61.1422         estimate D2E/DX2                !
 ! D38   D(10,4,12,28)        -178.2892         estimate D2E/DX2                !
 ! D39   D(10,4,12,29)         -60.4716         estimate D2E/DX2                !
 ! D40   D(2,5,6,3)            -47.6269         estimate D2E/DX2                !
 ! D41   D(2,5,6,19)            71.1144         estimate D2E/DX2                !
 ! D42   D(2,5,6,20)          -174.3876         estimate D2E/DX2                !
 ! D43   D(8,5,6,3)             75.334          estimate D2E/DX2                !
 ! D44   D(8,5,6,19)          -165.9246         estimate D2E/DX2                !
 ! D45   D(8,5,6,20)           -51.4266         estimate D2E/DX2                !
 ! D46   D(18,5,6,3)          -162.508          estimate D2E/DX2                !
 ! D47   D(18,5,6,19)          -43.7666         estimate D2E/DX2                !
 ! D48   D(18,5,6,20)           70.7314         estimate D2E/DX2                !
 ! D49   D(2,5,8,11)           140.4622         Frozen                          !
 ! D50   D(6,5,8,11)            15.7641         estimate D2E/DX2                !
 ! D51   D(18,5,8,11)         -107.546          estimate D2E/DX2                !
 ! D52   D(10,7,9,11)          -52.046          estimate D2E/DX2                !
 ! D53   D(10,7,9,23)           67.1399         estimate D2E/DX2                !
 ! D54   D(10,7,9,24)         -174.3839         estimate D2E/DX2                !
 ! D55   D(21,7,9,11)         -173.1271         estimate D2E/DX2                !
 ! D56   D(21,7,9,23)          -53.9412         estimate D2E/DX2                !
 ! D57   D(21,7,9,24)           64.535          estimate D2E/DX2                !
 ! D58   D(22,7,9,11)           68.4414         estimate D2E/DX2                !
 ! D59   D(22,7,9,23)         -172.3727         estimate D2E/DX2                !
 ! D60   D(22,7,9,24)          -53.8965         estimate D2E/DX2                !
 ! D61   D(9,7,10,4)            54.8992         estimate D2E/DX2                !
 ! D62   D(9,7,10,25)          173.1399         estimate D2E/DX2                !
 ! D63   D(9,7,10,26)          -66.1322         estimate D2E/DX2                !
 ! D64   D(21,7,10,4)          176.6668         estimate D2E/DX2                !
 ! D65   D(21,7,10,25)         -65.0925         estimate D2E/DX2                !
 ! D66   D(21,7,10,26)          55.6354         estimate D2E/DX2                !
 ! D67   D(22,7,10,4)          -66.1552         estimate D2E/DX2                !
 ! D68   D(22,7,10,25)          52.0855         estimate D2E/DX2                !
 ! D69   D(22,7,10,26)         172.8134         estimate D2E/DX2                !
 ! D70   D(5,8,11,9)            86.6992         estimate D2E/DX2                !
 ! D71   D(5,8,11,12)         -153.3328         estimate D2E/DX2                !
 ! D72   D(5,8,11,27)          -36.2065         estimate D2E/DX2                !
 ! D73   D(7,9,11,8)           170.2804         estimate D2E/DX2                !
 ! D74   D(7,9,11,12)           52.7168         estimate D2E/DX2                !
 ! D75   D(7,9,11,27)          -66.261          estimate D2E/DX2                !
 ! D76   D(23,9,11,8)           50.3158         estimate D2E/DX2                !
 ! D77   D(23,9,11,12)         -67.2478         estimate D2E/DX2                !
 ! D78   D(23,9,11,27)         173.7744         estimate D2E/DX2                !
 ! D79   D(24,9,11,8)          -67.1782         estimate D2E/DX2                !
 ! D80   D(24,9,11,12)         175.2582         estimate D2E/DX2                !
 ! D81   D(24,9,11,27)          56.2804         estimate D2E/DX2                !
 ! D82   D(8,11,12,4)         -177.668          estimate D2E/DX2                !
 ! D83   D(8,11,12,28)          63.998          estimate D2E/DX2                !
 ! D84   D(8,11,12,29)         -56.1648         estimate D2E/DX2                !
 ! D85   D(9,11,12,4)          -56.55           estimate D2E/DX2                !
 ! D86   D(9,11,12,28)        -174.884          estimate D2E/DX2                !
 ! D87   D(9,11,12,29)          64.9531         estimate D2E/DX2                !
 ! D88   D(27,11,12,4)          63.4448         estimate D2E/DX2                !
 ! D89   D(27,11,12,28)        -54.8892         estimate D2E/DX2                !
 ! D90   D(27,11,12,29)       -175.052          estimate D2E/DX2                !
 --------------------------------------------------------------------------------
 Trust Radius=3.00D-01 FncErr=1.00D-07 GrdErr=1.00D-06 EigMax=2.50D+02 EigMin=1.00D-04
 Number of steps in this run=    186 maximum allowed number of steps=    186.
 GradGradGradGradGradGradGradGradGradGradGradGradGradGradGradGradGradGrad

                          Input orientation:                          
 ---------------------------------------------------------------------
 Center     Atomic      Atomic             Coordinates (Angstroms)
 Number     Number       Type             X           Y           Z
 ---------------------------------------------------------------------
      1          6           0       -2.821397   -1.119038    0.346930
      2          8           0       -2.455887   -0.102237    1.269381
      3          6           0       -2.130074    0.352822   -1.535763
      4          8           0        2.725033   -1.335151   -0.584672
      5          6           0       -1.395901    0.733799    0.893299
      6          6           0       -1.665556    1.356963   -0.476116
      7          6           0        3.114318    1.043658   -0.371322
      8          8           0       -0.208325   -0.012646    1.037917
      9          6           0        1.844223    1.171056    0.473805
     10          6           0        3.693364   -0.356599   -0.249745
     11          6           0        0.877585    0.041035    0.133448
     12          6           0        1.584967   -1.303495    0.245845
     13          6           0       -3.253808   -0.518155   -0.977473
     14          1           0       -1.987779   -1.799441    0.207757
     15          1           0       -3.625816   -1.663378    0.821595
     16          1           0       -1.309590   -0.284662   -1.850402
     17          1           0       -2.464525    0.892421   -2.416462
     18          1           0       -1.377606    1.510303    1.643532
     19          1           0       -2.462454    2.076012   -0.307709
     20          1           0       -0.805902    1.924091   -0.811364
     21          1           0        3.857207    1.768934   -0.053037
     22          1           0        2.889086    1.246079   -1.415516
     23          1           0        2.097175    1.101460    1.529609
     24          1           0        1.371261    2.135042    0.315310
     25          1           0        4.520988   -0.503738   -0.930001
     26          1           0        4.044667   -0.539097    0.763335
     27          1           0        0.526347    0.152682   -0.881299
     28          1           0        0.935638   -2.104553   -0.079246
     29          1           0        1.875075   -1.486388    1.277752
     30          1           0       -3.507109   -1.316568   -1.669010
     31          1           0       -4.149547    0.078798   -0.823304
 ---------------------------------------------------------------------
                    Distance matrix (angstroms):
                    1          2          3          4          5
     1  C    0.000000
     2  O    1.420703   0.000000
     3  C    2.487736   2.860431   0.000000
     4  O    5.628274   5.639106   5.227417   0.000000
     5  C    2.400742   1.401415   2.566027   4.842215   0.000000
     6  C    2.853761   2.408453   1.531969   5.151362   1.528511
     7  C    6.358133   5.918798   5.416348   2.419875   4.694396
     8  O    2.920567   2.261225   3.232726   3.603665   1.410117
     9  C    5.198907   4.554686   4.528014   2.859593   3.296297
    10  C    6.586307   6.339222   6.005793   1.416829   5.328802
    11  C    3.882501   3.524614   3.453909   2.413016   2.495202
    12  C    4.411381   4.338104   4.440613   1.410855   3.668152
    13  C    1.517262   2.420334   1.527438   6.047174   2.918732
    14  H    1.085005   2.055887   2.773508   4.801469   2.690277
    15  H    1.081066   2.001601   3.443754   6.512957   3.274770
    16  H    2.794640   3.328712   1.085623   4.357038   2.927902
    17  H    3.436519   3.817703   1.085659   5.937091   3.481614
    18  H    3.267896   1.975592   3.466105   5.467463   1.079881
    19  H    3.281118   2.689242   2.141956   6.214721   2.093201
    20  H    3.829425   3.340353   2.178778   4.810566   2.161196
    21  H    7.287256   6.716042   6.328616   3.346610   5.437113
    22  H    6.427255   6.131506   5.099445   2.716609   4.894300
    23  H    5.524644   4.716670   5.275092   3.286558   3.569544
    24  H    5.307393   4.534615   4.343055   3.832089   3.155113
    25  H    7.477952   7.326341   6.733296   2.008968   6.313913
    26  H    6.903083   6.534840   6.648970   2.047501   5.589001
    27  H    3.785922   3.685665   2.743165   2.671302   2.679913
    28  H    3.907452   4.162992   4.190313   2.012304   3.799758
    29  H    4.801898   4.546776   5.228745   2.052785   3.971941
    30  H    2.138512   3.348703   2.168143   6.325799   3.902132
    31  H    2.137344   2.698257   2.158925   7.022539   3.310335
                    6          7          8          9         10
     6  C    0.000000
     7  C    4.791277   0.000000
     8  O    2.508316   3.760544   0.000000
     9  C    3.640805   1.530886   2.435637   0.000000
    10  C    5.630769   1.520130   4.123052   2.505310   0.000000
    11  C    2.927593   2.502603   1.414265   1.525510   2.869418
    12  C    4.262061   2.868612   2.347246   2.498516   2.363802
    13  C    2.507981   6.584809   3.686774   5.563233   6.987051
    14  H    3.245673   5.869407   2.654856   4.855808   5.879327
    15  H    3.827419   7.360741   3.801441   6.170600   7.511713
    16  H    2.170324   4.850059   3.103089   4.179425   5.253268
    17  H    2.149208   5.943817   4.224017   5.195824   6.646376
    18  H    2.144606   4.945177   2.013296   3.444348   5.725780
    19  H    1.086480   5.671877   3.354743   4.469583   6.619294
    20  H    1.083065   4.041896   2.743700   3.040047   5.075466
    21  H    5.554244   1.085917   4.570860   2.164977   2.140894
    22  H    4.651831   1.087219   4.147008   2.160301   2.138799
    23  H    4.271576   2.156724   2.607359   1.087911   2.799974
    24  H    3.233268   2.168140   2.762212   1.085395   3.452495
    25  H    6.476229   2.164550   5.145899   3.455528   1.081369
    26  H    6.143120   2.158265   4.294239   2.801857   1.087681
    27  H    2.533556   2.784153   2.061666   2.147135   3.269285
    28  H    4.348081   3.839686   2.633017   3.443981   3.269475
    29  H    4.867932   3.264399   2.563200   2.776561   2.629799
    30  H    3.458624   7.148283   4.462022   6.278271   7.401531
    31  H    2.815041   7.341592   4.359557   6.229029   7.875900
                   11         12         13         14         15
    11  C    0.000000
    12  C    1.523412   0.000000
    13  C    4.314539   5.052426   0.000000
    14  H    3.406345   3.607205   2.156222   0.000000
    15  H    4.864071   5.254832   2.164849   1.754558   0.000000
    16  H    2.970770   3.716279   2.143947   2.643958   3.795435
    17  H    4.289126   5.320556   2.164112   3.789450   4.285524
    18  H    3.086258   4.318313   3.808470   3.658984   3.975208
    19  H    3.935938   5.301802   2.793658   3.938294   4.075755
    20  H    2.696794   4.153463   3.461849   4.037342   4.846484
    21  H    3.449429   3.833044   7.526745   6.853114   8.278972
    22  H    2.810259   3.310766   6.406212   5.974447   7.477537
    23  H    2.135689   2.773845   6.127123   5.181638   6.395173
    24  H    2.159087   3.445872   5.486529   5.174444   6.297229
    25  H    3.834330   3.262276   7.774954   6.733304   8.413279
    26  H    3.280811   2.627208   7.503239   6.187693   7.752658
    27  H    1.079604   2.124048   3.840422   3.364173   4.841320
    28  H    2.156886   1.081206   4.568909   2.953275   4.670440
    29  H    2.153471   1.087403   5.685856   4.020514   5.522609
    30  H    4.931276   5.440228   1.086208   2.462475   2.517436
    31  H    5.117505   5.994870   1.087414   3.043700   2.452583
                   16         17         18         19         20
    16  H    0.000000
    17  H    1.743509   0.000000
    18  H    3.928626   4.248143   0.000000
    19  H    3.046601   2.418208   2.303099   0.000000
    20  H    2.492367   2.528184   2.554326   1.738077   0.000000
    21  H    5.843250   6.805758   5.508948   6.332241   4.726914
    22  H    4.490120   5.457849   5.256639   5.527658   3.804949
    23  H    4.995183   6.035253   3.500605   5.011557   3.818996
    24  H    4.210966   4.870312   3.116206   3.884457   2.460474
    25  H    5.906841   7.277102   6.743356   7.470664   5.855270
    26  H    5.963592   7.384439   5.863091   7.094262   5.663479
    27  H    2.121578   3.442275   3.441358   3.600158   2.217582
    28  H    3.389697   5.099563   4.624527   5.392249   4.449599
    29  H    4.622941   6.175603   4.437779   5.832541   4.814915
    30  H    2.434507   2.554466   4.847568   3.801847   4.305107
    31  H    3.041774   2.457526   3.977203   2.664767   3.819059
                   21         22         23         24         25
    21  H    0.000000
    22  H    1.751281   0.000000
    23  H    2.459269   3.053162   0.000000
    24  H    2.539615   2.467753   1.752074   0.000000
    25  H    2.524819   2.441452   3.808046   4.293570   0.000000
    26  H    2.455323   3.044604   2.659197   3.807735   1.759409
    27  H    3.793800   2.657713   3.029878   2.464854   4.048508
    28  H    4.851820   4.102232   3.770425   4.280141   4.017602
    29  H    4.036950   3.968411   2.609544   3.780857   3.583382
    30  H    8.146462   6.895124   6.891010   6.296795   8.102911
    31  H    8.219366   7.159303   6.753042   6.000325   8.690737
                   26         27         28         29         30
    26  H    0.000000
    27  H    3.944864   0.000000
    28  H    3.581432   2.430209   0.000000
    29  H    2.422626   3.027725   1.762417   0.000000
    30  H    7.971831   4.364396   4.783960   6.138416   0.000000
    31  H    8.369251   4.676837   5.583883   6.569651   1.753565
                   31
    31  H    0.000000
 Stoichiometry    C10H18O3
 Framework group  C1[X(C10H18O3)]
 Deg. of freedom    87
 Full point group                 C1      NOp   1
 Largest Abelian subgroup         C1      NOp   1
 Largest concise Abelian subgroup C1      NOp   1
                         Standard orientation:                         
 ---------------------------------------------------------------------
 Center     Atomic      Atomic             Coordinates (Angstroms)
 Number     Number       Type             X           Y           Z
 ---------------------------------------------------------------------
      1          6           0        2.821397   -1.119038   -0.346930
      2          8           0        2.455887   -0.102237   -1.269381
      3          6           0        2.130074    0.352822    1.535763
      4          8           0       -2.725033   -1.335151    0.584672
      5          6           0        1.395901    0.733799   -0.893299
      6          6           0        1.665556    1.356963    0.476116
      7          6           0       -3.114318    1.043658    0.371322
      8          8           0        0.208325   -0.012646   -1.037917
      9          6           0       -1.844223    1.171056   -0.473805
     10          6           0       -3.693364   -0.356599    0.249745
     11          6           0       -0.877585    0.041035   -0.133448
     12          6           0       -1.584967   -1.303495   -0.245845
     13          6           0        3.253808   -0.518155    0.977473
     14          1           0        1.987779   -1.799441   -0.207757
     15          1           0        3.625816   -1.663378   -0.821595
     16          1           0        1.309590   -0.284662    1.850402
     17          1           0        2.464525    0.892421    2.416462
     18          1           0        1.377606    1.510303   -1.643532
     19          1           0        2.462454    2.076012    0.307709
     20          1           0        0.805902    1.924091    0.811364
     21          1           0       -3.857207    1.768934    0.053037
     22          1           0       -2.889086    1.246079    1.415516
     23          1           0       -2.097175    1.101460   -1.529609
     24          1           0       -1.371261    2.135042   -0.315310
     25          1           0       -4.520988   -0.503738    0.930001
     26          1           0       -4.044667   -0.539097   -0.763335
     27          1           0       -0.526347    0.152682    0.881299
     28          1           0       -0.935638   -2.104553    0.079246
     29          1           0       -1.875075   -1.486388   -1.277752
     30          1           0        3.507109   -1.316568    1.669010
     31          1           0        4.149547    0.078798    0.823304
 ---------------------------------------------------------------------
 Rotational constants (GHZ):           1.6944585           0.4289376           0.4174826
 Standard basis: 6-311++G(2d,2p) (5D, 7F)
 There are   557 symmetry adapted cartesian basis functions of A   symmetry.
 There are   531 symmetry adapted basis functions of A   symmetry.
   531 basis functions,   762 primitive gaussians,   557 cartesian basis functions
    51 alpha electrons       51 beta electrons
       nuclear repulsion energy       897.9941474831 Hartrees.
 NAtoms=   31 NActive=   31 NUniq=   31 SFac= 1.00D+00 NAtFMM=   60 NAOKFM=F Big=F
 Integral buffers will be    131072 words long.
 Raffenetti 2 integral format.
 Two-electron integral symmetry is turned on.
 ------------------------------------------------------------------------------
 Polarizable Continuum Model (PCM)
 =================================
 Model                : PCM.
 Atomic radii         : UFF (Universal Force Field).
 Polarization charges : Total charges.
 Charge compensation  : None.
 Solution method      : On-the-fly selection.
 Cavity type          : Scaled VdW (van der Waals Surface) (Alpha=1.100).
 Cavity algorithm     : GePol (No added spheres)
                        Default sphere list used, NSphG=   31.
                        Lebedev-Laikov grids with approx.  5.0 points / Ang**2.
                        Smoothing algorithm: York/Karplus (Gamma=1.0000).
                        Polarization charges: spherical gaussians, with
                                              point-specific exponents (IZeta= 3).
                        Self-potential: point-specific (ISelfS= 7).
                        Self-field    : sphere-specific E.n sum rule (ISelfD= 2).
 1st derivatives      : Analytical E(r).r(x)/FMM algorithm (CHGder, D1EAlg=3).
                        Cavity 1st derivative terms included.
 Solvent              : Water, Eps=  78.355300 Eps(inf)=   1.777849
 ------------------------------------------------------------------------------
 One-electron integrals computed using PRISM.
 NBasis=   531 RedAO= T EigKep=  4.11D-06  NBF=   531
 NBsUse=   531 1.00D-06 EigRej= -1.00D+00 NBFU=   531
 ExpMin= 3.60D-02 ExpMax= 8.59D+03 ExpMxC= 1.30D+03 IAcc=3 IRadAn=         5 AccDes= 0.00D+00
 Harris functional with IExCor= 1009 and IRadAn=       5 diagonalized for initial guess.
 HarFok:  IExCor= 1009 AccDes= 0.00D+00 IRadAn=         5 IDoV= 1 UseB2=F ITyADJ=14
 ICtDFT=  3500011 ScaDFX=  1.000000  1.000000  1.000000  1.000000
 FoFCou: FMM=F IPFlag=           0 FMFlag=      100000 FMFlg1=           0
         NFxFlg=           0 DoJE=T BraDBF=F KetDBF=T FulRan=T
         wScrn=  0.000000 ICntrl=       500 IOpCl=  0 I1Cent=   200000004 NGrid=           0
         NMat0=    1 NMatS0=      1 NMatT0=    0 NMatD0=    1 NMtDS0=    0 NMtDT0=    0
 Petite list used in FoFCou.
 Requested convergence on RMS density matrix=1.00D-08 within 128 cycles.
 Requested convergence on MAX density matrix=1.00D-06.
 Requested convergence on             energy=1.00D-06.
 No special actions if energy rises.
 Inv3:  Mode=1 IEnd=    12730800.
 Iteration    1 A*A^-1 deviation from unit magnitude is 3.77D-15 for   2041.
 Iteration    1 A*A^-1 deviation from orthogonality  is 2.02D-15 for   2041    907.
 Iteration    1 A^-1*A deviation from unit magnitude is 3.77D-15 for   2041.
 Iteration    1 A^-1*A deviation from orthogonality  is 1.81D-14 for   1859   1833.
 Error on total polarization charges =  0.01495
 SCF Done:  E(RM062X) =  -617.493636823     A.U. after   12 cycles
            NFock= 12  Conv=0.42D-08     -V/T= 2.0035

 **********************************************************************

            Population analysis using the SCF density.

 **********************************************************************

 Orbital symmetries:
       Occupied  (A) (A) (A) (A) (A) (A) (A) (A) (A) (A) (A) (A)
                 (A) (A) (A) (A) (A) (A) (A) (A) (A) (A) (A) (A)
                 (A) (A) (A) (A) (A) (A) (A) (A) (A) (A) (A) (A)
                 (A) (A) (A) (A) (A) (A) (A) (A) (A) (A) (A) (A)
                 (A) (A) (A)
       Virtual   (A) (A) (A) (A) (A) (A) (A) (A) (A) (A) (A) (A)
                 (A) (A) (A) (A) (A) (A) (A) (A) (A) (A) (A) (A)
                 (A) (A) (A) (A) (A) (A) (A) (A) (A) (A) (A) (A)
                 (A) (A) (A) (A) (A) (A) (A) (A) (A) (A) (A) (A)
                 (A) (A) (A) (A) (A) (A) (A) (A) (A) (A) (A) (A)
                 (A) (A) (A) (A) (A) (A) (A) (A) (A) (A) (A) (A)
                 (A) (A) (A) (A) (A) (A) (A) (A) (A) (A) (A) (A)
                 (A) (A) (A) (A) (A) (A) (A) (A) (A) (A) (A) (A)
                 (A) (A) (A) (A) (A) (A) (A) (A) (A) (A) (A) (A)
                 (A) (A) (A) (A) (A) (A) (A) (A) (A) (A) (A) (A)
                 (A) (A) (A) (A) (A) (A) (A) (A) (A) (A) (A) (A)
                 (A) (A) (A) (A) (A) (A) (A) (A) (A) (A) (A) (A)
                 (A) (A) (A) (A) (A) (A) (A) (A) (A) (A) (A) (A)
                 (A) (A) (A) (A) (A) (A) (A) (A) (A) (A) (A) (A)
                 (A) (A) (A) (A) (A) (A) (A) (A) (A) (A) (A) (A)
                 (A) (A) (A) (A) (A) (A) (A) (A) (A) (A) (A) (A)
                 (A) (A) (A) (A) (A) (A) (A) (A) (A) (A) (A) (A)
                 (A) (A) (A) (A) (A) (A) (A) (A) (A) (A) (A) (A)
                 (A) (A) (A) (A) (A) (A) (A) (A) (A) (A) (A) (A)
                 (A) (A) (A) (A) (A) (A) (A) (A) (A) (A) (A) (A)
                 (A) (A) (A) (A) (A) (A) (A) (A) (A) (A) (A) (A)
                 (A) (A) (A) (A) (A) (A) (A) (A) (A) (A) (A) (A)
                 (A) (A) (A) (A) (A) (A) (A) (A) (A) (A) (A) (A)
                 (A) (A) (A) (A) (A) (A) (A) (A) (A) (A) (A) (A)
                 (A) (A) (A) (A) (A) (A) (A) (A) (A) (A) (A) (A)
                 (A) (A) (A) (A) (A) (A) (A) (A) (A) (A) (A) (A)
                 (A) (A) (A) (A) (A) (A) (A) (A) (A) (A) (A) (A)
                 (A) (A) (A) (A) (A) (A) (A) (A) (A) (A) (A) (A)
                 (A) (A) (A) (A) (A) (A) (A) (A) (A) (A) (A) (A)
                 (A) (A) (A) (A) (A) (A) (A) (A) (A) (A) (A) (A)
                 (A) (A) (A) (A) (A) (A) (A) (A) (A) (A) (A) (A)
                 (A) (A) (A) (A) (A) (A) (A) (A) (A) (A) (A) (A)
                 (A) (A) (A) (A) (A) (A) (A) (A) (A) (A) (A) (A)
                 (A) (A) (A) (A) (A) (A) (A) (A) (A) (A) (A) (A)
                 (A) (A) (A) (A) (A) (A) (A) (A) (A) (A) (A) (A)
                 (A) (A) (A) (A) (A) (A) (A) (A) (A) (A) (A) (A)
                 (A) (A) (A) (A) (A) (A) (A) (A) (A) (A) (A) (A)
                 (A) (A) (A) (A) (A) (A) (A) (A) (A) (A) (A) (A)
                 (A) (A) (A) (A) (A) (A) (A) (A) (A) (A) (A) (A)
                 (A) (A) (A) (A) (A) (A) (A) (A) (A) (A) (A) (A)
 The electronic state is 1-A.
 Alpha  occ. eigenvalues --  -19.62944 -19.62853 -19.62801 -10.63810 -10.58841
 Alpha  occ. eigenvalues --  -10.57939 -10.57883 -10.57670 -10.53456 -10.53320
 Alpha  occ. eigenvalues --  -10.53159 -10.53074 -10.52848  -1.19949  -1.16804
 Alpha  occ. eigenvalues --   -1.13524  -0.90459  -0.90327  -0.87807  -0.84991
 Alpha  occ. eigenvalues --   -0.75407  -0.74357  -0.73475  -0.70718  -0.65911
 Alpha  occ. eigenvalues --   -0.64479  -0.59568  -0.58551  -0.58223  -0.56096
 Alpha  occ. eigenvalues --   -0.54797  -0.53768  -0.51754  -0.51396  -0.50010
 Alpha  occ. eigenvalues --   -0.48633  -0.47895  -0.46140  -0.45684  -0.45304
 Alpha  occ. eigenvalues --   -0.43898  -0.41760  -0.41206  -0.40830  -0.39118
 Alpha  occ. eigenvalues --   -0.38488  -0.37703  -0.36918  -0.35206  -0.32890
 Alpha  occ. eigenvalues --   -0.31748
 Alpha virt. eigenvalues --   -0.00156   0.00763   0.00938   0.01032   0.02229
 Alpha virt. eigenvalues --    0.02547   0.02689   0.03374   0.03554   0.04638
 Alpha virt. eigenvalues --    0.04714   0.04872   0.05579   0.05835   0.07175
 Alpha virt. eigenvalues --    0.07229   0.08200   0.08503   0.09082   0.09365
 Alpha virt. eigenvalues --    0.09772   0.10548   0.10940   0.11458   0.11859
 Alpha virt. eigenvalues --    0.12111   0.12371   0.12827   0.13366   0.13712
 Alpha virt. eigenvalues --    0.13885   0.14222   0.14261   0.14589   0.14766
 Alpha virt. eigenvalues --    0.15124   0.15394   0.15836   0.15966   0.16413
 Alpha virt. eigenvalues --    0.16594   0.16960   0.17163   0.17566   0.17833
 Alpha virt. eigenvalues --    0.17918   0.18373   0.18623   0.19060   0.19751
 Alpha virt. eigenvalues --    0.19941   0.20158   0.20576   0.21226   0.21385
 Alpha virt. eigenvalues --    0.22127   0.22601   0.22865   0.23557   0.24157
 Alpha virt. eigenvalues --    0.25197   0.25702   0.26389   0.26594   0.27140
 Alpha virt. eigenvalues --    0.27509   0.28046   0.28628   0.29268   0.29740
 Alpha virt. eigenvalues --    0.29955   0.30200   0.31002   0.31305   0.31823
 Alpha virt. eigenvalues --    0.32216   0.32892   0.33147   0.33783   0.33957
 Alpha virt. eigenvalues --    0.34901   0.35159   0.35722   0.36371   0.36488
 Alpha virt. eigenvalues --    0.36759   0.37213   0.37638   0.37924   0.37954
 Alpha virt. eigenvalues --    0.38324   0.39622   0.39970   0.40384   0.41015
 Alpha virt. eigenvalues --    0.41664   0.41956   0.42715   0.44020   0.45140
 Alpha virt. eigenvalues --    0.45954   0.46953   0.49007   0.49553   0.50933
 Alpha virt. eigenvalues --    0.51367   0.52394   0.53216   0.54119   0.55335
 Alpha virt. eigenvalues --    0.56234   0.57439   0.58479   0.58706   0.59527
 Alpha virt. eigenvalues --    0.59927   0.60361   0.60810   0.61347   0.61864
 Alpha virt. eigenvalues --    0.62240   0.62602   0.63209   0.63741   0.63944
 Alpha virt. eigenvalues --    0.64694   0.65583   0.65947   0.66194   0.67100
 Alpha virt. eigenvalues --    0.67951   0.68054   0.68896   0.70012   0.70086
 Alpha virt. eigenvalues --    0.71259   0.71315   0.72237   0.72968   0.73357
 Alpha virt. eigenvalues --    0.73668   0.74193   0.75067   0.75370   0.75604
 Alpha virt. eigenvalues --    0.76704   0.76998   0.78231   0.79520   0.79989
 Alpha virt. eigenvalues --    0.81092   0.82460   0.84590   0.84975   0.85527
 Alpha virt. eigenvalues --    0.86606   0.87906   0.88068   0.88117   0.90174
 Alpha virt. eigenvalues --    0.90952   0.91355   0.93788   0.94222   0.95619
 Alpha virt. eigenvalues --    0.97097   0.97553   0.99639   1.00618   1.02051
 Alpha virt. eigenvalues --    1.02394   1.04307   1.04686   1.05552   1.06143
 Alpha virt. eigenvalues --    1.07070   1.09218   1.09891   1.10672   1.11977
 Alpha virt. eigenvalues --    1.12123   1.13295   1.14829   1.15744   1.16428
 Alpha virt. eigenvalues --    1.16882   1.19094   1.19623   1.20119   1.20869
 Alpha virt. eigenvalues --    1.21123   1.21701   1.22521   1.24247   1.24265
 Alpha virt. eigenvalues --    1.24772   1.25498   1.26403   1.27005   1.27772
 Alpha virt. eigenvalues --    1.27926   1.29882   1.30834   1.31461   1.31807
 Alpha virt. eigenvalues --    1.32535   1.33225   1.33929   1.34288   1.34635
 Alpha virt. eigenvalues --    1.34778   1.35347   1.36535   1.37249   1.37515
 Alpha virt. eigenvalues --    1.38363   1.39108   1.40328   1.41113   1.41513
 Alpha virt. eigenvalues --    1.42103   1.42498   1.43382   1.44585   1.44993
 Alpha virt. eigenvalues --    1.45858   1.46461   1.47090   1.47845   1.48771
 Alpha virt. eigenvalues --    1.49530   1.50620   1.51490   1.51676   1.52200
 Alpha virt. eigenvalues --    1.52586   1.53766   1.54208   1.54969   1.55667
 Alpha virt. eigenvalues --    1.56467   1.57092   1.57587   1.58703   1.59188
 Alpha virt. eigenvalues --    1.59806   1.60759   1.61011   1.62247   1.62718
 Alpha virt. eigenvalues --    1.64002   1.64304   1.65665   1.65864   1.66846
 Alpha virt. eigenvalues --    1.68143   1.69220   1.70220   1.72223   1.72847
 Alpha virt. eigenvalues --    1.74266   1.74893   1.76125   1.76249   1.78133
 Alpha virt. eigenvalues --    1.78989   1.80257   1.80544   1.82313   1.83902
 Alpha virt. eigenvalues --    1.85457   1.87351   1.92139   1.96295   1.97233
 Alpha virt. eigenvalues --    2.03117   2.04733   2.15003   2.16723   2.21200
 Alpha virt. eigenvalues --    2.25201   2.26770   2.27712   2.29090   2.36284
 Alpha virt. eigenvalues --    2.39666   2.43493   2.43983   2.48050   2.51504
 Alpha virt. eigenvalues --    2.59048   2.75395   2.76205   2.80405   2.82614
 Alpha virt. eigenvalues --    2.84214   2.90434   2.92804   2.93642   2.95224
 Alpha virt. eigenvalues --    2.96427   2.97397   3.00977   3.02191   3.04727
 Alpha virt. eigenvalues --    3.06816   3.08072   3.08210   3.09548   3.11726
 Alpha virt. eigenvalues --    3.14025   3.14722   3.18010   3.19207   3.22329
 Alpha virt. eigenvalues --    3.24771   3.29613   3.31523   3.32355   3.34576
 Alpha virt. eigenvalues --    3.35601   3.37861   3.38494   3.40034   3.41526
 Alpha virt. eigenvalues --    3.42230   3.43425   3.43883   3.45434   3.46471
 Alpha virt. eigenvalues --    3.48077   3.49046   3.49843   3.50384   3.52016
 Alpha virt. eigenvalues --    3.52149   3.54090   3.54453   3.54810   3.56020
 Alpha virt. eigenvalues --    3.56662   3.57044   3.57503   3.58688   3.60019
 Alpha virt. eigenvalues --    3.60480   3.61832   3.63024   3.65058   3.65584
 Alpha virt. eigenvalues --    3.66694   3.66876   3.67904   3.68623   3.69255
 Alpha virt. eigenvalues --    3.70303   3.70999   3.72697   3.72825   3.74564
 Alpha virt. eigenvalues --    3.74875   3.76053   3.76735   3.77107   3.77713
 Alpha virt. eigenvalues --    3.78325   3.79548   3.80656   3.83426   3.85340
 Alpha virt. eigenvalues --    3.85897   3.87228   3.89648   3.90032   3.93171
 Alpha virt. eigenvalues --    3.93639   3.94407   3.95391   3.95801   3.97578
 Alpha virt. eigenvalues --    3.99379   4.01661   4.02829   4.03582   4.04777
 Alpha virt. eigenvalues --    4.05456   4.06053   4.06269   4.07496   4.07654
 Alpha virt. eigenvalues --    4.08512   4.09313   4.10159   4.11186   4.11546
 Alpha virt. eigenvalues --    4.12089   4.12866   4.13723   4.15299   4.16152
 Alpha virt. eigenvalues --    4.17359   4.18002   4.18675   4.19497   4.20899
 Alpha virt. eigenvalues --    4.22327   4.23801   4.24423   4.26280   4.27629
 Alpha virt. eigenvalues --    4.28489   4.29213   4.30194   4.31309   4.33317
 Alpha virt. eigenvalues --    4.33481   4.35175   4.36585   4.38541   4.40987
 Alpha virt. eigenvalues --    4.42179   4.43819   4.44923   4.48662   4.53911
 Alpha virt. eigenvalues --    4.59482   4.61129   4.75196   4.76962   4.83087
 Alpha virt. eigenvalues --    4.85200   4.92811   4.94898   4.98903   5.01270
 Alpha virt. eigenvalues --    5.06429   5.07523   5.08404   5.08881   5.12092
 Alpha virt. eigenvalues --    5.12853   5.14401   5.16844   5.30820   5.34182
 Alpha virt. eigenvalues --    5.42221   5.55962   5.58855   5.61703   5.85591
 Alpha virt. eigenvalues --    5.88731   6.00914   6.99839   7.05925   7.07911
 Alpha virt. eigenvalues --    7.09864   7.10963   7.11590   7.13519   7.15820
 Alpha virt. eigenvalues --    7.28338   7.36547   7.40537   7.47319   7.53608
 Alpha virt. eigenvalues --    7.56428   7.58939  23.96003  23.96783  24.05432
 Alpha virt. eigenvalues --   24.09153  24.11247  24.13611  24.14271  24.14673
 Alpha virt. eigenvalues --   24.15941  24.20062  50.16595  50.17732  50.22855
          Condensed to atoms (all electrons):
               1          2          3          4          5          6
     1  C    5.493937   0.199483   0.081020  -0.000722  -0.362741   0.146820
     2  O    0.199483   8.247879  -0.011973   0.000012   0.044353   0.066655
     3  C    0.081020  -0.011973   5.989084  -0.001331   0.304818  -0.540199
     4  O   -0.000722   0.000012  -0.001331   8.261848  -0.009756   0.007651
     5  C   -0.362741   0.044353   0.304818  -0.009756   7.634664  -1.483691
     6  C    0.146820   0.066655  -0.540199   0.007651  -1.483691   7.057511
     7  C    0.004201   0.003036  -0.015639   0.005351  -0.104268   0.073734
     8  O   -0.000127  -0.013036   0.014616   0.001026   0.281530   0.027401
     9  C   -0.048245  -0.030472  -0.063175  -0.052618   0.432693  -0.003407
    10  C    0.001030   0.002095   0.001666   0.110189  -0.033285   0.006235
    11  C    0.063218   0.037599  -0.106131   0.085692  -1.024409   0.344711
    12  C    0.002409   0.002685   0.007959   0.172480  -0.056064  -0.060421
    13  C   -0.163726  -0.113417  -0.291163   0.000476   0.015668   0.026902
    14  H    0.493934  -0.039319   0.027484   0.001622   0.012922  -0.007378
    15  H    0.429577  -0.059806   0.000632  -0.000056  -0.017931   0.014687
    16  H    0.033221   0.006799   0.517422   0.005003  -0.060827  -0.017776
    17  H    0.007090  -0.002008   0.427838  -0.000218   0.021893  -0.051867
    18  H   -0.020806  -0.082467  -0.019234  -0.000261   0.570717  -0.064601
    19  H    0.021085  -0.009132   0.013960   0.000191  -0.099254   0.471354
    20  H    0.014293   0.012969  -0.042198   0.002151  -0.094412   0.467770
    21  H   -0.000426  -0.000157  -0.001388   0.007845   0.000498   0.001857
    22  H    0.001323   0.000023   0.002713  -0.001739  -0.000842   0.003338
    23  H   -0.002284  -0.001153   0.005678   0.000639   0.038515  -0.022243
    24  H    0.002089   0.001304  -0.009195  -0.005094   0.001791   0.011700
    25  H   -0.000148   0.000104  -0.000145  -0.066964  -0.002673   0.000055
    26  H    0.000536  -0.000071   0.000311  -0.051890   0.001512   0.000651
    27  H   -0.048521  -0.004783   0.041543  -0.044608   0.018044  -0.085562
    28  H   -0.000480  -0.003506  -0.009815  -0.086264   0.020882   0.003128
    29  H    0.005190   0.002939  -0.001452  -0.040283  -0.022831   0.012995
    30  H   -0.037615   0.006111  -0.044808  -0.000070   0.025195   0.002542
    31  H   -0.058534  -0.009523   0.005980   0.000002   0.024704  -0.042034
               7          8          9         10         11         12
     1  C    0.004201  -0.000127  -0.048245   0.001030   0.063218   0.002409
     2  O    0.003036  -0.013036  -0.030472   0.002095   0.037599   0.002685
     3  C   -0.015639   0.014616  -0.063175   0.001666  -0.106131   0.007959
     4  O    0.005351   0.001026  -0.052618   0.110189   0.085692   0.172480
     5  C   -0.104268   0.281530   0.432693  -0.033285  -1.024409  -0.056064
     6  C    0.073734   0.027401  -0.003407   0.006235   0.344711  -0.060421
     7  C    5.624521  -0.002047  -0.114462   0.057652   0.032871   0.059690
     8  O   -0.002047   8.188097  -0.143219   0.011826   0.298218  -0.215609
     9  C   -0.114462  -0.143219   7.430002  -0.176667  -1.825803  -0.205308
    10  C    0.057652   0.011826  -0.176667   5.460508   0.193932  -0.202205
    11  C    0.032871   0.298218  -1.825803   0.193932   7.848290   0.041477
    12  C    0.059690  -0.215609  -0.205308  -0.202205   0.041477   6.035976
    13  C    0.000544  -0.031560   0.008205  -0.000890   0.113352   0.001033
    14  H   -0.000999  -0.006449  -0.011779  -0.000225   0.002947   0.018281
    15  H    0.000044  -0.002273  -0.001574   0.000047   0.003625   0.001831
    16  H    0.010313  -0.005464  -0.023459  -0.002674   0.048996  -0.014440
    17  H   -0.000557   0.000722   0.006183  -0.000144  -0.008996  -0.001172
    18  H   -0.014490  -0.063921   0.049429  -0.001387  -0.076197   0.004164
    19  H    0.002299   0.004507  -0.005496  -0.000008   0.000754  -0.002645
    20  H    0.004855  -0.004433  -0.066396   0.008398   0.076583   0.010124
    21  H    0.419365  -0.001513  -0.001881  -0.035904  -0.017884  -0.010947
    22  H    0.533420   0.000144  -0.044565  -0.099764  -0.012875   0.015828
    23  H   -0.056843   0.000440   0.547832  -0.025549  -0.107629  -0.012338
    24  H    0.012440  -0.002307   0.413660  -0.010781  -0.033710   0.006328
    25  H   -0.056729   0.000814   0.012335   0.443334  -0.008834   0.017896
    26  H   -0.009941  -0.000509  -0.061043   0.450587   0.068856  -0.038060
    27  H   -0.074738  -0.012036   0.077944   0.052528   0.295563  -0.042733
    28  H   -0.001115   0.011438   0.094697   0.006436  -0.097756   0.352916
    29  H    0.026588   0.004307  -0.081181  -0.001105   0.052786   0.405355
    30  H   -0.000556   0.000924   0.000237   0.000138  -0.004304  -0.001033
    31  H   -0.000143  -0.000120   0.000081   0.000056  -0.003548  -0.000218
              13         14         15         16         17         18
     1  C   -0.163726   0.493934   0.429577   0.033221   0.007090  -0.020806
     2  O   -0.113417  -0.039319  -0.059806   0.006799  -0.002008  -0.082467
     3  C   -0.291163   0.027484   0.000632   0.517422   0.427838  -0.019234
     4  O    0.000476   0.001622  -0.000056   0.005003  -0.000218  -0.000261
     5  C    0.015668   0.012922  -0.017931  -0.060827   0.021893   0.570717
     6  C    0.026902  -0.007378   0.014687  -0.017776  -0.051867  -0.064601
     7  C    0.000544  -0.000999   0.000044   0.010313  -0.000557  -0.014490
     8  O   -0.031560  -0.006449  -0.002273  -0.005464   0.000722  -0.063921
     9  C    0.008205  -0.011779  -0.001574  -0.023459   0.006183   0.049429
    10  C   -0.000890  -0.000225   0.000047  -0.002674  -0.000144  -0.001387
    11  C    0.113352   0.002947   0.003625   0.048996  -0.008996  -0.076197
    12  C    0.001033   0.018281   0.001831  -0.014440  -0.001172   0.004164
    13  C    6.223926  -0.148830  -0.013349  -0.094833  -0.026874  -0.001036
    14  H   -0.148830   0.538560  -0.018193  -0.002852  -0.000232   0.002145
    15  H   -0.013349  -0.018193   0.460353  -0.001650   0.000996  -0.000748
    16  H   -0.094833  -0.002852  -0.001650   0.502454  -0.012308  -0.005288
    17  H   -0.026874  -0.000232   0.000996  -0.012308   0.464640   0.002243
    18  H   -0.001036   0.002145  -0.000748  -0.005288   0.002243   0.470864
    19  H   -0.037364  -0.001755   0.000230   0.007384  -0.005192  -0.010807
    20  H   -0.024116   0.001326   0.001052   0.008427  -0.010837  -0.009082
    21  H    0.000076  -0.000094  -0.000013  -0.000129   0.000067   0.000939
    22  H   -0.000318  -0.000070   0.000034   0.004215  -0.000204  -0.000577
    23  H   -0.000603   0.000025  -0.000155   0.000591   0.000056   0.003958
    24  H    0.002470  -0.000006   0.000155  -0.000314  -0.000034  -0.008645
    25  H   -0.000065   0.000213  -0.000017  -0.000272   0.000000  -0.000084
    26  H    0.000111  -0.000344   0.000038   0.000972  -0.000045  -0.000537
    27  H   -0.003536   0.005216  -0.001933  -0.045972   0.007358   0.008600
    28  H    0.008119  -0.017013   0.001441  -0.009228   0.000524   0.000007
    29  H    0.000117   0.000523   0.000046   0.004840  -0.000369  -0.002369
    30  H    0.422664   0.004470  -0.012328  -0.009489  -0.007399   0.001807
    31  H    0.448187   0.000530  -0.001923  -0.002328   0.001079   0.000854
              19         20         21         22         23         24
     1  C    0.021085   0.014293  -0.000426   0.001323  -0.002284   0.002089
     2  O   -0.009132   0.012969  -0.000157   0.000023  -0.001153   0.001304
     3  C    0.013960  -0.042198  -0.001388   0.002713   0.005678  -0.009195
     4  O    0.000191   0.002151   0.007845  -0.001739   0.000639  -0.005094
     5  C   -0.099254  -0.094412   0.000498  -0.000842   0.038515   0.001791
     6  C    0.471354   0.467770   0.001857   0.003338  -0.022243   0.011700
     7  C    0.002299   0.004855   0.419365   0.533420  -0.056843   0.012440
     8  O    0.004507  -0.004433  -0.001513   0.000144   0.000440  -0.002307
     9  C   -0.005496  -0.066396  -0.001881  -0.044565   0.547832   0.413660
    10  C   -0.000008   0.008398  -0.035904  -0.099764  -0.025549  -0.010781
    11  C    0.000754   0.076583  -0.017884  -0.012875  -0.107629  -0.033710
    12  C   -0.002645   0.010124  -0.010947   0.015828  -0.012338   0.006328
    13  C   -0.037364  -0.024116   0.000076  -0.000318  -0.000603   0.002470
    14  H   -0.001755   0.001326  -0.000094  -0.000070   0.000025  -0.000006
    15  H    0.000230   0.001052  -0.000013   0.000034  -0.000155   0.000155
    16  H    0.007384   0.008427  -0.000129   0.004215   0.000591  -0.000314
    17  H   -0.005192  -0.010837   0.000067  -0.000204   0.000056  -0.000034
    18  H   -0.010807  -0.009082   0.000939  -0.000577   0.003958  -0.008645
    19  H    0.434762  -0.005333  -0.000170   0.000613  -0.000063   0.001465
    20  H   -0.005333   0.505641  -0.000364  -0.000832  -0.003122  -0.003558
    21  H   -0.000170  -0.000364   0.490002  -0.009143  -0.002079  -0.014375
    22  H    0.000613  -0.000832  -0.009143   0.479797   0.002658   0.001013
    23  H   -0.000063  -0.003122  -0.002079   0.002658   0.433176  -0.007330
    24  H    0.001465  -0.003558  -0.014375   0.001013  -0.007330   0.502464
    25  H   -0.000042   0.000156  -0.008266  -0.006989  -0.001642   0.000661
    26  H    0.000101   0.000435   0.002885   0.005608  -0.003438  -0.000743
    27  H   -0.007373  -0.034109  -0.000044  -0.038377  -0.001297  -0.005306
    28  H   -0.000064  -0.002630   0.003447  -0.003077  -0.001468   0.000882
    29  H    0.000579   0.001876  -0.003209   0.004655  -0.000168  -0.003979
    30  H   -0.002333   0.000639   0.000003  -0.000127   0.000085  -0.000217
    31  H   -0.001281  -0.001681  -0.000006  -0.000032  -0.000035  -0.000107
              25         26         27         28         29         30
     1  C   -0.000148   0.000536  -0.048521  -0.000480   0.005190  -0.037615
     2  O    0.000104  -0.000071  -0.004783  -0.003506   0.002939   0.006111
     3  C   -0.000145   0.000311   0.041543  -0.009815  -0.001452  -0.044808
     4  O   -0.066964  -0.051890  -0.044608  -0.086264  -0.040283  -0.000070
     5  C   -0.002673   0.001512   0.018044   0.020882  -0.022831   0.025195
     6  C    0.000055   0.000651  -0.085562   0.003128   0.012995   0.002542
     7  C   -0.056729  -0.009941  -0.074738  -0.001115   0.026588  -0.000556
     8  O    0.000814  -0.000509  -0.012036   0.011438   0.004307   0.000924
     9  C    0.012335  -0.061043   0.077944   0.094697  -0.081181   0.000237
    10  C    0.443334   0.450587   0.052528   0.006436  -0.001105   0.000138
    11  C   -0.008834   0.068856   0.295563  -0.097756   0.052786  -0.004304
    12  C    0.017896  -0.038060  -0.042733   0.352916   0.405355  -0.001033
    13  C   -0.000065   0.000111  -0.003536   0.008119   0.000117   0.422664
    14  H    0.000213  -0.000344   0.005216  -0.017013   0.000523   0.004470
    15  H   -0.000017   0.000038  -0.001933   0.001441   0.000046  -0.012328
    16  H   -0.000272   0.000972  -0.045972  -0.009228   0.004840  -0.009489
    17  H    0.000000  -0.000045   0.007358   0.000524  -0.000369  -0.007399
    18  H   -0.000084  -0.000537   0.008600   0.000007  -0.002369   0.001807
    19  H   -0.000042   0.000101  -0.007373  -0.000064   0.000579  -0.002333
    20  H    0.000156   0.000435  -0.034109  -0.002630   0.001876   0.000639
    21  H   -0.008266   0.002885  -0.000044   0.003447  -0.003209   0.000003
    22  H   -0.006989   0.005608  -0.038377  -0.003077   0.004655  -0.000127
    23  H   -0.001642  -0.003438  -0.001297  -0.001468  -0.000168   0.000085
    24  H    0.000661  -0.000743  -0.005306   0.000882  -0.003979  -0.000217
    25  H    0.475762  -0.008035   0.006434   0.000841  -0.001410   0.000011
    26  H   -0.008035   0.496209  -0.016805  -0.002516   0.010347  -0.000014
    27  H    0.006434  -0.016805   0.651836   0.015081  -0.032707   0.004957
    28  H    0.000841  -0.002516   0.015081   0.527581  -0.029392   0.000426
    29  H   -0.001410   0.010347  -0.032707  -0.029392   0.491771  -0.000230
    30  H    0.000011  -0.000014   0.004957   0.000426  -0.000230   0.486941
    31  H   -0.000000   0.000002   0.002285   0.000145  -0.000069  -0.002887
              31
     1  C   -0.058534
     2  O   -0.009523
     3  C    0.005980
     4  O    0.000002
     5  C    0.024704
     6  C   -0.042034
     7  C   -0.000143
     8  O   -0.000120
     9  C    0.000081
    10  C    0.000056
    11  C   -0.003548
    12  C   -0.000218
    13  C    0.448187
    14  H    0.000530
    15  H   -0.001923
    16  H   -0.002328
    17  H    0.001079
    18  H    0.000854
    19  H   -0.001281
    20  H   -0.001681
    21  H   -0.000006
    22  H   -0.000032
    23  H   -0.000035
    24  H   -0.000107
    25  H   -0.000000
    26  H    0.000002
    27  H    0.002285
    28  H    0.000145
    29  H   -0.000069
    30  H   -0.002887
    31  H    0.466360
 Mulliken charges:
               1
     1  C   -0.256084
     2  O   -0.253222
     3  C   -0.284877
     4  O   -0.300304
     5  C   -0.077413
     6  C   -0.368517
     7  C   -0.418397
     8  O   -0.341387
     9  C   -0.112546
    10  C   -0.216071
    11  C   -0.281394
    12  C   -0.293238
    13  C   -0.320169
    14  H    0.145339
    15  H    0.217161
    16  H    0.158666
    17  H    0.187769
    18  H    0.266811
    19  H    0.229027
    20  H    0.186407
    21  H    0.181006
    22  H    0.164151
    23  H    0.215786
    24  H    0.147278
    25  H    0.203697
    26  H    0.154832
    27  H    0.313052
    28  H    0.216334
    29  H    0.195840
    30  H    0.166260
    31  H    0.174202
 Sum of Mulliken charges =  -0.00000
 Mulliken charges with hydrogens summed into heavy atoms:
               1
     1  C    0.106416
     2  O   -0.253222
     3  C    0.061558
     4  O   -0.300304
     5  C    0.189399
     6  C    0.046917
     7  C   -0.073240
     8  O   -0.341387
     9  C    0.250518
    10  C    0.142457
    11  C    0.031658
    12  C    0.118936
    13  C    0.020293
 Electronic spatial extent (au):  <R**2>=           2924.2742
 Charge=             -0.0000 electrons
 Dipole moment (field-independent basis, Debye):
    X=             -0.4134    Y=              2.2867    Z=              2.1939  Tot=              3.1958
 Quadrupole moment (field-independent basis, Debye-Ang):
   XX=            -75.8713   YY=            -78.5118   ZZ=            -85.1964
   XY=             -6.0132   XZ=              8.5443   YZ=              1.0473
 Traceless Quadrupole moment (field-independent basis, Debye-Ang):
   XX=              3.9885   YY=              1.3480   ZZ=             -5.3366
   XY=             -6.0132   XZ=              8.5443   YZ=              1.0473
 Octapole moment (field-independent basis, Debye-Ang**2):
  XXX=            -18.5523  YYY=              1.0532  ZZZ=              3.0117  XYY=             15.1973
  XXY=              8.7368  XXZ=              6.2669  XZZ=             -6.1020  YZZ=              2.8926
  YYZ=             -6.0160  XYZ=             -5.9809
 Hexadecapole moment (field-independent basis, Debye-Ang**3):
 XXXX=          -2735.6243 YYYY=           -557.4042 ZZZZ=           -462.3718 XXXY=            -57.6338
 XXXZ=             25.8087 YYYX=            -11.4520 YYYZ=              0.6951 ZZZX=              6.4220
 ZZZY=             -3.2509 XXYY=           -576.3020 XXZZ=           -569.9510 YYZZ=           -166.4749
 XXYZ=             17.7775 YYXZ=              3.4404 ZZXY=              2.4161
 N-N= 8.979941474831D+02 E-N=-3.237553305185D+03  KE= 6.153322321216D+02
 D1PCM: PCM CHGder 1st derivatives, ID1Alg=3 FixD1E=F DoIter=F DoCFld=F I1PDM=0.
 Calling FoFJK, ICntrl=      2127 FMM=F ISym2X=0 I1Cent= 0 IOpClX= 0 NMat=1 NMatS=1 NMatT=0.
 ***** Axes restored to original set *****
 -------------------------------------------------------------------
 Center     Atomic                   Forces (Hartrees/Bohr)
 Number     Number              X              Y              Z
 -------------------------------------------------------------------
      1        6           0.001478517    0.005958053   -0.003538363
      2        8          -0.004288360    0.003561334    0.010655825
      3        6          -0.001235343    0.000698526    0.004387238
      4        8           0.000694263   -0.005719816   -0.006791799
      5        6          -0.001991722   -0.003443423   -0.011339199
      6        6           0.000586050   -0.003651527   -0.000037017
      7        6          -0.000227622   -0.000829917    0.002453783
      8        8           0.001491663   -0.010040448    0.002229833
      9        6           0.001776805   -0.003253591   -0.003770832
     10        6          -0.006309592    0.002903808    0.000015428
     11        6           0.000453706    0.004193939    0.007559867
     12        6           0.003203771    0.005790296   -0.003370627
     13        6           0.002688021   -0.000856757    0.000264364
     14        1           0.005400501   -0.003514573   -0.001666971
     15        1          -0.003352007   -0.002176265    0.001841090
     16        1           0.003394517   -0.002818875   -0.000583202
     17        1          -0.000649159    0.001185209   -0.002186094
     18        1          -0.000973548    0.005316941    0.004942462
     19        1          -0.002581926    0.002169920    0.000531954
     20        1           0.003972969    0.002109175   -0.001358606
     21        1           0.001803016    0.002276769    0.000738176
     22        1          -0.000889285   -0.000015616   -0.003097562
     23        1           0.000207849   -0.001223775    0.003529588
     24        1          -0.001924045    0.003125380   -0.000492095
     25        1           0.003259943   -0.000487444   -0.002838829
     26        1           0.001834962    0.000134051    0.005909504
     27        1          -0.001475516    0.000829857   -0.008086761
     28        1          -0.003797033   -0.003136561   -0.001325220
     29        1           0.000302567    0.000504033    0.006592382
     30        1          -0.000620854   -0.001756598   -0.002123821
     31        1          -0.002233108    0.002167894    0.000955503
 -------------------------------------------------------------------
 Cartesian Forces:  Max     0.011339199 RMS     0.003623427

 GradGradGradGradGradGradGradGradGradGradGradGradGradGradGradGradGradGrad
 Berny optimization.
 FormGI is forming the generalized inverse of G from B-inverse, IUseBI=4.
 Internal  Forces:  Max     0.014528611 RMS     0.002274559
 Search for a local minimum.
 Step number   1 out of a maximum of  186
 All quantities printed in internal units (Hartrees-Bohrs-Radians)
 Mixed Optimization -- RFO/linear search
 Second derivative matrix not updated -- first step.
 ITU=  0
     Eigenvalues ---    0.00561   0.00637   0.00724   0.00740   0.01413
     Eigenvalues ---    0.01450   0.01503   0.02612   0.02777   0.03067
     Eigenvalues ---    0.03159   0.03907   0.04370   0.04753   0.04790
     Eigenvalues ---    0.04797   0.04993   0.05015   0.05114   0.05151
     Eigenvalues ---    0.05189   0.05581   0.05745   0.06018   0.06155
     Eigenvalues ---    0.06311   0.06402   0.06797   0.07511   0.07874
     Eigenvalues ---    0.07876   0.07926   0.07982   0.08129   0.08365
     Eigenvalues ---    0.08597   0.09259   0.09335   0.10854   0.11602
     Eigenvalues ---    0.11630   0.11706   0.11820   0.12404   0.12489
     Eigenvalues ---    0.14531   0.14781   0.16274   0.16512   0.17568
     Eigenvalues ---    0.19363   0.21594   0.21774   0.25000   0.28316
     Eigenvalues ---    0.28594   0.28657   0.28715   0.28990   0.29111
     Eigenvalues ---    0.30209   0.30212   0.35055   0.35082   0.35113
     Eigenvalues ---    0.35115   0.35136   0.35223   0.35255   0.35289
     Eigenvalues ---    0.35319   0.35323   0.35350   0.35396   0.35626
     Eigenvalues ---    0.35829   0.35849   0.35866   0.36009   0.36042
     Eigenvalues ---    0.40900   0.41418   0.42337   0.43336   0.43798
     Eigenvalues ---    0.439841000.000001000.000001000.000001000.00000
     Eigenvalues --- 1000.000001000.000001000.000001000.000001000.00000
     Eigenvalues --- 1000.000001000.000001000.000001000.000001000.00000
     Eigenvalues --- 1000.000001000.000001000.000001000.000001000.00000
     Eigenvalues --- 1000.000001000.000001000.000001000.000001000.00000
     Eigenvalues --- 1000.000001000.000001000.000001000.000001000.00000
     Eigenvalues --- 1000.000001000.000001000.000001000.000001000.00000
     Eigenvalues --- 1000.000001000.000001000.000001000.000001000.00000
     Eigenvalues --- 1000.000001000.000001000.000001000.000001000.00000
     Eigenvalues --- 1000.000001000.000001000.000001000.000001000.00000
     Eigenvalues --- 1000.000001000.000001000.000001000.000001000.00000
     Eigenvalues --- 1000.000001000.000001000.000001000.000001000.00000
     Eigenvalues --- 1000.000001000.000001000.000001000.000001000.00000
     Eigenvalues --- 1000.000001000.000001000.000001000.000001000.00000
     Eigenvalues --- 1000.000001000.000001000.000001000.000001000.00000
     Eigenvalues --- 1000.000001000.000001000.000001000.000001000.00000
     Eigenvalues --- 1000.000001000.000001000.000001000.000001000.00000
     Eigenvalues --- 1000.000001000.000001000.000001000.000001000.00000
     Eigenvalues --- 1000.000001000.000001000.000001000.000001000.00000
     Eigenvalues --- 1000.000001000.000001000.000001000.000001000.00000
 RFO step:  Lambda=-3.99883701D-03 EMin= 5.61336269D-03
 Linear search not attempted -- first point.
 Iteration  1 RMS(Cart)=  0.08007454 RMS(Int)=  0.00143797
 Iteration  2 RMS(Cart)=  0.00287588 RMS(Int)=  0.00006333
 Iteration  3 RMS(Cart)=  0.00000477 RMS(Int)=  0.00006329
 Iteration  4 RMS(Cart)=  0.00000000 RMS(Int)=  0.00006329
 Iteration  1 RMS(Cart)=  0.00000757 RMS(Int)=  0.00000155
 Iteration  2 RMS(Cart)=  0.00000405 RMS(Int)=  0.00000174
 Iteration  3 RMS(Cart)=  0.00000217 RMS(Int)=  0.00000196
 Iteration  4 RMS(Cart)=  0.00000116 RMS(Int)=  0.00000210
 Iteration  5 RMS(Cart)=  0.00000062 RMS(Int)=  0.00000218
 Variable       Old X    -DE/DX   Delta X   Delta X   Delta X     New X
                                 (Linear)    (Quad)   (Total)
    R1        2.68474   0.00277   0.00000   0.00622   0.00622   2.69096
    R2        2.86721   0.00039   0.00000   0.00152   0.00156   2.86876
    R3        2.05036   0.00657   0.00000   0.01835   0.01835   2.06871
    R4        2.04292   0.00440   0.00000   0.01213   0.01213   2.05505
    R5        2.64829   0.00111   0.00000   0.00241   0.00245   2.65074
    R6        2.89500  -0.00164   0.00000  -0.00521  -0.00522   2.88978
    R7        2.88644  -0.00068   0.00000  -0.00227  -0.00230   2.88414
    R8        2.05153   0.00439   0.00000   0.01229   0.01229   2.06382
    R9        2.05160   0.00256   0.00000   0.00717   0.00717   2.05877
   R10        2.67742   0.00351   0.00000   0.00807   0.00809   2.68551
   R11        2.66613   0.00294   0.00000   0.00666   0.00668   2.67280
   R12        2.88847  -0.00111   0.00000  -0.00392  -0.00395   2.88452
   R13        2.66474   0.00288   0.00000   0.00648   0.00648   2.67122
   R14        2.04068   0.00724   0.00000   0.01988   0.01988   2.06056
   R15        2.05315   0.00341   0.00000   0.00958   0.00958   2.06273
   R16        2.04670   0.00468   0.00000   0.01299   0.01299   2.05968
   R17        2.89295  -0.00070   0.00000  -0.00239  -0.00240   2.89055
   R18        2.87263   0.00037   0.00000   0.00090   0.00090   2.87353
   R19        2.05208   0.00297   0.00000   0.00833   0.00833   2.06041
   R20        2.05455   0.00316   0.00000   0.00888   0.00888   2.06342
   R21        2.67257   0.00125   0.00000   0.00285   0.00285   2.67543
   R22        2.88280  -0.00142   0.00000  -0.00464  -0.00466   2.87814
   R23        2.05585   0.00355   0.00000   0.01002   0.01002   2.06587
   R24        2.05110   0.00369   0.00000   0.01031   0.01031   2.06141
   R25        2.04349   0.00435   0.00000   0.01199   0.01199   2.05549
   R26        2.05542   0.00608   0.00000   0.01713   0.01713   2.07254
   R27        2.87883  -0.00070   0.00000  -0.00202  -0.00201   2.87682
   R28        2.04016   0.00817   0.00000   0.02241   0.02241   2.06257
   R29        2.04318   0.00500   0.00000   0.01380   0.01380   2.05698
   R30        2.05489   0.00625   0.00000   0.01761   0.01761   2.07250
   R31        2.05264   0.00279   0.00000   0.00783   0.00783   2.06046
   R32        2.05491   0.00316   0.00000   0.00891   0.00891   2.06382
    A1        1.93547   0.00289   0.00000   0.00861   0.00861   1.94408
    A2        1.91180   0.00007   0.00000  -0.00008  -0.00003   1.91177
    A3        1.84079  -0.00166   0.00000  -0.00179  -0.00182   1.83897
    A4        1.93408  -0.00201   0.00000  -0.00799  -0.00806   1.92602
    A5        1.95046  -0.00006   0.00000  -0.00195  -0.00189   1.94857
    A6        1.88837   0.00077   0.00000   0.00349   0.00348   1.89184
    A7        2.03456  -0.00663   0.00000  -0.04093  -0.04078   1.99378
    A8        1.92198   0.00150   0.00000  -0.00378  -0.00380   1.91818
    A9        1.93499  -0.00056   0.00000  -0.00218  -0.00216   1.93282
   A10        1.90576  -0.00041   0.00000   0.00260   0.00258   1.90834
   A11        1.90405  -0.00101   0.00000  -0.00240  -0.00251   1.90154
   A12        1.93187   0.00005   0.00000   0.00293   0.00304   1.93490
   A13        1.86458   0.00039   0.00000   0.00305   0.00305   1.86763
   A14        1.97972  -0.00422   0.00000  -0.02497  -0.02491   1.95481
   A15        1.92859   0.00498   0.00000   0.01627   0.01601   1.94460
   A16        1.86888   0.00164   0.00000   0.00381   0.00399   1.87286
   A17        1.82900  -0.00311   0.00000  -0.00433  -0.00445   1.82455
   A18        2.04460  -0.00697   0.00000  -0.03901  -0.03888   2.00572
   A19        1.90949   0.00043   0.00000   0.00397   0.00405   1.91354
   A20        1.87038   0.00329   0.00000   0.02274   0.02270   1.89308
   A21        1.98883  -0.00219   0.00000  -0.01713  -0.01729   1.97153
   A22        1.89505   0.00140   0.00000   0.01155   0.01171   1.90676
   A23        1.94957  -0.00012   0.00000  -0.00361  -0.00382   1.94576
   A24        1.83418   0.00038   0.00000   0.00972   0.00973   1.84390
   A25        1.92919   0.00091   0.00000  -0.00328  -0.00333   1.92586
   A26        1.85834  -0.00020   0.00000   0.00566   0.00565   1.86399
   A27        1.92680  -0.00110   0.00000  -0.00731  -0.00735   1.91945
   A28        1.92856  -0.00028   0.00000   0.00029   0.00030   1.92886
   A29        1.92073   0.00081   0.00000   0.00152   0.00152   1.92225
   A30        1.90836   0.00081   0.00000   0.00526   0.00528   1.91365
   A31        1.90416  -0.00014   0.00000  -0.00227  -0.00229   1.90188
   A32        1.87431  -0.00007   0.00000   0.00281   0.00280   1.87712
   A33        2.16635  -0.01453   0.00000  -0.05720  -0.05720   2.10915
   A34        1.91866   0.00133   0.00000  -0.00085  -0.00087   1.91779
   A35        1.91509   0.00000   0.00000   0.00428   0.00427   1.91936
   A36        1.93351  -0.00013   0.00000   0.00354   0.00354   1.93706
   A37        1.89280  -0.00125   0.00000  -0.00894  -0.00894   1.88386
   A38        1.92751  -0.00040   0.00000  -0.00145  -0.00143   1.92608
   A39        1.87533   0.00039   0.00000   0.00328   0.00324   1.87858
   A40        1.93580   0.00190   0.00000   0.00869   0.00868   1.94449
   A41        1.85500  -0.00116   0.00000  -0.00396  -0.00395   1.85105
   A42        1.90185   0.00067   0.00000   0.00736   0.00739   1.90924
   A43        1.94611  -0.00044   0.00000  -0.00383  -0.00384   1.94227
   A44        1.93059  -0.00152   0.00000  -0.00908  -0.00911   1.92148
   A45        1.89220   0.00058   0.00000   0.00121   0.00117   1.89337
   A46        1.95192  -0.00052   0.00000  -0.00004  -0.00003   1.95188
   A47        1.85027   0.00030   0.00000   0.00176   0.00178   1.85205
   A48        1.93396   0.00044   0.00000   0.00766   0.00766   1.94162
   A49        1.92099   0.00001   0.00000  -0.00139  -0.00144   1.91955
   A50        1.91692   0.00009   0.00000  -0.00452  -0.00452   1.91240
   A51        1.88776  -0.00031   0.00000  -0.00340  -0.00341   1.88435
   A52        1.93007   0.00166   0.00000   0.00857   0.00861   1.93867
   A53        1.86677  -0.00044   0.00000   0.00392   0.00393   1.87070
   A54        1.91693   0.00138   0.00000   0.01236   0.01241   1.92934
   A55        1.93141  -0.00085   0.00000  -0.00849  -0.00855   1.92285
   A56        1.92020  -0.00253   0.00000  -0.01746  -0.01754   1.90267
   A57        1.89752   0.00087   0.00000   0.00183   0.00165   1.89917
   A58        1.91262  -0.00126   0.00000  -0.00465  -0.00492   1.90770
   A59        1.90825   0.00077   0.00000   0.00437   0.00442   1.91267
   A60        1.90542   0.00015   0.00000  -0.00105  -0.00095   1.90446
   A61        1.93692  -0.00067   0.00000  -0.00240  -0.00234   1.93458
   A62        1.92283   0.00108   0.00000   0.00022   0.00031   1.92314
   A63        1.87726  -0.00002   0.00000   0.00372   0.00367   1.88093
    D1       -1.05176   0.00122   0.00000  -0.01211  -0.01196  -1.06372
    D2        1.08837   0.00066   0.00000  -0.01651  -0.01642   1.07195
    D3        3.11699   0.00071   0.00000  -0.01343  -0.01334   3.10365
    D4        0.99453   0.00159   0.00000   0.01725   0.01730   1.01183
    D5        3.12102   0.00044   0.00000   0.01412   0.01408   3.13511
    D6       -1.11282   0.00095   0.00000   0.02050   0.02051  -1.09231
    D7       -1.13261   0.00089   0.00000   0.01694   0.01701  -1.11561
    D8        0.99388  -0.00025   0.00000   0.01380   0.01380   1.00767
[...]
 64295,0.00050667,-0.00000036,-0.00000016,0.00000320,0.00000140,-0.0000
 0188,0.00000153,0.00000172,0.00000089,0.00000004,-0.00000076,-0.000004
 46,-0.00000427,0.00000269,-0.00000048,0.00000175,-0.00000278,-0.000003
 93,-0.00000502,0.00000557,-0.00000078,0.00000030,-0.00000773,0.0000103
 6,-0.00000883,0.00030935,-0.00044219,0.00004267,-0.00008821,-0.0006016
 3,0.00077939,-0.00028045,0.00007478,0.00037740,0.00014925,0.00010662,0
 .00020054,-0.14118428,0.02676308,0.17013419,0.00000664,0.00000409,0.00
 000819,-0.00003818,-0.00001131,-0.00000120,0.00000460,0.00000021,-0.00
 000311,-0.01827341,-0.00917876,-0.02529224,0.00008534,-0.00001692,0.00
 006423,-0.00000412,-0.00000390,0.00000609,-0.00291863,0.00446426,-0.01
 225468,-0.00029371,0.00020810,0.00013253,0.00040246,-0.00071506,-0.001
 04501,-0.07398501,0.01663838,-0.06172251,-0.00027831,-0.00015253,0.000
 32187,0.00246023,0.00071629,-0.00511141,0.00000049,0.00000046,0.000000
 20,0.00000290,0.00000185,-0.00000165,-0.00000238,-0.00000096,-0.000000
 40,0.00000238,0.00000134,0.00000324,-0.00000144,0.00000045,-0.00000196
 ,-0.00002522,0.00001852,0.00000002,-0.00000128,0.00000291,-0.00000303,
 0.00000506,0.00000006,-0.00000436,0.00041774,0.00005536,0.00021059,0.0
 0004166,0.00213901,-0.00036868,-0.00014159,0.00009250,0.00023790,0.000
 18771,-0.00006010,0.00021632,0.00947371,-0.00416562,0.02184269,0.08226
 114,0.00000859,0.00000095,0.00000621,-0.00002122,-0.00001120,0.0000005
 4,0.00000017,0.00000135,-0.00000304,-0.02008524,-0.00342865,-0.0274742
 2,0.00007332,0.00000486,0.00004485,-0.00001129,-0.00000273,0.00000049,
 0.01025425,-0.00669565,0.03059987,-0.00014672,0.00030152,0.00001833,-0
 .00115654,0.00139030,0.00077839,0.01620373,-0.05717192,0.04615740,-0.0
 0011256,-0.00046649,0.00031588,0.00296035,0.00076765,-0.00336685,-0.00
 000037,0.00000022,-0.00000022,0.00000318,0.00000261,-0.00000222,-0.000
 00292,-0.00000057,-0.00000044,0.00000100,0.00000052,0.00000446,-0.0000
 0355,0.00000047,-0.00000232,-0.00001966,0.00001805,0.00000105,-0.00000
 276,0.00000271,-0.00000412,-0.00000959,-0.00000248,0.00000287,-0.00072
 635,0.00106589,-0.00042061,0.00328644,-0.00544601,0.00016032,0.0001694
 3,0.00014902,-0.00075556,-0.00036351,0.00001907,-0.00032046,-0.0010357
 8,0.00169284,-0.00449608,-0.00996542,0.06784719,0.00002050,0.00001963,
 0.00002727,-0.00012923,-0.00003948,0.00000859,0.00000593,-0.00000068,-
 0.00000274,-0.01098007,-0.00837473,-0.00787564,0.00031091,-0.00011001,
 0.00002263,-0.00002522,0.00002552,0.00000446,0.00033217,0.00116913,-0.
 00336108,-0.00057787,0.00020156,0.00010211,0.00015402,-0.00056012,0.00
 085418,-0.06543006,0.04413093,-0.26651794,0.00027047,-0.00035491,0.000
 00897,0.00253697,0.00047375,0.00161248,-0.00000024,0.00000218,-0.00000
 411,0.00000920,0.00000727,-0.00000525,-0.00000949,-0.00000343,-0.00000
 074,-0.00000034,0.00001371,0.00001619,-0.00001063,0.00000135,-0.000007
 18,-0.00004194,0.00003504,0.00000797,-0.00002079,0.00000383,-0.0000112
 3,0.00000134,-0.00001975,0.00000944,-0.00016850,0.00068654,0.00012024,
 0.00001968,0.00054192,0.00122082,-0.00063531,-0.00001191,0.00030346,-0
 .00001551,0.00010906,0.00019405,-0.00547230,0.00441102,-0.01741433,0.0
 8132938,-0.04235161,0.28973154,0.00010119,0.00011189,0.00021509,-0.000
 10546,-0.00005701,-0.00027846,-0.00248033,0.00094834,-0.00086413,0.001
 25650,-0.00061859,0.00014221,0.00399627,-0.00148266,0.00115864,-0.0018
 8280,0.00179886,-0.00025545,0.00085419,0.00039277,-0.00080063,0.000834
 23,-0.00424017,0.03537546,-0.00678141,0.00142807,-0.01931839,-0.000245
 33,-0.00011355,-0.00003770,-0.08463822,0.01127888,-0.09356090,-0.00544
 351,0.00253801,-0.01449239,-0.00002978,-0.00028958,0.00005978,0.000071
 66,-0.00001858,-0.00000799,0.00000158,-0.00001943,-0.00005763,-0.00276
 591,-0.00078626,-0.00158304,-0.00009260,-0.00005510,-0.00011016,-0.000
 27244,0.00033535,-0.00027464,-0.00001960,-0.00040373,-0.00004116,-0.00
 109731,0.00098642,-0.00005473,0.00018427,-0.00008279,0.00019428,-0.000
 30434,-0.00015900,0.00046440,-0.00215031,-0.00297572,-0.00074220,0.000
 69368,0.00011382,0.00068886,-0.00003777,0.00005447,-0.00000019,0.00009
 886,-0.00005708,0.00006207,0.10029324,-0.00002190,0.00020404,0.0000854
 8,-0.00025742,-0.00021705,0.00009829,-0.00019090,0.00025354,0.00038769
 ,-0.00215646,0.00193670,-0.00115118,0.00034434,0.00026554,-0.00083343,
 0.00169158,-0.00066721,-0.00012958,0.00100706,0.00064040,-0.00037251,-
 0.00020119,0.00077119,0.00173337,-0.01162588,0.00199973,-0.02476909,-0
 .00008215,-0.00025333,-0.00003886,0.00866051,-0.05232724,0.02575965,0.
 01296113,-0.00657580,0.02989538,0.00005735,-0.00014771,-0.00014168,0.0
 0004841,-0.00007497,-0.00001050,0.00002396,-0.00004325,-0.00001851,-0.
 00102551,0.00020215,-0.00071647,0.00010520,-0.00011862,-0.00005764,-0.
 00001674,-0.00003095,0.00009078,-0.00018079,0.00008506,-0.00018954,0.0
 0177661,-0.00179550,-0.00009791,0.00021491,-0.00016097,0.00029692,-0.0
 0008870,0.00003563,0.00054226,-0.00356113,-0.00321557,-0.00131751,0.00
 115107,0.00089339,0.00022320,-0.00000906,0.00009381,-0.00001337,-0.000
 09099,-0.00009231,0.00005511,-0.01084741,0.06135617,-0.00004743,-0.000
 18683,-0.00036938,0.00084894,0.00004745,0.00032413,-0.00147928,0.00005
 389,-0.00044185,-0.00071886,-0.00057513,0.00150223,-0.00426881,0.00288
 518,-0.00040013,0.00024680,0.00015284,0.00013449,-0.00020179,-0.000011
 18,0.00022002,0.00719563,0.00224507,-0.02704308,-0.00460666,0.00013318
 ,-0.00655676,-0.00001776,0.00004852,0.00009963,-0.08520593,0.02462852,
 -0.27376341,-0.00129690,0.00109911,-0.00199530,-0.00018418,0.00010629,
 -0.00005288,0.00003333,0.00000898,-0.00001135,0.00002551,0.00001866,0.
 00004971,-0.00243375,0.00019060,0.00009477,-0.00045510,0.00027262,-0.0
 0004882,0.00030435,-0.00034505,0.00012414,-0.00037851,-0.00021622,0.00
 021034,-0.00071838,-0.00027869,0.00044723,-0.00011656,-0.00005509,0.00
 031404,-0.00031050,0.00016377,0.00035510,-0.00041924,-0.00070473,0.000
 62966,0.00025216,0.00005040,0.00032702,0.00000500,0.00001933,0.0000061
 2,0.00006825,-0.00000256,-0.00016049,0.09333543,-0.02978149,0.30485807
 ,-0.00018958,0.00021258,0.00002202,0.00007832,-0.00009784,-0.00005287,
 -0.00006258,0.00003512,0.00009884,-0.02796025,-0.02326918,-0.00346794,
 -0.00014216,-0.00006059,-0.00008259,0.00005437,-0.00001845,-0.00001087
 ,-0.00065776,-0.00024098,-0.00009439,0.00191716,-0.00074562,-0.0011158
 1,-0.00168576,0.00297395,0.00014422,-0.00125929,0.00294188,0.00488360,
 0.00987423,0.01216257,0.00522327,-0.14203171,-0.11560855,-0.04846570,0
 .00004481,-0.00004189,-0.00002277,-0.00018261,-0.00000487,0.00002539,0
 .00004383,-0.00003097,0.00000308,0.00015792,-0.00015507,0.00000396,0.0
 0003022,-0.00002042,-0.00000464,0.00007000,-0.00005390,-0.00001370,0.0
 0000411,-0.00000610,0.00000928,0.00002027,-0.00000706,0.00001490,0.000
 12597,-0.00024337,-0.00001854,0.00008488,-0.00003713,-0.00000856,-0.00
 000684,0.00002993,0.00006546,0.00065336,0.00083717,0.00016328,-0.00108
 676,-0.00130934,-0.00006486,0.00014459,0.00013598,-0.00011158,0.000784
 53,-0.00077410,-0.00001239,0.16550568,0.00007356,-0.00023588,-0.000049
 92,0.00020238,0.00010933,0.00000325,0.00006481,-0.00001052,-0.00002242
 ,-0.00004110,0.00411380,0.00274482,-0.00002820,0.00019900,0.00009806,-
 0.00003585,-0.00003664,0.00004031,0.00048517,0.00033264,-0.00033392,-0
 .00017424,0.00230520,0.00067885,0.00461687,-0.00406161,0.00118390,0.00
 180774,0.00140118,0.00020260,-0.01889867,-0.02341846,-0.00971548,-0.12
 081734,-0.19889287,-0.05917856,-0.00000403,0.00001560,0.00005105,0.000
 16717,0.00014326,0.00000961,-0.00006362,0.00004499,0.00000608,0.000093
 70,-0.00007586,0.00007253,0.00000128,0.00001359,0.00000319,-0.00010885
 ,0.00003998,0.00000593,0.00002618,0.00001264,0.00000800,-0.00004239,0.
 00005407,-0.00005222,-0.00015110,0.00002776,0.00002785,-0.00006258,0.0
 0002122,0.00009958,0.00007373,0.00018309,-0.00007418,-0.00125257,-0.00
 144287,-0.00033232,0.00007841,0.00013565,-0.00010558,-0.00007286,-0.00
 008874,-0.00014088,-0.00031773,0.00142212,0.00026935,0.13055975,0.2127
 2027,0.00003205,-0.00009726,-0.00004043,0.00004304,0.00005855,0.000007
 66,-0.00004502,0.00003836,0.00005268,0.02092525,0.01913875,0.00529903,
 -0.00004448,-0.00006201,-0.00004748,-0.00000323,0.,-0.00000402,0.00038
 931,0.00018244,-0.00004187,0.00012446,-0.00052055,-0.00011738,-0.00003
 225,-0.00020049,0.00053660,0.00196447,-0.00084528,-0.00252534,0.001325
 60,0.00506676,0.00120570,-0.05623716,-0.06487187,-0.07759643,-0.000013
 93,-0.00000192,0.00002224,-0.00002508,0.00006808,0.00004047,-0.0000211
 8,0.00001714,-0.00000105,0.00010680,-0.00010499,-0.00001380,0.00002199
 ,-0.00000845,-0.00000486,0.00003457,-0.00000608,0.00000275,0.00000653,
 -0.00000412,-0.00000713,0.00000238,0.00001240,-0.00000696,-0.00012700,
 0.00011611,-0.00000202,-0.00001935,-0.00001802,-0.00001737,0.00025176,
 0.00033313,0.00030670,-0.00007920,-0.00006762,0.00032663,0.00075602,0.
 00057374,0.00037114,0.00038019,0.00013174,0.00043503,0.00067786,-0.000
 12641,0.00048203,0.04675470,0.06307882,0.07810881,0.00003186,-0.000022
 49,-0.00001218,-0.00011879,-0.00000815,0.00004603,0.00004038,-0.000019
 55,0.00001447,-0.00160714,-0.00590365,0.03665538,0.00029964,-0.0002349
 3,-0.00004278,-0.00003357,0.00015047,-0.00003411,-0.00045476,-0.000271
 12,-0.00026339,0.00083041,-0.00031982,-0.00008871,0.00023667,-0.001163
 05,0.00037738,0.00430357,0.00225089,0.00414061,-0.00464533,0.00261249,
 -0.01628316,-0.07713239,0.00975300,-0.07974387,-0.00001209,0.00003053,
 -0.00001128,0.00004107,0.00002609,-0.00001785,-0.00002128,0.00000300,0
 .00000737,0.00007707,0.00005922,0.00010934,-0.00004453,0.00001887,-0.0
 0001238,-0.00000763,0.00001343,0.00001811,-0.00010712,-0.00002594,0.00
 002923,-0.00005467,-0.00011877,0.00006176,0.00015008,-0.00019603,-0.00
 012653,-0.00016124,0.00008834,-0.00008191,0.00044891,0.00014949,0.0004
 1126,-0.00007878,-0.00002095,0.00022535,0.00006506,0.00017489,-0.00018
 908,0.00036933,0.00062592,-0.00141443,-0.00096938,0.00309615,0.0006732
 3,-0.00434594,0.00382284,-0.01715465,0.08293330,0.00001078,-0.00007233
 ,0.00000041,0.00004491,0.00004721,-0.00002383,-0.00001516,0.00002105,-
 0.00000029,-0.00156065,0.00349757,-0.00297249,-0.00000810,0.00002237,-
 0.00003316,-0.00003342,-0.00015398,0.00005538,0.00001352,-0.00025679,-
 0.00006705,-0.00214353,0.00117533,-0.00017781,0.00037902,0.00196200,0.
 00112390,0.00012115,-0.00017410,0.00178427,0.01221813,-0.00687010,0.02
 988819,0.01002855,-0.05966336,0.03332982,0.00002777,-0.00004207,0.0000
 3296,0.00001428,0.00000785,-0.00000483,-0.00000505,0.00001253,-0.00000
 751,0.00002747,-0.00013268,-0.00008743,0.00005909,-0.00002174,0.000011
 21,0.00000089,0.00000691,-0.00003177,0.00012622,0.00004991,-0.00006030
 ,0.00012378,0.00016446,-0.00006696,-0.00007196,0.00002909,0.00000677,0
 .00000546,0.00004957,-0.00011717,-0.00026883,-0.00028749,-0.00060806,0
 .00000646,0.00024422,-0.00045329,0.00001109,-0.00002402,-0.00008273,0.
 00009026,0.00014148,0.00008387,0.00247299,-0.00445396,-0.00010202,-0.0
 0716083,0.00494551,-0.02189307,-0.01455006,0.05973407,0.00002238,0.000
 00010,0.00001881,-0.00009615,-0.00002731,0.00000317,0.00001890,-0.0000
 2726,-0.00002904,0.01133487,0.00301441,-0.02906056,-0.00002020,0.00003
 129,0.00037471,0.00020121,-0.00012735,-0.00000847,0.00049700,0.0001351
 3,0.00011193,-0.00051651,-0.00019145,0.00122701,0.00021636,-0.00046286
 ,0.00051003,-0.00309525,-0.00243139,0.00064329,-0.00213268,0.00024355,
 -0.00485131,-0.07697765,0.03565134,-0.26069417,-0.00000092,0.00001386,
 -0.00000254,0.00002324,0.00001758,-0.00001352,-0.00001625,0.00000031,0
 .00000102,0.00000274,0.00003236,0.00004996,-0.00002609,0.00000842,-0.0
 0000885,-0.00007891,0.00005331,0.00000110,0.00002369,-0.00000845,0.000
 04755,0.00002969,-0.00002570,-0.00001838,-0.00001109,0.00020144,0.0000
 1712,-0.00015128,-0.00008101,-0.00008579,0.00044880,0.00043682,0.00017
 655,-0.00003669,0.00004240,0.00021311,0.00034981,-0.00001298,0.0004957
 5,0.00098936,0.00097880,0.00068390,0.00020015,0.00060458,0.00056913,-0
 .00388168,0.00144543,-0.00675246,0.07269949,-0.03950914,0.29637965,-0.
 00338533,-0.00684375,-0.00446800,0.00063979,0.00040498,-0.00199793,-0.
 00681718,-0.01825641,-0.01705803,-0.00004754,0.00002188,0.00001684,0.0
 0054614,0.00000704,0.00064550,-0.00334992,-0.00218567,0.00324169,-0.00
 000176,0.00000025,-0.00002751,-0.00020735,0.00015567,-0.00007278,-0.00
 001813,-0.00001174,0.00000734,0.00001057,-0.00000160,0.00001488,0.0001
 6580,-0.00000537,-0.00003028,0.00002060,-0.00005401,-0.00001806,-0.059
 66947,-0.03963836,-0.03688630,0.00007489,0.00002228,0.00051967,0.00017
 999,0.00013265,-0.00002083,0.00085565,0.00060358,-0.00053667,0.0008694
 4,0.00058714,0.00018379,-0.00000144,0.00005661,-0.00006003,0.00007448,
 -0.00025258,-0.00012004,-0.00027546,-0.00099610,-0.00104868,-0.0000123
 5,-0.00000152,0.00000447,0.00000154,0.00000043,0.00000352,-0.00001810,
 0.00000994,-0.00000877,0.00001897,0.00003923,0.00000889,-0.00000602,0.
 00000490,0.00000162,-0.00000038,-0.00000060,-0.00000353,0.00003689,-0.
 00004282,-0.00001568,0.00000298,0.00000571,0.00000239,-0.00001058,0.00
 001162,-0.00000421,0.06366212,0.00267553,0.01053113,0.00729472,0.00131
 515,0.00111444,0.00410319,-0.00289697,-0.01302322,-0.01195727,-0.00004
 380,0.00001345,0.00001317,-0.00021040,-0.00068657,0.00107017,-0.003477
 97,-0.00079988,0.00258223,0.00000107,0.00000552,-0.00002847,-0.0000635
 6,0.00006279,-0.00017749,-0.00000481,-0.00000835,-0.00000856,0.0000105
 2,-0.00000061,0.00001780,0.00011514,-0.00001177,0.00005836,0.00003079,
 -0.00004296,-0.00003494,-0.04123997,-0.19256327,-0.12647851,-0.0000287
 3,0.00033425,-0.00092182,-0.00051494,0.00031958,-0.00077135,0.00011169
 ,0.00098158,0.00016960,0.00065592,0.00013334,0.00004300,0.00013726,0.0
 0014284,-0.00018481,0.00020319,0.00030648,0.00028573,-0.00053105,-0.00
 061845,-0.00114174,-0.00001161,-0.00000219,0.00000355,0.00000225,0.000
 00064,0.00000331,-0.00002346,0.00000423,-0.00001111,0.00001739,0.00004
 222,0.00000958,-0.00000632,0.00000495,0.00000159,-0.00000019,-0.000000
 75,-0.00000402,0.00005199,-0.00002777,-0.00003923,0.00000317,0.0000031
 2,-0.00000040,-0.00001318,0.00001713,-0.00000517,0.04779910,0.20651739
 ,-0.00373236,-0.02411837,-0.01398416,-0.00430777,0.00049314,-0.0081802
 4,0.00286112,0.01050668,0.00987401,-0.00005749,0.00002605,0.00001756,0
 .00244072,0.00151372,-0.00083953,0.00233930,0.00172594,-0.00035862,-0.
 00000931,-0.00002848,-0.00001476,-0.00077659,0.00010082,0.00027742,-0.
 00004060,0.00001885,0.00005506,0.00002022,0.00000692,0.00000819,0.0001
 4543,0.00000950,-0.00025440,0.00001290,-0.00005410,0.00002382,-0.03839
 454,-0.12525778,-0.15923348,-0.00031801,0.00033882,0.00109023,0.000861
 96,0.00009830,0.00072423,-0.00060626,-0.00039473,0.00049234,-0.0007868
 7,-0.00039962,0.00044008,-0.00016192,-0.00026403,0.00016148,-0.0000385
 8,-0.00005856,-0.00013103,0.00043177,0.00054773,0.00059373,-0.00001340
 ,-0.00000071,0.00000646,-0.00000084,0.00000099,0.00000231,0.00000442,-
 0.00000305,-0.00000110,-0.00000322,-0.00001401,-0.00000618,-0.00000452
 ,-0.00000029,0.00000033,-0.00000105,-0.00000083,-0.00000368,-0.0000214
 4,0.00000534,0.00003259,0.00000467,-0.00000325,-0.00000140,-0.00000233
 ,-0.00000058,-0.00000281,0.04030205,0.13701823,0.17169248,-0.00754567,
 0.00571713,0.00043963,0.00068075,-0.00074930,0.00061706,-0.02113352,0.
 01356904,0.00435539,-0.00006625,0.00000878,0.00001398,-0.00037924,-0.0
 0012319,0.00000339,0.00072488,0.00110001,0.00006377,0.00000645,-0.0000
 1118,-0.00001675,0.00005713,-0.00011548,-0.00005345,-0.00001328,0.0000
 3951,-0.00008652,0.00002860,0.00000954,0.00001576,0.00002327,-0.000039
 12,0.00021774,0.00005654,-0.00006586,-0.00004751,-0.22207091,0.1184739
 7,0.02681122,0.00076611,0.00075752,-0.00139059,0.00070417,-0.00026904,
 -0.00040908,-0.00288912,-0.00327205,0.00154410,0.00119638,-0.00002082,
 -0.00004041,-0.00004586,0.00002760,-0.00011641,-0.00006290,-0.00060544
 ,-0.00041855,0.00026093,-0.00023460,0.00005062,-0.00001251,-0.00000274
 ,0.00000374,0.00000155,0.00000313,0.00000198,-0.00003533,-0.00002259,-
 0.00001753,-0.00000040,-0.00000202,0.00000379,-0.00000686,0.00000104,0
 .00000166,-0.00000117,-0.00000122,-0.00000558,0.00010941,0.00003485,-0
 .00010092,0.00001401,-0.00000816,0.00000320,-0.00002215,0.00002416,-0.
 00001213,0.00666116,-0.00406321,-0.00014745,0.24299381,0.01233903,-0.0
 1110889,-0.00241111,-0.00125245,0.00207468,-0.00037618,-0.01679068,0.0
 1088921,0.00257415,0.00002369,-0.00000410,-0.00000693,-0.00037710,-0.0
 0026310,0.00015742,0.00011329,0.00136726,0.00025390,0.00001152,0.00000
 431,0.00000612,0.00026958,0.00008501,0.00001752,0.00001599,0.00002546,
 -0.00007868,-0.00000031,-0.00000525,-0.00000404,-0.00022341,-0.0000561
 9,0.00022483,-0.00000826,-0.00003162,-0.00004716,0.11951463,-0.1311270
 0,-0.01997157,0.00029957,0.00008044,0.00306322,-0.00028806,0.00018840,
 -0.00033049,-0.00351372,-0.00135656,0.00118127,0.00088595,0.00087235,-
 0.00033638,0.00009091,0.00004857,-0.00003134,0.00040177,-0.00020073,0.
 00004629,0.00023992,0.00003208,0.00015124,0.00000209,0.00000034,-0.000
 00192,0.00000077,0.00000128,-0.00000148,-0.00001811,-0.00002182,-0.000
 00891,-0.00000438,-0.00000877,0.00000072,0.00000120,0.00000063,-0.0000
 0011,0.00000058,0.00000081,0.00000013,0.00001251,0.00004274,-0.0000955
 5,-0.00000584,0.00001940,0.00001254,-0.00000792,0.00002437,-0.00000106
 ,0.01842750,-0.01274929,-0.00181263,-0.13016025,0.14117598,-0.02700578
 ,0.01943814,0.00176154,0.00187262,0.00001010,0.00302884,0.01151985,-0.
 00721739,-0.00320163,-0.00000432,-0.00001586,-0.00000092,-0.00023859,0
 .00015346,-0.00013455,-0.00089432,-0.00017492,0.00009497,-0.00000699,-
 0.00000187,0.00000208,-0.00008243,-0.00030907,-0.00000788,-0.00000453,
 -0.00002437,0.00007727,-0.00000681,0.00000448,0.00000017,0.00013113,0.
 00006741,-0.00019566,0.00001584,0.00005613,0.00002942,0.02816062,-0.02
 204554,-0.05248324,-0.00179558,0.00204224,-0.00503554,0.00067455,-0.00
 067239,0.00136002,0.00216807,0.00207379,0.00002951,-0.00038651,-0.0004
 5124,0.00024791,-0.00001786,-0.00005807,0.00005719,-0.00012814,0.00017
 124,0.00028526,-0.00008417,0.00008153,-0.00005798,0.00000219,0.0000001
 1,0.00000014,-0.00000101,-0.00000163,0.00000003,0.00002178,0.00001407,
 0.00001086,0.00000053,-0.00000469,-0.00000257,0.00000022,-0.00000227,-
 0.00000061,0.00000025,-0.00000007,0.00000111,-0.00007301,-0.00001239,0
 .00006299,0.00001222,-0.00002048,-0.00001746,0.00000962,-0.00001728,0.
 00000412,0.01742468,-0.01090933,-0.00248093,-0.03128415,0.01782617,0.0
 5656553\\-0.00001373,-0.00001381,-0.00000515,-0.00028989,-0.00113788,-
 0.00342777,0.00000231,0.00001272,-0.00000501,-0.00000589,0.00000457,-0
 .00000373,-0.00051370,-0.00008423,0.00328667,0.00000332,-0.00000426,0.
 00000073,0.00000400,0.00000620,0.00001050,0.00249493,0.00422013,0.0023
 2028,0.00000296,0.00000548,0.00000487,0.00001625,0.00000079,-0.0000013
 2,-0.00168206,-0.00300082,-0.00218332,-0.00001473,-0.00000545,0.000006
 12,-0.00000243,-0.00000662,-0.00000219,-0.00000182,0.00000318,-0.00000
 216,0.00000324,0.00000044,0.00000289,0.00000287,0.00000060,0.00000033,
 0.00000392,0.00000631,0.00000336,0.00000218,-0.00000436,0.00000013,-0.
 00000120,0.00000452,0.00000219,0.00000021,0.00000494,0.00000305,-0.000
 00127,-0.00000388,-0.00000274,0.,-0.00000066,-0.00000252,0.00000238,-0
 .00000104,0.00000017,-0.00000583,-0.00000409,0.00000340,-0.00000012,-0
 .00000443,-0.00000033,-0.00000229,-0.00000560,-0.00000398,0.00000085,0
 .00000389,0.00000507,-0.00000170,-0.00000351,-0.00000444,0.00000060,-0
 .00000677,-0.00000719,-0.00000267,0.00000909,-0.00000074,-0.00000069,0
 .00000454,0.00000281\\\@


 THERE IS NOTHING NOBLE IN BEING SUPERIOR TO SOME OTHER MAN.
 TRUE NOBILITY IS BEING SUPERIOR TO YOUR FORMER SELF.

                                                   -- HINDU PROVERB
 Job cpu time:       0 days 13 hours 56 minutes  2.7 seconds.
 Elapsed time:       0 days  0 hours 52 minutes 16.7 seconds.
 File lengths (MBytes):  RWF=    687 Int=      0 D2E=      0 Chk=     33 Scr=      1
 Normal termination of Gaussian 16 at Sun Nov  4 22:56:05 2018.
