 Entering Gaussian System, Link 0=g16
 Initial command:
 /apps/gaussian/g16a03/g16/l1.exe "/jobfs/local/2012051.r-man2/Gau-30234.inp" -scrdir="/jobfs/local/2012051.r-man2/"
 Entering Link 1 = /apps/gaussian/g16a03/g16/l1.exe PID=     30235.
  
 Copyright (c) 1988,1990,1992,1993,1995,1998,2003,2009,2016,
            Gaussian, Inc.  All Rights Reserved.
  
 This is part of the Gaussian(R) 16 program.  It is based on
 the Gaussian(R) 09 system (copyright 2009, Gaussian, Inc.),
 the Gaussian(R) 03 system (copyright 2003, Gaussian, Inc.),
 the Gaussian(R) 98 system (copyright 1998, Gaussian, Inc.),
 the Gaussian(R) 94 system (copyright 1995, Gaussian, Inc.),
 the Gaussian 92(TM) system (copyright 1992, Gaussian, Inc.),
 the Gaussian 90(TM) system (copyright 1990, Gaussian, Inc.),
 the Gaussian 88(TM) system (copyright 1988, Gaussian, Inc.),
 the Gaussian 86(TM) system (copyright 1986, Carnegie Mellon
 University), and the Gaussian 82(TM) system (copyright 1983,
 Carnegie Mellon University). Gaussian is a federally registered
 trademark of Gaussian, Inc.
  
 This software contains proprietary and confidential information,
 including trade secrets, belonging to Gaussian, Inc.
  
 This software is provided under written license and may be
 used, copied, transmitted, or stored only in accord with that
 written license.
  
 The following legend is applicable only to US Government
 contracts under FAR:
  
                    RESTRICTED RIGHTS LEGEND
  
 Use, reproduction and disclosure by the US Government is
 subject to restrictions as set forth in subparagraphs (a)
 and (c) of the Commercial Computer Software - Restricted
 Rights clause in FAR 52.227-19.
  
 Gaussian, Inc.
 340 Quinnipiac St., Bldg. 40, Wallingford CT 06492
  
  
 ---------------------------------------------------------------
 Warning -- This program may not be used in any manner that
 competes with the business of Gaussian, Inc. or will provide
 assistance to any competitor of Gaussian, Inc.  The licensee
 of this program is prohibited from giving any competitor of
 Gaussian, Inc. access to this program.  By using this program,
 the user acknowledges that Gaussian, Inc. is engaged in the
 business of creating and licensing software in the field of
 computational chemistry and represents and warrants to the
 licensee that it is not a competitor of Gaussian, Inc. and that
 it will not use this program in any manner prohibited above.
 ---------------------------------------------------------------
  

 Cite this work as:
 Gaussian 16, Revision A.03,
 M. J. Frisch, G. W. Trucks, H. B. Schlegel, G. E. Scuseria, 
 M. A. Robb, J. R. Cheeseman, G. Scalmani, V. Barone, 
 G. A. Petersson, H. Nakatsuji, X. Li, M. Caricato, A. V. Marenich, 
 J. Bloino, B. G. Janesko, R. Gomperts, B. Mennucci, H. P. Hratchian, 
 J. V. Ortiz, A. F. Izmaylov, J. L. Sonnenberg, D. Williams-Young, 
 F. Ding, F. Lipparini, F. Egidi, J. Goings, B. Peng, A. Petrone, 
 T. Henderson, D. Ranasinghe, V. G. Zakrzewski, J. Gao, N. Rega, 
 G. Zheng, W. Liang, M. Hada, M. Ehara, K. Toyota, R. Fukuda, 
 J. Hasegawa, M. Ishida, T. Nakajima, Y. Honda, O. Kitao, H. Nakai, 
 T. Vreven, K. Throssell, J. A. Montgomery, Jr., J. E. Peralta, 
 F. Ogliaro, M. J. Bearpark, J. J. Heyd, E. N. Brothers, K. N. Kudin, 
 V. N. Staroverov, T. A. Keith, R. Kobayashi, J. Normand, 
 K. Raghavachari, A. P. Rendell, J. C. Burant, S. S. Iyengar, 
 J. Tomasi, M. Cossi, J. M. Millam, M. Klene, C. Adamo, R. Cammi, 
 J. W. Ochterski, R. L. Martin, K. Morokuma, O. Farkas, 
 J. B. Foresman, and D. J. Fox, Gaussian, Inc., Wallingford CT, 2016.
 
 ******************************************
 Gaussian 16:  ES64L-G16RevA.03 25-Dec-2016
                 4-Nov-2018 
 ******************************************
 %mem=6000mb
 %nproc=24
 Will use up to   24 processors via shared memory.
 %chk=L_a1-e4_D_PHI.inp_extract_23.chk
 ----------------------------------------------------------------------
 #M062X/6-311++G(2d,2p) opt=ModRedundant freq=noraman SCRF=(Solvent=Wat
 er)
 ----------------------------------------------------------------------
 1/18=120,19=15,26=3,38=1/1,3;
 2/9=110,12=2,17=6,18=5,40=1/2;
 3/5=4,6=6,7=1212,11=2,25=1,30=1,70=2201,71=1,72=1,74=-55/1,2,3;
 4//1;
 5/5=2,38=5,53=1/2;
 6/7=2,8=2,9=2,10=2,28=1/1;
 7//1,2,3,16;
 1/18=20,19=15,26=3/3(2);
 2/9=110/2;
 99//99;
 2/9=110/2;
 3/5=4,6=6,7=1212,11=2,25=1,30=1,70=2205,71=1,72=1,74=-55/1,2,3;
 4/5=5,16=3,69=1/1;
 5/5=2,38=5,53=1/2;
 7//1,2,3,16;
 1/18=20,19=15,26=3/3(-5);
 2/9=110/2;
 6/7=2,8=2,9=2,10=2,19=2,28=1/1;
 99/9=1/99;
 ----------------------------
 L_a1-e4_D_PHI.inp_extract_23
 ----------------------------
 Symbolic Z-matrix:
 Charge =  0 Multiplicity = 1
 C                    -2.56516   1.35826  -0.42168 
 O                    -1.79134   0.49027  -1.24022 
 C                    -3.12976  -0.57586   1.05756 
 O                     3.20569  -1.00374  -0.51095 
 C                    -1.21344  -0.61339  -0.591 
 C                    -2.26438  -1.43767   0.13698 
 C                     3.17395   1.31547   0.18402 
 O                    -0.24345  -0.19229   0.32471 
 C                     1.70888   1.16823   0.60309 
 C                     3.88746  -0.02541   0.25395 
 C                     1.05525   0.0452   -0.18753 
 C                     1.88357  -1.22985  -0.07255 
 C                    -3.69061   0.60996   0.27278 
 H                    -1.91884   1.83869   0.30478 
 H                    -2.94732   2.11952  -1.08757 
 H                    -2.53923  -0.21404   1.8951 
 H                    -3.93455  -1.17482   1.4725 
 H                    -0.75032  -1.19062  -1.37758 
 H                    -2.89228  -1.90231  -0.61835 
 H                    -1.76937  -2.23281   0.68393 
 H                     3.68302   2.02714   0.82697 
 H                     3.23217   1.69613  -0.83259 
 H                     1.65125   0.9281    1.66245 
 H                     1.1667    2.09544   0.4473 
 H                     4.88685   0.03735  -0.1542 
 H                     3.95797  -0.36859   1.28364 
 H                     0.98446   0.33187  -1.23148 
 H                     1.47746  -2.01808  -0.69164 
 H                     1.89013  -1.56876   0.96099 
 H                    -4.22127   1.29618   0.92669 
 H                    -4.39865   0.25603  -0.47303 
 
 The following ModRedundant input section has been read:
 D       2       5       8      11 F                                           
 

 GradGradGradGradGradGradGradGradGradGradGradGradGradGradGradGradGradGrad
 Berny optimization.
 Initialization pass.
                           ----------------------------
                           !    Initial Parameters    !
                           ! (Angstroms and Degrees)  !
 --------------------------                            --------------------------
 ! Name  Definition              Value          Derivative Info.                !
 --------------------------------------------------------------------------------
 ! R1    R(1,2)                  1.4221         estimate D2E/DX2                !
 ! R2    R(1,13)                 1.5195         estimate D2E/DX2                !
 ! R3    R(1,14)                 1.0846         estimate D2E/DX2                !
 ! R4    R(1,15)                 1.0812         estimate D2E/DX2                !
 ! R5    R(2,5)                  1.4048         estimate D2E/DX2                !
 ! R6    R(3,6)                  1.5294         estimate D2E/DX2                !
 ! R7    R(3,13)                 1.5286         estimate D2E/DX2                !
 ! R8    R(3,16)                 1.0868         estimate D2E/DX2                !
 ! R9    R(3,17)                 1.0856         estimate D2E/DX2                !
 ! R10   R(4,10)                 1.4167         estimate D2E/DX2                !
 ! R11   R(4,12)                 1.4111         estimate D2E/DX2                !
 ! R12   R(5,6)                  1.5211         estimate D2E/DX2                !
 ! R13   R(5,8)                  1.3988         estimate D2E/DX2                !
 ! R14   R(5,18)                 1.08           estimate D2E/DX2                !
 ! R15   R(6,19)                 1.0866         estimate D2E/DX2                !
 ! R16   R(6,20)                 1.0846         estimate D2E/DX2                !
 ! R17   R(7,9)                  1.5309         estimate D2E/DX2                !
 ! R18   R(7,10)                 1.5205         estimate D2E/DX2                !
 ! R19   R(7,21)                 1.0858         estimate D2E/DX2                !
 ! R20   R(7,22)                 1.0871         estimate D2E/DX2                !
 ! R21   R(8,11)                 1.4161         estimate D2E/DX2                !
 ! R22   R(9,11)                 1.521          estimate D2E/DX2                !
 ! R23   R(9,23)                 1.0878         estimate D2E/DX2                !
 ! R24   R(9,24)                 1.0853         estimate D2E/DX2                !
 ! R25   R(10,25)                1.0814         estimate D2E/DX2                !
 ! R26   R(10,26)                1.0877         estimate D2E/DX2                !
 ! R27   R(11,12)                1.5248         estimate D2E/DX2                !
 ! R28   R(11,27)                1.0849         estimate D2E/DX2                !
 ! R29   R(12,28)                1.0814         estimate D2E/DX2                !
 ! R30   R(12,29)                1.0877         estimate D2E/DX2                !
 ! R31   R(13,30)                1.0863         estimate D2E/DX2                !
 ! R32   R(13,31)                1.0876         estimate D2E/DX2                !
 ! A1    A(2,1,13)             111.4397         estimate D2E/DX2                !
 ! A2    A(2,1,14)             109.3687         estimate D2E/DX2                !
 ! A3    A(2,1,15)             105.5211         estimate D2E/DX2                !
 ! A4    A(13,1,14)            110.696          estimate D2E/DX2                !
 ! A5    A(13,1,15)            111.4959         estimate D2E/DX2                !
 ! A6    A(14,1,15)            108.1359         estimate D2E/DX2                !
 ! A7    A(1,2,5)              115.9361         estimate D2E/DX2                !
 ! A8    A(6,3,13)             109.6161         estimate D2E/DX2                !
 ! A9    A(6,3,16)             110.1221         estimate D2E/DX2                !
 ! A10   A(6,3,17)             109.7936         estimate D2E/DX2                !
 ! A11   A(13,3,16)            109.6786         estimate D2E/DX2                !
 ! A12   A(13,3,17)            110.6239         estimate D2E/DX2                !
 ! A13   A(16,3,17)            106.9734         estimate D2E/DX2                !
 ! A14   A(10,4,12)            113.1907         estimate D2E/DX2                !
 ! A15   A(2,5,6)              111.2646         estimate D2E/DX2                !
 ! A16   A(2,5,8)              110.5652         estimate D2E/DX2                !
 ! A17   A(2,5,18)             105.0525         estimate D2E/DX2                !
 ! A18   A(6,5,8)              109.204          estimate D2E/DX2                !
 ! A19   A(6,5,18)             110.8059         estimate D2E/DX2                !
 ! A20   A(8,5,18)             109.8962         estimate D2E/DX2                !
 ! A21   A(3,6,5)              111.9405         estimate D2E/DX2                !
 ! A22   A(3,6,19)             109.4152         estimate D2E/DX2                !
 ! A23   A(3,6,20)             111.5798         estimate D2E/DX2                !
 ! A24   A(5,6,19)             107.3542         estimate D2E/DX2                !
 ! A25   A(5,6,20)             108.8606         estimate D2E/DX2                !
 ! A26   A(19,6,20)            107.5049         estimate D2E/DX2                !
 ! A27   A(9,7,10)             110.5889         estimate D2E/DX2                !
 ! A28   A(9,7,21)             110.4632         estimate D2E/DX2                !
 ! A29   A(9,7,22)             109.9329         estimate D2E/DX2                !
 ! A30   A(10,7,21)            109.3147         estimate D2E/DX2                !
 ! A31   A(10,7,22)            109.0675         estimate D2E/DX2                !
 ! A32   A(21,7,22)            107.405          estimate D2E/DX2                !
 ! A33   A(5,8,11)             116.7202         estimate D2E/DX2                !
 ! A34   A(7,9,11)             109.8749         estimate D2E/DX2                !
 ! A35   A(7,9,23)             109.7873         estimate D2E/DX2                !
 ! A36   A(7,9,24)             110.8915         estimate D2E/DX2                !
 ! A37   A(11,9,23)            108.691          estimate D2E/DX2                !
 ! A38   A(11,9,24)            109.9671         estimate D2E/DX2                !
 ! A39   A(23,9,24)            107.5732         estimate D2E/DX2                !
 ! A40   A(4,10,7)             110.9978         estimate D2E/DX2                !
 ! A41   A(4,10,25)            106.3231         estimate D2E/DX2                !
 ! A42   A(4,10,26)            108.9329         estimate D2E/DX2                !
 ! A43   A(7,10,25)            111.4165         estimate D2E/DX2                !
 ! A44   A(7,10,26)            110.6226         estimate D2E/DX2                !
 ! A45   A(25,10,26)           108.4046         estimate D2E/DX2                !
 ! A46   A(8,11,9)             109.2628         estimate D2E/DX2                !
 ! A47   A(8,11,12)            109.3096         estimate D2E/DX2                !
 ! A48   A(8,11,27)            109.4227         estimate D2E/DX2                !
 ! A49   A(9,11,12)            110.1671         estimate D2E/DX2                !
 ! A50   A(9,11,27)            109.458          estimate D2E/DX2                !
 ! A51   A(12,11,27)           109.2054         estimate D2E/DX2                !
 ! A52   A(4,12,11)            110.5814         estimate D2E/DX2                !
 ! A53   A(4,12,28)            106.9045         estimate D2E/DX2                !
 ! A54   A(4,12,29)            109.8451         estimate D2E/DX2                !
 ! A55   A(11,12,28)           111.2423         estimate D2E/DX2                !
 ! A56   A(11,12,29)           109.6011         estimate D2E/DX2                !
 ! A57   A(28,12,29)           108.6101         estimate D2E/DX2                !
 ! A58   A(1,13,3)             110.1772         estimate D2E/DX2                !
 ! A59   A(1,13,30)            109.0163         estimate D2E/DX2                !
 ! A60   A(1,13,31)            109.2107         estimate D2E/DX2                !
 ! A61   A(3,13,30)            111.1147         estimate D2E/DX2                !
 ! A62   A(3,13,31)            109.7841         estimate D2E/DX2                !
 ! A63   A(30,13,31)           107.4775         estimate D2E/DX2                !
 ! D1    D(13,1,2,5)           -57.2118         estimate D2E/DX2                !
 ! D2    D(14,1,2,5)            65.5065         estimate D2E/DX2                !
 ! D3    D(15,1,2,5)          -178.3855         estimate D2E/DX2                !
 ! D4    D(2,1,13,3)            54.7911         estimate D2E/DX2                !
 ! D5    D(2,1,13,30)          176.9718         estimate D2E/DX2                !
 ! D6    D(2,1,13,31)          -65.8673         estimate D2E/DX2                !
 ! D7    D(14,1,13,3)          -67.1628         estimate D2E/DX2                !
 ! D8    D(14,1,13,30)          55.018          estimate D2E/DX2                !
 ! D9    D(14,1,13,31)         172.1789         estimate D2E/DX2                !
 ! D10   D(15,1,13,3)          172.4128         estimate D2E/DX2                !
 ! D11   D(15,1,13,30)         -65.4064         estimate D2E/DX2                !
 ! D12   D(15,1,13,31)          51.7544         estimate D2E/DX2                !
 ! D13   D(1,2,5,6)             55.1161         estimate D2E/DX2                !
 ! D14   D(1,2,5,8)            -66.4175         estimate D2E/DX2                !
 ! D15   D(1,2,5,18)           175.0737         estimate D2E/DX2                !
 ! D16   D(13,3,6,5)            51.9926         estimate D2E/DX2                !
 ! D17   D(13,3,6,19)          -66.8845         estimate D2E/DX2                !
 ! D18   D(13,3,6,20)          174.2756         estimate D2E/DX2                !
 ! D19   D(16,3,6,5)           -68.7585         estimate D2E/DX2                !
 ! D20   D(16,3,6,19)          172.3644         estimate D2E/DX2                !
 ! D21   D(16,3,6,20)           53.5244         estimate D2E/DX2                !
 ! D22   D(17,3,6,5)           173.7067         estimate D2E/DX2                !
 ! D23   D(17,3,6,19)           54.8296         estimate D2E/DX2                !
 ! D24   D(17,3,6,20)          -64.0104         estimate D2E/DX2                !
 ! D25   D(6,3,13,1)           -52.9685         estimate D2E/DX2                !
 ! D26   D(6,3,13,30)         -173.9012         estimate D2E/DX2                !
 ! D27   D(6,3,13,31)           67.345          estimate D2E/DX2                !
 ! D28   D(16,3,13,1)           68.051          estimate D2E/DX2                !
 ! D29   D(16,3,13,30)         -52.8817         estimate D2E/DX2                !
 ! D30   D(16,3,13,31)        -171.6355         estimate D2E/DX2                !
 ! D31   D(17,3,13,1)         -174.1832         estimate D2E/DX2                !
 ! D32   D(17,3,13,30)          64.8842         estimate D2E/DX2                !
 ! D33   D(17,3,13,31)         -53.8696         estimate D2E/DX2                !
 ! D34   D(12,4,10,7)          -60.3015         estimate D2E/DX2                !
 ! D35   D(12,4,10,25)         178.3696         estimate D2E/DX2                !
 ! D36   D(12,4,10,26)          61.7377         estimate D2E/DX2                !
 ! D37   D(10,4,12,11)          61.2616         estimate D2E/DX2                !
 ! D38   D(10,4,12,28)        -177.4992         estimate D2E/DX2                !
 ! D39   D(10,4,12,29)         -59.8354         estimate D2E/DX2                !
 ! D40   D(2,5,6,3)            -51.949          estimate D2E/DX2                !
 ! D41   D(2,5,6,19)            68.1398         estimate D2E/DX2                !
 ! D42   D(2,5,6,20)          -175.7713         estimate D2E/DX2                !
 ! D43   D(8,5,6,3)             70.3748         estimate D2E/DX2                !
 ! D44   D(8,5,6,19)          -169.5365         estimate D2E/DX2                !
 ! D45   D(8,5,6,20)           -53.4475         estimate D2E/DX2                !
 ! D46   D(18,5,6,3)          -168.4362         estimate D2E/DX2                !
 ! D47   D(18,5,6,19)          -48.3474         estimate D2E/DX2                !
 ! D48   D(18,5,6,20)           67.7415         estimate D2E/DX2                !
 ! D49   D(2,5,8,11)           -84.5378         Frozen                          !
 ! D50   D(6,5,8,11)           152.7194         estimate D2E/DX2                !
 ! D51   D(18,5,8,11)           30.9789         estimate D2E/DX2                !
 ! D52   D(10,7,9,11)          -51.7438         estimate D2E/DX2                !
 ! D53   D(10,7,9,23)           67.7416         estimate D2E/DX2                !
 ! D54   D(10,7,9,24)         -173.5226         estimate D2E/DX2                !
 ! D55   D(21,7,9,11)         -172.895          estimate D2E/DX2                !
 ! D56   D(21,7,9,23)          -53.4097         estimate D2E/DX2                !
 ! D57   D(21,7,9,24)           65.3262         estimate D2E/DX2                !
 ! D58   D(22,7,9,11)           68.7496         estimate D2E/DX2                !
 ! D59   D(22,7,9,23)         -171.765          estimate D2E/DX2                !
 ! D60   D(22,7,9,24)          -53.0292         estimate D2E/DX2                !
 ! D61   D(9,7,10,4)            54.6886         estimate D2E/DX2                !
 ! D62   D(9,7,10,25)          172.9776         estimate D2E/DX2                !
 ! D63   D(9,7,10,26)          -66.3607         estimate D2E/DX2                !
 ! D64   D(21,7,10,4)          176.5181         estimate D2E/DX2                !
 ! D65   D(21,7,10,25)         -65.1929         estimate D2E/DX2                !
 ! D66   D(21,7,10,26)          55.4688         estimate D2E/DX2                !
 ! D67   D(22,7,10,4)          -66.3199         estimate D2E/DX2                !
 ! D68   D(22,7,10,25)          51.9691         estimate D2E/DX2                !
 ! D69   D(22,7,10,26)         172.6308         estimate D2E/DX2                !
 ! D70   D(5,8,11,9)           147.6317         estimate D2E/DX2                !
 ! D71   D(5,8,11,12)          -91.743          estimate D2E/DX2                !
 ! D72   D(5,8,11,27)           27.8044         estimate D2E/DX2                !
 ! D73   D(7,9,11,8)           172.7149         estimate D2E/DX2                !
 ! D74   D(7,9,11,12)           52.6148         estimate D2E/DX2                !
 ! D75   D(7,9,11,27)          -67.4795         estimate D2E/DX2                !
 ! D76   D(23,9,11,8)           52.562          estimate D2E/DX2                !
 ! D77   D(23,9,11,12)         -67.5381         estimate D2E/DX2                !
 ! D78   D(23,9,11,27)         172.3675         estimate D2E/DX2                !
 ! D79   D(24,9,11,8)          -64.9564         estimate D2E/DX2                !
 ! D80   D(24,9,11,12)         174.9435         estimate D2E/DX2                !
 ! D81   D(24,9,11,27)          54.8492         estimate D2E/DX2                !
 ! D82   D(8,11,12,4)         -176.9146         estimate D2E/DX2                !
 ! D83   D(8,11,12,28)          64.4514         estimate D2E/DX2                !
 ! D84   D(8,11,12,29)         -55.6729         estimate D2E/DX2                !
 ! D85   D(9,11,12,4)          -56.8428         estimate D2E/DX2                !
 ! D86   D(9,11,12,28)        -175.4767         estimate D2E/DX2                !
 ! D87   D(9,11,12,29)          64.3989         estimate D2E/DX2                !
 ! D88   D(27,11,12,4)          63.404          estimate D2E/DX2                !
 ! D89   D(27,11,12,28)        -55.23           estimate D2E/DX2                !
 ! D90   D(27,11,12,29)       -175.3543         estimate D2E/DX2                !
 --------------------------------------------------------------------------------
 Trust Radius=3.00D-01 FncErr=1.00D-07 GrdErr=1.00D-06 EigMax=2.50D+02 EigMin=1.00D-04
 Number of steps in this run=    186 maximum allowed number of steps=    186.
 GradGradGradGradGradGradGradGradGradGradGradGradGradGradGradGradGradGrad

                          Input orientation:                          
 ---------------------------------------------------------------------
 Center     Atomic      Atomic             Coordinates (Angstroms)
 Number     Number       Type             X           Y           Z
 ---------------------------------------------------------------------
      1          6           0       -2.565164    1.358264   -0.421677
      2          8           0       -1.791336    0.490270   -1.240220
      3          6           0       -3.129760   -0.575863    1.057557
      4          8           0        3.205687   -1.003738   -0.510953
      5          6           0       -1.213444   -0.613393   -0.590996
      6          6           0       -2.264383   -1.437668    0.136978
      7          6           0        3.173954    1.315468    0.184015
      8          8           0       -0.243445   -0.192286    0.324708
      9          6           0        1.708882    1.168228    0.603094
     10          6           0        3.887456   -0.025413    0.253952
     11          6           0        1.055251    0.045201   -0.187525
     12          6           0        1.883572   -1.229852   -0.072546
     13          6           0       -3.690606    0.609958    0.272784
     14          1           0       -1.918841    1.838694    0.304777
     15          1           0       -2.947318    2.119524   -1.087571
     16          1           0       -2.539229   -0.214040    1.895096
     17          1           0       -3.934550   -1.174818    1.472504
     18          1           0       -0.750324   -1.190618   -1.377584
     19          1           0       -2.892275   -1.902307   -0.618354
     20          1           0       -1.769368   -2.232810    0.683932
     21          1           0        3.683023    2.027144    0.826974
     22          1           0        3.232173    1.696131   -0.832586
     23          1           0        1.651249    0.928102    1.662450
     24          1           0        1.166703    2.095441    0.447295
     25          1           0        4.886852    0.037347   -0.154203
     26          1           0        3.957972   -0.368588    1.283639
     27          1           0        0.984462    0.331874   -1.231478
     28          1           0        1.477455   -2.018084   -0.691643
     29          1           0        1.890134   -1.568761    0.960993
     30          1           0       -4.221274    1.296179    0.926692
     31          1           0       -4.398645    0.256033   -0.473027
 ---------------------------------------------------------------------
                    Distance matrix (angstroms):
                    1          2          3          4          5
     1  C    0.000000
     2  O    1.422053   0.000000
     3  C    2.499550   2.864925   0.000000
     4  O    6.236164   5.266320   6.540733   0.000000
     5  C    2.396507   1.404821   2.528122   4.437059   0.000000
     6  C    2.867019   2.416070   1.529396   5.525376   1.521134
     7  C    5.771150   5.231013   6.639053   2.421302   4.854936
     8  O    2.889926   2.304528   3.002501   3.640508   1.398836
     9  C    4.399288   4.013597   5.163414   2.863383   3.624916
    10  C    6.633803   5.894672   7.084497   1.416689   5.203733
    11  C    3.858285   3.067460   4.410246   2.414385   2.396563
    12  C    5.158632   4.222231   5.180573   1.411140   3.200050
    13  C    1.519493   2.431200   1.528590   7.125806   2.894656
    14  H    1.084565   2.054634   2.804120   5.916555   2.704205
    15  H    1.081191   2.003513   3.449633   6.924357   3.274407
    16  H    2.800045   3.299334   1.086791   6.278276   2.845671
    17  H    3.446686   3.837285   1.085640   7.412581   3.460874
    18  H    3.271728   1.981908   3.459704   4.054133   1.079995
    19  H    3.282835   2.706143   2.150472   6.164747   2.116724
    20  H    3.840765   3.334368   2.176174   5.262085   2.134714
    21  H    6.406744   6.050114   7.296768   3.347259   5.740946
    22  H    5.821694   5.182269   7.014898   2.719088   5.015554
    23  H    4.723004   4.524222   5.048352   3.297266   3.957359
    24  H    3.901970   3.764874   5.095869   3.831528   3.752456
    25  H    7.572906   6.781059   8.130834   2.009339   6.150436
    26  H    6.959987   6.337353   7.094365   2.046927   5.506154
    27  H    3.782737   2.780327   4.794840   2.690141   2.476800
    28  H    5.274028   4.156654   5.134796   2.012047   3.037141
    29  H    5.507171   4.757958   5.118057   2.053425   3.599110
    30  H    2.136505   3.354042   2.170961   7.906718   3.872581
    31  H    2.139907   2.727914   2.155182   7.708069   3.303835
                    6          7          8          9         10
     6  C    0.000000
     7  C    6.095694   0.000000
     8  O    2.381262   3.737878   0.000000
     9  C    4.774389   1.530929   2.395846   0.000000
    10  C    6.312945   1.520506   4.134876   2.508558   0.000000
    11  C    3.650229   2.498104   1.416119   1.521020   2.867276
    12  C    4.158439   2.865234   2.399699   2.497558   2.360683
    13  C    2.499065   6.901290   3.539662   5.438312   7.604675
    14  H    3.298803   5.121026   2.632913   3.701201   6.098407
    15  H    3.823550   6.303444   3.827522   5.044156   7.287975
    16  H    2.159580   6.156919   2.781585   4.650417   6.635602
    17  H    2.154571   7.641502   3.988366   6.172039   7.999361
    18  H    2.155761   4.911112   2.037496   3.941438   5.052585
    19  H    1.086584   6.913538   3.290872   5.664871   7.088611
    20  H    1.084642   6.105459   2.573173   4.865369   6.087458
    21  H    6.917561   1.085832   4.538204   2.164507   2.140826
    22  H    6.401006   1.087093   4.121331   2.158767   2.138615
    23  H    4.822459   2.157418   2.575789   1.087758   2.809569
    24  H    4.934725   2.169500   2.690212   1.085337   3.455127
    25  H    7.307573   2.163794   5.157716   3.457150   1.081352
    26  H    6.416811   2.158681   4.313066   2.807731   1.087657
    27  H    3.944483   2.786566   2.050418   2.142411   3.280477
    28  H    3.876190   3.841543   2.707029   3.447098   3.266955
    29  H    4.237475   3.251256   2.617575   2.766234   2.621283
    30  H    3.453547   7.432452   4.289643   5.940357   8.243221
    31  H    2.792097   7.674527   4.254769   6.268335   8.322691
                   11         12         13         14         15
    11  C    0.000000
    12  C    1.524827   0.000000
    13  C    4.801457   5.880103   0.000000
    14  H    3.507735   4.900683   2.156378   0.000000
    15  H    4.597114   5.965408   2.163754   1.753643   0.000000
    16  H    4.162307   4.946176   2.153262   2.669778   3.808984
    17  H    5.398357   6.020029   2.164316   3.808927   4.287342
    18  H    2.490701   2.939740   3.822440   3.656843   3.983457
    19  H    4.422823   4.853743   2.782613   3.974271   4.049484
    20  H    3.731922   3.862920   3.455652   4.091851   4.844440
    21  H    3.444197   3.828209   7.529007   5.629306   6.901843
    22  H    2.807252   3.310251   7.094116   5.277013   6.199225
    23  H    2.134745   2.778660   5.528816   3.926576   5.488982
    24  H    2.149163   3.441178   5.082378   3.099486   4.391078
    25  H    3.831754   3.260698   8.607147   7.054996   8.159709
    26  H    3.280447   2.623766   7.776897   6.353518   7.713389
    27  H    1.084910   2.142548   4.918983   3.613828   4.321492
    28  H    2.165534   1.081444   5.877549   5.234732   6.070846
    29  H    2.149650   1.087706   6.030349   5.152636   6.418801
    30  H    5.536076   6.681950   1.086326   2.445874   2.521531
    31  H    5.465432   6.467959   1.087574   3.042897   2.440617
                   16         17         18         19         20
    16  H    0.000000
    17  H    1.746024   0.000000
    18  H    3.855427   4.273470   0.000000
    19  H    3.048330   2.446889   2.381362   0.000000
    20  H    2.476901   2.535588   2.524770   1.751029   0.000000
    21  H    6.699269   8.288347   5.904967   7.795133   6.920711
    22  H    6.663189   8.057153   4.948800   7.106582   6.538487
    23  H    4.349565   5.971558   4.415692   5.818668   4.759147
    24  H    4.600409   6.145602   4.219403   5.795938   5.235482
    25  H    7.707756   9.051666   5.897653   8.030723   7.082468
    26  H    6.527740   7.935842   5.470456   7.272947   6.052883
    27  H    4.742350   5.811912   2.312750   4.516257   4.222556
    28  H    5.106813   5.889349   2.473502   4.371878   3.532729
    29  H    4.725153   5.860356   3.547387   5.047477   3.729568
    30  H    2.459236   2.546752   4.851942   3.792587   4.304014
    31  H    3.047360   2.459229   4.027564   2.636039   3.800788
                   21         22         23         24         25
    21  H    0.000000
    22  H    1.751278   0.000000
    23  H    2.456424   3.051949   0.000000
    24  H    2.545719   2.462460   1.753302   0.000000
    25  H    2.524125   2.439207   3.816124   4.293840   0.000000
    26  H    2.454317   3.044381   2.673177   3.816031   1.759259
    27  H    3.793863   2.659420   3.029012   2.441651   4.059053
    28  H    4.851247   4.110267   3.775178   4.279583   4.017166
    29  H    4.020317   3.959484   2.604502   3.770095   3.578207
    30  H    7.938650   7.668696   5.929869   5.467992   9.258021
    31  H    8.374974   7.773837   6.450826   5.933255   9.293542
                   26         27         28         29         30
    26  H    0.000000
    27  H    3.957047   0.000000
    28  H    3.574289   2.461050   0.000000
    29  H    2.412565   3.039668   1.761647   0.000000
    30  H    8.354575   5.717278   6.788141   6.749694   0.000000
    31  H    8.562072   5.436804   6.304598   6.703359   1.752877
                   31
    31  H    0.000000
 Stoichiometry    C10H18O3
 Framework group  C1[X(C10H18O3)]
 Deg. of freedom    87
 Full point group                 C1      NOp   1
 Largest Abelian subgroup         C1      NOp   1
 Largest concise Abelian subgroup C1      NOp   1
                         Standard orientation:                         
 ---------------------------------------------------------------------
 Center     Atomic      Atomic             Coordinates (Angstroms)
 Number     Number       Type             X           Y           Z
 ---------------------------------------------------------------------
      1          6           0       -2.565164    1.358264   -0.421677
      2          8           0       -1.791336    0.490270   -1.240220
      3          6           0       -3.129760   -0.575863    1.057557
      4          8           0        3.205687   -1.003738   -0.510953
      5          6           0       -1.213444   -0.613393   -0.590996
      6          6           0       -2.264383   -1.437668    0.136978
      7          6           0        3.173954    1.315468    0.184015
      8          8           0       -0.243445   -0.192286    0.324708
      9          6           0        1.708882    1.168228    0.603094
     10          6           0        3.887456   -0.025413    0.253952
     11          6           0        1.055251    0.045201   -0.187525
     12          6           0        1.883572   -1.229852   -0.072546
     13          6           0       -3.690606    0.609958    0.272784
     14          1           0       -1.918841    1.838694    0.304777
     15          1           0       -2.947318    2.119524   -1.087571
     16          1           0       -2.539229   -0.214040    1.895096
     17          1           0       -3.934550   -1.174818    1.472504
     18          1           0       -0.750324   -1.190618   -1.377584
     19          1           0       -2.892275   -1.902307   -0.618354
     20          1           0       -1.769368   -2.232810    0.683932
     21          1           0        3.683023    2.027144    0.826974
     22          1           0        3.232173    1.696131   -0.832586
     23          1           0        1.651249    0.928102    1.662450
     24          1           0        1.166703    2.095441    0.447295
     25          1           0        4.886852    0.037347   -0.154203
     26          1           0        3.957972   -0.368588    1.283639
     27          1           0        0.984462    0.331874   -1.231478
     28          1           0        1.477455   -2.018084   -0.691643
     29          1           0        1.890134   -1.568761    0.960993
     30          1           0       -4.221274    1.296179    0.926692
     31          1           0       -4.398645    0.256033   -0.473027
 ---------------------------------------------------------------------
 Rotational constants (GHZ):           1.9951614           0.3931643           0.3650880
 Standard basis: 6-311++G(2d,2p) (5D, 7F)
 There are   557 symmetry adapted cartesian basis functions of A   symmetry.
 There are   531 symmetry adapted basis functions of A   symmetry.
   531 basis functions,   762 primitive gaussians,   557 cartesian basis functions
    51 alpha electrons       51 beta electrons
       nuclear repulsion energy       888.3781313582 Hartrees.
 NAtoms=   31 NActive=   31 NUniq=   31 SFac= 1.00D+00 NAtFMM=   60 NAOKFM=F Big=F
 Integral buffers will be    131072 words long.
 Raffenetti 2 integral format.
 Two-electron integral symmetry is turned on.
 ------------------------------------------------------------------------------
 Polarizable Continuum Model (PCM)
 =================================
 Model                : PCM.
 Atomic radii         : UFF (Universal Force Field).
 Polarization charges : Total charges.
 Charge compensation  : None.
 Solution method      : On-the-fly selection.
 Cavity type          : Scaled VdW (van der Waals Surface) (Alpha=1.100).
 Cavity algorithm     : GePol (No added spheres)
                        Default sphere list used, NSphG=   31.
                        Lebedev-Laikov grids with approx.  5.0 points / Ang**2.
                        Smoothing algorithm: York/Karplus (Gamma=1.0000).
                        Polarization charges: spherical gaussians, with
                                              point-specific exponents (IZeta= 3).
                        Self-potential: point-specific (ISelfS= 7).
                        Self-field    : sphere-specific E.n sum rule (ISelfD= 2).
 1st derivatives      : Analytical E(r).r(x)/FMM algorithm (CHGder, D1EAlg=3).
                        Cavity 1st derivative terms included.
 Solvent              : Water, Eps=  78.355300 Eps(inf)=   1.777849
 ------------------------------------------------------------------------------
 One-electron integrals computed using PRISM.
 NBasis=   531 RedAO= T EigKep=  5.35D-06  NBF=   531
 NBsUse=   531 1.00D-06 EigRej= -1.00D+00 NBFU=   531
 ExpMin= 3.60D-02 ExpMax= 8.59D+03 ExpMxC= 1.30D+03 IAcc=3 IRadAn=         5 AccDes= 0.00D+00
 Harris functional with IExCor= 1009 and IRadAn=       5 diagonalized for initial guess.
 HarFok:  IExCor= 1009 AccDes= 0.00D+00 IRadAn=         5 IDoV= 1 UseB2=F ITyADJ=14
 ICtDFT=  3500011 ScaDFX=  1.000000  1.000000  1.000000  1.000000
 FoFCou: FMM=F IPFlag=           0 FMFlag=      100000 FMFlg1=           0
         NFxFlg=           0 DoJE=T BraDBF=F KetDBF=T FulRan=T
         wScrn=  0.000000 ICntrl=       500 IOpCl=  0 I1Cent=   200000004 NGrid=           0
         NMat0=    1 NMatS0=      1 NMatT0=    0 NMatD0=    1 NMtDS0=    0 NMtDT0=    0
 Petite list used in FoFCou.
 Requested convergence on RMS density matrix=1.00D-08 within 128 cycles.
 Requested convergence on MAX density matrix=1.00D-06.
 Requested convergence on             energy=1.00D-06.
 No special actions if energy rises.
 Inv3:  Mode=1 IEnd=    13041675.
 Iteration    1 A*A^-1 deviation from unit magnitude is 3.89D-15 for   2063.
 Iteration    1 A*A^-1 deviation from orthogonality  is 2.91D-15 for   2083    908.
 Iteration    1 A^-1*A deviation from unit magnitude is 3.89D-15 for   2063.
 Iteration    1 A^-1*A deviation from orthogonality  is 1.87D-15 for   2084   1520.
 Error on total polarization charges =  0.01498
 SCF Done:  E(RM062X) =  -617.502047700     A.U. after   12 cycles
            NFock= 12  Conv=0.46D-08     -V/T= 2.0035

 **********************************************************************

            Population analysis using the SCF density.

 **********************************************************************

 Orbital symmetries:
       Occupied  (A) (A) (A) (A) (A) (A) (A) (A) (A) (A) (A) (A)
                 (A) (A) (A) (A) (A) (A) (A) (A) (A) (A) (A) (A)
                 (A) (A) (A) (A) (A) (A) (A) (A) (A) (A) (A) (A)
                 (A) (A) (A) (A) (A) (A) (A) (A) (A) (A) (A) (A)
                 (A) (A) (A)
       Virtual   (A) (A) (A) (A) (A) (A) (A) (A) (A) (A) (A) (A)
                 (A) (A) (A) (A) (A) (A) (A) (A) (A) (A) (A) (A)
                 (A) (A) (A) (A) (A) (A) (A) (A) (A) (A) (A) (A)
                 (A) (A) (A) (A) (A) (A) (A) (A) (A) (A) (A) (A)
                 (A) (A) (A) (A) (A) (A) (A) (A) (A) (A) (A) (A)
                 (A) (A) (A) (A) (A) (A) (A) (A) (A) (A) (A) (A)
                 (A) (A) (A) (A) (A) (A) (A) (A) (A) (A) (A) (A)
                 (A) (A) (A) (A) (A) (A) (A) (A) (A) (A) (A) (A)
                 (A) (A) (A) (A) (A) (A) (A) (A) (A) (A) (A) (A)
                 (A) (A) (A) (A) (A) (A) (A) (A) (A) (A) (A) (A)
                 (A) (A) (A) (A) (A) (A) (A) (A) (A) (A) (A) (A)
                 (A) (A) (A) (A) (A) (A) (A) (A) (A) (A) (A) (A)
                 (A) (A) (A) (A) (A) (A) (A) (A) (A) (A) (A) (A)
                 (A) (A) (A) (A) (A) (A) (A) (A) (A) (A) (A) (A)
                 (A) (A) (A) (A) (A) (A) (A) (A) (A) (A) (A) (A)
                 (A) (A) (A) (A) (A) (A) (A) (A) (A) (A) (A) (A)
                 (A) (A) (A) (A) (A) (A) (A) (A) (A) (A) (A) (A)
                 (A) (A) (A) (A) (A) (A) (A) (A) (A) (A) (A) (A)
                 (A) (A) (A) (A) (A) (A) (A) (A) (A) (A) (A) (A)
                 (A) (A) (A) (A) (A) (A) (A) (A) (A) (A) (A) (A)
                 (A) (A) (A) (A) (A) (A) (A) (A) (A) (A) (A) (A)
                 (A) (A) (A) (A) (A) (A) (A) (A) (A) (A) (A) (A)
                 (A) (A) (A) (A) (A) (A) (A) (A) (A) (A) (A) (A)
                 (A) (A) (A) (A) (A) (A) (A) (A) (A) (A) (A) (A)
                 (A) (A) (A) (A) (A) (A) (A) (A) (A) (A) (A) (A)
                 (A) (A) (A) (A) (A) (A) (A) (A) (A) (A) (A) (A)
                 (A) (A) (A) (A) (A) (A) (A) (A) (A) (A) (A) (A)
                 (A) (A) (A) (A) (A) (A) (A) (A) (A) (A) (A) (A)
                 (A) (A) (A) (A) (A) (A) (A) (A) (A) (A) (A) (A)
                 (A) (A) (A) (A) (A) (A) (A) (A) (A) (A) (A) (A)
                 (A) (A) (A) (A) (A) (A) (A) (A) (A) (A) (A) (A)
                 (A) (A) (A) (A) (A) (A) (A) (A) (A) (A) (A) (A)
                 (A) (A) (A) (A) (A) (A) (A) (A) (A) (A) (A) (A)
                 (A) (A) (A) (A) (A) (A) (A) (A) (A) (A) (A) (A)
                 (A) (A) (A) (A) (A) (A) (A) (A) (A) (A) (A) (A)
                 (A) (A) (A) (A) (A) (A) (A) (A) (A) (A) (A) (A)
                 (A) (A) (A) (A) (A) (A) (A) (A) (A) (A) (A) (A)
                 (A) (A) (A) (A) (A) (A) (A) (A) (A) (A) (A) (A)
                 (A) (A) (A) (A) (A) (A) (A) (A) (A) (A) (A) (A)
                 (A) (A) (A) (A) (A) (A) (A) (A) (A) (A) (A) (A)
 The electronic state is 1-A.
 Alpha  occ. eigenvalues --  -19.63126 -19.62955 -19.62678 -10.63463 -10.58724
 Alpha  occ. eigenvalues --  -10.57889 -10.57862 -10.57572 -10.53209 -10.53164
 Alpha  occ. eigenvalues --  -10.52983 -10.52944 -10.52737  -1.20271  -1.16790
 Alpha  occ. eigenvalues --   -1.13649  -0.91028  -0.89789  -0.87406  -0.84772
 Alpha  occ. eigenvalues --   -0.74848  -0.74111  -0.73334  -0.71225  -0.65927
 Alpha  occ. eigenvalues --   -0.64238  -0.60151  -0.58458  -0.57692  -0.56465
 Alpha  occ. eigenvalues --   -0.54323  -0.53357  -0.52128  -0.51525  -0.49756
 Alpha  occ. eigenvalues --   -0.48045  -0.47213  -0.46057  -0.45412  -0.45096
 Alpha  occ. eigenvalues --   -0.44233  -0.42519  -0.40851  -0.40449  -0.39282
 Alpha  occ. eigenvalues --   -0.38507  -0.38214  -0.36220  -0.35395  -0.33309
 Alpha  occ. eigenvalues --   -0.31752
 Alpha virt. eigenvalues --   -0.00063   0.00750   0.00880   0.01027   0.02131
 Alpha virt. eigenvalues --    0.02463   0.02612   0.03425   0.03602   0.04343
 Alpha virt. eigenvalues --    0.04551   0.04714   0.05435   0.05990   0.06877
 Alpha virt. eigenvalues --    0.07465   0.07744   0.07864   0.08538   0.09116
 Alpha virt. eigenvalues --    0.10152   0.10946   0.11108   0.11609   0.11752
 Alpha virt. eigenvalues --    0.12162   0.12425   0.12773   0.12961   0.13446
 Alpha virt. eigenvalues --    0.13758   0.13988   0.14388   0.14551   0.14769
 Alpha virt. eigenvalues --    0.15047   0.15110   0.15430   0.15715   0.16094
 Alpha virt. eigenvalues --    0.16480   0.16675   0.16991   0.17648   0.17941
 Alpha virt. eigenvalues --    0.18037   0.18342   0.18866   0.19279   0.19439
 Alpha virt. eigenvalues --    0.19968   0.20047   0.20824   0.21373   0.21758
 Alpha virt. eigenvalues --    0.21949   0.22494   0.22809   0.23151   0.23570
 Alpha virt. eigenvalues --    0.24538   0.24952   0.25997   0.26518   0.26767
 Alpha virt. eigenvalues --    0.27679   0.28043   0.28313   0.28806   0.29447
 Alpha virt. eigenvalues --    0.29560   0.30149   0.30726   0.31374   0.31601
 Alpha virt. eigenvalues --    0.32075   0.32534   0.32833   0.34104   0.34638
 Alpha virt. eigenvalues --    0.34780   0.35063   0.35782   0.35795   0.36374
 Alpha virt. eigenvalues --    0.36551   0.37054   0.37387   0.37664   0.37983
 Alpha virt. eigenvalues --    0.38240   0.39209   0.39549   0.39583   0.40626
 Alpha virt. eigenvalues --    0.42035   0.42209   0.43265   0.43507   0.44334
 Alpha virt. eigenvalues --    0.45969   0.47139   0.48384   0.50196   0.50596
 Alpha virt. eigenvalues --    0.52079   0.52356   0.52477   0.53929   0.54530
 Alpha virt. eigenvalues --    0.55794   0.57198   0.57550   0.58659   0.59283
 Alpha virt. eigenvalues --    0.59906   0.60493   0.60822   0.61211   0.61729
 Alpha virt. eigenvalues --    0.62032   0.62927   0.63624   0.63848   0.64352
 Alpha virt. eigenvalues --    0.64704   0.65101   0.65655   0.65928   0.66489
 Alpha virt. eigenvalues --    0.66962   0.68054   0.69046   0.69442   0.70170
 Alpha virt. eigenvalues --    0.70484   0.70894   0.71363   0.72295   0.73030
 Alpha virt. eigenvalues --    0.73560   0.73929   0.74333   0.75344   0.75463
 Alpha virt. eigenvalues --    0.76165   0.76681   0.77016   0.78229   0.79030
 Alpha virt. eigenvalues --    0.81588   0.82617   0.84020   0.84634   0.85589
 Alpha virt. eigenvalues --    0.85785   0.87092   0.87879   0.88392   0.89241
 Alpha virt. eigenvalues --    0.90452   0.90924   0.92524   0.94497   0.95591
 Alpha virt. eigenvalues --    0.96323   0.96470   1.00120   1.00715   1.01761
 Alpha virt. eigenvalues --    1.03240   1.03888   1.04816   1.05527   1.06776
 Alpha virt. eigenvalues --    1.07812   1.08628   1.08748   1.10315   1.12327
 Alpha virt. eigenvalues --    1.12829   1.13359   1.15320   1.16499   1.16896
 Alpha virt. eigenvalues --    1.17382   1.17862   1.18499   1.19651   1.19929
 Alpha virt. eigenvalues --    1.21006   1.21614   1.23173   1.24024   1.24420
 Alpha virt. eigenvalues --    1.24600   1.25476   1.25949   1.26524   1.27222
 Alpha virt. eigenvalues --    1.28335   1.28784   1.29616   1.30124   1.30617
 Alpha virt. eigenvalues --    1.31211   1.32133   1.32562   1.33489   1.34320
 Alpha virt. eigenvalues --    1.34903   1.35512   1.35572   1.36278   1.37613
 Alpha virt. eigenvalues --    1.38123   1.38922   1.39421   1.40398   1.41594
 Alpha virt. eigenvalues --    1.41945   1.42270   1.42769   1.43836   1.44388
 Alpha virt. eigenvalues --    1.45918   1.46138   1.46771   1.47954   1.48097
 Alpha virt. eigenvalues --    1.48711   1.49248   1.49814   1.50305   1.52598
 Alpha virt. eigenvalues --    1.52993   1.53576   1.54066   1.54965   1.55932
 Alpha virt. eigenvalues --    1.56468   1.56944   1.57445   1.58263   1.58366
 Alpha virt. eigenvalues --    1.59543   1.59922   1.60404   1.61000   1.62997
 Alpha virt. eigenvalues --    1.63211   1.63335   1.63933   1.65131   1.66373
 Alpha virt. eigenvalues --    1.67680   1.68573   1.69699   1.71651   1.72146
 Alpha virt. eigenvalues --    1.73960   1.74590   1.75066   1.76152   1.77053
 Alpha virt. eigenvalues --    1.78259   1.79453   1.80861   1.81266   1.84440
 Alpha virt. eigenvalues --    1.85360   1.90496   1.92035   1.95928   1.97221
 Alpha virt. eigenvalues --    2.00237   2.06785   2.11082   2.17256   2.19748
 Alpha virt. eigenvalues --    2.24440   2.26884   2.30313   2.33770   2.38125
 Alpha virt. eigenvalues --    2.42499   2.42605   2.46128   2.47003   2.52438
 Alpha virt. eigenvalues --    2.58859   2.75594   2.76624   2.79895   2.80645
 Alpha virt. eigenvalues --    2.82708   2.89933   2.91566   2.93078   2.93758
 Alpha virt. eigenvalues --    2.95461   2.96824   3.01433   3.01553   3.03689
 Alpha virt. eigenvalues --    3.05882   3.07370   3.08061   3.08949   3.10577
 Alpha virt. eigenvalues --    3.12964   3.14902   3.16726   3.20136   3.21719
 Alpha virt. eigenvalues --    3.25157   3.29936   3.30881   3.33232   3.34238
 Alpha virt. eigenvalues --    3.35758   3.36628   3.37662   3.40798   3.41373
 Alpha virt. eigenvalues --    3.42828   3.43460   3.44987   3.45950   3.46609
 Alpha virt. eigenvalues --    3.47204   3.48749   3.49710   3.50262   3.52591
 Alpha virt. eigenvalues --    3.53314   3.53822   3.54540   3.55030   3.56114
 Alpha virt. eigenvalues --    3.56923   3.57032   3.58907   3.59133   3.59541
 Alpha virt. eigenvalues --    3.60317   3.61493   3.63259   3.64120   3.65091
 Alpha virt. eigenvalues --    3.65635   3.66629   3.67313   3.68796   3.69764
 Alpha virt. eigenvalues --    3.70046   3.70956   3.71458   3.72554   3.73393
 Alpha virt. eigenvalues --    3.73943   3.75030   3.76457   3.77097   3.77488
 Alpha virt. eigenvalues --    3.78270   3.79015   3.79417   3.81377   3.83202
 Alpha virt. eigenvalues --    3.86701   3.87151   3.89082   3.91136   3.91585
 Alpha virt. eigenvalues --    3.93044   3.93616   3.94500   3.96608   3.98048
 Alpha virt. eigenvalues --    3.99499   4.01288   4.01940   4.03111   4.03205
 Alpha virt. eigenvalues --    4.05043   4.05293   4.06540   4.07065   4.07587
 Alpha virt. eigenvalues --    4.07853   4.08628   4.09610   4.10843   4.11246
 Alpha virt. eigenvalues --    4.11886   4.12990   4.13461   4.15032   4.15653
 Alpha virt. eigenvalues --    4.16792   4.17295   4.18653   4.19830   4.20427
 Alpha virt. eigenvalues --    4.21075   4.23227   4.24578   4.25654   4.27711
 Alpha virt. eigenvalues --    4.28606   4.29425   4.30275   4.30712   4.32376
 Alpha virt. eigenvalues --    4.33161   4.33465   4.34213   4.34724   4.39739
 Alpha virt. eigenvalues --    4.40196   4.43042   4.45149   4.46488   4.48187
 Alpha virt. eigenvalues --    4.58425   4.61083   4.75034   4.76561   4.82978
 Alpha virt. eigenvalues --    4.85290   4.92620   4.95391   4.99340   5.00726
 Alpha virt. eigenvalues --    5.06441   5.06978   5.07910   5.08624   5.11888
 Alpha virt. eigenvalues --    5.12120   5.13843   5.14911   5.30540   5.37650
 Alpha virt. eigenvalues --    5.40890   5.57252   5.58853   5.64566   5.85929
 Alpha virt. eigenvalues --    5.87882   6.05933   7.03458   7.04346   7.05930
 Alpha virt. eigenvalues --    7.07803   7.10679   7.12803   7.14331   7.18776
 Alpha virt. eigenvalues --    7.27793   7.35958   7.39123   7.45006   7.53048
 Alpha virt. eigenvalues --    7.55993   7.64850  23.95695  23.96913  24.06276
 Alpha virt. eigenvalues --   24.07517  24.11382  24.13200  24.13688  24.15625
 Alpha virt. eigenvalues --   24.16364  24.20150  50.17004  50.17697  50.25808
          Condensed to atoms (all electrons):
               1          2          3          4          5          6
     1  C    5.487922   0.123223   0.022258   0.000369  -0.518063   0.169058
     2  O    0.123223   8.203954  -0.001747   0.000342   0.334351  -0.064891
     3  C    0.022258  -0.001747   5.590276   0.000019  -0.058629  -0.043889
     4  O    0.000369   0.000342   0.000019   8.321098  -0.001562  -0.000757
     5  C   -0.518063   0.334351  -0.058629  -0.001562   7.226909  -1.032243
     6  C    0.169058  -0.064891  -0.043889  -0.000757  -1.032243   6.824279
     7  C   -0.007297  -0.000106   0.000008  -0.036604  -0.014658   0.002419
     8  O    0.005925  -0.048103  -0.031736   0.004145   0.350668  -0.076265
     9  C    0.015801  -0.052296   0.015101  -0.019531   0.135576  -0.216525
    10  C    0.002902   0.001106  -0.003565   0.100915  -0.037852  -0.000335
    11  C    0.125160   0.016563  -0.011964   0.021575  -0.925153   0.081810
    12  C   -0.020255   0.011292   0.016907   0.172820   0.163048   0.080596
    13  C   -0.065788  -0.078265   0.004940   0.000081   0.253885  -0.157642
    14  H    0.484774  -0.035393   0.000491  -0.000280  -0.006288   0.028212
    15  H    0.434885  -0.075014   0.007757   0.000039  -0.014001   0.000790
    16  H    0.004713   0.002089   0.521428   0.000022  -0.016888  -0.052962
    17  H    0.009996  -0.004495   0.418403  -0.000019   0.019402  -0.046289
    18  H   -0.022128  -0.068964  -0.003602   0.002290   0.464374  -0.087399
    19  H    0.015371  -0.007879  -0.014202  -0.000120  -0.141487   0.534046
    20  H    0.007381   0.009842  -0.040625   0.000744  -0.033306   0.425207
    21  H    0.000494  -0.000040  -0.000084   0.007251  -0.002734  -0.001813
    22  H   -0.000295  -0.000065   0.000892  -0.001453   0.004272   0.002781
    23  H    0.002233   0.001138  -0.000461   0.000763  -0.005989   0.007369
    24  H   -0.002321  -0.001008   0.000162  -0.001600   0.015432   0.000695
    25  H    0.000115   0.000118  -0.000186  -0.072298  -0.003148   0.000066
    26  H   -0.000275  -0.000152   0.000430  -0.043657   0.004195   0.000512
    27  H    0.007706   0.003632  -0.005943  -0.012622  -0.053430  -0.014009
    28  H    0.002474   0.001162   0.000984  -0.075637   0.031956  -0.019795
    29  H   -0.001884  -0.000627   0.002673  -0.039447  -0.003593   0.007713
    30  H   -0.039565   0.010663  -0.038953   0.000012   0.005045  -0.007600
    31  H   -0.081727  -0.002124  -0.024701  -0.000010  -0.000521  -0.003223
               7          8          9         10         11         12
     1  C   -0.007297   0.005925   0.015801   0.002902   0.125160  -0.020255
     2  O   -0.000106  -0.048103  -0.052296   0.001106   0.016563   0.011292
     3  C    0.000008  -0.031736   0.015101  -0.003565  -0.011964   0.016907
     4  O   -0.036604   0.004145  -0.019531   0.100915   0.021575   0.172820
     5  C   -0.014658   0.350668   0.135576  -0.037852  -0.925153   0.163048
     6  C    0.002419  -0.076265  -0.216525  -0.000335   0.081810   0.080596
     7  C    5.627101   0.006223  -0.075418   0.049101  -0.087649   0.160712
     8  O    0.006223   8.270530  -0.150674   0.013140   0.105136  -0.158413
     9  C   -0.075418  -0.150674   7.328078  -0.111541  -1.605187   0.080654
    10  C    0.049101   0.013140  -0.111541   5.416425   0.244021  -0.285800
    11  C   -0.087649   0.105136  -1.605187   0.244021   8.516660  -0.744829
    12  C    0.160712  -0.158413   0.080654  -0.285800  -0.744829   6.170971
    13  C    0.004212  -0.014191  -0.056115   0.002289   0.067970  -0.012146
    14  H   -0.004339   0.004959   0.005912  -0.001599  -0.033753   0.009387
    15  H   -0.000430  -0.000108   0.000711   0.000270   0.010436  -0.001866
    16  H    0.000185  -0.003297   0.005202  -0.000453  -0.009058   0.002966
    17  H   -0.000052  -0.000281  -0.002313   0.000069   0.002521  -0.000497
    18  H   -0.007328  -0.024366   0.006380   0.001288   0.075053  -0.041562
    19  H    0.000120   0.009429  -0.007282   0.000428   0.012761  -0.000597
    20  H   -0.001504  -0.000352   0.011479  -0.001675  -0.013655   0.007621
    21  H    0.423540  -0.002286  -0.011451  -0.032506  -0.013776  -0.006219
    22  H    0.493759   0.000147  -0.014376  -0.086212  -0.038772   0.015076
    23  H   -0.080882  -0.007009   0.494812  -0.011322   0.002453  -0.039247
    24  H    0.025904   0.008697   0.382968  -0.007203  -0.042069   0.022804
    25  H   -0.045537   0.000920   0.005773   0.435703   0.005497   0.009188
    26  H   -0.040184   0.000145  -0.026899   0.459649   0.039493  -0.032536
    27  H   -0.017813  -0.027988   0.065519   0.012198   0.454011  -0.095713
    28  H    0.013469  -0.003064   0.048891   0.004860  -0.107163   0.448310
    29  H   -0.000693   0.012187  -0.036396   0.008044  -0.005723   0.385672
    30  H   -0.000062   0.000654   0.002076   0.000125   0.002847  -0.001232
    31  H    0.000204  -0.000337  -0.001278  -0.000154  -0.006884   0.001844
              13         14         15         16         17         18
     1  C   -0.065788   0.484774   0.434885   0.004713   0.009996  -0.022128
     2  O   -0.078265  -0.035393  -0.075014   0.002089  -0.004495  -0.068964
     3  C    0.004940   0.000491   0.007757   0.521428   0.418403  -0.003602
     4  O    0.000081  -0.000280   0.000039   0.000022  -0.000019   0.002290
     5  C    0.253885  -0.006288  -0.014001  -0.016888   0.019402   0.464374
     6  C   -0.157642   0.028212   0.000790  -0.052962  -0.046289  -0.087399
     7  C    0.004212  -0.004339  -0.000430   0.000185  -0.000052  -0.007328
     8  O   -0.014191   0.004959  -0.000108  -0.003297  -0.000281  -0.024366
     9  C   -0.056115   0.005912   0.000711   0.005202  -0.002313   0.006380
    10  C    0.002289  -0.001599   0.000270  -0.000453   0.000069   0.001288
    11  C    0.067970  -0.033753   0.010436  -0.009058   0.002521   0.075053
    12  C   -0.012146   0.009387  -0.001866   0.002966  -0.000497  -0.041562
    13  C    5.683035  -0.088407  -0.020032  -0.073310  -0.019146   0.016540
    14  H   -0.088407   0.511972  -0.017503  -0.001832  -0.001389  -0.000389
    15  H   -0.020032  -0.017503   0.484048  -0.002152   0.001462   0.000762
    16  H   -0.073310  -0.001832  -0.002152   0.456877  -0.005751  -0.002376
    17  H   -0.019146  -0.001389   0.001462  -0.005751   0.464005   0.002270
    18  H    0.016540  -0.000389   0.000762  -0.002376   0.002270   0.458855
    19  H   -0.016821  -0.001278   0.000169   0.001391  -0.002734  -0.012497
    20  H   -0.008135   0.000581   0.001309  -0.001271  -0.009620  -0.007175
    21  H   -0.000258  -0.000131  -0.000010   0.000070  -0.000022  -0.000076
    22  H   -0.000497   0.000525  -0.000014  -0.000042   0.000030   0.000273
    23  H   -0.000968   0.000377   0.000047  -0.000721   0.000044  -0.000348
    24  H   -0.000982  -0.001069   0.000477   0.000611   0.000106   0.000928
    25  H    0.000143  -0.000192   0.000014   0.000006  -0.000001  -0.000111
    26  H   -0.000105   0.000170  -0.000017  -0.000049   0.000026   0.000547
    27  H    0.001863  -0.001770   0.000330   0.000053  -0.000314  -0.008326
    28  H   -0.001979  -0.000441   0.000012   0.000452  -0.000353  -0.010173
    29  H    0.002762  -0.000560   0.000029  -0.000621   0.000447   0.001769
    30  H    0.438298   0.000426  -0.008385  -0.003449  -0.007866   0.001623
    31  H    0.486548   0.004267  -0.007474   0.001129  -0.001792   0.000170
              19         20         21         22         23         24
     1  C    0.015371   0.007381   0.000494  -0.000295   0.002233  -0.002321
     2  O   -0.007879   0.009842  -0.000040  -0.000065   0.001138  -0.001008
     3  C   -0.014202  -0.040625  -0.000084   0.000892  -0.000461   0.000162
     4  O   -0.000120   0.000744   0.007251  -0.001453   0.000763  -0.001600
     5  C   -0.141487  -0.033306  -0.002734   0.004272  -0.005989   0.015432
     6  C    0.534046   0.425207  -0.001813   0.002781   0.007369   0.000695
     7  C    0.000120  -0.001504   0.423540   0.493759  -0.080882   0.025904
     8  O    0.009429  -0.000352  -0.002286   0.000147  -0.007009   0.008697
     9  C   -0.007282   0.011479  -0.011451  -0.014376   0.494812   0.382968
    10  C    0.000428  -0.001675  -0.032506  -0.086212  -0.011322  -0.007203
    11  C    0.012761  -0.013655  -0.013776  -0.038772   0.002453  -0.042069
    12  C   -0.000597   0.007621  -0.006219   0.015076  -0.039247   0.022804
    13  C   -0.016821  -0.008135  -0.000258  -0.000497  -0.000968  -0.000982
    14  H   -0.001278   0.000581  -0.000131   0.000525   0.000377  -0.001069
    15  H    0.000169   0.001309  -0.000010  -0.000014   0.000047   0.000477
    16  H    0.001391  -0.001271   0.000070  -0.000042  -0.000721   0.000611
    17  H   -0.002734  -0.009620  -0.000022   0.000030   0.000044   0.000106
    18  H   -0.012497  -0.007175  -0.000076   0.000273  -0.000348   0.000928
    19  H    0.449439  -0.003597  -0.000018  -0.000089   0.000075  -0.000209
    20  H   -0.003597   0.485916  -0.000017   0.000163   0.000787  -0.000103
    21  H   -0.000018  -0.000017   0.487973  -0.007817  -0.004124  -0.014150
    22  H   -0.000089   0.000163  -0.007817   0.473428   0.002850  -0.001329
    23  H    0.000075   0.000787  -0.004124   0.002850   0.458515  -0.018464
    24  H   -0.000209  -0.000103  -0.014150  -0.001329  -0.018464   0.498676
    25  H    0.000037  -0.000097  -0.008074  -0.004568  -0.001136   0.000907
    26  H   -0.000062   0.000079   0.002062   0.002999  -0.005403   0.000936
    27  H    0.000784   0.000587   0.001206  -0.007798   0.005974  -0.010423
    28  H    0.000351  -0.000531   0.002657  -0.002285  -0.002167  -0.000404
    29  H   -0.000101  -0.004233  -0.002165   0.001655  -0.005356  -0.000286
    30  H   -0.002357   0.001081   0.000005  -0.000006  -0.000180   0.000125
    31  H   -0.002541  -0.000993  -0.000005   0.000006   0.000028   0.000220
              25         26         27         28         29         30
     1  C    0.000115  -0.000275   0.007706   0.002474  -0.001884  -0.039565
     2  O    0.000118  -0.000152   0.003632   0.001162  -0.000627   0.010663
     3  C   -0.000186   0.000430  -0.005943   0.000984   0.002673  -0.038953
     4  O   -0.072298  -0.043657  -0.012622  -0.075637  -0.039447   0.000012
     5  C   -0.003148   0.004195  -0.053430   0.031956  -0.003593   0.005045
     6  C    0.000066   0.000512  -0.014009  -0.019795   0.007713  -0.007600
     7  C   -0.045537  -0.040184  -0.017813   0.013469  -0.000693  -0.000062
     8  O    0.000920   0.000145  -0.027988  -0.003064   0.012187   0.000654
     9  C    0.005773  -0.026899   0.065519   0.048891  -0.036396   0.002076
    10  C    0.435703   0.459649   0.012198   0.004860   0.008044   0.000125
    11  C    0.005497   0.039493   0.454011  -0.107163  -0.005723   0.002847
    12  C    0.009188  -0.032536  -0.095713   0.448310   0.385672  -0.001232
    13  C    0.000143  -0.000105   0.001863  -0.001979   0.002762   0.438298
    14  H   -0.000192   0.000170  -0.001770  -0.000441  -0.000560   0.000426
    15  H    0.000014  -0.000017   0.000330   0.000012   0.000029  -0.008385
    16  H    0.000006  -0.000049   0.000053   0.000452  -0.000621  -0.003449
    17  H   -0.000001   0.000026  -0.000314  -0.000353   0.000447  -0.007866
    18  H   -0.000111   0.000547  -0.008326  -0.010173   0.001769   0.001623
    19  H    0.000037  -0.000062   0.000784   0.000351  -0.000101  -0.002357
    20  H   -0.000097   0.000079   0.000587  -0.000531  -0.004233   0.001081
    21  H   -0.008074   0.002062   0.001206   0.002657  -0.002165   0.000005
    22  H   -0.004568   0.002999  -0.007798  -0.002285   0.001655  -0.000006
    23  H   -0.001136  -0.005403   0.005974  -0.002167  -0.005356  -0.000180
    24  H    0.000907   0.000936  -0.010423  -0.000404  -0.000286   0.000125
    25  H    0.473134  -0.006693   0.000064   0.002807  -0.002129   0.000002
    26  H   -0.006693   0.498447  -0.002559  -0.005285   0.010071   0.000005
    27  H    0.000064  -0.002559   0.433157   0.000947  -0.005376  -0.000087
    28  H    0.002807  -0.005285   0.000947   0.500677  -0.020250   0.000037
    29  H   -0.002129   0.010071  -0.005376  -0.020250   0.490564   0.000088
    30  H    0.000002   0.000005  -0.000087   0.000037   0.000088   0.487794
    31  H   -0.000002  -0.000002  -0.000132  -0.000119  -0.000078  -0.010973
              31
     1  C   -0.081727
     2  O   -0.002124
     3  C   -0.024701
     4  O   -0.000010
     5  C   -0.000521
     6  C   -0.003223
     7  C    0.000204
     8  O   -0.000337
     9  C   -0.001278
    10  C   -0.000154
    11  C   -0.006884
    12  C    0.001844
    13  C    0.486548
    14  H    0.004267
    15  H   -0.007474
    16  H    0.001129
    17  H   -0.001792
    18  H    0.000170
    19  H   -0.002541
    20  H   -0.000993
    21  H   -0.000005
    22  H    0.000006
    23  H    0.000028
    24  H    0.000220
    25  H   -0.000002
    26  H   -0.000002
    27  H   -0.000132
    28  H   -0.000119
    29  H   -0.000078
    30  H   -0.010973
    31  H    0.483883
 Mulliken charges:
               1
     1  C   -0.163161
     2  O   -0.278307
     3  C   -0.322443
     4  O   -0.326889
     5  C   -0.139567
     6  C   -0.339914
     7  C   -0.386397
     8  O   -0.244435
     9  C   -0.217650
    10  C   -0.172317
    11  C   -0.138330
    12  C   -0.318958
    13  C   -0.347779
    14  H    0.144559
    15  H    0.203460
    16  H    0.177039
    17  H    0.184153
    18  H    0.263699
    19  H    0.189469
    20  H    0.174113
    21  H    0.182520
    22  H    0.166761
    23  H    0.206313
    24  H    0.141971
    25  H    0.209678
    26  H    0.144113
    27  H    0.276273
    28  H    0.189598
    29  H    0.205845
    30  H    0.169809
    31  H    0.166772
 Sum of Mulliken charges =  -0.00000
 Mulliken charges with hydrogens summed into heavy atoms:
               1
     1  C    0.184859
     2  O   -0.278307
     3  C    0.038748
     4  O   -0.326889
     5  C    0.124132
     6  C    0.023669
     7  C   -0.037116
     8  O   -0.244435
     9  C    0.130635
    10  C    0.181474
    11  C    0.137942
    12  C    0.076485
    13  C   -0.011199
 Electronic spatial extent (au):  <R**2>=           3171.1798
 Charge=              0.0000 electrons
 Dipole moment (field-independent basis, Debye):
    X=             -0.7443    Y=              0.7376    Z=              1.7912  Tot=              2.0751
 Quadrupole moment (field-independent basis, Debye-Ang):
   XX=            -74.9872   YY=            -77.3192   ZZ=            -83.6670
   XY=              5.7731   XZ=              2.2612   YZ=              0.5980
 Traceless Quadrupole moment (field-independent basis, Debye-Ang):
   XX=              3.6706   YY=              1.3386   ZZ=             -5.0092
   XY=              5.7731   XZ=              2.2612   YZ=              0.5980
 Octapole moment (field-independent basis, Debye-Ang**2):
  XXX=             -9.4996  YYY=              0.9643  ZZZ=              1.7739  XYY=             -9.5713
  XXY=             24.6128  XXZ=             20.6775  XZZ=              5.2651  YZZ=             -1.9899
  YYZ=             -1.6300  XYZ=             -5.1945
 Hexadecapole moment (field-independent basis, Debye-Ang**3):
 XXXX=          -3203.8352 YYYY=           -587.7215 ZZZZ=           -316.6788 XXXY=             60.7340
 XXXZ=             44.3616 YYYX=             -9.7685 YYYZ=             -1.4063 ZZZX=             -0.9452
 ZZZY=              2.6580 XXYY=           -655.7669 XXZZ=           -619.4486 YYZZ=           -145.8776
 XXYZ=            -15.4900 YYXZ=             10.7317 ZZXY=              1.3348
 N-N= 8.883781313582D+02 E-N=-3.218562309636D+03  KE= 6.153499833040D+02
 D1PCM: PCM CHGder 1st derivatives, ID1Alg=3 FixD1E=F DoIter=F DoCFld=F I1PDM=0.
 Calling FoFJK, ICntrl=      2127 FMM=F ISym2X=0 I1Cent= 0 IOpClX= 0 NMat=1 NMatS=1 NMatT=0.
 ***** Axes restored to original set *****
 -------------------------------------------------------------------
 Center     Atomic                   Forces (Hartrees/Bohr)
 Number     Number              X              Y              Z
 -------------------------------------------------------------------
      1        6          -0.001303537   -0.006278312    0.002262960
      2        8           0.001896645    0.000870868   -0.011766085
      3        6           0.001069313    0.000972153   -0.003644879
      4        8           0.003678140   -0.004525061   -0.007376664
      5        6          -0.005838287    0.004393059    0.006271098
      6        6           0.000466489    0.001943751    0.001656693
      7        6          -0.000852407   -0.001721049    0.002136911
      8        8          -0.001086970   -0.001165016    0.011843326
      9        6           0.002604590   -0.002198036   -0.003571675
     10        6          -0.006384241    0.002290653   -0.001440698
     11        6          -0.001018479    0.000135261    0.003570226
     12        6           0.003297556    0.006974315   -0.000895017
     13        6           0.002398724    0.000038108    0.001288916
     14        1           0.003469818    0.001920494    0.004946223
     15        1          -0.001681785    0.003005920   -0.002780568
     16        1           0.002743287    0.001382080    0.001953944
     17        1          -0.001925924   -0.001449838    0.000884725
     18        1           0.002940637   -0.004022867   -0.006358898
     19        1          -0.002076789   -0.000903101   -0.002601341
     20        1           0.001712157   -0.002112346    0.001806354
     21        1           0.001124494    0.002214645    0.001674209
     22        1           0.000044691    0.000484146   -0.003184328
     23        1          -0.000483878   -0.001841463    0.003410894
     24        1          -0.002109735    0.002338831   -0.000561940
     25        1           0.003964811    0.000312509   -0.001762001
     26        1          -0.000001081   -0.000848306    0.006134351
     27        1           0.000643019    0.001959019   -0.006471485
     28        1          -0.002507281   -0.003582990   -0.002965060
     29        1          -0.001629361   -0.000781863    0.006295474
     30        1          -0.001548990    0.001505363    0.001862144
     31        1          -0.001605625   -0.001310926   -0.002617811
 -------------------------------------------------------------------
 Cartesian Forces:  Max     0.011843326 RMS     0.003444062

 GradGradGradGradGradGradGradGradGradGradGradGradGradGradGradGradGradGrad
 Berny optimization.
 FormGI is forming the generalized inverse of G from B-inverse, IUseBI=4.
 Internal  Forces:  Max     0.009603998 RMS     0.001989721
 Search for a local minimum.
 Step number   1 out of a maximum of  186
 All quantities printed in internal units (Hartrees-Bohrs-Radians)
 Mixed Optimization -- RFO/linear search
 Second derivative matrix not updated -- first step.
 ITU=  0
     Eigenvalues ---    0.00627   0.00650   0.00728   0.00743   0.01411
     Eigenvalues ---    0.01445   0.01479   0.02699   0.02786   0.03074
     Eigenvalues ---    0.03176   0.04093   0.04356   0.04747   0.04805
     Eigenvalues ---    0.04866   0.04970   0.05115   0.05150   0.05170
     Eigenvalues ---    0.05203   0.05681   0.05741   0.06156   0.06167
     Eigenvalues ---    0.06401   0.06822   0.06854   0.07355   0.07847
     Eigenvalues ---    0.07881   0.07958   0.08008   0.08102   0.08132
     Eigenvalues ---    0.08237   0.08885   0.09374   0.10864   0.11580
     Eigenvalues ---    0.11604   0.11711   0.11759   0.12398   0.12500
     Eigenvalues ---    0.14487   0.14600   0.16046   0.16620   0.17521
     Eigenvalues ---    0.19005   0.21604   0.21772   0.25000   0.28524
     Eigenvalues ---    0.28539   0.28697   0.28842   0.28948   0.29487
     Eigenvalues ---    0.30140   0.30337   0.35073   0.35079   0.35085
     Eigenvalues ---    0.35095   0.35151   0.35186   0.35210   0.35241
     Eigenvalues ---    0.35299   0.35321   0.35357   0.35408   0.35439
     Eigenvalues ---    0.35448   0.35820   0.35831   0.35851   0.35995
     Eigenvalues ---    0.40785   0.41448   0.42288   0.43050   0.43252
     Eigenvalues ---    0.458141000.000001000.000001000.000001000.00000
     Eigenvalues --- 1000.000001000.000001000.000001000.000001000.00000
     Eigenvalues --- 1000.000001000.000001000.000001000.000001000.00000
     Eigenvalues --- 1000.000001000.000001000.000001000.000001000.00000
     Eigenvalues --- 1000.000001000.000001000.000001000.000001000.00000
     Eigenvalues --- 1000.000001000.000001000.000001000.000001000.00000
     Eigenvalues --- 1000.000001000.000001000.000001000.000001000.00000
     Eigenvalues --- 1000.000001000.000001000.000001000.000001000.00000
     Eigenvalues --- 1000.000001000.000001000.000001000.000001000.00000
     Eigenvalues --- 1000.000001000.000001000.000001000.000001000.00000
     Eigenvalues --- 1000.000001000.000001000.000001000.000001000.00000
     Eigenvalues --- 1000.000001000.000001000.000001000.000001000.00000
     Eigenvalues --- 1000.000001000.000001000.000001000.000001000.00000
     Eigenvalues --- 1000.000001000.000001000.000001000.000001000.00000
     Eigenvalues --- 1000.000001000.000001000.000001000.000001000.00000
     Eigenvalues --- 1000.000001000.000001000.000001000.000001000.00000
     Eigenvalues --- 1000.000001000.000001000.000001000.000001000.00000
     Eigenvalues --- 1000.000001000.000001000.000001000.000001000.00000
     Eigenvalues --- 1000.000001000.000001000.000001000.000001000.00000
     Eigenvalues --- 1000.000001000.000001000.000001000.000001000.00000
 RFO step:  Lambda=-2.86512638D-03 EMin= 6.26622316D-03
 Linear search not attempted -- first point.
 Iteration  1 RMS(Cart)=  0.02421948 RMS(Int)=  0.00020808
 Iteration  2 RMS(Cart)=  0.00046237 RMS(Int)=  0.00004758
 Iteration  3 RMS(Cart)=  0.00000007 RMS(Int)=  0.00004758
 Iteration  1 RMS(Cart)=  0.00002013 RMS(Int)=  0.00000437
 Iteration  2 RMS(Cart)=  0.00001057 RMS(Int)=  0.00000489
 Iteration  3 RMS(Cart)=  0.00000555 RMS(Int)=  0.00000550
 Iteration  4 RMS(Cart)=  0.00000292 RMS(Int)=  0.00000588
 Iteration  5 RMS(Cart)=  0.00000153 RMS(Int)=  0.00000610
 Iteration  6 RMS(Cart)=  0.00000080 RMS(Int)=  0.00000621
 Variable       Old X    -DE/DX   Delta X   Delta X   Delta X     New X
                                 (Linear)    (Quad)   (Total)
    R1        2.68729   0.00281   0.00000   0.00647   0.00647   2.69377
    R2        2.87142   0.00017   0.00000   0.00036   0.00040   2.87182
    R3        2.04953   0.00623   0.00000   0.01744   0.01744   2.06697
    R4        2.04315   0.00442   0.00000   0.01224   0.01224   2.05539
    R5        2.65473   0.00301   0.00000   0.00667   0.00666   2.66139
    R6        2.89014  -0.00149   0.00000  -0.00478  -0.00478   2.88535
    R7        2.88862  -0.00073   0.00000  -0.00246  -0.00245   2.88617
    R8        2.05374   0.00346   0.00000   0.00974   0.00974   2.06348
    R9        2.05156   0.00257   0.00000   0.00721   0.00721   2.05877
   R10        2.67715   0.00336   0.00000   0.00771   0.00773   2.68489
   R11        2.66667   0.00300   0.00000   0.00683   0.00685   2.67352
   R12        2.87453  -0.00070   0.00000  -0.00208  -0.00212   2.87241
   R13        2.64342   0.00400   0.00000   0.00867   0.00867   2.65209
   R14        2.04090   0.00804   0.00000   0.02217   0.02217   2.06306
   R15        2.05335   0.00340   0.00000   0.00957   0.00957   2.06291
   R16        2.04968   0.00324   0.00000   0.00907   0.00907   2.05875
   R17        2.89304  -0.00065   0.00000  -0.00225  -0.00227   2.89076
   R18        2.87334   0.00036   0.00000   0.00096   0.00096   2.87430
   R19        2.05192   0.00297   0.00000   0.00835   0.00835   2.06027
   R20        2.05431   0.00315   0.00000   0.00889   0.00889   2.06319
   R21        2.67608   0.00235   0.00000   0.00543   0.00543   2.68151
   R22        2.87431  -0.00214   0.00000  -0.00692  -0.00694   2.86737
   R23        2.05556   0.00376   0.00000   0.01062   0.01062   2.06618
   R24        2.05099   0.00313   0.00000   0.00879   0.00879   2.05978
   R25        2.04346   0.00435   0.00000   0.01204   0.01204   2.05550
   R26        2.05537   0.00607   0.00000   0.01717   0.01717   2.07255
   R27        2.88150  -0.00000   0.00000   0.00022   0.00023   2.88173
   R28        2.05018   0.00670   0.00000   0.01878   0.01878   2.06896
   R29        2.04363   0.00525   0.00000   0.01454   0.01454   2.05818
   R30        2.05547   0.00621   0.00000   0.01757   0.01757   2.07304
   R31        2.05286   0.00283   0.00000   0.00796   0.00796   2.06082
   R32        2.05522   0.00327   0.00000   0.00923   0.00923   2.06445
    A1        1.94499   0.00237   0.00000   0.00607   0.00600   1.95099
    A2        1.90884   0.00012   0.00000   0.00107   0.00115   1.90999
    A3        1.84169  -0.00134   0.00000  -0.00192  -0.00193   1.83976
    A4        1.93201  -0.00165   0.00000  -0.00761  -0.00764   1.92437
    A5        1.94597  -0.00027   0.00000  -0.00182  -0.00175   1.94422
    A6        1.88733   0.00077   0.00000   0.00457   0.00455   1.89188
    A7        2.02347  -0.00581   0.00000  -0.03541  -0.03538   1.98809
    A8        1.91316   0.00176   0.00000  -0.00230  -0.00231   1.91085
    A9        1.92199  -0.00093   0.00000  -0.00604  -0.00605   1.91594
   A10        1.91626  -0.00050   0.00000   0.00172   0.00172   1.91798
   A11        1.91425  -0.00077   0.00000  -0.00129  -0.00138   1.91287
   A12        1.93075  -0.00023   0.00000   0.00209   0.00215   1.93290
   A13        1.86704   0.00061   0.00000   0.00594   0.00595   1.87299
   A14        1.97555  -0.00462   0.00000  -0.02764  -0.02756   1.94799
   A15        1.94193   0.00356   0.00000   0.00899   0.00880   1.95073
   A16        1.92973   0.00063   0.00000   0.00189   0.00202   1.93175
   A17        1.83351  -0.00266   0.00000  -0.00593  -0.00595   1.82756
   A18        1.90597  -0.00309   0.00000  -0.01745  -0.01737   1.88860
   A19        1.93393   0.00017   0.00000   0.00088   0.00097   1.93490
   A20        1.91805   0.00151   0.00000   0.01259   0.01255   1.93060
   A21        1.95373  -0.00181   0.00000  -0.01415  -0.01434   1.93939
   A22        1.90966   0.00116   0.00000   0.00700   0.00710   1.91676
   A23        1.94743  -0.00018   0.00000  -0.00171  -0.00179   1.94564
   A24        1.87368   0.00018   0.00000   0.00422   0.00423   1.87792
   A25        1.89998   0.00075   0.00000  -0.00129  -0.00125   1.89873
   A26        1.87631  -0.00002   0.00000   0.00700   0.00697   1.88328
   A27        1.93014  -0.00081   0.00000  -0.00596  -0.00601   1.92413
   A28        1.92795  -0.00044   0.00000  -0.00048  -0.00046   1.92748
   A29        1.91869   0.00077   0.00000   0.00122   0.00123   1.91992
   A30        1.90790   0.00073   0.00000   0.00498   0.00501   1.91291
   A31        1.90359  -0.00023   0.00000  -0.00262  -0.00263   1.90096
   A32        1.87457  -0.00000   0.00000   0.00313   0.00312   1.87769
   A33        2.03715  -0.00960   0.00000  -0.03798  -0.03798   1.99917
   A34        1.91768   0.00126   0.00000  -0.00196  -0.00200   1.91568
   A35        1.91615  -0.00018   0.00000   0.00289   0.00287   1.91902
   A36        1.93542   0.00016   0.00000   0.00620   0.00620   1.94163
   A37        1.89702  -0.00109   0.00000  -0.00807  -0.00807   1.88894
   A38        1.91929  -0.00060   0.00000  -0.00301  -0.00298   1.91631
   A39        1.87751   0.00039   0.00000   0.00379   0.00374   1.88125
   A40        1.93728   0.00191   0.00000   0.00830   0.00829   1.94557
   A41        1.85569  -0.00123   0.00000  -0.00399  -0.00398   1.85171
   A42        1.90124   0.00070   0.00000   0.00715   0.00719   1.90842
   A43        1.94458  -0.00033   0.00000  -0.00310  -0.00311   1.94148
   A44        1.93073  -0.00160   0.00000  -0.00940  -0.00943   1.92130
   A45        1.89202   0.00058   0.00000   0.00143   0.00140   1.89342
   A46        1.90700  -0.00081   0.00000  -0.00267  -0.00266   1.90433
   A47        1.90781   0.00057   0.00000   0.00239   0.00240   1.91021
   A48        1.90979   0.00040   0.00000   0.00807   0.00806   1.91785
   A49        1.92278  -0.00020   0.00000  -0.00352  -0.00357   1.91921
   A50        1.91040   0.00042   0.00000  -0.00155  -0.00154   1.90886
   A51        1.90599  -0.00038   0.00000  -0.00262  -0.00263   1.90336
   A52        1.93001   0.00194   0.00000   0.01000   0.01004   1.94005
   A53        1.86584  -0.00084   0.00000   0.00113   0.00114   1.86697
   A54        1.91716   0.00129   0.00000   0.01196   0.01202   1.92918
   A55        1.94154  -0.00061   0.00000  -0.00617  -0.00623   1.93531
   A56        1.91290  -0.00246   0.00000  -0.01686  -0.01693   1.89597
   A57        1.89560   0.00075   0.00000   0.00060   0.00046   1.89606
   A58        1.92296  -0.00103   0.00000  -0.00648  -0.00667   1.91628
   A59        1.90269   0.00062   0.00000   0.00407   0.00412   1.90681
   A60        1.90609   0.00005   0.00000  -0.00127  -0.00122   1.90486
   A61        1.93932  -0.00051   0.00000  -0.00138  -0.00136   1.93796
   A62        1.91609   0.00092   0.00000   0.00165   0.00172   1.91781
   A63        1.87584  -0.00001   0.00000   0.00369   0.00366   1.87949
    D1       -0.99853   0.00047   0.00000  -0.01823  -0.01811  -1.01664
    D2        1.14330   0.00006   0.00000  -0.02305  -0.02297   1.12033
    D3       -3.11341   0.00031   0.00000  -0.01823  -0.01814  -3.13156
    D4        0.95628   0.00132   0.00000   0.01930   0.01935   0.97564
    D5        3.08874   0.00043   0.00000   0.01609   0.01608   3.10482
    D6       -1.14960   0.00080   0.00000   0.02211   0.02214  -1.12746
    D7       -1.17221   0.00068   0.00000   0.01905   0.01912  -1.15309
    D8        0.96025  -0.00021   0.00000   0.01584   0.01585   0.97609
[...]
 0000116,0.00000227,-0.00000039,0.00000013,0.00000083,-0.00000279,0.000
 00155,-0.00000035,0.00000040,-0.00000023,-0.00000106,-0.00000261,0.000
 00073,0.00000140,0.00001292,0.00000098,0.00001702,-0.00000285,-0.00000
 087,-0.00000011,0.00000248,0.00000050,-0.00000059,0.00015544,-0.000125
 34,0.00007199,-0.00029375,-0.00064826,0.00058618,-0.00043843,-0.000028
 37,0.00028533,0.00024666,0.00007433,0.00024573,-0.10105320,-0.00193577
 ,0.09602759,-0.00000160,0.00000160,0.00000148,0.00000980,-0.00000433,0
 .00000091,-0.00000090,0.00000061,0.00000012,-0.00504039,-0.00270193,-0
 .02142992,-0.00000037,0.00000647,0.00001816,-0.00000143,-0.00000164,-0
 .00000106,-0.00029443,0.00737939,-0.01406936,-0.00014401,0.00009716,0.
 00011775,0.00093558,-0.00041318,-0.00120058,-0.05533639,0.00366177,-0.
 00195784,-0.00038145,-0.00006294,0.00016111,0.00251445,0.00142980,-0.0
 0417155,0.00000089,-0.00000031,-0.00000052,0.00000017,0.00000122,-0.00
 000102,0.00000062,-0.00000047,-0.00000009,-0.00000073,-0.00000077,0.00
 000033,-0.00000008,-0.00000042,-0.00000082,0.00000705,-0.00000164,-0.0
 0000287,0.00000085,-0.00000029,0.00000063,-0.00000038,-0.00000067,-0.0
 0000054,0.00048390,-0.00029133,0.00032076,-0.00047378,0.00264009,-0.00
 033718,-0.00007904,0.00004220,0.00025440,0.00016118,-0.00010238,0.0002
 3776,0.00314176,-0.01010827,0.02695650,0.05401924,0.00000122,-0.000001
 27,-0.00000289,-0.00000953,0.00000774,-0.00000882,-0.00000077,-0.00000
 038,0.00000164,-0.00957999,0.00212584,-0.03124205,0.00005330,0.0000317
 0,0.00001973,0.00000581,0.00000482,0.00000869,0.00128724,-0.01189775,0
 .02957690,-0.00012058,0.00024006,0.00011341,-0.00136649,0.00120090,0.0
 0031654,0.00328128,-0.08069672,0.08641989,-0.00021103,-0.00048294,0.00
 017242,0.00343219,0.00161351,-0.00289592,0.00000038,-0.00000006,0.0000
 0015,-0.00000080,-0.00000125,0.00000110,-0.00000054,0.00000051,-0.0000
 0066,-0.00000034,-0.00000099,-0.00000109,-0.00000095,0.00000002,-0.000
 00011,0.00000806,0.,0.00000312,0.00000194,0.00000101,-0.00000139,-0.00
 000009,0.,-0.00000031,-0.00058846,0.00093747,-0.00041963,0.00374643,-0
 .00490130,-0.00006779,0.00049415,0.00030839,-0.00058811,-0.00020501,0.
 00003218,-0.00041873,0.00047632,0.00032721,0.00101107,-0.00135143,0.09
 142944,0.00003689,-0.00002747,-0.00003089,-0.00012013,0.00008094,-0.00
 005619,-0.00000069,-0.00001338,-0.00000197,-0.01127433,-0.00819528,-0.
 02696443,0.00026945,0.00004252,0.00027098,-0.00002285,0.00000881,-0.00
 003183,0.00142094,0.00160680,-0.00068576,-0.00070980,0.00006527,-0.000
 04474,-0.00009948,-0.00057300,0.00050153,-0.00551914,0.08403275,-0.261
 43081,0.00016622,-0.00049426,0.00012195,0.00363142,0.00122781,0.000588
 67,0.00000309,0.00000334,0.00000632,-0.00000153,-0.00000558,0.00000226
 ,-0.00000831,0.00000588,-0.00000149,0.00000174,-0.00000033,-0.00000581
 ,-0.00000946,0.00000127,0.00000526,0.00001316,-0.00000420,-0.00000518,
 -0.00002099,-0.00000987,0.00000521,0.00000237,0.00000118,0.00000044,-0
 .00029085,0.00078539,0.00020138,0.00023666,0.00000572,0.00121746,-0.00
 059852,0.00000128,0.00004828,-0.00008965,0.00004622,0.00017582,0.00040
 440,0.00503315,-0.00972686,0.01403634,-0.08318767,0.29480468,0.0000122
 5,0.00032382,0.00018762,0.00019476,0.00058511,-0.00045171,0.00003784,-
 0.00005297,0.00003429,0.00184245,-0.00071217,0.00031807,0.00230494,-0.
 00012511,0.00465454,0.00006782,-0.00012354,-0.00030066,0.00084359,0.00
 044941,-0.00055704,-0.01406208,-0.01369357,0.03747389,-0.00051178,0.00
 426704,-0.01371360,-0.00009316,-0.00007775,-0.00005476,-0.05259996,0.0
 0841018,-0.03090599,-0.00080208,0.00568417,-0.01665191,0.00002205,-0.0
 0011413,-0.00002111,-0.00004781,-0.00007608,-0.00003782,-0.00001159,-0
 .00001037,-0.00003540,0.00002793,-0.00005919,-0.00014955,-0.00007824,-
 0.00000290,-0.00004661,-0.00017685,-0.00035155,-0.00035047,-0.00019407
 ,-0.00002707,-0.00000825,0.00002906,0.00010616,-0.00003942,0.00008800,
 -0.00005334,0.00010407,-0.00021228,-0.00025456,0.00016070,-0.00093223,
 -0.00229987,-0.00153624,0.00046702,-0.00012038,0.00078584,-0.00004566,
 0.00003105,-0.00000575,0.00005779,-0.00004945,0.00009290,0.06490716,-0
 .00000045,0.00006861,0.00002180,-0.00027750,0.00011214,-0.00048425,0.0
 0005087,0.00005444,-0.00002178,-0.00107297,0.00201486,-0.00167154,-0.0
 0017851,0.00091845,0.00242585,0.00008303,-0.00027575,-0.00021412,0.001
 09175,0.00076330,0.00011524,-0.00558958,-0.00116829,0.00457922,-0.0029
 5436,0.00624838,-0.02527265,-0.00016087,-0.00032418,-0.00023393,0.0088
 1556,-0.07201154,0.06779389,0.00445569,-0.01055033,0.02975338,0.000012
 47,-0.00001600,-0.00003445,0.00002449,-0.00003472,-0.00003265,0.000003
 02,-0.00002001,-0.00000166,0.00001324,-0.00001550,-0.00002737,0.000010
 35,-0.00001935,-0.00003230,-0.00042551,-0.00060118,-0.00012605,-0.0000
 4948,0.00000103,0.00000567,-0.00002167,0.00002478,-0.00001952,0.000223
 96,-0.00012781,0.00021589,-0.00013261,-0.00007244,0.00040909,-0.002644
 46,-0.00286949,-0.00308577,0.00065565,0.00113639,0.00059221,0.00000649
 ,0.00010076,0.00000739,-0.00010023,-0.00011542,0.00006557,-0.00403824,
 0.07969567,-0.00000834,-0.00008706,-0.00002159,0.00032955,-0.00094071,
 0.00148727,-0.00015268,-0.00005940,0.00001034,-0.00141031,-0.00052390,
 0.00079475,-0.00379324,-0.00166081,-0.00219715,0.00005634,0.00028002,0
 .00028785,0.00043518,0.00041560,0.00019381,0.01067220,0.00609123,-0.01
 272146,-0.00281365,0.00381113,-0.01762344,-0.00002455,0.00002139,0.000
 10120,-0.02295162,0.06895066,-0.27683145,0.00036972,0.00043166,-0.0014
 5116,-0.00004091,0.00001566,0.00003157,0.00004464,0.00004126,-0.000017
 41,0.00002445,-0.00000174,0.00000370,0.00000376,0.00001769,0.00007232,
 0.00001841,0.00002480,0.00002268,-0.00008464,0.00027474,0.00082832,0.0
 0014608,0.00007536,-0.00003366,0.00001724,-0.00005581,0.00003953,-0.00
 004914,-0.00020257,0.00035044,-0.00055654,-0.00005745,0.00043642,-0.00
 133258,-0.00229422,-0.00082342,0.00043930,0.00004530,0.00080171,-0.000
 03021,0.00004194,0.00000428,0.00010644,-0.00000130,-0.00011624,0.02045
 792,-0.07494449,0.30495336,-0.00005727,0.00005193,0.00006665,0.0000960
 2,-0.00010879,0.00003501,0.00004667,0.00006179,0.00002029,-0.02593724,
 -0.02937769,-0.01999921,-0.00074187,0.00071699,-0.00002140,0.00002089,
 -0.00020585,-0.00015928,-0.00073012,-0.00033931,-0.00033466,0.00205312
 ,-0.00182396,-0.00059357,-0.00245505,0.00345446,-0.00049529,-0.0039681
 2,0.00147689,0.00500279,0.00874100,0.01237968,0.01116076,-0.08309750,-
 0.06634488,-0.05461071,-0.00000291,-0.00000732,-0.00002858,0.00000649,
 0.00000192,-0.00000653,0.00001289,-0.00001426,0.00000164,-0.00000147,-
 0.00000400,0.00000152,0.00002725,-0.00001584,-0.00002317,-0.00098745,0
 .00050342,-0.00050350,-0.00000214,0.00000889,0.00000322,0.00005515,-0.
 00005406,0.00003038,0.00022177,-0.00024341,-0.00002134,0.00009828,-0.0
 0001885,0.00000928,-0.00008539,-0.00011624,-0.00010126,0.00060088,0.00
 106838,0.00054807,-0.00099629,-0.00148124,-0.00080875,0.00009022,0.000
 15237,-0.00017067,0.00059790,-0.00090182,-0.00030951,0.10538675,0.0000
 0482,-0.00002216,-0.00012774,-0.00019073,0.00034980,0.00027297,-0.0000
 5035,-0.00008823,0.00003206,-0.00626435,-0.00225264,-0.00095753,0.0004
 1654,-0.00059541,-0.00101934,0.00009240,0.00023135,0.00016078,0.000380
 87,0.00034820,-0.00014340,0.00029524,0.00199051,0.00101886,0.00429175,
 -0.00334645,0.00181828,0.00066379,0.00160537,0.00175091,-0.01232767,-0
 .02075288,-0.01784507,-0.07280166,-0.18824880,-0.11102887,0.00001313,0
 .00001246,0.00001151,-0.00000671,0.00001676,0.00001530,-0.00002564,0.0
 0002966,0.00001796,0.00000071,0.00000568,0.00000844,-0.00002360,0.0000
 1963,0.00002511,0.00059412,0.00015932,0.00058666,0.00002693,0.00001489
 ,-0.00001938,0.00006794,-0.00004126,0.00000910,-0.00010789,-0.00002285
 ,-0.00001808,-0.00007710,-0.00000142,0.00007902,0.00003388,0.00012854,
 -0.00011564,-0.00077779,-0.00130101,-0.00096823,-0.00008940,-0.0000588
 2,-0.00023435,-0.00003155,-0.00005731,-0.00028759,-0.00040987,0.001258
 52,0.00031768,0.08183052,0.20226010,-0.00001636,0.00001903,-0.00003777
 ,-0.00004515,0.00016956,0.00017927,0.00000197,0.00000366,-0.00000129,0
 .00757835,0.01088919,0.00907523,-0.00000324,-0.00035835,-0.00052057,0.
 00008192,-0.00006429,-0.00000179,0.00023718,0.00020487,-0.00000687,0.0
 0067713,-0.00018301,-0.00010321,-0.00006685,-0.00005263,0.00074691,0.0
 0171202,0.00058963,-0.00023390,0.00081468,0.00415485,0.00226666,-0.063
 70230,-0.11525351,-0.14634986,0.00000109,0.00000694,0.00000304,-0.0000
 0203,0.00000719,0.00000718,-0.00000526,0.00001141,0.00001186,-0.000001
 21,0.00000446,0.00000660,0.00000184,-0.00000017,0.00000184,-0.00052968
 ,0.00030382,0.00014066,-0.00000519,0.00001449,-0.00000561,0.00001032,0
 .00001841,-0.00001156,-0.00010133,0.00003414,-0.00002603,0.00000018,-0
 .00002487,-0.00000367,0.00009594,0.00030162,0.00041033,-0.00019295,-0.
 00010104,0.00024200,0.00024591,0.00010064,0.00044244,0.00021757,0.0000
 8592,0.00049177,0.00063055,-0.00037749,0.00055210,0.06325663,0.1209448
 8,0.14836927,0.00004097,-0.00008098,-0.00008483,-0.00029214,0.00005616
 ,0.00016144,-0.00001697,-0.00003087,0.00000112,-0.01642697,-0.01550509
 ,0.03805131,0.00014925,-0.00006373,-0.00029832,-0.00003855,0.00007122,
 -0.00000556,-0.00040561,-0.00023061,-0.00050013,0.00193004,-0.00068123
 ,-0.00031315,0.00026842,-0.00114554,-0.00011387,0.00333178,0.00244487,
 0.00534889,-0.00084532,0.00673161,-0.01744934,-0.04864310,0.00310520,-
 0.01850669,-0.00000632,0.00002103,0.00001834,0.00000863,0.00000597,0.0
 0001067,-0.00001361,0.00001589,0.00000645,0.00000423,0.00000356,0.0000
 0066,-0.00001125,0.00000462,0.00001098,0.00012072,0.00008481,0.0001006
 6,-0.00001090,-0.00000865,0.00000164,0.00003291,-0.00002443,0.00001299
 ,0.00020603,-0.00020783,-0.00010721,-0.00010480,0.00009672,-0.00004634
 ,0.00016428,-0.00001165,0.00051317,-0.00009127,-0.00014273,0.00018462,
 0.00003507,0.00023055,-0.00025144,0.00033110,0.00054559,-0.00137160,-0
 .00173148,0.00309329,0.00042001,0.00099396,0.00448291,-0.01088954,0.06
 103147,-0.00003574,0.00005537,-0.00000255,-0.00003827,0.00016261,-0.00
 011149,-0.00000100,-0.00000175,0.00001112,-0.00549499,0.00083312,0.004
 14533,-0.00006057,-0.00008044,-0.00016878,0.00004083,0.00003485,0.0000
 3638,-0.00008335,-0.00025874,-0.00015686,-0.00160305,0.00151703,-0.001
 40380,-0.00017350,0.00155919,0.00136106,0.00035448,0.00014871,0.002235
 10,0.00385694,-0.01174232,0.03008632,0.00395672,-0.07555849,0.06765645
 ,0.00000336,-0.00000807,-0.00001137,-0.00000989,-0.00000235,0.00000080
 ,0.00000087,0.00000302,0.00000807,-0.00000528,0.00000186,0.00000052,0.
 00000244,0.00000018,-0.00000067,-0.00002021,0.00001458,0.00005725,0.00
 001495,0.00000044,-0.00000118,0.00002722,-0.00001484,0.00001354,-0.000
 03333,-0.00002349,-0.00003262,0.00005305,0.00009985,-0.00008166,-0.000
 02306,-0.00034902,-0.00072911,0.00008240,0.00036093,-0.00040983,0.0000
 1948,0.00002451,-0.00020651,-0.00008645,-0.00010532,-0.00021533,0.0027
 5147,-0.00417786,-0.00001541,-0.00064225,0.00835953,-0.02144876,-0.002
 85583,0.07914775,0.00003864,-0.00004006,-0.00004440,-0.00005726,0.0001
 6794,0.00004430,-0.00001744,-0.00004109,0.00000750,0.01387626,0.005527
 09,-0.01199045,0.00027969,-0.00012348,0.00000730,-0.00004762,0.0000770
 3,-0.00000104,0.00030852,0.00003130,0.00010158,-0.00140850,-0.00072665
 ,0.00132458,0.00015037,-0.00063275,0.00073445,-0.00193625,-0.00220688,
 0.00135768,0.00041797,0.00069188,-0.00515203,-0.01586486,0.06991162,-0
 .27169955,0.00000875,0.00000695,0.00000813,-0.00000932,-0.00000361,0.0
 0000472,-0.00001462,0.00001085,0.00000011,0.00000038,0.00000268,-0.000
 00696,-0.00001722,0.00000693,0.00001287,0.00010331,0.00008610,0.000093
 49,-0.00001649,-0.00001481,0.00000600,-0.00004162,0.00000064,-0.000009
 29,0.00000965,0.00013949,0.00001098,-0.00014077,-0.00001827,-0.0001842
 6,0.00040491,0.00037816,0.00046474,-0.00010119,0.00001186,0.00019398,0
 .00020779,-0.00002289,0.00047736,0.00074327,0.00110621,0.00065906,-0.0
 0000111,0.00059481,0.00084625,-0.00195279,0.00569436,-0.01564602,0.005
 08860,-0.08061424,0.29837802,-0.00998683,0.01812469,0.01252735,-0.0054
 3737,-0.00145556,0.00405211,-0.00650365,0.00706203,0.00635043,-0.00008
 732,0.00001162,-0.00000041,0.00144176,-0.00133000,0.00079239,0.0003595
 1,0.00138922,-0.00219967,0.00000432,-0.00001873,-0.00002735,-0.0005920
 7,-0.00006926,-0.00030090,-0.00004298,0.00002641,0.00003072,0.00001846
 ,0.00001206,0.00002639,0.00028604,0.00007216,-0.00009932,0.00003263,-0
 .00004214,0.00000448,-0.11080404,0.07987082,0.07667237,0.00059990,0.00
 016229,-0.00102459,0.00072177,-0.00022335,-0.00001104,0.00015192,-0.00
 036291,0.00027433,0.00042667,-0.00024556,-0.00028772,-0.00005442,0.000
 12331,-0.00008150,-0.00003726,0.00020188,0.00026487,-0.00015240,0.0003
 7528,0.00052986,-0.00001648,-0.00000437,0.00000072,-0.00000089,0.00000
 079,0.00000301,-0.00000159,-0.00000295,-0.00000823,0.00000386,-0.00000
 531,0.00000129,-0.00000711,-0.00000084,-0.00000122,0.00000024,-0.00000
 066,-0.00000551,0.00001041,0.00001240,0.00000183,0.00001124,-0.0000101
 3,-0.00000218,-0.00001135,0.00000386,-0.00000816,0.11832495,-0.0062352
 7,0.01141463,0.00895572,-0.00453566,0.00046345,0.00311070,0.01169596,-
 0.01551440,-0.01608992,0.00003193,-0.00000293,0.00000163,-0.00042770,-
 0.00132654,0.00103999,0.00179255,-0.00318456,0.00458601,0.00000071,0.0
 0001023,0.00001383,0.00013466,0.00018399,-0.00024921,0.00003209,-0.000
 00436,-0.00002084,-0.00000600,-0.00000342,-0.00000899,-0.00009347,0.00
 001997,0.00006747,-0.00001708,0.00001910,-0.00001042,0.08132218,-0.156
 17017,-0.10283193,0.00053283,0.00056008,-0.00069292,0.00101693,0.00027
 149,-0.00030366,-0.00020480,0.00114442,0.00010546,-0.00077172,0.000561
 67,-0.00039737,0.00002796,0.00025863,-0.00019302,-0.00030317,0.0002378
 8,0.00020279,0.00129720,-0.00078552,-0.00105552,0.00000755,0.00000166,
 -0.00000073,0.00000039,-0.00000011,-0.00000126,-0.00000056,-0.00000192
 ,0.00000076,-0.00000060,0.00000094,0.00000076,0.00000262,-0.00000006,0
 .00000058,-0.00000024,-0.00000008,0.00000197,0.00002762,0.00000260,-0.
 00001578,-0.00000971,0.00000028,0.00000052,-0.00000274,-0.00000011,0.0
 0000110,-0.09035817,0.16900279,0.00371204,-0.01145158,-0.00893893,0.00
 516998,0.00082643,-0.00136524,-0.01055037,0.01254744,0.01252107,0.0000
 4318,-0.00000713,-0.00000124,-0.00078545,0.00139354,-0.00119229,-0.001
 35048,0.00304965,-0.00181476,-0.00000343,0.00000592,0.00001212,0.00037
 592,-0.00010245,0.00032708,0.00001375,-0.00001025,-0.00001176,-0.00000
 893,-0.00000477,-0.00001287,-0.00015273,-0.00005589,0.00003122,-0.0000
 1188,0.00001945,0.00000339,0.07850173,-0.10276906,-0.14350855,-0.00000
 805,0.00019259,0.00062988,-0.00058625,0.00013322,0.00006452,0.00034437
 ,-0.00083029,0.00084370,0.00053783,-0.00084159,0.00058759,-0.00000047,
 -0.00022311,0.00007812,0.00001840,0.00014825,0.00010403,-0.00062310,0.
 00073708,0.00060930,0.00000763,0.00000231,-0.00000014,0.00000041,-0.00
 000070,-0.00000172,0.00000145,0.00000248,0.00000471,-0.00000208,-0.000
 00001,-0.00000023,0.00000375,-0.00000017,0.00000041,-0.00000041,0.0000
 0009,0.00000285,-0.00002068,-0.00000496,0.00000801,0.00000040,0.000005
 33,0.00000102,0.00000916,-0.00000270,0.00000414,-0.08532247,0.10982358
 ,0.15380828,-0.01840890,-0.01111120,-0.01742958,0.00246212,0.00112613,
 -0.00039116,-0.00784407,-0.00356397,-0.00832327,-0.00003560,0.00001056
 ,0.00000162,-0.00028643,-0.00004932,-0.00009134,0.00004224,-0.00073008
 ,-0.00023728,0.00000201,0.00000280,-0.00001081,-0.00006093,0.00018315,
 0.00007152,0.00000112,-0.00001679,0.00001483,0.00000402,-0.00000073,0.
 00000958,0.00015703,0.00004251,-0.00003390,0.00000458,-0.00002288,0.00
 001473,-0.15553884,-0.05572999,-0.11251981,-0.00279279,-0.00246141,0.0
 0277083,0.00118184,0.00054730,0.00030565,0.00012880,0.00189374,-0.0011
 2321,0.00066040,0.00021424,0.00032534,-0.00008501,0.00000962,0.0000087
 0,-0.00024367,0.00037766,0.00024116,0.00018552,0.00012314,0.00014585,-
 0.00000548,-0.00000190,0.00000002,-0.00000119,-0.00000021,0.00000191,-
 0.00000008,0.00000261,-0.00000173,-0.00000441,0.00001200,-0.00000365,-
 0.00000358,0.00000148,-0.00000022,0.00000014,-0.00000015,-0.00000206,-
 0.00001169,-0.00000399,0.00001485,0.00000235,-0.00000113,-0.00000001,0
 .00000077,-0.00000129,-0.00000288,0.01134208,0.00504373,0.01068679,0.1
 6914768,-0.01193525,-0.00915622,-0.01332388,0.00145745,0.00168997,0.00
 069964,0.01784757,0.00820502,0.01896300,-0.00002587,0.00000516,0.00000
 098,0.00019150,-0.00050069,0.00034203,-0.00028008,0.00155967,0.0005222
 9,0.00000072,-0.00000039,-0.00000973,-0.00026145,0.00021586,-0.0001212
 3,-0.00000645,-0.00001456,0.00001680,0.00000292,-0.00000040,0.00000786
 ,0.00014295,0.00001012,-0.00011051,0.00000667,-0.00001064,0.00000714,-
 0.05690822,-0.07880487,-0.06218411,-0.00276444,-0.00066529,0.00251212,
 0.00059664,0.00035569,-0.00035268,0.00250356,-0.00359960,0.00279219,-0
 .00068887,0.00115137,-0.00065288,-0.00001660,0.00008717,-0.00006653,-0
 .00026831,-0.00020800,-0.00035899,-0.00038320,0.00003183,-0.00003753,-
 0.00000524,-0.00000191,0.00000037,-0.00000120,-0.00000008,0.00000145,-
 0.00000200,0.00000361,-0.00000187,-0.00000178,0.00000878,-0.00000211,-
 0.00000290,0.00000108,-0.00000002,0.00000016,-0.00000003,-0.00000188,0
 .00001609,-0.00000005,0.00000452,0.00000224,-0.00000138,-0.00000108,-0
 .00000211,-0.00000071,-0.00000226,-0.01331887,-0.00715967,-0.01258267,
 0.06410440,0.08679916,0.01241351,0.00655821,0.01091757,-0.00200554,0.0
 0052217,0.00109546,-0.01201317,-0.00548942,-0.01463362,-0.00003477,0.0
 0000466,-0.00000028,0.00021733,0.00003968,0.00008771,0.00089948,-0.000
 74839,0.00062591,0.00000149,-0.00001222,-0.00000843,-0.00027378,-0.000
 17321,-0.00002490,-0.00001685,0.00002266,0.00000725,0.00000867,0.00000
 609,0.00000901,0.00010954,0.00004659,-0.00001415,0.00001285,-0.0000180
 9,0.00000251,-0.11419430,-0.06322446,-0.16938140,0.00300425,0.00142109
 ,-0.00069692,-0.00073987,-0.00057513,0.00092558,-0.00120376,0.00357927
 ,-0.00080535,0.00051066,-0.00027895,0.00040226,-0.00010128,-0.00004839
 ,0.00003147,-0.00021716,0.00029779,0.00055412,0.00023623,0.00018417,0.
 00012960,-0.00000597,-0.00000161,0.00000047,-0.00000052,0.00000031,0.0
 0000117,0.00000006,-0.00000178,-0.00000024,0.00000075,-0.00000983,0.00
 000005,-0.00000234,-0.00000103,-0.00000037,0.00000024,-0.00000040,-0.0
 0000176,-0.00001229,0.00000499,0.00001108,0.00000356,-0.00000400,-0.00
 000003,-0.00000269,0.00000095,-0.00000324,-0.01215188,-0.00604130,-0.0
 1279375,0.12555753,0.06393959,0.18356325\\-0.00000878,0.00001275,0.000
 02067,-0.00163401,0.00011570,0.00155919,0.00000006,0.00000102,0.000002
 90,-0.00000694,-0.00000678,-0.00000247,0.00247444,-0.00109763,-0.00191
 336,0.00000942,0.00000574,-0.00000256,0.00000103,-0.00000310,0.0000014
 8,-0.00143971,0.00314969,-0.00013679,-0.00000620,-0.00000025,0.0000052
 7,0.00000544,0.00000692,0.00000727,0.00060861,-0.00218639,0.00047360,0
 .00000347,0.00000262,0.00000418,0.00000153,0.00000469,0.00000181,0.000
 00117,-0.00000295,-0.00000297,0.00000227,-0.00000557,0.00000059,-0.000
 00054,0.00000001,0.00000072,0.00000069,-0.00000041,0.00000017,-0.00000
 429,0.00000497,0.,-0.00000132,-0.00000088,-0.00000003,-0.00000420,0.00
 000122,0.00000126,-0.00000077,0.00000069,-0.00000444,0.00000052,0.0000
 0033,-0.00000224,0.00000171,0.00000097,-0.00000345,0.00000105,-0.00000
 128,-0.00000153,-0.00000323,-0.00000100,-0.00000363,-0.00000024,-0.000
 00067,-0.00000687,-0.00000240,0.00000133,0.00000522,0.00000197,0.00000
 315,-0.00000248,0.00000012,0.00000030,-0.00000488,-0.00000134,-0.00000
 486,0.00000219,0.00000046,-0.00000034,0.00000121\\\@


 NOT WHAT WE DID SHALL BE THE TEST
 WHEN ACT AND WILL ARE DONE,
 BUT WHAT OUR LORD INFERS WE WOULD-
 HAD WE DIVINER BEEN.
           EMILY DICKINSON  POEMS NO. CLXXV
 Job cpu time:       0 days 15 hours 59 minutes 34.1 seconds.
 Elapsed time:       0 days  0 hours 59 minutes 60.0 seconds.
 File lengths (MBytes):  RWF=    691 Int=      0 D2E=      0 Chk=     33 Scr=      1
 Normal termination of Gaussian 16 at Sun Nov  4 22:57:31 2018.
