 Entering Gaussian System, Link 0=g16
 Initial command:
 /apps/gaussian/g16a03/g16/l1.exe "/jobfs/local/2012049.r-man2/Gau-28918.inp" -scrdir="/jobfs/local/2012049.r-man2/"
 Entering Link 1 = /apps/gaussian/g16a03/g16/l1.exe PID=     28919.
  
 Copyright (c) 1988,1990,1992,1993,1995,1998,2003,2009,2016,
            Gaussian, Inc.  All Rights Reserved.
  
 This is part of the Gaussian(R) 16 program.  It is based on
 the Gaussian(R) 09 system (copyright 2009, Gaussian, Inc.),
 the Gaussian(R) 03 system (copyright 2003, Gaussian, Inc.),
 the Gaussian(R) 98 system (copyright 1998, Gaussian, Inc.),
 the Gaussian(R) 94 system (copyright 1995, Gaussian, Inc.),
 the Gaussian 92(TM) system (copyright 1992, Gaussian, Inc.),
 the Gaussian 90(TM) system (copyright 1990, Gaussian, Inc.),
 the Gaussian 88(TM) system (copyright 1988, Gaussian, Inc.),
 the Gaussian 86(TM) system (copyright 1986, Carnegie Mellon
 University), and the Gaussian 82(TM) system (copyright 1983,
 Carnegie Mellon University). Gaussian is a federally registered
 trademark of Gaussian, Inc.
  
 This software contains proprietary and confidential information,
 including trade secrets, belonging to Gaussian, Inc.
  
 This software is provided under written license and may be
 used, copied, transmitted, or stored only in accord with that
 written license.
  
 The following legend is applicable only to US Government
 contracts under FAR:
  
                    RESTRICTED RIGHTS LEGEND
  
 Use, reproduction and disclosure by the US Government is
 subject to restrictions as set forth in subparagraphs (a)
 and (c) of the Commercial Computer Software - Restricted
 Rights clause in FAR 52.227-19.
  
 Gaussian, Inc.
 340 Quinnipiac St., Bldg. 40, Wallingford CT 06492
  
  
 ---------------------------------------------------------------
 Warning -- This program may not be used in any manner that
 competes with the business of Gaussian, Inc. or will provide
 assistance to any competitor of Gaussian, Inc.  The licensee
 of this program is prohibited from giving any competitor of
 Gaussian, Inc. access to this program.  By using this program,
 the user acknowledges that Gaussian, Inc. is engaged in the
 business of creating and licensing software in the field of
 computational chemistry and represents and warrants to the
 licensee that it is not a competitor of Gaussian, Inc. and that
 it will not use this program in any manner prohibited above.
 ---------------------------------------------------------------
  

 Cite this work as:
 Gaussian 16, Revision A.03,
 M. J. Frisch, G. W. Trucks, H. B. Schlegel, G. E. Scuseria, 
 M. A. Robb, J. R. Cheeseman, G. Scalmani, V. Barone, 
 G. A. Petersson, H. Nakatsuji, X. Li, M. Caricato, A. V. Marenich, 
 J. Bloino, B. G. Janesko, R. Gomperts, B. Mennucci, H. P. Hratchian, 
 J. V. Ortiz, A. F. Izmaylov, J. L. Sonnenberg, D. Williams-Young, 
 F. Ding, F. Lipparini, F. Egidi, J. Goings, B. Peng, A. Petrone, 
 T. Henderson, D. Ranasinghe, V. G. Zakrzewski, J. Gao, N. Rega, 
 G. Zheng, W. Liang, M. Hada, M. Ehara, K. Toyota, R. Fukuda, 
 J. Hasegawa, M. Ishida, T. Nakajima, Y. Honda, O. Kitao, H. Nakai, 
 T. Vreven, K. Throssell, J. A. Montgomery, Jr., J. E. Peralta, 
 F. Ogliaro, M. J. Bearpark, J. J. Heyd, E. N. Brothers, K. N. Kudin, 
 V. N. Staroverov, T. A. Keith, R. Kobayashi, J. Normand, 
 K. Raghavachari, A. P. Rendell, J. C. Burant, S. S. Iyengar, 
 J. Tomasi, M. Cossi, J. M. Millam, M. Klene, C. Adamo, R. Cammi, 
 J. W. Ochterski, R. L. Martin, K. Morokuma, O. Farkas, 
 J. B. Foresman, and D. J. Fox, Gaussian, Inc., Wallingford CT, 2016.
 
 ******************************************
 Gaussian 16:  ES64L-G16RevA.03 25-Dec-2016
                 4-Nov-2018 
 ******************************************
 %mem=6000mb
 %nproc=24
 Will use up to   24 processors via shared memory.
 %chk=L_a1-e4_D_PHI.inp_extract_21.chk
 ----------------------------------------------------------------------
 #M062X/6-311++G(2d,2p) opt=ModRedundant freq=noraman SCRF=(Solvent=Wat
 er)
 ----------------------------------------------------------------------
 1/18=120,19=15,26=3,38=1/1,3;
 2/9=110,12=2,17=6,18=5,40=1/2;
 3/5=4,6=6,7=1212,11=2,25=1,30=1,70=2201,71=1,72=1,74=-55/1,2,3;
 4//1;
 5/5=2,38=5,53=1/2;
 6/7=2,8=2,9=2,10=2,28=1/1;
 7//1,2,3,16;
 1/18=20,19=15,26=3/3(2);
 2/9=110/2;
 99//99;
 2/9=110/2;
 3/5=4,6=6,7=1212,11=2,25=1,30=1,70=2205,71=1,72=1,74=-55/1,2,3;
 4/5=5,16=3,69=1/1;
 5/5=2,38=5,53=1/2;
 7//1,2,3,16;
 1/18=20,19=15,26=3/3(-5);
 2/9=110/2;
 6/7=2,8=2,9=2,10=2,19=2,28=1/1;
 99/9=1/99;
 ----------------------------
 L_a1-e4_D_PHI.inp_extract_21
 ----------------------------
 Symbolic Z-matrix:
 Charge =  0 Multiplicity = 1
 C                    -2.63728   1.09616   0.91258 
 O                    -1.83302   1.3232   -0.23859 
 C                    -3.11415  -1.21606   0.09586 
 O                     3.24884  -1.20938   0.22189 
 C                    -1.21024   0.19299  -0.78836 
 C                    -2.22593  -0.89509  -1.10674 
 C                     3.21062   1.11996  -0.43227 
 O                    -0.23913  -0.2963    0.09901 
 C                     1.70252   1.16596  -0.17232 
 C                     3.86458   0.05007   0.42691 
 C                     1.11112  -0.23182  -0.31972 
 C                     1.87643  -1.22233   0.54626 
 C                    -3.72784   0.07475   0.63749 
 H                    -2.00627   0.77121   1.73295 
 H                    -3.05274   2.06064   1.16943 
 H                    -2.52865  -1.69752   0.87484 
 H                    -3.89073  -1.91645  -0.19553 
 H                    -0.73189   0.54197  -1.69055 
 H                    -2.84269  -0.53771  -1.92722 
 H                    -1.69504  -1.77439  -1.45654 
 H                     3.66268   2.08283  -0.21426 
 H                     3.4015    0.90097  -1.4799 
 H                     1.51388   1.51521   0.84035 
 H                     1.2181    1.85891  -0.8527 
 H                     4.90813  -0.07815   0.17422 
 H                     3.79549   0.30987   1.48082 
 H                     1.17787  -0.55439  -1.35443 
 H                     1.52143  -2.22974   0.37844 
 H                     1.74311  -0.97579   1.59704 
 H                    -4.27984  -0.10863   1.55496 
 H                    -4.42691   0.48349  -0.08847 
 
 The following ModRedundant input section has been read:
 D       2       5       8      11 F                                           
 

 GradGradGradGradGradGradGradGradGradGradGradGradGradGradGradGradGradGrad
 Berny optimization.
 Initialization pass.
                           ----------------------------
                           !    Initial Parameters    !
                           ! (Angstroms and Degrees)  !
 --------------------------                            --------------------------
 ! Name  Definition              Value          Derivative Info.                !
 --------------------------------------------------------------------------------
 ! R1    R(1,2)                  1.4225         estimate D2E/DX2                !
 ! R2    R(1,13)                 1.5193         estimate D2E/DX2                !
 ! R3    R(1,14)                 1.0848         estimate D2E/DX2                !
 ! R4    R(1,15)                 1.0811         estimate D2E/DX2                !
 ! R5    R(2,5)                  1.4027         estimate D2E/DX2                !
 ! R6    R(3,6)                  1.5291         estimate D2E/DX2                !
 ! R7    R(3,13)                 1.5285         estimate D2E/DX2                !
 ! R8    R(3,16)                 1.0869         estimate D2E/DX2                !
 ! R9    R(3,17)                 1.0856         estimate D2E/DX2                !
 ! R10   R(4,10)                 1.4168         estimate D2E/DX2                !
 ! R11   R(4,12)                 1.4103         estimate D2E/DX2                !
 ! R12   R(5,6)                  1.5221         estimate D2E/DX2                !
 ! R13   R(5,8)                  1.4035         estimate D2E/DX2                !
 ! R14   R(5,18)                 1.0791         estimate D2E/DX2                !
 ! R15   R(6,19)                 1.0869         estimate D2E/DX2                !
 ! R16   R(6,20)                 1.0851         estimate D2E/DX2                !
 ! R17   R(7,9)                  1.531          estimate D2E/DX2                !
 ! R18   R(7,10)                 1.52           estimate D2E/DX2                !
 ! R19   R(7,21)                 1.0858         estimate D2E/DX2                !
 ! R20   R(7,22)                 1.0872         estimate D2E/DX2                !
 ! R21   R(8,11)                 1.4152         estimate D2E/DX2                !
 ! R22   R(9,11)                 1.5249         estimate D2E/DX2                !
 ! R23   R(9,23)                 1.0877         estimate D2E/DX2                !
 ! R24   R(9,24)                 1.0852         estimate D2E/DX2                !
 ! R25   R(10,25)                1.0813         estimate D2E/DX2                !
 ! R26   R(10,26)                1.0877         estimate D2E/DX2                !
 ! R27   R(11,12)                1.5221         estimate D2E/DX2                !
 ! R28   R(11,27)                1.0859         estimate D2E/DX2                !
 ! R29   R(12,28)                1.0812         estimate D2E/DX2                !
 ! R30   R(12,29)                1.0875         estimate D2E/DX2                !
 ! R31   R(13,30)                1.0863         estimate D2E/DX2                !
 ! R32   R(13,31)                1.0876         estimate D2E/DX2                !
 ! A1    A(2,1,13)             111.5063         estimate D2E/DX2                !
 ! A2    A(2,1,14)             109.3255         estimate D2E/DX2                !
 ! A3    A(2,1,15)             105.4948         estimate D2E/DX2                !
 ! A4    A(13,1,14)            110.6758         estimate D2E/DX2                !
 ! A5    A(13,1,15)            111.5262         estimate D2E/DX2                !
 ! A6    A(14,1,15)            108.1254         estimate D2E/DX2                !
 ! A7    A(1,2,5)              116.0784         estimate D2E/DX2                !
 ! A8    A(6,3,13)             109.5512         estimate D2E/DX2                !
 ! A9    A(6,3,16)             110.1043         estimate D2E/DX2                !
 ! A10   A(6,3,17)             109.8681         estimate D2E/DX2                !
 ! A11   A(13,3,16)            109.6573         estimate D2E/DX2                !
 ! A12   A(13,3,17)            110.6553         estimate D2E/DX2                !
 ! A13   A(16,3,17)            106.9733         estimate D2E/DX2                !
 ! A14   A(10,4,12)            113.4411         estimate D2E/DX2                !
 ! A15   A(2,5,6)              111.2043         estimate D2E/DX2                !
 ! A16   A(2,5,8)              109.8951         estimate D2E/DX2                !
 ! A17   A(2,5,18)             105.3022         estimate D2E/DX2                !
 ! A18   A(6,5,8)              110.166          estimate D2E/DX2                !
 ! A19   A(6,5,18)             110.6145         estimate D2E/DX2                !
 ! A20   A(8,5,18)             109.549          estimate D2E/DX2                !
 ! A21   A(3,6,5)              111.9098         estimate D2E/DX2                !
 ! A22   A(3,6,19)             109.4568         estimate D2E/DX2                !
 ! A23   A(3,6,20)             111.5696         estimate D2E/DX2                !
 ! A24   A(5,6,19)             107.5488         estimate D2E/DX2                !
 ! A25   A(5,6,20)             108.6769         estimate D2E/DX2                !
 ! A26   A(19,6,20)            107.502          estimate D2E/DX2                !
 ! A27   A(9,7,10)             110.4238         estimate D2E/DX2                !
 ! A28   A(9,7,21)             110.4485         estimate D2E/DX2                !
 ! A29   A(9,7,22)             110.0363         estimate D2E/DX2                !
 ! A30   A(10,7,21)            109.3634         estimate D2E/DX2                !
 ! A31   A(10,7,22)            109.1083         estimate D2E/DX2                !
 ! A32   A(21,7,22)            107.3976         estimate D2E/DX2                !
 ! A33   A(5,8,11)             117.2073         estimate D2E/DX2                !
 ! A34   A(7,9,11)             109.7597         estimate D2E/DX2                !
 ! A35   A(7,9,23)             109.789          estimate D2E/DX2                !
 ! A36   A(7,9,24)             110.6358         estimate D2E/DX2                !
 ! A37   A(11,9,23)            108.4853         estimate D2E/DX2                !
 ! A38   A(11,9,24)            110.5836         estimate D2E/DX2                !
 ! A39   A(23,9,24)            107.5331         estimate D2E/DX2                !
 ! A40   A(4,10,7)             110.9108         estimate D2E/DX2                !
 ! A41   A(4,10,25)            106.2718         estimate D2E/DX2                !
 ! A42   A(4,10,26)            108.9617         estimate D2E/DX2                !
 ! A43   A(7,10,25)            111.5042         estimate D2E/DX2                !
 ! A44   A(7,10,26)            110.6243         estimate D2E/DX2                !
 ! A45   A(25,10,26)           108.4244         estimate D2E/DX2                !
 ! A46   A(8,11,9)             112.5327         estimate D2E/DX2                !
 ! A47   A(8,11,12)            106.3644         estimate D2E/DX2                !
 ! A48   A(8,11,27)            109.0904         estimate D2E/DX2                !
 ! A49   A(9,11,12)            110.2745         estimate D2E/DX2                !
 ! A50   A(9,11,27)            109.9114         estimate D2E/DX2                !
 ! A51   A(12,11,27)           108.5369         estimate D2E/DX2                !
 ! A52   A(4,12,11)            110.6382         estimate D2E/DX2                !
 ! A53   A(4,12,28)            106.9997         estimate D2E/DX2                !
 ! A54   A(4,12,29)            109.843          estimate D2E/DX2                !
 ! A55   A(11,12,28)           110.6674         estimate D2E/DX2                !
 ! A56   A(11,12,29)           109.9111         estimate D2E/DX2                !
 ! A57   A(28,12,29)           108.7199         estimate D2E/DX2                !
 ! A58   A(1,13,3)             110.1034         estimate D2E/DX2                !
 ! A59   A(1,13,30)            108.9846         estimate D2E/DX2                !
 ! A60   A(1,13,31)            109.2441         estimate D2E/DX2                !
 ! A61   A(3,13,30)            111.146          estimate D2E/DX2                !
 ! A62   A(3,13,31)            109.8126         estimate D2E/DX2                !
 ! A63   A(30,13,31)           107.4922         estimate D2E/DX2                !
 ! D1    D(13,1,2,5)           -57.0008         estimate D2E/DX2                !
 ! D2    D(14,1,2,5)            65.7065         estimate D2E/DX2                !
 ! D3    D(15,1,2,5)          -178.2324         estimate D2E/DX2                !
 ! D4    D(2,1,13,3)            54.6903         estimate D2E/DX2                !
 ! D5    D(2,1,13,30)          176.8422         estimate D2E/DX2                !
 ! D6    D(2,1,13,31)          -65.9784         estimate D2E/DX2                !
 ! D7    D(14,1,13,3)          -67.2401         estimate D2E/DX2                !
 ! D8    D(14,1,13,30)          54.9118         estimate D2E/DX2                !
 ! D9    D(14,1,13,31)         172.0912         estimate D2E/DX2                !
 ! D10   D(15,1,13,3)          172.3421         estimate D2E/DX2                !
 ! D11   D(15,1,13,30)         -65.506          estimate D2E/DX2                !
 ! D12   D(15,1,13,31)          51.6734         estimate D2E/DX2                !
 ! D13   D(1,2,5,6)             54.9349         estimate D2E/DX2                !
 ! D14   D(1,2,5,8)            -67.3174         estimate D2E/DX2                !
 ! D15   D(1,2,5,18)           174.7813         estimate D2E/DX2                !
 ! D16   D(13,3,6,5)            52.2901         estimate D2E/DX2                !
 ! D17   D(13,3,6,19)          -66.8376         estimate D2E/DX2                !
 ! D18   D(13,3,6,20)          174.3055         estimate D2E/DX2                !
 ! D19   D(16,3,6,5)           -68.382          estimate D2E/DX2                !
 ! D20   D(16,3,6,19)          172.4903         estimate D2E/DX2                !
 ! D21   D(16,3,6,20)           53.6333         estimate D2E/DX2                !
 ! D22   D(17,3,6,5)           174.0492         estimate D2E/DX2                !
 ! D23   D(17,3,6,19)           54.9215         estimate D2E/DX2                !
 ! D24   D(17,3,6,20)          -63.9355         estimate D2E/DX2                !
 ! D25   D(6,3,13,1)           -53.1514         estimate D2E/DX2                !
 ! D26   D(6,3,13,30)         -174.0153         estimate D2E/DX2                !
 ! D27   D(6,3,13,31)           67.175          estimate D2E/DX2                !
 ! D28   D(16,3,13,1)           67.7918         estimate D2E/DX2                !
 ! D29   D(16,3,13,30)         -53.0721         estimate D2E/DX2                !
 ! D30   D(16,3,13,31)        -171.8819         estimate D2E/DX2                !
 ! D31   D(17,3,13,1)         -174.4366         estimate D2E/DX2                !
 ! D32   D(17,3,13,30)          64.6995         estimate D2E/DX2                !
 ! D33   D(17,3,13,31)         -54.1103         estimate D2E/DX2                !
 ! D34   D(12,4,10,7)          -60.3338         estimate D2E/DX2                !
 ! D35   D(12,4,10,25)         178.3129         estimate D2E/DX2                !
 ! D36   D(12,4,10,26)          61.6706         estimate D2E/DX2                !
 ! D37   D(10,4,12,11)          60.8781         estimate D2E/DX2                !
 ! D38   D(10,4,12,28)        -178.4898         estimate D2E/DX2                !
 ! D39   D(10,4,12,29)         -60.6425         estimate D2E/DX2                !
 ! D40   D(2,5,6,3)            -52.0454         estimate D2E/DX2                !
 ! D41   D(2,5,6,19)            68.2024         estimate D2E/DX2                !
 ! D42   D(2,5,6,20)          -175.7033         estimate D2E/DX2                !
 ! D43   D(8,5,6,3)             70.05           estimate D2E/DX2                !
 ! D44   D(8,5,6,19)          -169.7023         estimate D2E/DX2                !
 ! D45   D(8,5,6,20)           -53.608          estimate D2E/DX2                !
 ! D46   D(18,5,6,3)          -168.6849         estimate D2E/DX2                !
 ! D47   D(18,5,6,19)          -48.4372         estimate D2E/DX2                !
 ! D48   D(18,5,6,20)           67.6571         estimate D2E/DX2                !
 ! D49   D(2,5,8,11)          -114.538          Frozen                          !
 ! D50   D(6,5,8,11)           122.5958         estimate D2E/DX2                !
 ! D51   D(18,5,8,11)            0.697          estimate D2E/DX2                !
 ! D52   D(10,7,9,11)          -52.1084         estimate D2E/DX2                !
 ! D53   D(10,7,9,23)           67.0546         estimate D2E/DX2                !
 ! D54   D(10,7,9,24)         -174.4158         estimate D2E/DX2                !
 ! D55   D(21,7,9,11)         -173.2018         estimate D2E/DX2                !
 ! D56   D(21,7,9,23)          -54.0388         estimate D2E/DX2                !
 ! D57   D(21,7,9,24)           64.4908         estimate D2E/DX2                !
 ! D58   D(22,7,9,11)           68.3969         estimate D2E/DX2                !
 ! D59   D(22,7,9,23)         -172.4402         estimate D2E/DX2                !
 ! D60   D(22,7,9,24)          -53.9106         estimate D2E/DX2                !
 ! D61   D(9,7,10,4)            55.0603         estimate D2E/DX2                !
 ! D62   D(9,7,10,25)          173.2849         estimate D2E/DX2                !
 ! D63   D(9,7,10,26)          -65.9682         estimate D2E/DX2                !
 ! D64   D(21,7,10,4)          176.7971         estimate D2E/DX2                !
 ! D65   D(21,7,10,25)         -64.9783         estimate D2E/DX2                !
 ! D66   D(21,7,10,26)          55.7686         estimate D2E/DX2                !
 ! D67   D(22,7,10,4)          -65.9988         estimate D2E/DX2                !
 ! D68   D(22,7,10,25)          52.2257         estimate D2E/DX2                !
 ! D69   D(22,7,10,26)         172.9726         estimate D2E/DX2                !
 ! D70   D(5,8,11,9)            78.391          estimate D2E/DX2                !
 ! D71   D(5,8,11,12)         -160.7568         estimate D2E/DX2                !
 ! D72   D(5,8,11,27)          -43.8689         estimate D2E/DX2                !
 ! D73   D(7,9,11,8)           171.2508         estimate D2E/DX2                !
 ! D74   D(7,9,11,12)           52.6674         estimate D2E/DX2                !
 ! D75   D(7,9,11,27)          -66.9541         estimate D2E/DX2                !
 ! D76   D(23,9,11,8)           51.2902         estimate D2E/DX2                !
 ! D77   D(23,9,11,12)         -67.2932         estimate D2E/DX2                !
 ! D78   D(23,9,11,27)         173.0853         estimate D2E/DX2                !
 ! D79   D(24,9,11,8)          -66.4107         estimate D2E/DX2                !
 ! D80   D(24,9,11,12)         175.0059         estimate D2E/DX2                !
 ! D81   D(24,9,11,27)          55.3844         estimate D2E/DX2                !
 ! D82   D(8,11,12,4)         -178.6965         estimate D2E/DX2                !
 ! D83   D(8,11,12,28)          62.8804         estimate D2E/DX2                !
 ! D84   D(8,11,12,29)         -57.2161         estimate D2E/DX2                !
 ! D85   D(9,11,12,4)          -56.4039         estimate D2E/DX2                !
 ! D86   D(9,11,12,28)        -174.827          estimate D2E/DX2                !
 ! D87   D(9,11,12,29)          65.0765         estimate D2E/DX2                !
 ! D88   D(27,11,12,4)          64.0465         estimate D2E/DX2                !
 ! D89   D(27,11,12,28)        -54.3765         estimate D2E/DX2                !
 ! D90   D(27,11,12,29)       -174.4731         estimate D2E/DX2                !
 --------------------------------------------------------------------------------
 Trust Radius=3.00D-01 FncErr=1.00D-07 GrdErr=1.00D-06 EigMax=2.50D+02 EigMin=1.00D-04
 Number of steps in this run=    186 maximum allowed number of steps=    186.
 GradGradGradGradGradGradGradGradGradGradGradGradGradGradGradGradGradGrad

                          Input orientation:                          
 ---------------------------------------------------------------------
 Center     Atomic      Atomic             Coordinates (Angstroms)
 Number     Number       Type             X           Y           Z
 ---------------------------------------------------------------------
      1          6           0       -2.637275    1.096163    0.912576
      2          8           0       -1.833019    1.323200   -0.238594
      3          6           0       -3.114146   -1.216063    0.095858
      4          8           0        3.248839   -1.209381    0.221891
      5          6           0       -1.210236    0.192985   -0.788358
      6          6           0       -2.225928   -0.895088   -1.106743
      7          6           0        3.210618    1.119962   -0.432269
      8          8           0       -0.239133   -0.296301    0.099013
      9          6           0        1.702524    1.165958   -0.172321
     10          6           0        3.864583    0.050068    0.426905
     11          6           0        1.111121   -0.231821   -0.319719
     12          6           0        1.876425   -1.222331    0.546260
     13          6           0       -3.727841    0.074754    0.637488
     14          1           0       -2.006272    0.771213    1.732948
     15          1           0       -3.052741    2.060641    1.169432
     16          1           0       -2.528650   -1.697516    0.874844
     17          1           0       -3.890729   -1.916451   -0.195525
     18          1           0       -0.731889    0.541965   -1.690547
     19          1           0       -2.842694   -0.537714   -1.927220
     20          1           0       -1.695041   -1.774393   -1.456540
     21          1           0        3.662677    2.082830   -0.214264
     22          1           0        3.401503    0.900970   -1.479896
     23          1           0        1.513884    1.515208    0.840351
     24          1           0        1.218097    1.858906   -0.852700
     25          1           0        4.908134   -0.078148    0.174219
     26          1           0        3.795493    0.309869    1.480816
     27          1           0        1.177867   -0.554392   -1.354431
     28          1           0        1.521430   -2.229738    0.378443
     29          1           0        1.743112   -0.975791    1.597037
     30          1           0       -4.279842   -0.108626    1.554962
     31          1           0       -4.426913    0.483492   -0.088466
 ---------------------------------------------------------------------
                    Distance matrix (angstroms):
                    1          2          3          4          5
     1  C    0.000000
     2  O    1.422521   0.000000
     3  C    2.498164   2.863739   0.000000
     4  O    6.359160   5.696604   6.364237   0.000000
     5  C    2.396945   1.402671   2.528266   4.782320   0.000000
     6  C    2.865648   2.414304   1.529119   5.642439   1.522137
     7  C    6.000586   5.051444   6.763030   2.419757   4.531008
     8  O    2.889970   2.297223   3.018555   3.607598   1.403520
     9  C    4.473894   3.539658   5.380172   2.861595   3.132148
    10  C    6.603359   5.875919   7.100376   1.416822   5.220256
    11  C    4.163240   3.330560   4.358247   2.412220   2.405989
    12  C    5.087543   4.566804   5.010858   1.410285   3.648534
    13  C    1.519304   2.432383   1.528461   7.106039   2.895747
    14  H    1.084789   2.054674   2.802983   5.815689   2.706475
    15  H    1.081113   2.003516   3.448640   7.162457   3.273516
    16  H    2.796045   3.293687   1.086932   5.834724   2.842261
    17  H    3.445994   3.838146   1.085601   7.186628   3.462111
    18  H    3.273206   1.982671   3.457897   4.750876   1.079142
    19  H    3.282711   2.708118   2.150974   6.494351   2.120341
    20  H    3.839350   3.331293   2.176128   5.251506   2.133560
    21  H    6.475544   5.548000   7.543487   3.346662   5.257982
    22  H    6.498374   5.396233   7.029830   2.715321   4.716737
    23  H    4.172881   3.521754   5.425198   3.288761   3.438284
    24  H    4.308349   3.158072   5.396622   3.833151   2.945545
    25  H    7.671856   6.897633   8.102960   2.008786   6.199558
    26  H    6.505510   5.971881   7.210388   2.047399   5.497284
    27  H    4.734867   3.719661   4.578485   2.683790   2.565550
    28  H    5.351798   4.925082   4.753520   2.012357   3.833146
    29  H    4.893799   4.630725   5.089619   2.052512   3.972205
    30  H    2.135931   3.354685   2.171232   7.724622   3.873577
    31  H    2.140153   2.730556   2.155416   7.866340   3.304732
                    6          7          8          9         10
     6  C    0.000000
     7  C    5.837069   0.000000
     8  O    2.399947   3.766808   0.000000
     9  C    4.533629   1.531025   2.445783   0.000000
    10  C    6.351356   1.520041   4.131340   2.505750   0.000000
    11  C    3.492166   2.499574   1.415161   1.524884   2.866786
    12  C    4.434953   2.867739   2.352264   2.500105   2.363476
    13  C    2.497735   7.097820   3.549468   5.597801   7.595384
    14  H    3.299796   5.659128   2.632890   4.188203   6.057453
    15  H    3.821116   6.532992   3.823266   5.021285   7.241762
    16  H    2.159217   6.525789   2.794138   5.215254   6.642901
    17  H    2.155241   7.726900   4.005720   6.386412   8.024929
    18  H    2.153625   4.178601   2.036670   2.936110   5.084596
    19  H    1.086876   6.451771   3.307934   5.161509   7.132668
    20  H    1.085070   5.787220   2.593100   4.673150   6.146986
    21  H    6.658842   1.085817   4.580669   2.164397   2.141024
    22  H    5.918872   1.087160   4.144954   2.160208   2.138777
    23  H    4.856634   2.157472   2.627587   1.087688   2.800600
    24  H    4.417050   2.166320   2.770234   1.085247   3.451546
    25  H    7.294045   2.164453   5.152437   3.455984   1.081336
    26  H    6.663700   2.158292   4.307555   2.801119   1.087657
    27  H    3.429759   2.790326   2.046216   2.152267   3.279782
    28  H    4.246146   3.838112   2.629799   3.444835   3.269592
    29  H    4.803147   3.265553   2.575864   2.778374   2.631014
    30  H    3.452790   7.846369   4.299109   6.355846   8.223707
    31  H    2.789571   7.671713   4.263886   6.167884   8.318796
                   11         12         13         14         15
    11  C    0.000000
    12  C    1.522077   0.000000
    13  C    4.942245   5.753134   0.000000
    14  H    3.864927   4.523028   2.156128   0.000000
    15  H    4.981034   5.955076   2.163902   1.753645   0.000000
    16  H    4.101606   4.442798   2.152983   2.665304   3.805942
    17  H    5.279385   5.855947   2.164565   3.807062   4.287493
    18  H    2.423757   3.862557   3.822795   3.660181   3.983994
    19  H    4.279052   5.371861   2.781426   3.976144   4.047817
    20  H    3.398005   4.131749   3.454935   4.092653   4.842165
    21  H    3.446617   3.833169   7.705687   6.135875   6.856526
    22  H    2.806257   3.307503   7.482880   6.291521   7.072555
    23  H    2.135437   2.777057   5.439829   3.706987   4.610841
    24  H    2.160244   3.447391   5.464994   4.273781   4.729669
    25  H    3.832088   3.261722   8.649743   7.138632   8.303035
    26  H    3.277378   2.627519   7.574103   5.825537   7.075343
    27  H    1.085880   2.132311   5.331936   4.629026   5.577305
    28  H    2.155796   1.081227   5.738696   4.825461   6.321080
    29  H    2.151013   1.087514   5.652938   4.138644   5.692361
    30  H    5.708948   6.336990   1.086320   2.444364   2.521930
    31  H    5.588826   6.560852   1.087556   3.042998   2.440913
                   16         17         18         19         20
    16  H    0.000000
    17  H    1.746105   0.000000
    18  H    3.850306   4.272841   0.000000
    19  H    3.048824   2.449094   2.382691   0.000000
    20  H    2.477128   2.536018   2.519511   1.751577   0.000000
    21  H    7.335510   8.546844   4.885272   7.219510   6.717631
    22  H    6.889386   7.922381   4.154298   6.423387   5.756116
    23  H    5.163803   6.485304   3.520816   5.554612   5.137546
    24  H    5.447078   6.386337   2.497752   4.836156   4.695941
    25  H    7.643231   8.996447   5.972583   8.043791   7.009889
    26  H    6.662701   8.175856   5.532504   7.509902   6.566443
    27  H    4.473776   5.374843   2.227586   4.061191   3.122888
    28  H    4.114951   5.451518   4.128014   5.217720   3.730977
    29  H    4.392084   5.986509   4.386049   5.800165   4.667225
    30  H    2.460448   2.546340   4.852274   3.791451   4.304082
    31  H    3.047649   2.461439   4.027814   2.633178   3.799052
                   21         22         23         24         25
    21  H    0.000000
    22  H    1.751236   0.000000
    23  H    2.460024   3.053513   0.000000
    24  H    2.536477   2.465416   1.752724   0.000000
    25  H    2.524264   2.442275   3.808339   4.292215   0.000000
    26  H    2.456487   3.044740   2.658717   3.806282   1.759467
    27  H    3.798579   2.660522   3.035329   2.465230   4.059368
    28  H    4.851235   4.097491   3.773332   4.280740   4.017563
    29  H    4.039889   3.967368   2.613464   3.783168   3.584346
    30  H    8.427114   8.320619   6.059271   6.316277   9.291194
    31  H    8.247131   7.962064   6.100837   5.860201   9.355616
                   26         27         28         29         30
    26  H    0.000000
    27  H    3.954433   0.000000
    28  H    3.582763   2.434681   0.000000
    29  H    2.424602   3.034509   1.762526   0.000000
    30  H    8.086512   6.200795   6.287930   6.085205   0.000000
    31  H    8.372619   5.838958   6.554571   6.560460   1.753023
                   31
    31  H    0.000000
 Stoichiometry    C10H18O3
 Framework group  C1[X(C10H18O3)]
 Deg. of freedom    87
 Full point group                 C1      NOp   1
 Largest Abelian subgroup         C1      NOp   1
 Largest concise Abelian subgroup C1      NOp   1
                         Standard orientation:                         
 ---------------------------------------------------------------------
 Center     Atomic      Atomic             Coordinates (Angstroms)
 Number     Number       Type             X           Y           Z
 ---------------------------------------------------------------------
      1          6           0        2.637275    1.096163   -0.912576
      2          8           0        1.833019    1.323200    0.238594
      3          6           0        3.114146   -1.216063   -0.095858
      4          8           0       -3.248839   -1.209381   -0.221891
      5          6           0        1.210236    0.192985    0.788358
      6          6           0        2.225928   -0.895088    1.106743
      7          6           0       -3.210618    1.119962    0.432269
      8          8           0        0.239133   -0.296301   -0.099013
      9          6           0       -1.702524    1.165958    0.172321
     10          6           0       -3.864583    0.050068   -0.426905
     11          6           0       -1.111121   -0.231821    0.319719
     12          6           0       -1.876425   -1.222331   -0.546260
     13          6           0        3.727841    0.074754   -0.637488
     14          1           0        2.006272    0.771213   -1.732948
     15          1           0        3.052741    2.060641   -1.169432
     16          1           0        2.528650   -1.697516   -0.874844
     17          1           0        3.890729   -1.916451    0.195525
     18          1           0        0.731889    0.541965    1.690547
     19          1           0        2.842694   -0.537714    1.927220
     20          1           0        1.695041   -1.774393    1.456540
     21          1           0       -3.662677    2.082830    0.214264
     22          1           0       -3.401503    0.900970    1.479896
     23          1           0       -1.513884    1.515208   -0.840351
     24          1           0       -1.218097    1.858906    0.852700
     25          1           0       -4.908134   -0.078148   -0.174219
     26          1           0       -3.795493    0.309869   -1.480816
     27          1           0       -1.177867   -0.554392    1.354431
     28          1           0       -1.521430   -2.229738   -0.378443
     29          1           0       -1.743112   -0.975791   -1.597037
     30          1           0        4.279842   -0.108626   -1.554962
     31          1           0        4.426913    0.483492    0.088466
 ---------------------------------------------------------------------
 Rotational constants (GHZ):           1.9962537           0.3896218           0.3611584
 Standard basis: 6-311++G(2d,2p) (5D, 7F)
 There are   557 symmetry adapted cartesian basis functions of A   symmetry.
 There are   531 symmetry adapted basis functions of A   symmetry.
   531 basis functions,   762 primitive gaussians,   557 cartesian basis functions
    51 alpha electrons       51 beta electrons
       nuclear repulsion energy       886.9162503036 Hartrees.
 NAtoms=   31 NActive=   31 NUniq=   31 SFac= 1.00D+00 NAtFMM=   60 NAOKFM=F Big=F
 Integral buffers will be    131072 words long.
 Raffenetti 2 integral format.
 Two-electron integral symmetry is turned on.
 ------------------------------------------------------------------------------
 Polarizable Continuum Model (PCM)
 =================================
 Model                : PCM.
 Atomic radii         : UFF (Universal Force Field).
 Polarization charges : Total charges.
 Charge compensation  : None.
 Solution method      : On-the-fly selection.
 Cavity type          : Scaled VdW (van der Waals Surface) (Alpha=1.100).
 Cavity algorithm     : GePol (No added spheres)
                        Default sphere list used, NSphG=   31.
                        Lebedev-Laikov grids with approx.  5.0 points / Ang**2.
                        Smoothing algorithm: York/Karplus (Gamma=1.0000).
                        Polarization charges: spherical gaussians, with
                                              point-specific exponents (IZeta= 3).
                        Self-potential: point-specific (ISelfS= 7).
                        Self-field    : sphere-specific E.n sum rule (ISelfD= 2).
 1st derivatives      : Analytical E(r).r(x)/FMM algorithm (CHGder, D1EAlg=3).
                        Cavity 1st derivative terms included.
 Solvent              : Water, Eps=  78.355300 Eps(inf)=   1.777849
 ------------------------------------------------------------------------------
 One-electron integrals computed using PRISM.
 NBasis=   531 RedAO= T EigKep=  5.11D-06  NBF=   531
 NBsUse=   531 1.00D-06 EigRej= -1.00D+00 NBFU=   531
 ExpMin= 3.60D-02 ExpMax= 8.59D+03 ExpMxC= 1.30D+03 IAcc=3 IRadAn=         5 AccDes= 0.00D+00
 Harris functional with IExCor= 1009 and IRadAn=       5 diagonalized for initial guess.
 HarFok:  IExCor= 1009 AccDes= 0.00D+00 IRadAn=         5 IDoV= 1 UseB2=F ITyADJ=14
 ICtDFT=  3500011 ScaDFX=  1.000000  1.000000  1.000000  1.000000
 FoFCou: FMM=F IPFlag=           0 FMFlag=      100000 FMFlg1=           0
         NFxFlg=           0 DoJE=T BraDBF=F KetDBF=T FulRan=T
         wScrn=  0.000000 ICntrl=       500 IOpCl=  0 I1Cent=   200000004 NGrid=           0
         NMat0=    1 NMatS0=      1 NMatT0=    0 NMatD0=    1 NMtDS0=    0 NMtDT0=    0
 Petite list used in FoFCou.
 Requested convergence on RMS density matrix=1.00D-08 within 128 cycles.
 Requested convergence on MAX density matrix=1.00D-06.
 Requested convergence on             energy=1.00D-06.
 No special actions if energy rises.
 Inv3:  Mode=1 IEnd=    13041675.
 Iteration    1 A*A^-1 deviation from unit magnitude is 5.77D-15 for   2059.
 Iteration    1 A*A^-1 deviation from orthogonality  is 2.44D-15 for   2075    926.
 Iteration    1 A^-1*A deviation from unit magnitude is 5.33D-15 for   2059.
 Iteration    1 A^-1*A deviation from orthogonality  is 2.86D-15 for   2083    882.
 Error on total polarization charges =  0.01487
 SCF Done:  E(RM062X) =  -617.499124771     A.U. after   12 cycles
            NFock= 12  Conv=0.49D-08     -V/T= 2.0035

 **********************************************************************

            Population analysis using the SCF density.

 **********************************************************************

 Orbital symmetries:
       Occupied  (A) (A) (A) (A) (A) (A) (A) (A) (A) (A) (A) (A)
                 (A) (A) (A) (A) (A) (A) (A) (A) (A) (A) (A) (A)
                 (A) (A) (A) (A) (A) (A) (A) (A) (A) (A) (A) (A)
                 (A) (A) (A) (A) (A) (A) (A) (A) (A) (A) (A) (A)
                 (A) (A) (A)
       Virtual   (A) (A) (A) (A) (A) (A) (A) (A) (A) (A) (A) (A)
                 (A) (A) (A) (A) (A) (A) (A) (A) (A) (A) (A) (A)
                 (A) (A) (A) (A) (A) (A) (A) (A) (A) (A) (A) (A)
                 (A) (A) (A) (A) (A) (A) (A) (A) (A) (A) (A) (A)
                 (A) (A) (A) (A) (A) (A) (A) (A) (A) (A) (A) (A)
                 (A) (A) (A) (A) (A) (A) (A) (A) (A) (A) (A) (A)
                 (A) (A) (A) (A) (A) (A) (A) (A) (A) (A) (A) (A)
                 (A) (A) (A) (A) (A) (A) (A) (A) (A) (A) (A) (A)
                 (A) (A) (A) (A) (A) (A) (A) (A) (A) (A) (A) (A)
                 (A) (A) (A) (A) (A) (A) (A) (A) (A) (A) (A) (A)
                 (A) (A) (A) (A) (A) (A) (A) (A) (A) (A) (A) (A)
                 (A) (A) (A) (A) (A) (A) (A) (A) (A) (A) (A) (A)
                 (A) (A) (A) (A) (A) (A) (A) (A) (A) (A) (A) (A)
                 (A) (A) (A) (A) (A) (A) (A) (A) (A) (A) (A) (A)
                 (A) (A) (A) (A) (A) (A) (A) (A) (A) (A) (A) (A)
                 (A) (A) (A) (A) (A) (A) (A) (A) (A) (A) (A) (A)
                 (A) (A) (A) (A) (A) (A) (A) (A) (A) (A) (A) (A)
                 (A) (A) (A) (A) (A) (A) (A) (A) (A) (A) (A) (A)
                 (A) (A) (A) (A) (A) (A) (A) (A) (A) (A) (A) (A)
                 (A) (A) (A) (A) (A) (A) (A) (A) (A) (A) (A) (A)
                 (A) (A) (A) (A) (A) (A) (A) (A) (A) (A) (A) (A)
                 (A) (A) (A) (A) (A) (A) (A) (A) (A) (A) (A) (A)
                 (A) (A) (A) (A) (A) (A) (A) (A) (A) (A) (A) (A)
                 (A) (A) (A) (A) (A) (A) (A) (A) (A) (A) (A) (A)
                 (A) (A) (A) (A) (A) (A) (A) (A) (A) (A) (A) (A)
                 (A) (A) (A) (A) (A) (A) (A) (A) (A) (A) (A) (A)
                 (A) (A) (A) (A) (A) (A) (A) (A) (A) (A) (A) (A)
                 (A) (A) (A) (A) (A) (A) (A) (A) (A) (A) (A) (A)
                 (A) (A) (A) (A) (A) (A) (A) (A) (A) (A) (A) (A)
                 (A) (A) (A) (A) (A) (A) (A) (A) (A) (A) (A) (A)
                 (A) (A) (A) (A) (A) (A) (A) (A) (A) (A) (A) (A)
                 (A) (A) (A) (A) (A) (A) (A) (A) (A) (A) (A) (A)
                 (A) (A) (A) (A) (A) (A) (A) (A) (A) (A) (A) (A)
                 (A) (A) (A) (A) (A) (A) (A) (A) (A) (A) (A) (A)
                 (A) (A) (A) (A) (A) (A) (A) (A) (A) (A) (A) (A)
                 (A) (A) (A) (A) (A) (A) (A) (A) (A) (A) (A) (A)
                 (A) (A) (A) (A) (A) (A) (A) (A) (A) (A) (A) (A)
                 (A) (A) (A) (A) (A) (A) (A) (A) (A) (A) (A) (A)
                 (A) (A) (A) (A) (A) (A) (A) (A) (A) (A) (A) (A)
                 (A) (A) (A) (A) (A) (A) (A) (A) (A) (A) (A) (A)
 The electronic state is 1-A.
 Alpha  occ. eigenvalues --  -19.62969 -19.62930 -19.62693 -10.63460 -10.58884
 Alpha  occ. eigenvalues --  -10.57984 -10.57887 -10.57607 -10.53171 -10.53091
 Alpha  occ. eigenvalues --  -10.52960 -10.52862 -10.52737  -1.20080  -1.16835
 Alpha  occ. eigenvalues --   -1.13690  -0.90782  -0.89752  -0.87703  -0.84724
 Alpha  occ. eigenvalues --   -0.74967  -0.73934  -0.73177  -0.71463  -0.66120
 Alpha  occ. eigenvalues --   -0.63982  -0.60401  -0.58487  -0.57590  -0.55183
 Alpha  occ. eigenvalues --   -0.54988  -0.53362  -0.52528  -0.50715  -0.50274
 Alpha  occ. eigenvalues --   -0.48399  -0.47740  -0.45999  -0.45337  -0.44223
 Alpha  occ. eigenvalues --   -0.44123  -0.42912  -0.41291  -0.40329  -0.39828
 Alpha  occ. eigenvalues --   -0.38351  -0.37615  -0.37024  -0.34514  -0.32911
 Alpha  occ. eigenvalues --   -0.31962
 Alpha virt. eigenvalues --   -0.00067   0.00758   0.00769   0.01066   0.02159
 Alpha virt. eigenvalues --    0.02437   0.02621   0.03403   0.03521   0.04336
 Alpha virt. eigenvalues --    0.04573   0.04645   0.05532   0.05871   0.06829
 Alpha virt. eigenvalues --    0.07550   0.07665   0.07719   0.08721   0.09199
 Alpha virt. eigenvalues --    0.09904   0.10633   0.11183   0.11533   0.11738
 Alpha virt. eigenvalues --    0.12051   0.12209   0.12792   0.13159   0.13371
 Alpha virt. eigenvalues --    0.13525   0.14125   0.14379   0.14657   0.14824
 Alpha virt. eigenvalues --    0.15068   0.15224   0.15300   0.15664   0.16191
 Alpha virt. eigenvalues --    0.16365   0.16797   0.17300   0.17415   0.17749
 Alpha virt. eigenvalues --    0.18125   0.18496   0.18808   0.18915   0.19377
 Alpha virt. eigenvalues --    0.19751   0.20109   0.20302   0.21063   0.21600
 Alpha virt. eigenvalues --    0.21913   0.22276   0.22637   0.23533   0.24004
 Alpha virt. eigenvalues --    0.24139   0.25299   0.26033   0.26503   0.26960
 Alpha virt. eigenvalues --    0.27346   0.28167   0.28294   0.28672   0.29176
 Alpha virt. eigenvalues --    0.30027   0.30436   0.31020   0.31179   0.31436
 Alpha virt. eigenvalues --    0.32094   0.32429   0.33259   0.34218   0.34572
 Alpha virt. eigenvalues --    0.34991   0.35080   0.35344   0.35936   0.36256
 Alpha virt. eigenvalues --    0.36633   0.37120   0.37391   0.37637   0.37747
 Alpha virt. eigenvalues --    0.38681   0.38805   0.39383   0.39946   0.40348
 Alpha virt. eigenvalues --    0.40586   0.41475   0.42684   0.43965   0.45757
 Alpha virt. eigenvalues --    0.47207   0.47458   0.48657   0.49835   0.50324
 Alpha virt. eigenvalues --    0.50880   0.52218   0.53298   0.54436   0.54794
 Alpha virt. eigenvalues --    0.55297   0.56508   0.57952   0.58551   0.59076
 Alpha virt. eigenvalues --    0.59575   0.60577   0.60949   0.61198   0.61743
 Alpha virt. eigenvalues --    0.62180   0.62760   0.63326   0.63639   0.64187
 Alpha virt. eigenvalues --    0.64542   0.65543   0.65806   0.65923   0.66525
 Alpha virt. eigenvalues --    0.67189   0.67605   0.68527   0.69111   0.70163
 Alpha virt. eigenvalues --    0.70575   0.71124   0.71512   0.72027   0.72498
 Alpha virt. eigenvalues --    0.73834   0.74417   0.74637   0.75512   0.75781
 Alpha virt. eigenvalues --    0.75906   0.76770   0.77215   0.78708   0.80191
 Alpha virt. eigenvalues --    0.80881   0.82277   0.83045   0.84266   0.85229
 Alpha virt. eigenvalues --    0.86666   0.87048   0.88014   0.88243   0.88986
 Alpha virt. eigenvalues --    0.89590   0.90368   0.92465   0.94075   0.94340
 Alpha virt. eigenvalues --    0.96643   0.98004   1.00632   1.01264   1.02549
 Alpha virt. eigenvalues --    1.02861   1.04453   1.04859   1.05946   1.06554
 Alpha virt. eigenvalues --    1.07326   1.07861   1.10308   1.11228   1.11930
 Alpha virt. eigenvalues --    1.12723   1.13164   1.14473   1.16223   1.16911
 Alpha virt. eigenvalues --    1.17122   1.18028   1.18333   1.19184   1.19807
 Alpha virt. eigenvalues --    1.20691   1.21150   1.22242   1.23397   1.24057
 Alpha virt. eigenvalues --    1.25317   1.25773   1.26197   1.26683   1.26956
 Alpha virt. eigenvalues --    1.27898   1.28883   1.30553   1.30751   1.30879
 Alpha virt. eigenvalues --    1.31382   1.31962   1.32876   1.33304   1.33661
 Alpha virt. eigenvalues --    1.35148   1.35480   1.36759   1.37684   1.38285
 Alpha virt. eigenvalues --    1.38649   1.38957   1.39480   1.40348   1.41122
 Alpha virt. eigenvalues --    1.42024   1.42856   1.43634   1.43816   1.44851
 Alpha virt. eigenvalues --    1.45658   1.46455   1.47129   1.47265   1.47942
 Alpha virt. eigenvalues --    1.48368   1.48602   1.49629   1.50219   1.51772
 Alpha virt. eigenvalues --    1.52799   1.53389   1.54234   1.55027   1.55197
 Alpha virt. eigenvalues --    1.55737   1.56719   1.57363   1.57937   1.59358
 Alpha virt. eigenvalues --    1.59789   1.60002   1.60630   1.61766   1.62481
 Alpha virt. eigenvalues --    1.63377   1.64137   1.64719   1.65751   1.67533
 Alpha virt. eigenvalues --    1.67740   1.68150   1.68999   1.70111   1.71814
 Alpha virt. eigenvalues --    1.73200   1.74683   1.75133   1.76183   1.77833
 Alpha virt. eigenvalues --    1.79420   1.79653   1.80740   1.81340   1.83675
 Alpha virt. eigenvalues --    1.84250   1.86814   1.88951   1.93637   1.99724
 Alpha virt. eigenvalues --    2.04328   2.06113   2.13164   2.16910   2.20626
 Alpha virt. eigenvalues --    2.25656   2.26229   2.28647   2.31344   2.39308
 Alpha virt. eigenvalues --    2.41427   2.43148   2.44562   2.48252   2.52953
 Alpha virt. eigenvalues --    2.56388   2.75825   2.76697   2.77753   2.80678
 Alpha virt. eigenvalues --    2.84161   2.89479   2.92369   2.93095   2.93362
 Alpha virt. eigenvalues --    2.94423   2.97645   3.00641   3.02127   3.03891
 Alpha virt. eigenvalues --    3.05480   3.07326   3.07883   3.08845   3.10552
 Alpha virt. eigenvalues --    3.12078   3.15960   3.18217   3.20069   3.20951
 Alpha virt. eigenvalues --    3.25273   3.28660   3.31173   3.33577   3.34258
 Alpha virt. eigenvalues --    3.35203   3.36792   3.37891   3.40219   3.40899
 Alpha virt. eigenvalues --    3.42324   3.42751   3.43816   3.45170   3.46167
 Alpha virt. eigenvalues --    3.47626   3.48735   3.48908   3.49785   3.51236
 Alpha virt. eigenvalues --    3.53510   3.54137   3.54450   3.54944   3.55727
 Alpha virt. eigenvalues --    3.56486   3.57413   3.57915   3.59127   3.59921
 Alpha virt. eigenvalues --    3.60698   3.61107   3.62087   3.64164   3.65069
 Alpha virt. eigenvalues --    3.65542   3.66000   3.67520   3.68837   3.69901
 Alpha virt. eigenvalues --    3.70081   3.71379   3.72402   3.72883   3.74307
 Alpha virt. eigenvalues --    3.74897   3.75177   3.76056   3.76828   3.77368
 Alpha virt. eigenvalues --    3.77899   3.79747   3.81136   3.82874   3.82970
 Alpha virt. eigenvalues --    3.85222   3.87178   3.88778   3.90893   3.91137
 Alpha virt. eigenvalues --    3.92294   3.94020   3.94126   3.95505   3.97895
 Alpha virt. eigenvalues --    4.00526   4.01599   4.02938   4.03009   4.04403
 Alpha virt. eigenvalues --    4.05369   4.05394   4.06513   4.06958   4.07786
 Alpha virt. eigenvalues --    4.08269   4.08613   4.08728   4.09797   4.11389
 Alpha virt. eigenvalues --    4.11673   4.12752   4.14207   4.15245   4.15497
 Alpha virt. eigenvalues --    4.17193   4.18190   4.18606   4.18842   4.20379
 Alpha virt. eigenvalues --    4.21648   4.22970   4.24579   4.25308   4.26962
 Alpha virt. eigenvalues --    4.28010   4.29862   4.30426   4.31049   4.31962
 Alpha virt. eigenvalues --    4.33021   4.33895   4.34515   4.36432   4.40022
 Alpha virt. eigenvalues --    4.40637   4.43152   4.44044   4.45682   4.46990
 Alpha virt. eigenvalues --    4.58255   4.60106   4.74746   4.77005   4.82564
 Alpha virt. eigenvalues --    4.85927   4.92322   4.95628   4.99052   5.00719
 Alpha virt. eigenvalues --    5.06260   5.06993   5.07729   5.08446   5.11530
 Alpha virt. eigenvalues --    5.12003   5.13607   5.14586   5.30452   5.38438
 Alpha virt. eigenvalues --    5.40725   5.57713   5.58328   5.65607   5.86950
 Alpha virt. eigenvalues --    5.87718   6.05231   7.02306   7.04997   7.05595
 Alpha virt. eigenvalues --    7.08106   7.10781   7.12724   7.13295   7.17609
 Alpha virt. eigenvalues --    7.25351   7.36099   7.40403   7.45497   7.54735
 Alpha virt. eigenvalues --    7.55494   7.63561  23.95436  23.98385  24.05167
 Alpha virt. eigenvalues --   24.08221  24.11993  24.12466  24.14363  24.14956
 Alpha virt. eigenvalues --   24.16270  24.20779  50.16644  50.18376  50.26156
          Condensed to atoms (all electrons):
               1          2          3          4          5          6
     1  C    5.519663   0.120904   0.028702   0.000430  -0.527053   0.174109
     2  O    0.120904   8.238678   0.011925   0.000273   0.214568  -0.009414
     3  C    0.028702   0.011925   5.508264   0.000650  -0.089318   0.029504
     4  O    0.000430   0.000273   0.000650   8.350433  -0.005016   0.000718
     5  C   -0.527053   0.214568  -0.089318  -0.005016   7.022046  -0.936640
     6  C    0.174109  -0.009414   0.029504   0.000718  -0.936640   6.549521
     7  C    0.010468   0.004096   0.000365  -0.015444  -0.146528  -0.008138
     8  O    0.009832  -0.028564  -0.033610  -0.004673   0.289687  -0.034488
     9  C   -0.014264   0.042564  -0.002054  -0.039648   0.272836  -0.081302
    10  C    0.000588  -0.000106  -0.000474   0.104934  -0.010076   0.017963
    11  C    0.102940  -0.053733   0.062434   0.013781  -0.804766   0.198335
    12  C   -0.014927  -0.005874  -0.017417   0.159232   0.124872  -0.106613
    13  C   -0.069224  -0.065488   0.024026  -0.000028   0.374271  -0.211950
    14  H    0.484611  -0.036680  -0.003479  -0.000085  -0.003167   0.022520
    15  H    0.438667  -0.072653   0.002978   0.000005  -0.002434  -0.006126
    16  H    0.004074   0.000018   0.521960   0.000165  -0.031323  -0.045564
    17  H    0.009162  -0.001580   0.417190   0.000005   0.003166  -0.035933
    18  H   -0.033433  -0.072017  -0.017787  -0.001362   0.473492  -0.063324
    19  H    0.013945  -0.011802  -0.019027   0.000000  -0.116004   0.513322
    20  H    0.008091   0.010067  -0.040229   0.000709  -0.044618   0.438881
    21  H   -0.000408   0.000816  -0.000222   0.007028  -0.000664   0.000019
    22  H    0.001132  -0.000355   0.000667  -0.000915  -0.005505   0.000095
    23  H   -0.004998  -0.008654  -0.001463  -0.001261   0.007663  -0.005170
    24  H    0.004333  -0.001528   0.001726  -0.000196  -0.002698  -0.012363
    25  H   -0.000029   0.000028  -0.000047  -0.070754  -0.002074   0.000558
    26  H    0.000747  -0.000085   0.000162  -0.041454  -0.000266  -0.000446
    27  H    0.000603  -0.000280  -0.001872  -0.011205   0.002628   0.006695
    28  H   -0.001657   0.000602   0.000416  -0.073722   0.005162  -0.005887
    29  H    0.005333   0.001144   0.001317  -0.034302  -0.021544   0.009914
    30  H   -0.036006   0.012418  -0.046350   0.000006  -0.005122   0.004362
    31  H   -0.082191  -0.007895  -0.027635  -0.000008   0.012912  -0.012739
               7          8          9         10         11         12
     1  C    0.010468   0.009832  -0.014264   0.000588   0.102940  -0.014927
     2  O    0.004096  -0.028564   0.042564  -0.000106  -0.053733  -0.005874
     3  C    0.000365  -0.033610  -0.002054  -0.000474   0.062434  -0.017417
     4  O   -0.015444  -0.004673  -0.039648   0.104934   0.013781   0.159232
     5  C   -0.146528   0.289687   0.272836  -0.010076  -0.804766   0.124872
     6  C   -0.008138  -0.034488  -0.081302   0.017963   0.198335  -0.106613
     7  C    5.857099  -0.025662  -0.211735   0.060119  -0.046493   0.151826
     8  O   -0.025662   8.265888  -0.123111   0.008586   0.160836  -0.158913
     9  C   -0.211735  -0.123111   6.678434  -0.108022  -1.161442   0.145230
    10  C    0.060119   0.008586  -0.108022   5.398307   0.183831  -0.223109
    11  C   -0.046493   0.160836  -1.161442   0.183831   7.485919  -0.370362
    12  C    0.151826  -0.158913   0.145230  -0.223109  -0.370362   5.896312
    13  C    0.001526  -0.012919   0.033202  -0.001433  -0.074828   0.004784
    14  H   -0.002457  -0.002862   0.000701   0.000313  -0.013327  -0.001053
    15  H    0.001339  -0.000276   0.001003  -0.000127   0.004507  -0.001031
    16  H   -0.000732   0.000277  -0.000663  -0.000534   0.001562   0.004038
    17  H    0.000053   0.000137  -0.001226   0.000253   0.007298  -0.002409
    18  H   -0.000179  -0.020271  -0.019405   0.001311   0.016595   0.013450
    19  H    0.001116   0.009198   0.003479  -0.000121  -0.005474   0.001186
    20  H   -0.002066  -0.002850  -0.008390   0.000345   0.017333  -0.004369
    21  H    0.437050  -0.001630  -0.018312  -0.036252  -0.024215   0.000545
    22  H    0.486092   0.000246  -0.018393  -0.082027  -0.021470   0.007396
    23  H   -0.080211   0.010264   0.483130  -0.008065  -0.000536  -0.035053
    24  H    0.005222  -0.010050   0.380094  -0.000705  -0.000136   0.008289
    25  H   -0.042867   0.000725   0.006360   0.431498   0.000471   0.016057
    26  H   -0.038119  -0.001017  -0.018252   0.458252   0.027447  -0.033014
    27  H   -0.019317  -0.021489  -0.030548   0.008915   0.486717  -0.077482
    28  H    0.002840   0.001181   0.042013   0.004761  -0.071659   0.437819
    29  H    0.004264   0.004422  -0.037609   0.003667   0.027317   0.364429
    30  H    0.000172  -0.000098  -0.000872  -0.000063   0.005366  -0.000532
    31  H   -0.000223   0.000086   0.000430   0.000020  -0.006927   0.000286
              13         14         15         16         17         18
     1  C   -0.069224   0.484611   0.438667   0.004074   0.009162  -0.033433
     2  O   -0.065488  -0.036680  -0.072653   0.000018  -0.001580  -0.072017
     3  C    0.024026  -0.003479   0.002978   0.521960   0.417190  -0.017787
     4  O   -0.000028  -0.000085   0.000005   0.000165   0.000005  -0.001362
     5  C    0.374271  -0.003167  -0.002434  -0.031323   0.003166   0.473492
     6  C   -0.211950   0.022520  -0.006126  -0.045564  -0.035933  -0.063324
     7  C    0.001526  -0.002457   0.001339  -0.000732   0.000053  -0.000179
     8  O   -0.012919  -0.002862  -0.000276   0.000277   0.000137  -0.020271
     9  C    0.033202   0.000701   0.001003  -0.000663  -0.001226  -0.019405
    10  C   -0.001433   0.000313  -0.000127  -0.000534   0.000253   0.001311
    11  C   -0.074828  -0.013327   0.004507   0.001562   0.007298   0.016595
    12  C    0.004784  -0.001053  -0.001031   0.004038  -0.002409   0.013450
    13  C    5.669322  -0.081033  -0.028262  -0.074730  -0.022062   0.020881
    14  H   -0.081033   0.492239  -0.012295  -0.003367  -0.000992   0.000108
    15  H   -0.028262  -0.012295   0.480893  -0.001533   0.000309   0.000424
    16  H   -0.074730  -0.003367  -0.001533   0.457614  -0.005563  -0.002044
    17  H   -0.022062  -0.000992   0.000309  -0.005563   0.479817   0.001012
    18  H    0.020881   0.000108   0.000424  -0.002044   0.001012   0.475591
    19  H   -0.014362  -0.001957   0.000332   0.002546  -0.002751  -0.008607
    20  H   -0.006169  -0.000167   0.001458  -0.000962  -0.010321  -0.010953
    21  H    0.000365  -0.000050  -0.000002  -0.000034   0.000000   0.000381
    22  H   -0.000198  -0.000088   0.000057   0.000050   0.000009  -0.001845
    23  H   -0.000268   0.000057  -0.000105  -0.000158   0.000104   0.004572
    24  H   -0.000539  -0.000741  -0.000028   0.000295  -0.000100  -0.016135
    25  H   -0.000052   0.000012  -0.000007  -0.000042   0.000014   0.000066
    26  H    0.000053  -0.000100   0.000061   0.000068  -0.000028  -0.000863
    27  H   -0.001687   0.000597  -0.000204  -0.000257   0.000080  -0.010044
    28  H    0.002038   0.000898   0.000007  -0.001630  -0.000191   0.001377
    29  H   -0.000580  -0.002508   0.000247   0.000129   0.000253  -0.002208
    30  H    0.437298   0.001469  -0.008920  -0.003209  -0.007592   0.001046
    31  H    0.492399   0.003377  -0.005039   0.000554  -0.002469   0.001257
              19         20         21         22         23         24
     1  C    0.013945   0.008091  -0.000408   0.001132  -0.004998   0.004333
     2  O   -0.011802   0.010067   0.000816  -0.000355  -0.008654  -0.001528
     3  C   -0.019027  -0.040229  -0.000222   0.000667  -0.001463   0.001726
     4  O    0.000000   0.000709   0.007028  -0.000915  -0.001261  -0.000196
     5  C   -0.116004  -0.044618  -0.000664  -0.005505   0.007663  -0.002698
     6  C    0.513322   0.438881   0.000019   0.000095  -0.005170  -0.012363
     7  C    0.001116  -0.002066   0.437050   0.486092  -0.080211   0.005222
     8  O    0.009198  -0.002850  -0.001630   0.000246   0.010264  -0.010050
     9  C    0.003479  -0.008390  -0.018312  -0.018393   0.483130   0.380094
    10  C   -0.000121   0.000345  -0.036252  -0.082027  -0.008065  -0.000705
    11  C   -0.005474   0.017333  -0.024215  -0.021470  -0.000536  -0.000136
    12  C    0.001186  -0.004369   0.000545   0.007396  -0.035053   0.008289
    13  C   -0.014362  -0.006169   0.000365  -0.000198  -0.000268  -0.000539
    14  H   -0.001957  -0.000167  -0.000050  -0.000088   0.000057  -0.000741
    15  H    0.000332   0.001458  -0.000002   0.000057  -0.000105  -0.000028
    16  H    0.002546  -0.000962  -0.000034   0.000050  -0.000158   0.000295
    17  H   -0.002751  -0.010321   0.000000   0.000009   0.000104  -0.000100
    18  H   -0.008607  -0.010953   0.000381  -0.001845   0.004572  -0.016135
    19  H    0.455409  -0.005220   0.000048  -0.000012  -0.000379   0.000205
    20  H   -0.005220   0.489080  -0.000179   0.000356  -0.000132   0.000551
    21  H    0.000048  -0.000179   0.497881  -0.010199  -0.005009  -0.012740
    22  H   -0.000012   0.000356  -0.010199   0.476239   0.000597   0.001095
    23  H   -0.000379  -0.000132  -0.005009   0.000597   0.448782  -0.013441
    24  H    0.000205   0.000551  -0.012740   0.001095  -0.013441   0.499684
    25  H    0.000008  -0.000033  -0.008615  -0.003694  -0.000430   0.000125
    26  H    0.000022   0.000161   0.003370   0.002896  -0.009480   0.002395
    27  H    0.000260  -0.003498  -0.002616  -0.003517   0.005599   0.000084
    28  H   -0.000690  -0.002955   0.002544  -0.002090  -0.001484  -0.001626
    29  H    0.000226   0.001365  -0.002953   0.002361  -0.005058   0.001104
    30  H   -0.002325   0.001461  -0.000014   0.000022   0.000106   0.000137
    31  H   -0.002228  -0.001663   0.000001  -0.000024   0.000012  -0.000319
              25         26         27         28         29         30
     1  C   -0.000029   0.000747   0.000603  -0.001657   0.005333  -0.036006
     2  O    0.000028  -0.000085  -0.000280   0.000602   0.001144   0.012418
     3  C   -0.000047   0.000162  -0.001872   0.000416   0.001317  -0.046350
     4  O   -0.070754  -0.041454  -0.011205  -0.073722  -0.034302   0.000006
     5  C   -0.002074  -0.000266   0.002628   0.005162  -0.021544  -0.005122
     6  C    0.000558  -0.000446   0.006695  -0.005887   0.009914   0.004362
     7  C   -0.042867  -0.038119  -0.019317   0.002840   0.004264   0.000172
     8  O    0.000725  -0.001017  -0.021489   0.001181   0.004422  -0.000098
     9  C    0.006360  -0.018252  -0.030548   0.042013  -0.037609  -0.000872
    10  C    0.431498   0.458252   0.008915   0.004761   0.003667  -0.000063
    11  C    0.000471   0.027447   0.486717  -0.071659   0.027317   0.005366
    12  C    0.016057  -0.033014  -0.077482   0.437819   0.364429  -0.000532
    13  C   -0.000052   0.000053  -0.001687   0.002038  -0.000580   0.437298
    14  H    0.000012  -0.000100   0.000597   0.000898  -0.002508   0.001469
    15  H   -0.000007   0.000061  -0.000204   0.000007   0.000247  -0.008920
    16  H   -0.000042   0.000068  -0.000257  -0.001630   0.000129  -0.003209
    17  H    0.000014  -0.000028   0.000080  -0.000191   0.000253  -0.007592
    18  H    0.000066  -0.000863  -0.010044   0.001377  -0.002208   0.001046
    19  H    0.000008   0.000022   0.000260  -0.000690   0.000226  -0.002325
    20  H   -0.000033   0.000161  -0.003498  -0.002955   0.001365   0.001461
    21  H   -0.008615   0.003370  -0.002616   0.002544  -0.002953  -0.000014
    22  H   -0.003694   0.002896  -0.003517  -0.002090   0.002361   0.000022
    23  H   -0.000430  -0.009480   0.005599  -0.001484  -0.005058   0.000106
    24  H    0.000125   0.002395   0.000084  -0.001626   0.001104   0.000137
    25  H    0.472934  -0.007674  -0.000719   0.002164  -0.002606  -0.000003
    26  H   -0.007674   0.502329  -0.000239  -0.003766   0.011464   0.000024
    27  H   -0.000719  -0.000239   0.434086  -0.005784   0.000366  -0.000108
    28  H    0.002164  -0.003766  -0.005784   0.495984  -0.028079   0.000094
    29  H   -0.002606   0.011464   0.000366  -0.028079   0.504803   0.000103
    30  H   -0.000003   0.000024  -0.000108   0.000094   0.000103   0.485198
    31  H   -0.000001  -0.000005   0.000066   0.000004  -0.000048  -0.009062
              31
     1  C   -0.082191
     2  O   -0.007895
     3  C   -0.027635
     4  O   -0.000008
     5  C    0.012912
     6  C   -0.012739
     7  C   -0.000223
     8  O    0.000086
     9  C    0.000430
    10  C    0.000020
    11  C   -0.006927
    12  C    0.000286
    13  C    0.492399
    14  H    0.003377
    15  H   -0.005039
    16  H    0.000554
    17  H   -0.002469
    18  H    0.001257
    19  H   -0.002228
    20  H   -0.001663
    21  H    0.000001
    22  H   -0.000024
    23  H    0.000012
    24  H   -0.000319
    25  H   -0.000001
    26  H   -0.000005
    27  H    0.000066
    28  H    0.000004
    29  H   -0.000048
    30  H   -0.009062
    31  H    0.479006
 Mulliken charges:
               1
     1  C   -0.154145
     2  O   -0.281397
     3  C   -0.311300
     4  O   -0.338298
     5  C   -0.048488
     6  C   -0.390419
     7  C   -0.383476
     8  O   -0.278884
     9  C   -0.194228
    10  C   -0.212549
    11  C   -0.147322
    12  C   -0.283594
    13  C   -0.394353
    14  H    0.159505
    15  H    0.206755
    16  H    0.178997
    17  H    0.174355
    18  H    0.268913
    19  H    0.189656
    20  H    0.174917
    21  H    0.174067
    22  H    0.171020
    23  H    0.220469
    24  H    0.168005
    25  H    0.208625
    26  H    0.145357
    27  H    0.244171
    28  H    0.201316
    29  H    0.193267
    30  H    0.170994
    31  H    0.168064
 Sum of Mulliken charges =  -0.00000
 Mulliken charges with hydrogens summed into heavy atoms:
               1
     1  C    0.212115
     2  O   -0.281397
     3  C    0.042053
     4  O   -0.338298
     5  C    0.220425
     6  C   -0.025846
     7  C   -0.038389
     8  O   -0.278884
     9  C    0.194246
    10  C    0.141434
    11  C    0.096849
    12  C    0.110989
    13  C   -0.055295
 Electronic spatial extent (au):  <R**2>=           3195.0316
 Charge=              0.0000 electrons
 Dipole moment (field-independent basis, Debye):
    X=              0.7568    Y=              0.4967    Z=              0.2555  Tot=              0.9406
 Quadrupole moment (field-independent basis, Debye-Ang):
   XX=            -75.7522   YY=            -84.1142   ZZ=            -76.8881
   XY=             -9.6473   XZ=             -0.7761   YZ=             -1.8374
 Traceless Quadrupole moment (field-independent basis, Debye-Ang):
   XX=              3.1660   YY=             -5.1960   ZZ=              2.0300
   XY=             -9.6473   XZ=             -0.7761   YZ=             -1.8374
 Octapole moment (field-independent basis, Debye-Ang**2):
  XXX=             13.7567  YYY=             -2.4998  ZZZ=              0.5501  XYY=              4.0147
  XXY=             25.8832  XXZ=             -8.7023  XZZ=              1.0280  YZZ=              1.0799
  YYZ=             -2.3253  XYZ=             -4.6692
 Hexadecapole moment (field-independent basis, Debye-Ang**3):
 XXXX=          -3248.5908 YYYY=           -575.4435 ZZZZ=           -316.6438 XXXY=            -84.7285
 XXXZ=             -6.4255 YYYX=             -2.6757 YYYZ=             -6.8935 ZZZX=              3.2270
 ZZZY=              2.6710 XXYY=           -690.4299 XXZZ=           -601.5070 YYZZ=           -149.9821
 XXYZ=            -16.5289 YYXZ=             -6.5240 ZZXY=              6.7368
 N-N= 8.869162503036D+02 E-N=-3.215665666993D+03  KE= 6.153456528802D+02
 D1PCM: PCM CHGder 1st derivatives, ID1Alg=3 FixD1E=F DoIter=F DoCFld=F I1PDM=0.
 Calling FoFJK, ICntrl=      2127 FMM=F ISym2X=0 I1Cent= 0 IOpClX= 0 NMat=1 NMatS=1 NMatT=0.
 ***** Axes restored to original set *****
 -------------------------------------------------------------------
 Center     Atomic                   Forces (Hartrees/Bohr)
 Number     Number              X              Y              Z
 -------------------------------------------------------------------
      1        6          -0.000805357   -0.005606710   -0.004155756
      2        8           0.001619433    0.009438675   -0.005810621
      3        6           0.001002111    0.003682031   -0.001228489
      4        8           0.004237597   -0.007149294   -0.003339131
      5        6          -0.005934452   -0.002186019    0.006882426
      6        6          -0.000205805   -0.000188632    0.002368958
      7        6          -0.001116884   -0.000090825    0.002343034
      8        8          -0.001046790   -0.007167116    0.007623775
      9        6           0.003326967   -0.003643672   -0.001321001
     10        6          -0.005988743    0.000888432   -0.003191090
     11        6          -0.001969165    0.004542012    0.004968476
     12        6           0.003237443    0.004995342   -0.004242395
     13        6           0.002400375   -0.000998252    0.000785347
     14        1           0.003302356   -0.002876983    0.004351999
     15        1          -0.001855804    0.003942662    0.000941195
     16        1           0.002722878   -0.000804119    0.002309245
     17        1          -0.001836896   -0.001636703   -0.000754137
     18        1           0.003272054    0.002982412   -0.006868385
     19        1          -0.002178659    0.001487573   -0.002348063
     20        1           0.001834627   -0.002672893   -0.000782958
     21        1           0.001059905    0.002819684    0.000306961
     22        1           0.000503339   -0.001284672   -0.002917048
     23        1          -0.001139244    0.000216175    0.003739428
     24        1          -0.002166261    0.002040447   -0.002198207
     25        1           0.004178195   -0.000463197   -0.001166163
     26        1          -0.000767963    0.002566365    0.005598526
     27        1           0.002106631   -0.002028566   -0.006196356
     28        1          -0.002233492   -0.004057773   -0.000964666
     29        1          -0.002374680    0.002639138    0.005634505
     30        1          -0.001616127   -0.000766713    0.002228228
     31        1          -0.001567588    0.001381191   -0.002597638
 -------------------------------------------------------------------
 Cartesian Forces:  Max     0.009438675 RMS     0.003395009

 GradGradGradGradGradGradGradGradGradGradGradGradGradGradGradGradGradGrad
 Berny optimization.
 FormGI is forming the generalized inverse of G from B-inverse, IUseBI=4.
 Internal  Forces:  Max     0.008560514 RMS     0.001940199
 Search for a local minimum.
 Step number   1 out of a maximum of  186
 All quantities printed in internal units (Hartrees-Bohrs-Radians)
 Mixed Optimization -- RFO/linear search
 Second derivative matrix not updated -- first step.
 ITU=  0
     Eigenvalues ---    0.00629   0.00640   0.00726   0.00748   0.01408
     Eigenvalues ---    0.01455   0.01491   0.02702   0.02767   0.03078
     Eigenvalues ---    0.03165   0.04102   0.04349   0.04745   0.04781
     Eigenvalues ---    0.04863   0.04952   0.05106   0.05145   0.05171
     Eigenvalues ---    0.05184   0.05681   0.05746   0.06161   0.06164
     Eigenvalues ---    0.06408   0.06794   0.06866   0.07352   0.07839
     Eigenvalues ---    0.07848   0.07947   0.07986   0.08128   0.08164
     Eigenvalues ---    0.08230   0.08903   0.09378   0.10863   0.11587
     Eigenvalues ---    0.11603   0.11707   0.11762   0.12401   0.12495
     Eigenvalues ---    0.14520   0.14591   0.16044   0.16539   0.17623
     Eigenvalues ---    0.19049   0.21594   0.21795   0.25000   0.28505
     Eigenvalues ---    0.28618   0.28745   0.28847   0.28952   0.29168
     Eigenvalues ---    0.30270   0.30304   0.35081   0.35085   0.35097
     Eigenvalues ---    0.35102   0.35143   0.35170   0.35176   0.35241
     Eigenvalues ---    0.35293   0.35301   0.35326   0.35368   0.35389
     Eigenvalues ---    0.35422   0.35833   0.35846   0.35860   0.36098
     Eigenvalues ---    0.40725   0.41421   0.42425   0.43198   0.43582
     Eigenvalues ---    0.450421000.000001000.000001000.000001000.00000
     Eigenvalues --- 1000.000001000.000001000.000001000.000001000.00000
     Eigenvalues --- 1000.000001000.000001000.000001000.000001000.00000
     Eigenvalues --- 1000.000001000.000001000.000001000.000001000.00000
     Eigenvalues --- 1000.000001000.000001000.000001000.000001000.00000
     Eigenvalues --- 1000.000001000.000001000.000001000.000001000.00000
     Eigenvalues --- 1000.000001000.000001000.000001000.000001000.00000
     Eigenvalues --- 1000.000001000.000001000.000001000.000001000.00000
     Eigenvalues --- 1000.000001000.000001000.000001000.000001000.00000
     Eigenvalues --- 1000.000001000.000001000.000001000.000001000.00000
     Eigenvalues --- 1000.000001000.000001000.000001000.000001000.00000
     Eigenvalues --- 1000.000001000.000001000.000001000.000001000.00000
     Eigenvalues --- 1000.000001000.000001000.000001000.000001000.00000
     Eigenvalues --- 1000.000001000.000001000.000001000.000001000.00000
     Eigenvalues --- 1000.000001000.000001000.000001000.000001000.00000
     Eigenvalues --- 1000.000001000.000001000.000001000.000001000.00000
     Eigenvalues --- 1000.000001000.000001000.000001000.000001000.00000
     Eigenvalues --- 1000.000001000.000001000.000001000.000001000.00000
     Eigenvalues --- 1000.000001000.000001000.000001000.000001000.00000
     Eigenvalues --- 1000.000001000.000001000.000001000.000001000.00000
 RFO step:  Lambda=-2.80891947D-03 EMin= 6.29361255D-03
 Linear search not attempted -- first point.
 Iteration  1 RMS(Cart)=  0.03208032 RMS(Int)=  0.00030203
 Iteration  2 RMS(Cart)=  0.00061929 RMS(Int)=  0.00005069
 Iteration  3 RMS(Cart)=  0.00000010 RMS(Int)=  0.00005069
 Iteration  1 RMS(Cart)=  0.00002615 RMS(Int)=  0.00000557
 Iteration  2 RMS(Cart)=  0.00001378 RMS(Int)=  0.00000623
 Iteration  3 RMS(Cart)=  0.00000727 RMS(Int)=  0.00000701
 Iteration  4 RMS(Cart)=  0.00000383 RMS(Int)=  0.00000750
 Iteration  5 RMS(Cart)=  0.00000202 RMS(Int)=  0.00000778
 Iteration  6 RMS(Cart)=  0.00000106 RMS(Int)=  0.00000793
 Iteration  7 RMS(Cart)=  0.00000056 RMS(Int)=  0.00000802
 Variable       Old X    -DE/DX   Delta X   Delta X   Delta X     New X
                                 (Linear)    (Quad)   (Total)
    R1        2.68818   0.00271   0.00000   0.00634   0.00635   2.69452
    R2        2.87107   0.00013   0.00000   0.00056   0.00061   2.87168
    R3        2.04995   0.00608   0.00000   0.01702   0.01702   2.06697
    R4        2.04301   0.00445   0.00000   0.01232   0.01232   2.05533
    R5        2.65066   0.00228   0.00000   0.00479   0.00479   2.65545
    R6        2.88962  -0.00162   0.00000  -0.00539  -0.00539   2.88423
    R7        2.88837  -0.00097   0.00000  -0.00291  -0.00290   2.88547
    R8        2.05400   0.00348   0.00000   0.00981   0.00981   2.06382
    R9        2.05149   0.00257   0.00000   0.00723   0.00723   2.05871
   R10        2.67740   0.00356   0.00000   0.00813   0.00815   2.68556
   R11        2.66505   0.00310   0.00000   0.00718   0.00720   2.67225
   R12        2.87642  -0.00003   0.00000  -0.00025  -0.00030   2.87612
   R13        2.65227   0.00465   0.00000   0.01025   0.01025   2.66252
   R14        2.03928   0.00816   0.00000   0.02242   0.02242   2.06170
   R15        2.05390   0.00350   0.00000   0.00987   0.00987   2.06376
   R16        2.05048   0.00332   0.00000   0.00930   0.00930   2.05978
   R17        2.89322  -0.00058   0.00000  -0.00222  -0.00224   2.89098
   R18        2.87246   0.00032   0.00000   0.00079   0.00079   2.87325
   R19        2.05190   0.00300   0.00000   0.00845   0.00845   2.06034
   R20        2.05443   0.00316   0.00000   0.00891   0.00891   2.06335
   R21        2.67427   0.00182   0.00000   0.00418   0.00418   2.67845
   R22        2.88161  -0.00157   0.00000  -0.00504  -0.00506   2.87655
   R23        2.05543   0.00375   0.00000   0.01060   0.01060   2.06604
   R24        2.05082   0.00365   0.00000   0.01023   0.01023   2.06105
   R25        2.04343   0.00436   0.00000   0.01207   0.01207   2.05550
   R26        2.05537   0.00609   0.00000   0.01721   0.01721   2.07258
   R27        2.87631  -0.00059   0.00000  -0.00169  -0.00169   2.87462
   R28        2.05202   0.00664   0.00000   0.01866   0.01866   2.07067
   R29        2.04322   0.00466   0.00000   0.01291   0.01291   2.05613
   R30        2.05510   0.00633   0.00000   0.01789   0.01789   2.07300
   R31        2.05285   0.00283   0.00000   0.00798   0.00798   2.06083
   R32        2.05518   0.00326   0.00000   0.00921   0.00921   2.06439
    A1        1.94615   0.00244   0.00000   0.00689   0.00682   1.95297
    A2        1.90809   0.00009   0.00000   0.00135   0.00142   1.90951
    A3        1.84123  -0.00132   0.00000  -0.00209  -0.00208   1.83915
    A4        1.93166  -0.00156   0.00000  -0.00750  -0.00753   1.92412
    A5        1.94650  -0.00041   0.00000  -0.00245  -0.00239   1.94411
    A6        1.88715   0.00076   0.00000   0.00412   0.00410   1.89125
    A7        2.02595  -0.00563   0.00000  -0.03575  -0.03574   1.99021
    A8        1.91203   0.00161   0.00000  -0.00338  -0.00340   1.90863
    A9        1.92168  -0.00089   0.00000  -0.00583  -0.00584   1.91584
   A10        1.91756  -0.00045   0.00000   0.00190   0.00190   1.91946
   A11        1.91388  -0.00069   0.00000  -0.00091  -0.00101   1.91287
   A12        1.93130  -0.00020   0.00000   0.00250   0.00258   1.93388
   A13        1.86704   0.00057   0.00000   0.00586   0.00586   1.87290
   A14        1.97992  -0.00432   0.00000  -0.02506  -0.02500   1.95493
   A15        1.94088   0.00320   0.00000   0.00855   0.00836   1.94924
   A16        1.91803   0.00081   0.00000   0.00422   0.00437   1.92241
   A17        1.83787  -0.00234   0.00000  -0.00552  -0.00554   1.83233
   A18        1.92276  -0.00284   0.00000  -0.01445  -0.01438   1.90838
   A19        1.93059  -0.00003   0.00000  -0.00098  -0.00089   1.92970
   A20        1.91199   0.00129   0.00000   0.00893   0.00886   1.92085
   A21        1.95319  -0.00167   0.00000  -0.01447  -0.01469   1.93851
   A22        1.91038   0.00109   0.00000   0.00683   0.00696   1.91734
   A23        1.94726  -0.00024   0.00000  -0.00188  -0.00197   1.94529
   A24        1.87708   0.00030   0.00000   0.00597   0.00599   1.88307
   A25        1.89677   0.00063   0.00000  -0.00169  -0.00164   1.89513
   A26        1.87626  -0.00004   0.00000   0.00631   0.00628   1.88254
   A27        1.92726  -0.00099   0.00000  -0.00790  -0.00795   1.91931
   A28        1.92769  -0.00031   0.00000   0.00054   0.00055   1.92824
   A29        1.92050   0.00082   0.00000   0.00194   0.00193   1.92243
   A30        1.90875   0.00080   0.00000   0.00534   0.00537   1.91412
   A31        1.90430  -0.00023   0.00000  -0.00258  -0.00259   1.90171
   A32        1.87444  -0.00006   0.00000   0.00297   0.00296   1.87740
   A33        2.04565  -0.00856   0.00000  -0.03386  -0.03386   2.01179
   A34        1.91567   0.00129   0.00000  -0.00095  -0.00098   1.91469
   A35        1.91618   0.00006   0.00000   0.00453   0.00452   1.92070
   A36        1.93096  -0.00001   0.00000   0.00549   0.00549   1.93645
   A37        1.89343  -0.00122   0.00000  -0.00879  -0.00879   1.88464
   A38        1.93005  -0.00051   0.00000  -0.00303  -0.00301   1.92704
   A39        1.87681   0.00034   0.00000   0.00258   0.00253   1.87934
   A40        1.93576   0.00186   0.00000   0.00816   0.00814   1.94390
   A41        1.85479  -0.00113   0.00000  -0.00343  -0.00342   1.85137
   A42        1.90174   0.00069   0.00000   0.00738   0.00742   1.90916
   A43        1.94612  -0.00042   0.00000  -0.00359  -0.00360   1.94252
   A44        1.93076  -0.00154   0.00000  -0.00940  -0.00942   1.92133
   A45        1.89236   0.00058   0.00000   0.00132   0.00128   1.89365
   A46        1.96407  -0.00133   0.00000  -0.00649  -0.00647   1.95760
   A47        1.85641   0.00086   0.00000   0.00493   0.00492   1.86133
   A48        1.90399   0.00075   0.00000   0.01284   0.01284   1.91683
   A49        1.92465  -0.00003   0.00000  -0.00310  -0.00315   1.92150
   A50        1.91832   0.00025   0.00000  -0.00382  -0.00382   1.91450
   A51        1.89433  -0.00047   0.00000  -0.00393  -0.00396   1.89036
   A52        1.93100   0.00168   0.00000   0.00811   0.00814   1.93914
   A53        1.86750  -0.00049   0.00000   0.00315   0.00316   1.87065
   A54        1.91712   0.00122   0.00000   0.01157   0.01162   1.92874
   A55        1.93151  -0.00073   0.00000  -0.00696  -0.00701   1.92450
   A56        1.91831  -0.00241   0.00000  -0.01679  -0.01685   1.90146
   A57        1.89752   0.00080   0.00000   0.00157   0.00142   1.89894
   A58        1.92167  -0.00106   0.00000  -0.00669  -0.00689   1.91478
   A59        1.90214   0.00063   0.00000   0.00424   0.00429   1.90643
   A60        1.90667   0.00008   0.00000  -0.00099  -0.00093   1.90574
   A61        1.93986  -0.00047   0.00000  -0.00119  -0.00116   1.93871
   A62        1.91659   0.00086   0.00000   0.00123   0.00130   1.91790
   A63        1.87609  -0.00002   0.00000   0.00367   0.00363   1.87972
    D1       -0.99485   0.00027   0.00000  -0.01768  -0.01757  -1.01242
    D2        1.14679  -0.00001   0.00000  -0.02162  -0.02155   1.12524
    D3       -3.11074   0.00022   0.00000  -0.01728  -0.01719  -3.12793
    D4        0.95453   0.00129   0.00000   0.01918   0.01923   0.97376
    D5        3.08648   0.00045   0.00000   0.01619   0.01618   3.10266
    D6       -1.15154   0.00083   0.00000   0.02245   0.02247  -1.12907
    D7       -1.17356   0.00058   0.00000   0.01794   0.01801  -1.15555
[...]
 ,-0.00000264,0.00000321,-0.00000204,0.00000086,0.00002574,-0.00000790,
 -0.00000268,-0.00000314,0.00000080,-0.00000144,-0.00000071,0.00071254,
 -0.00029786,0.00055027,0.00023842,-0.00094256,0.00099744,-0.00024437,0
 .00011389,0.00025441,-0.00112663,0.00009866,0.00028674,-0.06238531,0.0
 0752303,0.06490227,-0.00000807,-0.00000121,0.00000647,0.00001431,-0.00
 000021,-0.00001162,0.00000114,0.00000225,0.00000309,-0.00094028,-0.012
 07417,-0.01414214,-0.00005496,0.00002453,0.00001469,0.00000597,-0.0000
 0500,-0.00000491,0.00155812,-0.00225101,-0.01458030,-0.00004806,0.0000
 8308,0.00002937,0.00104267,-0.00083897,-0.00075850,-0.05897471,0.00974
 085,0.02815033,-0.00041044,0.00004520,0.00004972,0.00268182,-0.0011851
 9,-0.00388587,-0.00000021,0.00000038,-0.00000116,-0.00000028,-0.000000
 12,0.00000015,0.00000160,-0.00000061,-0.00000100,-0.00000078,-0.000001
 31,0.00000077,0.00000218,0.00000073,-0.00000111,0.00000545,0.00000061,
 -0.00000640,0.00000418,0.00000172,0.00000140,-0.00000033,0.00000033,-0
 .00000078,0.00045624,-0.00011221,0.00051037,-0.00030850,0.00169757,-0.
 00192816,0.00002055,0.00021138,0.00015730,0.00014265,0.00003064,0.0002
 3056,-0.00109953,0.00799702,0.02909730,0.05543865,0.00002294,0.0000074
 0,-0.00002483,-0.00008415,0.00007446,0.00001270,-0.00000061,-0.0000024
 5,-0.00000689,-0.00845751,-0.02832364,-0.03385932,0.00009871,-0.000096
 85,0.00013143,-0.00001328,0.00002037,-0.00000952,-0.00146360,0.0067751
 8,0.02304018,-0.00042063,0.00031559,-0.00025903,-0.00114985,0.00067834
 ,-0.00005640,0.00709027,-0.06192804,-0.05781120,-0.00018812,-0.0004077
 1,0.00057975,0.00533888,0.00080684,-0.00233953,0.00000236,-0.00000216,
 0.00000317,-0.00000081,-0.00000308,-0.00000025,-0.00000454,0.00000196,
 0.00000333,0.00000100,0.00000294,-0.00000084,-0.00000452,-0.00000235,0
 .00000223,-0.00000642,0.00000342,-0.00000760,-0.00001307,-0.00000673,-
 0.00000416,0.00000144,0.00000028,0.00000060,-0.00057043,0.00081332,-0.
 00097128,0.00294265,-0.00247126,0.00311969,0.00011354,-0.00006947,-0.0
 0050073,-0.00017790,-0.00010179,-0.00022660,0.00129906,0.00028526,-0.0
 0386673,-0.00383159,0.08303393,0.00002835,0.00000895,-0.00003442,-0.00
 010025,0.00006802,0.00003050,0.00000047,-0.00000279,-0.00001008,-0.003
 29508,-0.01016213,-0.00029107,0.00018519,-0.00012779,0.00014363,-0.000
 01975,0.00002333,-0.00001166,0.00331497,-0.00416338,-0.02121650,-0.000
 51404,-0.00000408,-0.00012873,0.00085452,-0.00091378,0.00084880,0.0255
 6814,-0.05996644,-0.27688062,0.00018244,-0.00005412,0.00011070,0.00089
 785,0.00116132,0.00137408,0.00000134,-0.00000373,0.00000573,-0.0000003
 1,-0.00000433,-0.00000013,-0.00000672,0.00000280,0.00000421,0.00000147
 ,0.00000356,-0.00000211,-0.00000686,-0.00000240,0.00000278,0.00000303,
 0.00001044,-0.00000319,-0.00001691,-0.00000851,-0.00000626,0.00000211,
 0.00000063,0.00000135,0.00011875,0.00030745,0.00036682,-0.00211538,0.0
 0303418,-0.00139527,-0.00081427,0.00002331,0.00036076,0.00001990,0.000
 25228,0.00035180,0.00115682,-0.00081458,-0.00541301,-0.02395150,0.0714
 8359,0.30163254,0.00031551,0.00005090,-0.00011581,-0.00076655,0.001166
 98,-0.00053844,0.00003443,-0.00014349,0.00002989,0.00156577,-0.0001421
 7,0.00054715,0.00326626,-0.00218616,0.00631926,0.00002474,0.00012542,0
 .00019119,0.00094703,0.00025615,-0.00046726,-0.02350375,0.01078898,0.0
 3598537,0.00248143,-0.00362990,-0.01060977,-0.00007641,-0.00007666,-0.
 00003031,-0.04840447,0.00360035,0.00341234,0.00127440,-0.00550324,-0.0
 1656700,0.00005919,0.00003362,-0.00002878,-0.00002745,0.00000757,-0.00
 021247,-0.00009952,0.00006188,-0.00007151,0.00000606,0.00007388,-0.000
 07777,-0.00006545,0.00000223,-0.00002382,-0.00010878,0.00057432,-0.000
 73407,-0.00001989,-0.00005128,-0.00006640,0.00009089,-0.00018963,-0.00
 010287,0.00016614,0.00002010,0.00007803,-0.00016726,-0.00013917,0.0002
 0269,-0.00052565,-0.00244824,-0.00014241,0.00018719,0.00010747,0.00062
 308,-0.00004560,0.00000639,-0.00002507,0.00002257,0.00001969,0.0001180
 1,0.06458287,0.00001999,0.00006547,0.00000488,-0.00010499,-0.00011890,
 0.00035013,-0.00000356,-0.00004307,-0.00000240,-0.00152349,0.00047471,
 -0.00149610,0.00029774,0.00069347,-0.00141176,0.00022611,0.00000184,0.
 00022004,0.00113168,0.00069320,-0.00038116,0.00188760,0.00340622,0.003
 14377,-0.00015579,-0.01269033,-0.03048920,-0.00009984,-0.00030862,0.00
 007480,0.00258548,-0.08186755,-0.08128104,-0.00001212,0.00603828,0.022
 23754,0.00000204,0.00000184,0.00001011,-0.00001276,-0.00000496,0.00001
 309,-0.00001774,-0.00000061,0.00002310,-0.00000856,0.00000082,0.000010
 94,-0.00001028,-0.00000469,0.00000613,0.00056310,-0.00053999,0.0001757
 0,0.00009176,-0.00002563,-0.00002194,0.00013170,-0.00014806,-0.0000896
 0,-0.00002343,0.00004804,0.00051218,-0.00053788,0.00025337,0.00049198,
 -0.00262773,-0.00523386,-0.00058846,0.00080352,0.00134724,0.00047491,-
 0.00003392,0.00009736,-0.00006587,-0.00001085,-0.00008486,0.00003645,-
 0.00432187,0.08855192,-0.00031812,0.00005684,0.00002000,0.00049020,-0.
 00058208,0.00000361,-0.00004759,-0.00001004,0.00000983,-0.00015455,-0.
 00048927,0.00236681,-0.00348207,0.00320269,-0.00055149,0.00048551,-0.0
 0037344,0.00059326,-0.00019589,-0.00025618,-0.00001381,0.01249782,-0.0
 0230316,-0.00815767,-0.00005658,-0.00051830,-0.00164919,0.00000533,0.0
 0023899,0.00011801,0.00800056,-0.07999193,-0.26589245,0.00074632,-0.00
 630506,-0.02130079,-0.00001305,0.00001999,0.00000316,0.00007013,0.0000
 0448,0.00005086,0.00002131,-0.00002258,0.00000674,-0.00000199,-0.00004
 014,0.00002919,0.00003712,0.00000817,0.00000810,0.00009743,-0.00040437
 ,0.00079682,0.00027950,0.00011976,0.00004400,0.00021910,-0.00011719,-0
 .00008990,-0.00026356,-0.00000017,0.00011354,-0.00040957,0.00001515,0.
 00007576,0.00001612,-0.00000912,0.00092036,-0.00022737,-0.00028854,0.0
 0053606,-0.00004466,-0.00000848,0.00000207,0.00018010,-0.00000778,-0.0
 0010089,-0.01656634,0.08560819,0.29268828,0.00000197,-0.00000170,0.000
 00084,0.00005441,-0.00008471,0.00000081,-0.00001043,-0.00000675,-0.000
 00826,-0.02401825,-0.03832428,-0.00266394,0.00002693,-0.00010210,-0.00
 000749,-0.00001988,0.00000889,0.00002465,-0.00068628,-0.00053108,-0.00
 012819,0.00191274,-0.00036129,0.00004598,-0.00219925,0.00210133,-0.002
 36291,-0.00465746,0.00371606,0.00252459,0.00597523,0.01560152,0.002892
 07,-0.07102142,-0.07161576,-0.00831000,0.00000056,0.00000238,0.0000006
 0,-0.00000261,0.00000167,-0.00000137,-0.00000196,-0.00000053,-0.000000
 52,0.00000807,-0.00000526,0.00000490,-0.00000201,0.00000028,0.,0.00005
 112,-0.00001129,0.00002954,0.00000300,-0.00000296,-0.00000278,0.000033
 49,-0.00002311,0.00000394,0.00021831,-0.00018438,0.00016460,0.00009272
 ,-0.00000701,0.00002939,-0.00006535,-0.00018073,-0.00002473,0.00052316
 ,0.00110918,-0.00015256,-0.00088710,-0.00172301,0.00004371,0.00007943,
 -0.00002771,-0.00025677,0.00059037,-0.00067419,0.00028004,0.09132291,-
 0.00002507,-0.00001063,0.00003265,0.00001012,0.00003272,-0.00006991,0.
 00000798,0.00000739,0.00001405,-0.00264410,0.00411437,0.00082602,0.000
 05785,0.00030436,0.00006228,0.00005391,-0.00005075,0.00001844,0.000427
 42,0.00024981,-0.00029476,0.00005763,0.00137660,-0.00044833,0.00303275
 ,-0.00090411,0.00348139,0.00116802,0.00241110,0.00044052,-0.00707683,-
 0.01957687,-0.00323664,-0.08112114,-0.29336550,-0.02896525,-0.00000297
 ,0.00000392,-0.00000694,-0.00000008,0.00000200,0.00000113,0.00000603,-
 0.00000294,-0.00000333,0.00001416,-0.00000802,-0.00000070,0.00000786,0
 .00000457,-0.00000594,-0.00005641,0.00000763,-0.00008521,0.00001889,0.
 00001918,0.00000781,0.00001481,-0.00000993,0.00001047,-0.00013158,-0.0
 0004061,-0.00003023,-0.00006687,0.00001867,0.00005191,0.00007986,0.000
 31841,-0.00003353,-0.00067264,-0.00123842,0.00002718,0.00001454,-0.000
 04223,0.00004842,0.00009733,0.00003995,0.00003165,-0.00009590,0.001082
 14,0.00009448,0.08869859,0.31224802,0.00000107,-0.00000782,0.00001614,
 0.00010704,-0.00008677,0.00002345,-0.00000221,-0.00001554,-0.00000009,
 0.00568582,0.00897282,0.00151803,-0.00002139,-0.00011283,-0.00018236,-
 0.00001548,0.00001885,0.00002722,-0.00011319,-0.00006811,0.00006691,0.
 00115216,-0.00136804,0.00050406,-0.00272215,0.00144731,-0.00201608,0.0
 0068221,-0.00044407,-0.00018550,0.00601370,0.02287191,0.00167479,-0.01
 157933,-0.03343292,-0.05653565,0.00000236,0.00000025,-0.00000389,-0.00
 000042,-0.00000015,-0.00000340,0.,0.00000177,-0.00000418,0.00000166,0.
 00000440,-0.00000539,-0.00000417,0.00000126,0.00000048,0.00002038,0.00
 000232,0.00002324,0.00000105,-0.00000327,-0.00000560,0.00002040,-0.000
 01617,0.00000073,0.00000842,-0.00000015,-0.00001832,0.00006428,-0.0000
 4731,-0.00002324,0.00000813,0.00035682,0.00022563,0.00030484,0.0011332
 2,0.00023665,0.00007634,0.00018639,0.00036157,0.00015633,0.00043348,0.
 00036894,0.00087466,-0.00050079,0.00098240,0.00863137,0.02875789,0.054
 61135,0.00000411,0.00003651,-0.00002864,-0.00008335,-0.00000726,0.0001
 4417,-0.00000882,-0.00000709,-0.00001888,-0.02393420,0.00840497,0.0391
 1293,0.00030634,0.00000530,-0.00018574,0.00000686,-0.00000993,0.000032
 27,-0.00040712,-0.00052590,-0.00033273,0.00156821,-0.00032295,0.000275
 22,0.00024702,-0.00095041,0.00047228,0.00289666,0.00538375,0.00295525,
 0.00234850,-0.00472862,-0.01664550,-0.04896591,0.00264475,0.01590346,0
 .00000236,-0.00000287,0.00000872,0.00000628,-0.00000478,0.00000516,-0.
 00001033,0.00000051,0.00001098,0.00000270,-0.00000134,0.00000068,-0.00
 000741,-0.00000370,0.00000585,-0.00014388,-0.00002149,0.00014501,-0.00
 000098,0.00000012,0.00000380,0.00000930,0.00000339,0.00000381,0.000218
 40,-0.00023475,0.00006984,-0.00007896,0.00006051,-0.00008762,0.0000536
 2,0.00021172,0.00034963,-0.00011506,-0.00001147,0.00016905,0.00004774,
 -0.00000686,-0.00040177,0.00036720,-0.00051171,-0.00135015,-0.00175398
 ,0.00244540,-0.00168795,0.00267735,-0.00187970,-0.00935353,0.06475295,
 0.00001778,-0.00002098,-0.00000852,0.00002304,0.00006042,-0.00009414,0
 .00000630,0.00001597,0.00000670,0.00261916,0.00207382,-0.00208704,-0.0
 0002419,-0.00027763,0.00023844,-0.00002590,0.00004872,-0.00006790,0.00
 012688,-0.00024704,0.00006353,-0.00168312,0.00045829,-0.00090457,-0.00
 028933,0.00160029,0.00075452,-0.00098441,0.00084649,0.00281937,-0.0001
 1272,0.00520726,0.02151399,0.00471786,-0.07709539,-0.07013643,-0.00000
 175,-0.00000281,-0.00000304,-0.00000384,0.00000132,0.00000517,0.000008
 02,0.00000101,-0.00000599,-0.00000196,-0.00000318,0.00000144,0.0000043
 8,-0.00000042,-0.00000257,0.00010711,0.00004303,-0.00014577,-0.0000168
 3,-0.00001622,-0.00000631,-0.00000017,-0.00000394,0.00000074,-0.000013
 71,0.00002069,-0.00004538,-0.00002849,-0.00004558,-0.00018586,0.000275
 85,-0.00021261,-0.00014724,0.00005370,0.00009193,-0.00032075,0.0001188
 6,0.00008795,0.00007435,0.00037858,0.00064138,-0.00021970,0.00206373,-
 0.00168111,0.00235436,0.00262952,-0.00699299,-0.02808650,-0.00996621,0
 .07540116,0.00002426,0.00003663,-0.00007694,-0.00023708,0.00011734,0.0
 0006996,-0.00001156,-0.00000848,-0.00002727,0.01334376,-0.00194095,-0.
 00537914,-0.00002464,0.00007157,0.00043156,0.00000421,-0.00001459,0.00
 005496,0.00020904,0.00021219,0.00005975,0.00013384,-0.00008471,0.00139
 615,0.00029776,-0.00143709,0.00078384,-0.00137582,-0.00101151,0.001061
 62,0.00126966,-0.00724556,-0.02368410,0.01786488,-0.06781976,-0.271190
 12,0.00000281,-0.00000694,0.00001450,-0.00001991,0.00000218,-0.0000054
 0,-0.00001119,0.00000212,0.00001343,0.00000032,0.00000401,-0.00000714,
 -0.00001222,-0.00000426,0.00000813,0.00016898,-0.00011775,0.00016513,-
 0.00000629,0.00000505,-0.00000651,0.00001299,0.00000900,-0.00000107,0.
 00006328,0.00008903,-0.00004417,-0.00013569,-0.00012069,-0.00007504,0.
 00022766,0.00092430,0.00035112,-0.00024739,0.00007607,0.00041446,0.000
 10278,0.00027319,0.00038949,0.00068563,0.00114225,-0.00010956,-0.00198
 957,0.00293911,-0.00162032,-0.00075682,-0.00072568,-0.00165787,-0.0295
 7590,0.07463419,0.29866813,-0.01033032,-0.00187448,0.02126024,-0.00517
 306,-0.00418783,0.00058327,-0.00714226,-0.00231191,0.00974206,-0.00007
 315,0.00001590,-0.00002115,0.00148254,-0.00125958,-0.00067825,0.000225
 88,0.00280565,0.00013687,0.00000915,-0.00001404,-0.00002199,-0.0005948
 2,0.00026995,-0.00015927,-0.00005107,0.00000291,0.00004403,0.00000558,
 0.00001227,0.00002079,0.00031898,0.00004427,-0.00012483,0.00001248,-0.
 00004872,0.00004988,-0.11576922,-0.02834528,0.11021422,0.00057502,0.00
 093432,-0.00036786,0.00066412,-0.00013146,-0.00019395,0.00017032,-0.00
 043293,-0.00021175,0.00047418,0.00008831,-0.00036142,-0.00006620,0.000
 11473,0.00005437,-0.00003065,-0.00012714,0.00029768,-0.00020672,-0.000
 28891,0.00062873,-0.00001613,-0.00000469,0.00000118,-0.00000393,0.0000
 0286,0.00000349,0.00000285,-0.00000192,-0.00000239,0.00001453,0.000021
 20,-0.00001532,-0.00000776,0.00000230,-0.00000363,0.00000102,-0.000003
 03,-0.00000432,-0.00002162,-0.00000508,0.00002358,-0.00000005,0.000004
 73,0.00000024,-0.00000493,0.00000123,-0.00000731,0.12398585,-0.0069956
 7,-0.00288405,0.01981707,-0.00674134,-0.00275150,0.00079963,0.01541821
 ,0.00723970,-0.02501791,-0.00001813,0.00000447,-0.00000658,0.00049861,
 -0.00224583,-0.00089481,0.00224974,-0.00540987,-0.00164065,0.00000359,
 0.00000978,-0.00000777,-0.00021494,0.00037991,0.00002921,-0.00000310,-
 0.00001131,0.00002337,-0.00000280,0.00000027,0.00000622,0.00005989,0.0
 0006342,-0.00002475,-0.00000475,-0.00001043,0.00001255,-0.02921702,-0.
 05848838,0.04653926,0.00026378,0.00084293,-0.00035214,0.00101023,0.000
 19175,-0.00006847,-0.00045435,0.00122609,0.00078962,-0.00088050,0.0011
 3381,0.00048947,-0.00000378,0.00029804,0.00018632,-0.00016670,-0.00001
 516,-0.00000746,0.00122743,0.00040853,-0.00138460,-0.00000206,-0.00000
 161,-0.00000012,-0.00000267,0.00000061,0.00000175,0.00000631,-0.000000
 56,0.00000490,0.00000765,0.00000909,-0.00001078,-0.00000241,0.00000154
 ,-0.00000183,0.00000035,-0.00000086,-0.00000105,-0.00001944,-0.0000008
 1,0.00000495,-0.00000100,0.00000141,0.00000017,-0.00000044,0.00000029,
 -0.00000177,0.03076407,0.06335452,-0.00393784,-0.00085953,0.00566604,-
 0.00151083,-0.00143961,0.00170373,0.00483448,0.00307408,-0.00962334,0.
 00003941,-0.00000810,0.00001095,-0.00072438,-0.00052532,-0.00031296,0.
 00096576,-0.00319429,0.00050516,-0.00000371,0.00001533,0.00000810,0.00
 031548,0.00002882,0.00007259,0.00003643,-0.00000537,-0.00001306,-0.000
 00575,-0.00000897,-0.00001005,-0.00017960,0.00000672,0.00007408,-0.000
 00938,0.00002520,-0.00002832,0.11240715,0.04668057,-0.23606045,0.00045
 656,0.00057154,0.00036784,0.00057816,0.00034847,0.00016086,-0.00002607
 ,-0.00016143,0.00074842,-0.00038678,0.00007784,0.00001647,0.00001165,0
 .00017410,0.00003614,-0.00026146,-0.00006292,0.00035755,0.00082614,0.0
 0037114,-0.00053954,0.00000970,0.00000226,-0.00000074,0.00000124,-0.00
 000141,-0.00000152,0.00000112,0.00000005,0.00000258,-0.00000215,-0.000
 00719,0.00000387,0.00000382,-0.00000053,0.00000152,-0.00000059,0.00000
 164,0.00000243,0.00000842,-0.00000098,-0.00001438,-0.00000047,-0.00000
 197,-0.00000056,0.00000200,0.00000062,0.00000392,-0.12387526,-0.049168
 14,0.25369554,-0.01760442,0.00908115,-0.01835869,0.00233001,0.00091213
 ,0.00080137,-0.00824713,0.00563676,-0.00794362,-0.00002657,0.00000282,
 -0.00000431,-0.00027317,0.00004025,-0.00006670,0.00009347,-0.00019955,
 -0.00082391,0.00000247,-0.00001260,-0.00000470,-0.00007565,0.00002870,
 0.00015926,-0.00002021,0.00000690,0.00000432,0.00000490,0.00000629,0.0
 0000484,0.00014030,0.00000212,0.00001225,0.00001690,-0.00001503,0.0000
 1181,-0.15201427,0.06648954,-0.10543377,-0.00264318,-0.00357007,-0.000
 84424,0.00114916,0.00001097,0.00065638,-0.00001370,0.00205100,0.001127
 51,0.00065874,-0.00019051,0.00034352,-0.00008587,0.00000130,0.00000875
 ,-0.00022097,-0.00003324,0.00044789,0.00020020,-0.00006429,0.00018488,
 -0.00000639,-0.00000150,0.00000024,-0.00000078,0.00000104,0.00000118,0
 .00000244,0.00000109,-0.00000271,0.00000165,0.00000279,0.00000022,-0.0
 0000257,0.00000027,-0.00000056,0.00000043,-0.00000106,-0.00000106,-0.0
 0002845,-0.00000205,0.00001913,0.00000029,0.00000080,-0.00000058,-0.00
 000071,0.00000065,-0.00000048,0.01154939,-0.00677875,0.01042674,0.1651
 1370,-0.01661895,0.00871162,-0.01764993,0.00240861,0.00073377,0.000122
 57,0.01892207,-0.01428204,0.01916541,0.00001210,-0.00000031,0.00000310
 ,-0.00005255,-0.00025499,-0.00020720,-0.00097892,0.00095951,0.00106714
 ,0.00000013,0.00000867,0.00000518,0.00009514,0.00015769,0.00010864,0.0
 0002488,-0.00000242,-0.00001693,-0.00000108,-0.00000332,-0.00000356,-0
 .00003975,0.00005474,0.00004002,-0.00000520,0.00000328,-0.00001048,0.0
 6735801,-0.09037428,0.07112332,-0.00395731,-0.00248698,-0.00054243,0.0
 0093650,0.00118878,0.00012751,0.00242394,-0.00421643,-0.00312223,-0.00
 080732,0.00099057,0.00035396,0.00007277,0.00009842,0.00004943,0.000058
 45,0.00036562,-0.00064942,-0.00039021,0.00003792,-0.00019545,0.0000039
 8,0.00000085,-0.00000061,0.00000036,-0.00000059,-0.00000033,0.00000274
 ,-0.00000264,0.00000159,-0.00000152,-0.00000429,0.00000169,0.00000141,
 -0.00000010,0.00000043,-0.00000010,0.00000064,0.00000084,-0.00001252,-
 0.00000287,-0.00000019,-0.00000056,0.00000076,0.00000159,0.00000057,-0
 .00000011,0.00000153,0.00395230,-0.00334579,0.00406738,-0.07340795,0.1
 0166431,-0.00441945,0.00315835,-0.00770455,0.00026347,-0.00011958,0.00
 209525,0.00907928,-0.00535673,0.00840331,-0.00003594,0.00000693,-0.000
 00720,0.00028395,-0.00047108,-0.00015800,0.00017649,-0.00017532,0.0012
 3699,0.00000291,-0.00000782,-0.00000794,-0.00035303,0.00019029,-0.0000
 1851,-0.00001302,0.00000414,0.00001130,0.00000490,0.00000750,0.0000076
 9,0.00019340,0.00003479,-0.00004350,0.00001026,-0.00002476,0.00001934,
 -0.10725954,0.06997611,-0.16186189,-0.00097331,-0.00161831,0.00098659,
 0.00018342,-0.00012168,0.00011140,0.00161559,-0.00234783,-0.00008568,-
 0.00036369,0.00074791,0.00055911,-0.00006826,0.00006303,0.00002258,-0.
 00034823,-0.00001803,-0.00007123,-0.00021376,0.00002870,0.00012122,-0.
 00000682,-0.00000180,0.00000016,-0.00000097,0.00000113,0.00000145,0.00
 000157,-0.00000113,-0.00000249,0.00000279,0.00000567,-0.00000341,-0.00
 000326,0.00000044,-0.00000123,0.00000047,-0.00000132,-0.00000157,-0.00
 002040,-0.00000376,0.00002202,-0.00000024,0.00000213,0.00000054,-0.000
 00169,0.00000027,-0.00000150,-0.01701191,0.00988432,-0.01683287,0.1192
 7504,-0.07384256,0.17320263\\0.00000363,0.00001277,0.00002745,-0.00130
 221,-0.00101973,0.00068792,-0.00000876,-0.00000697,0.00000434,0.000003
 78,0.00000613,-0.00000785,0.00165229,0.00067712,-0.00129266,0.00001211
 ,-0.00000217,-0.00000436,-0.00001891,0.00000867,-0.00000363,-0.0001757
 7,0.00196890,0.00139292,0.00001500,0.00000800,-0.00000374,0.00001616,0
 .00000138,0.00001482,-0.00016479,-0.00164235,-0.00083441,-0.00002538,-
 0.00000072,0.00001825,-0.00000328,-0.00000113,0.00000564,-0.00000417,0
 .00000534,-0.00001243,0.00000294,-0.00000356,-0.00000072,-0.00000143,0
 .00000391,-0.00000518,0.00000551,0.00000220,-0.00000056,-0.00000207,-0
 .00000655,0.00001968,-0.00000007,0.00000162,0.00000260,-0.00000755,0.0
 0000217,-0.00000019,0.00000029,-0.00000405,-0.00000445,-0.00000004,0.0
 0000036,0.00000170,-0.00000070,-0.00000029,-0.00000370,-0.00000321,-0.
 00000274,0.00000535,-0.00000637,-0.00000243,0.00000448,-0.00000067,-0.
 00000637,-0.00000812,-0.00000304,0.00000519,0.00001210,0.00000531,0.00
 000251,0.00000227,0.00000894,-0.00000815,-0.00001058,-0.00000089,0.000
 00196,-0.00000653,0.00000333,-0.00000101,-0.00000040\\\@


 WE SHOULD BE CAREFUL TO GET OUT OF AN EXPERIENCE ONLY THE WISDOM
 THAT IS IN IT -- AND STOP THERE;
 LEST WE BE LIKE THE CAT THAT SITS DOWN ON A HOT STOVE-LID.
 SHE WILL NEVER SIT DOWN ON A HOT STOVE LID AGAIN;
 BUT ALSO SHE WILL NEVER SIT DOWN ON A COLD ONE ANY MORE.

                                                     -- MARK TWAIN
 Job cpu time:       0 days 14 hours 10 minutes 23.7 seconds.
 Elapsed time:       0 days  0 hours 53 minutes 10.6 seconds.
 File lengths (MBytes):  RWF=    689 Int=      0 D2E=      0 Chk=     33 Scr=      1
 Normal termination of Gaussian 16 at Sun Nov  4 22:46:56 2018.
