 Entering Gaussian System, Link 0=g16
 Initial command:
 /apps/gaussian/g16a03/g16/l1.exe "/jobfs/local/2012060.r-man2/Gau-23655.inp" -scrdir="/jobfs/local/2012060.r-man2/"
 Entering Link 1 = /apps/gaussian/g16a03/g16/l1.exe PID=     23656.
  
 Copyright (c) 1988,1990,1992,1993,1995,1998,2003,2009,2016,
            Gaussian, Inc.  All Rights Reserved.
  
 This is part of the Gaussian(R) 16 program.  It is based on
 the Gaussian(R) 09 system (copyright 2009, Gaussian, Inc.),
 the Gaussian(R) 03 system (copyright 2003, Gaussian, Inc.),
 the Gaussian(R) 98 system (copyright 1998, Gaussian, Inc.),
 the Gaussian(R) 94 system (copyright 1995, Gaussian, Inc.),
 the Gaussian 92(TM) system (copyright 1992, Gaussian, Inc.),
 the Gaussian 90(TM) system (copyright 1990, Gaussian, Inc.),
 the Gaussian 88(TM) system (copyright 1988, Gaussian, Inc.),
 the Gaussian 86(TM) system (copyright 1986, Carnegie Mellon
 University), and the Gaussian 82(TM) system (copyright 1983,
 Carnegie Mellon University). Gaussian is a federally registered
 trademark of Gaussian, Inc.
  
 This software contains proprietary and confidential information,
 including trade secrets, belonging to Gaussian, Inc.
  
 This software is provided under written license and may be
 used, copied, transmitted, or stored only in accord with that
 written license.
  
 The following legend is applicable only to US Government
 contracts under FAR:
  
                    RESTRICTED RIGHTS LEGEND
  
 Use, reproduction and disclosure by the US Government is
 subject to restrictions as set forth in subparagraphs (a)
 and (c) of the Commercial Computer Software - Restricted
 Rights clause in FAR 52.227-19.
  
 Gaussian, Inc.
 340 Quinnipiac St., Bldg. 40, Wallingford CT 06492
  
  
 ---------------------------------------------------------------
 Warning -- This program may not be used in any manner that
 competes with the business of Gaussian, Inc. or will provide
 assistance to any competitor of Gaussian, Inc.  The licensee
 of this program is prohibited from giving any competitor of
 Gaussian, Inc. access to this program.  By using this program,
 the user acknowledges that Gaussian, Inc. is engaged in the
 business of creating and licensing software in the field of
 computational chemistry and represents and warrants to the
 licensee that it is not a competitor of Gaussian, Inc. and that
 it will not use this program in any manner prohibited above.
 ---------------------------------------------------------------
  

 Cite this work as:
 Gaussian 16, Revision A.03,
 M. J. Frisch, G. W. Trucks, H. B. Schlegel, G. E. Scuseria, 
 M. A. Robb, J. R. Cheeseman, G. Scalmani, V. Barone, 
 G. A. Petersson, H. Nakatsuji, X. Li, M. Caricato, A. V. Marenich, 
 J. Bloino, B. G. Janesko, R. Gomperts, B. Mennucci, H. P. Hratchian, 
 J. V. Ortiz, A. F. Izmaylov, J. L. Sonnenberg, D. Williams-Young, 
 F. Ding, F. Lipparini, F. Egidi, J. Goings, B. Peng, A. Petrone, 
 T. Henderson, D. Ranasinghe, V. G. Zakrzewski, J. Gao, N. Rega, 
 G. Zheng, W. Liang, M. Hada, M. Ehara, K. Toyota, R. Fukuda, 
 J. Hasegawa, M. Ishida, T. Nakajima, Y. Honda, O. Kitao, H. Nakai, 
 T. Vreven, K. Throssell, J. A. Montgomery, Jr., J. E. Peralta, 
 F. Ogliaro, M. J. Bearpark, J. J. Heyd, E. N. Brothers, K. N. Kudin, 
 V. N. Staroverov, T. A. Keith, R. Kobayashi, J. Normand, 
 K. Raghavachari, A. P. Rendell, J. C. Burant, S. S. Iyengar, 
 J. Tomasi, M. Cossi, J. M. Millam, M. Klene, C. Adamo, R. Cammi, 
 J. W. Ochterski, R. L. Martin, K. Morokuma, O. Farkas, 
 J. B. Foresman, and D. J. Fox, Gaussian, Inc., Wallingford CT, 2016.
 
 ******************************************
 Gaussian 16:  ES64L-G16RevA.03 25-Dec-2016
                 4-Nov-2018 
 ******************************************
 %mem=6000mb
 %nproc=24
 Will use up to   24 processors via shared memory.
 %chk=L_a1-e4_D_PHI.inp_extract_8.chk
 ----------------------------------------------------------------------
 #M062X/6-311++G(2d,2p) opt=ModRedundant freq=noraman SCRF=(Solvent=Wat
 er)
 ----------------------------------------------------------------------
 1/18=120,19=15,26=3,38=1/1,3;
 2/9=110,12=2,17=6,18=5,40=1/2;
 3/5=4,6=6,7=1212,11=2,25=1,30=1,70=2201,71=1,72=1,74=-55/1,2,3;
 4//1;
 5/5=2,38=5,53=1/2;
 6/7=2,8=2,9=2,10=2,28=1/1;
 7//1,2,3,16;
 1/18=20,19=15,26=3/3(2);
 2/9=110/2;
 99//99;
 2/9=110/2;
 3/5=4,6=6,7=1212,11=2,25=1,30=1,70=2205,71=1,72=1,74=-55/1,2,3;
 4/5=5,16=3,69=1/1;
 5/5=2,38=5,53=1/2;
 7//1,2,3,16;
 1/18=20,19=15,26=3/3(-5);
 2/9=110/2;
 6/7=2,8=2,9=2,10=2,19=2,28=1/1;
 99/9=1/99;
 ---------------------------
 L_a1-e4_D_PHI.inp_extract_8
 ---------------------------
 Symbolic Z-matrix:
 Charge =  0 Multiplicity = 1
 C                    -2.00214  -1.4772   -0.36394 
 O                    -1.77139  -0.96516   0.94631 
 C                    -2.47914   0.82304  -1.19231 
 O                     2.50653  -1.37461  -0.2393 
 C                    -1.50518   0.39276   1.16245 
 C                    -2.30617   1.31983   0.24286 
 C                     2.95615   0.91174  -0.88686 
 O                    -0.12715   0.68808   1.20499 
 C                     1.82283   1.38711   0.02505 
 C                     3.52717  -0.40365  -0.38275 
 C                     0.79992   0.27424   0.21734 
 C                     1.50042  -1.00063   0.67785 
 C                    -2.96752  -0.6218   -1.16235 
 H                    -1.06012  -1.57548  -0.88922 
 H                    -2.39743  -2.47089  -0.20565 
 H                    -1.54514   0.88645  -1.74305 
 H                    -3.19297   1.45837  -1.70739 
 H                    -1.81227   0.57465   2.17967 
 H                    -3.29361   1.41069   0.68821 
 H                    -1.85239   2.30391   0.27562 
 H                     3.74662   1.65513  -0.92918 
 H                     2.58549   0.77344  -1.89952 
 H                     2.22449   1.66155   0.99798 
 H                     1.33703   2.26584  -0.38744 
 H                     4.24442  -0.81652  -1.07888 
 H                     4.02062  -0.2646    0.57664 
 H                     0.30564   0.08829  -0.72475 
 H                     0.81185  -1.82992   0.73987 
 H                     1.93898  -0.839     1.66016 
 H                    -3.04822  -1.03364  -2.16408 
 H                    -3.95496  -0.66742  -0.70903 
 
 The following ModRedundant input section has been read:
 D       2       5       8      11 F                                           
 

 GradGradGradGradGradGradGradGradGradGradGradGradGradGradGradGradGradGrad
 Berny optimization.
 Initialization pass.
                           ----------------------------
                           !    Initial Parameters    !
                           ! (Angstroms and Degrees)  !
 --------------------------                            --------------------------
 ! Name  Definition              Value          Derivative Info.                !
 --------------------------------------------------------------------------------
 ! R1    R(1,2)                  1.4255         estimate D2E/DX2                !
 ! R2    R(1,13)                 1.5169         estimate D2E/DX2                !
 ! R3    R(1,14)                 1.083          estimate D2E/DX2                !
 ! R4    R(1,15)                 1.0811         estimate D2E/DX2                !
 ! R5    R(2,5)                  1.4005         estimate D2E/DX2                !
 ! R6    R(3,6)                  1.5285         estimate D2E/DX2                !
 ! R7    R(3,13)                 1.5254         estimate D2E/DX2                !
 ! R8    R(3,16)                 1.0861         estimate D2E/DX2                !
 ! R9    R(3,17)                 1.0856         estimate D2E/DX2                !
 ! R10   R(4,10)                 1.416          estimate D2E/DX2                !
 ! R11   R(4,12)                 1.4118         estimate D2E/DX2                !
 ! R12   R(5,6)                  1.5319         estimate D2E/DX2                !
 ! R13   R(5,8)                  1.41           estimate D2E/DX2                !
 ! R14   R(5,18)                 1.078          estimate D2E/DX2                !
 ! R15   R(6,19)                 1.087          estimate D2E/DX2                !
 ! R16   R(6,20)                 1.0842         estimate D2E/DX2                !
 ! R17   R(7,9)                  1.5303         estimate D2E/DX2                !
 ! R18   R(7,10)                 1.52           estimate D2E/DX2                !
 ! R19   R(7,21)                 1.0859         estimate D2E/DX2                !
 ! R20   R(7,22)                 1.0872         estimate D2E/DX2                !
 ! R21   R(8,11)                 1.4164         estimate D2E/DX2                !
 ! R22   R(9,11)                 1.5237         estimate D2E/DX2                !
 ! R23   R(9,23)                 1.0878         estimate D2E/DX2                !
 ! R24   R(9,24)                 1.0855         estimate D2E/DX2                !
 ! R25   R(10,25)                1.0814         estimate D2E/DX2                !
 ! R26   R(10,26)                1.0878         estimate D2E/DX2                !
 ! R27   R(11,12)                1.5258         estimate D2E/DX2                !
 ! R28   R(11,27)                1.08           estimate D2E/DX2                !
 ! R29   R(12,28)                1.0797         estimate D2E/DX2                !
 ! R30   R(12,29)                1.0878         estimate D2E/DX2                !
 ! R31   R(13,30)                1.0861         estimate D2E/DX2                !
 ! R32   R(13,31)                1.0875         estimate D2E/DX2                !
 ! A1    A(2,1,13)             112.5957         estimate D2E/DX2                !
 ! A2    A(2,1,14)             109.7295         estimate D2E/DX2                !
 ! A3    A(2,1,15)             104.7593         estimate D2E/DX2                !
 ! A4    A(13,1,14)            110.4526         estimate D2E/DX2                !
 ! A5    A(13,1,15)            111.2654         estimate D2E/DX2                !
 ! A6    A(14,1,15)            107.7965         estimate D2E/DX2                !
 ! A7    A(1,2,5)              121.3904         estimate D2E/DX2                !
 ! A8    A(6,3,13)             109.0036         estimate D2E/DX2                !
 ! A9    A(6,3,16)             111.0882         estimate D2E/DX2                !
 ! A10   A(6,3,17)             109.2497         estimate D2E/DX2                !
 ! A11   A(13,3,16)            109.9115         estimate D2E/DX2                !
 ! A12   A(13,3,17)            110.6777         estimate D2E/DX2                !
 ! A13   A(16,3,17)            106.8997         estimate D2E/DX2                !
 ! A14   A(10,4,12)            113.4428         estimate D2E/DX2                !
 ! A15   A(2,5,6)              113.2491         estimate D2E/DX2                !
 ! A16   A(2,5,8)              113.1731         estimate D2E/DX2                !
 ! A17   A(2,5,18)             104.7775         estimate D2E/DX2                !
 ! A18   A(6,5,8)              113.7276         estimate D2E/DX2                !
 ! A19   A(6,5,18)             108.384          estimate D2E/DX2                !
 ! A20   A(8,5,18)             102.3923         estimate D2E/DX2                !
 ! A21   A(3,6,5)              115.2209         estimate D2E/DX2                !
 ! A22   A(3,6,19)             108.0015         estimate D2E/DX2                !
 ! A23   A(3,6,20)             111.7611         estimate D2E/DX2                !
 ! A24   A(5,6,19)             106.2377         estimate D2E/DX2                !
 ! A25   A(5,6,20)             108.1995         estimate D2E/DX2                !
 ! A26   A(19,6,20)            106.9753         estimate D2E/DX2                !
 ! A27   A(9,7,10)             110.4509         estimate D2E/DX2                !
 ! A28   A(9,7,21)             110.4652         estimate D2E/DX2                !
 ! A29   A(9,7,22)             110.002          estimate D2E/DX2                !
 ! A30   A(10,7,21)            109.3828         estimate D2E/DX2                !
 ! A31   A(10,7,22)            109.0813         estimate D2E/DX2                !
 ! A32   A(21,7,22)            107.3945         estimate D2E/DX2                !
 ! A33   A(5,8,11)             123.881          estimate D2E/DX2                !
 ! A34   A(7,9,11)             110.2109         estimate D2E/DX2                !
 ! A35   A(7,9,23)             109.748          estimate D2E/DX2                !
 ! A36   A(7,9,24)             110.8828         estimate D2E/DX2                !
 ! A37   A(11,9,23)            108.6189         estimate D2E/DX2                !
 ! A38   A(11,9,24)            109.801          estimate D2E/DX2                !
 ! A39   A(23,9,24)            107.5114         estimate D2E/DX2                !
 ! A40   A(4,10,7)             110.8679         estimate D2E/DX2                !
 ! A41   A(4,10,25)            106.3487         estimate D2E/DX2                !
 ! A42   A(4,10,26)            108.982          estimate D2E/DX2                !
 ! A43   A(7,10,25)            111.4731         estimate D2E/DX2                !
 ! A44   A(7,10,26)            110.628          estimate D2E/DX2                !
 ! A45   A(25,10,26)           108.4012         estimate D2E/DX2                !
 ! A46   A(8,11,9)             108.3003         estimate D2E/DX2                !
 ! A47   A(8,11,12)            109.5221         estimate D2E/DX2                !
 ! A48   A(8,11,27)            111.0389         estimate D2E/DX2                !
 ! A49   A(9,11,12)            109.8847         estimate D2E/DX2                !
 ! A50   A(9,11,27)            108.8384         estimate D2E/DX2                !
 ! A51   A(12,11,27)           109.2401         estimate D2E/DX2                !
 ! A52   A(4,12,11)            110.6362         estimate D2E/DX2                !
 ! A53   A(4,12,28)            106.759          estimate D2E/DX2                !
 ! A54   A(4,12,29)            109.7951         estimate D2E/DX2                !
 ! A55   A(11,12,28)           111.4883         estimate D2E/DX2                !
 ! A56   A(11,12,29)           109.4802         estimate D2E/DX2                !
 ! A57   A(28,12,29)           108.624          estimate D2E/DX2                !
 ! A58   A(1,13,3)             109.919          estimate D2E/DX2                !
 ! A59   A(1,13,30)            108.5969         estimate D2E/DX2                !
 ! A60   A(1,13,31)            109.5597         estimate D2E/DX2                !
 ! A61   A(3,13,30)            111.3978         estimate D2E/DX2                !
 ! A62   A(3,13,31)            109.7934         estimate D2E/DX2                !
 ! A63   A(30,13,31)           107.5231         estimate D2E/DX2                !
 ! D1    D(13,1,2,5)           -46.2817         estimate D2E/DX2                !
 ! D2    D(14,1,2,5)            77.1774         estimate D2E/DX2                !
 ! D3    D(15,1,2,5)          -167.3386         estimate D2E/DX2                !
 ! D4    D(2,1,13,3)            54.4326         estimate D2E/DX2                !
 ! D5    D(2,1,13,30)          176.5303         estimate D2E/DX2                !
 ! D6    D(2,1,13,31)          -66.2966         estimate D2E/DX2                !
 ! D7    D(14,1,13,3)          -68.6232         estimate D2E/DX2                !
 ! D8    D(14,1,13,30)          53.4744         estimate D2E/DX2                !
 ! D9    D(14,1,13,31)         170.6475         estimate D2E/DX2                !
 ! D10   D(15,1,13,3)          171.6953         estimate D2E/DX2                !
 ! D11   D(15,1,13,30)         -66.207          estimate D2E/DX2                !
 ! D12   D(15,1,13,31)          50.9661         estimate D2E/DX2                !
 ! D13   D(1,2,5,6)             37.2147         estimate D2E/DX2                !
 ! D14   D(1,2,5,8)            -94.1066         estimate D2E/DX2                !
 ! D15   D(1,2,5,18)           155.1405         estimate D2E/DX2                !
 ! D16   D(13,3,6,5)            49.4274         estimate D2E/DX2                !
 ! D17   D(13,3,6,19)          -69.1307         estimate D2E/DX2                !
 ! D18   D(13,3,6,20)          173.4656         estimate D2E/DX2                !
 ! D19   D(16,3,6,5)           -71.8288         estimate D2E/DX2                !
 ! D20   D(16,3,6,19)          169.6131         estimate D2E/DX2                !
 ! D21   D(16,3,6,20)           52.2094         estimate D2E/DX2                !
 ! D22   D(17,3,6,5)           170.4816         estimate D2E/DX2                !
 ! D23   D(17,3,6,19)           51.9235         estimate D2E/DX2                !
 ! D24   D(17,3,6,20)          -65.4801         estimate D2E/DX2                !
 ! D25   D(6,3,13,1)           -56.2505         estimate D2E/DX2                !
 ! D26   D(6,3,13,30)         -176.6688         estimate D2E/DX2                !
 ! D27   D(6,3,13,31)           64.3377         estimate D2E/DX2                !
 ! D28   D(16,3,13,1)           65.7204         estimate D2E/DX2                !
 ! D29   D(16,3,13,30)         -54.6978         estimate D2E/DX2                !
 ! D30   D(16,3,13,31)        -173.6913         estimate D2E/DX2                !
 ! D31   D(17,3,13,1)         -176.4282         estimate D2E/DX2                !
 ! D32   D(17,3,13,30)          63.1536         estimate D2E/DX2                !
 ! D33   D(17,3,13,31)         -55.8399         estimate D2E/DX2                !
 ! D34   D(12,4,10,7)          -60.4176         estimate D2E/DX2                !
 ! D35   D(12,4,10,25)         178.2435         estimate D2E/DX2                !
 ! D36   D(12,4,10,26)          61.5773         estimate D2E/DX2                !
 ! D37   D(10,4,12,11)          61.2628         estimate D2E/DX2                !
 ! D38   D(10,4,12,28)        -177.2575         estimate D2E/DX2                !
 ! D39   D(10,4,12,29)         -59.686          estimate D2E/DX2                !
 ! D40   D(2,5,6,3)            -38.5872         estimate D2E/DX2                !
 ! D41   D(2,5,6,19)            80.9492         estimate D2E/DX2                !
 ! D42   D(2,5,6,20)          -164.4777         estimate D2E/DX2                !
 ! D43   D(8,5,6,3)             92.4592         estimate D2E/DX2                !
 ! D44   D(8,5,6,19)          -148.0045         estimate D2E/DX2                !
 ! D45   D(8,5,6,20)           -33.4313         estimate D2E/DX2                !
 ! D46   D(18,5,6,3)          -154.3928         estimate D2E/DX2                !
 ! D47   D(18,5,6,19)          -34.8564         estimate D2E/DX2                !
 ! D48   D(18,5,6,20)           79.7167         estimate D2E/DX2                !
 ! D49   D(2,5,8,11)            50.4621         Frozen                          !
 ! D50   D(6,5,8,11)           -80.6217         estimate D2E/DX2                !
 ! D51   D(18,5,8,11)          162.6794         estimate D2E/DX2                !
 ! D52   D(10,7,9,11)          -51.9118         estimate D2E/DX2                !
 ! D53   D(10,7,9,23)           67.6685         estimate D2E/DX2                !
 ! D54   D(10,7,9,24)         -173.7022         estimate D2E/DX2                !
 ! D55   D(21,7,9,11)         -173.0585         estimate D2E/DX2                !
 ! D56   D(21,7,9,23)          -53.4782         estimate D2E/DX2                !
 ! D57   D(21,7,9,24)           65.151          estimate D2E/DX2                !
 ! D58   D(22,7,9,11)           68.555          estimate D2E/DX2                !
 ! D59   D(22,7,9,23)         -171.8647         estimate D2E/DX2                !
 ! D60   D(22,7,9,24)          -53.2354         estimate D2E/DX2                !
 ! D61   D(9,7,10,4)            54.7238         estimate D2E/DX2                !
 ! D62   D(9,7,10,25)          172.9967         estimate D2E/DX2                !
 ! D63   D(9,7,10,26)          -66.3042         estimate D2E/DX2                !
 ! D64   D(21,7,10,4)          176.5116         estimate D2E/DX2                !
 ! D65   D(21,7,10,25)         -65.2155         estimate D2E/DX2                !
 ! D66   D(21,7,10,26)          55.4836         estimate D2E/DX2                !
 ! D67   D(22,7,10,4)          -66.2924         estimate D2E/DX2                !
 ! D68   D(22,7,10,25)          51.9805         estimate D2E/DX2                !
 ! D69   D(22,7,10,26)         172.6796         estimate D2E/DX2                !
 ! D70   D(5,8,11,9)           143.0897         estimate D2E/DX2                !
 ! D71   D(5,8,11,12)          -97.0851         estimate D2E/DX2                !
 ! D72   D(5,8,11,27)           23.6436         estimate D2E/DX2                !
 ! D73   D(7,9,11,8)           172.0987         estimate D2E/DX2                !
 ! D74   D(7,9,11,12)           52.501          estimate D2E/DX2                !
 ! D75   D(7,9,11,27)          -67.0799         estimate D2E/DX2                !
 ! D76   D(23,9,11,8)           51.8358         estimate D2E/DX2                !
 ! D77   D(23,9,11,12)         -67.7618         estimate D2E/DX2                !
 ! D78   D(23,9,11,27)         172.6572         estimate D2E/DX2                !
 ! D79   D(24,9,11,8)          -65.4717         estimate D2E/DX2                !
 ! D80   D(24,9,11,12)         174.9306         estimate D2E/DX2                !
 ! D81   D(24,9,11,27)          55.3497         estimate D2E/DX2                !
 ! D82   D(8,11,12,4)         -175.2669         estimate D2E/DX2                !
 ! D83   D(8,11,12,28)          66.0876         estimate D2E/DX2                !
 ! D84   D(8,11,12,29)         -54.1315         estimate D2E/DX2                !
 ! D85   D(9,11,12,4)          -56.4175         estimate D2E/DX2                !
 ! D86   D(9,11,12,28)        -175.063          estimate D2E/DX2                !
 ! D87   D(9,11,12,29)          64.718          estimate D2E/DX2                !
 ! D88   D(27,11,12,4)          62.9181         estimate D2E/DX2                !
 ! D89   D(27,11,12,28)        -55.7274         estimate D2E/DX2                !
 ! D90   D(27,11,12,29)       -175.9465         estimate D2E/DX2                !
 --------------------------------------------------------------------------------
 Trust Radius=3.00D-01 FncErr=1.00D-07 GrdErr=1.00D-06 EigMax=2.50D+02 EigMin=1.00D-04
 Number of steps in this run=    186 maximum allowed number of steps=    186.
 GradGradGradGradGradGradGradGradGradGradGradGradGradGradGradGradGradGrad

                          Input orientation:                          
 ---------------------------------------------------------------------
 Center     Atomic      Atomic             Coordinates (Angstroms)
 Number     Number       Type             X           Y           Z
 ---------------------------------------------------------------------
      1          6           0       -2.002144   -1.477198   -0.363942
      2          8           0       -1.771393   -0.965159    0.946310
      3          6           0       -2.479136    0.823037   -1.192307
      4          8           0        2.506531   -1.374609   -0.239297
      5          6           0       -1.505178    0.392761    1.162451
      6          6           0       -2.306168    1.319827    0.242862
      7          6           0        2.956150    0.911735   -0.886855
      8          8           0       -0.127152    0.688084    1.204988
      9          6           0        1.822826    1.387112    0.025045
     10          6           0        3.527173   -0.403650   -0.382752
     11          6           0        0.799921    0.274243    0.217338
     12          6           0        1.500422   -1.000630    0.677847
     13          6           0       -2.967516   -0.621798   -1.162351
     14          1           0       -1.060123   -1.575482   -0.889220
     15          1           0       -2.397433   -2.470887   -0.205648
     16          1           0       -1.545135    0.886449   -1.743046
     17          1           0       -3.192970    1.458365   -1.707385
     18          1           0       -1.812267    0.574651    2.179672
     19          1           0       -3.293613    1.410689    0.688211
     20          1           0       -1.852389    2.303908    0.275616
     21          1           0        3.746621    1.655134   -0.929175
     22          1           0        2.585486    0.773442   -1.899516
     23          1           0        2.224489    1.661551    0.997980
     24          1           0        1.337031    2.265840   -0.387441
     25          1           0        4.244423   -0.816522   -1.078877
     26          1           0        4.020620   -0.264603    0.576640
     27          1           0        0.305642    0.088293   -0.724749
     28          1           0        0.811845   -1.829919    0.739873
     29          1           0        1.938983   -0.839003    1.660157
     30          1           0       -3.048224   -1.033642   -2.164081
     31          1           0       -3.954957   -0.667424   -0.709030
 ---------------------------------------------------------------------
                    Distance matrix (angstroms):
                    1          2          3          4          5
     1  C    0.000000
     2  O    1.425549   0.000000
     3  C    2.490942   2.876148   0.000000
     4  O    4.511564   4.458021   5.531252   0.000000
     5  C    2.464467   1.400548   2.584302   4.602424   0.000000
     6  C    2.878192   2.449895   1.528538   5.536654   1.531888
     7  C    5.528573   5.406745   5.444585   2.418441   4.936845
     8  O    3.265820   2.345987   3.361111   3.643755   1.409958
     9  C    4.794369   4.393213   4.506329   2.857347   3.654865
    10  C    5.632602   5.491493   6.183517   1.415998   5.324141
    11  C    3.355145   2.946044   3.611162   2.416557   2.494146
    12  C    3.685161   3.283002   4.760265   1.411832   3.348135
    13  C    1.516941   2.448481   1.525438   5.602137   2.927878
    14  H    1.083042   2.060963   2.803275   3.630946   2.877744
    15  H    1.081077   1.996535   3.439492   5.025119   3.296710
    16  H    2.774457   3.272962   1.086136   4.877463   2.947412
    17  H    3.440993   3.864770   1.085590   6.531871   3.495728
    18  H    3.273547   1.973288   3.446252   5.320060   1.078020
    19  H    3.333888   2.833447   2.131914   6.500756   2.111772
    20  H    3.837737   3.338142   2.177289   5.726850   2.135302
    21  H    6.571095   6.389981   6.286627   3.345609   5.792226
    22  H    5.335702   5.486698   5.114000   2.716005   5.123875
    23  H    5.437923   4.782191   5.255906   3.290694   3.943006
    24  H    5.016072   4.677665   4.158440   3.826558   3.740153
    25  H    6.321964   6.349293   6.921507   2.009135   6.288388
    26  H    6.215205   5.845926   6.823413   2.047030   5.595511
    27  H    2.811907   2.866404   2.917781   2.686942   2.633115
    28  H    3.043247   2.731949   4.647801   2.009488   3.238437
    29  H    4.476243   3.780527   5.515315   2.053512   3.691504
    30  H    2.128738   3.362963   2.171512   5.888663   3.934645
    31  H    2.142031   2.756220   2.152459   6.517023   3.260038
                    6          7          8          9         10
     6  C    0.000000
     7  C    5.397665   0.000000
     8  O    2.464325   3.732637   0.000000
     9  C    4.135283   1.530349   2.383971   0.000000
    10  C    6.114706   1.520008   4.131210   2.505579   0.000000
    11  C    3.277451   2.504987   1.416397   1.523742   2.873595
    12  C    4.479270   2.867852   2.403878   2.496279   2.364101
    13  C    2.486345   6.125148   3.922723   5.328509   6.544948
    14  H    3.349187   4.724056   3.221781   4.233703   4.761616
    15  H    3.818246   6.369225   4.138015   5.722583   6.277403
    16  H    2.170442   4.582059   3.277336   3.836661   5.407686
    17  H    2.146875   6.227660   4.298196   5.307033   7.098033
    18  H    2.133180   5.679350   1.949997   4.303070   6.002725
    19  H    1.087032   6.464466   3.288722   5.159292   7.138761
    20  H    1.084160   5.139215   2.539894   3.796117   6.058383
    21  H    6.174330   1.085945   4.527246   2.164107   2.141338
    22  H    5.368109   1.087198   4.123547   2.159207   2.138432
    23  H    4.605848   2.156422   2.553567   1.087774   2.805078
    24  H    3.816428   2.169000   2.677494   1.085497   3.452958
    25  H    7.015784   2.164115   5.156602   3.455254   1.081435
    26  H    6.530702   2.158399   4.301912   2.804054   1.087776
    27  H    3.045406   2.780203   2.066626   2.133300   3.276772
    28  H    4.459812   3.841999   2.727341   3.447078   3.266119
    29  H    4.968962   3.253764   2.609231   2.764538   2.623996
    30  H    3.447149   6.439589   4.779919   5.863399   6.841481
    31  H    2.752048   7.091457   4.489205   6.175983   7.493884
                   11         12         13         14         15
    11  C    0.000000
    12  C    1.525802   0.000000
    13  C    4.110963   4.846887   0.000000
    14  H    2.847054   3.056558   2.149945   0.000000
    15  H    4.235296   4.258579   2.158566   1.748548   0.000000
    16  H    3.117241   4.324027   2.152948   2.650540   3.789685
    17  H    4.588015   5.810673   2.162168   3.797717   4.281018
    18  H    3.280934   3.963697   3.732989   3.821896   3.912477
    19  H    4.274371   5.366315   2.768018   4.048948   4.082739
    20  H    3.340312   4.724733   3.445434   4.127250   4.829840
    21  H    3.450274   3.831581   7.093548   5.791655   7.436191
    22  H    2.813985   3.311721   5.772862   4.452932   6.182584
    23  H    2.136216   2.777403   6.069401   4.982829   6.315689
    24  H    2.149582   3.439675   5.240998   4.555643   6.034555
    25  H    3.838559   3.263360   7.215050   5.361921   6.900268
    26  H    3.285172   2.627428   7.210113   5.448036   6.831623
    27  H    1.080008   2.140217   3.377764   2.158822   3.758388
    28  H    2.168106   1.079679   4.400180   2.494583   3.406511
    29  H    2.149071   1.087838   5.664580   4.004543   4.994875
    30  H    4.710620   5.363565   1.086090   2.423099   2.514888
    31  H    4.934953   5.638760   1.087484   3.039260   2.435519
                   16         17         18         19         20
    16  H    0.000000
    17  H    1.744626   0.000000
    18  H    3.944147   4.218590   0.000000
    19  H    3.040232   2.398183   2.262256   0.000000
    20  H    2.485677   2.538581   2.572425   1.745051   0.000000
    21  H    5.408876   6.985861   6.460155   7.227765   5.763796
    22  H    4.135128   5.822078   6.001627   6.454938   5.173805
    23  H    4.724836   6.058807   4.344323   5.532480   4.189912
    24  H    3.470917   4.786980   4.400939   4.830235   3.257836
    25  H    6.071261   7.802881   7.016908   8.056367   6.981608
    26  H    6.138688   7.760236   6.107097   7.504469   6.417172
    27  H    2.258176   3.883678   3.627360   4.086542   3.250658
    28  H    4.370228   5.730657   3.839393   5.230583   4.939859
    29  H    5.167016   6.554020   4.042300   5.778049   5.115598
    30  H    2.474530   2.537641   4.793995   3.764378   4.303648
    31  H    3.048106   2.469072   3.805058   2.590022   3.770827
                   21         22         23         24         25
    21  H    0.000000
    22  H    1.751336   0.000000
    23  H    2.455780   3.051973   0.000000
    24  H    2.544123   2.464196   1.752752   0.000000
    25  H    2.525728   2.439981   3.812390   4.293247   0.000000
    26  H    2.455187   3.044420   2.667149   3.812380   1.759386
    27  H    3.786439   2.654655   3.020747   2.432951   4.056857
    28  H    4.852239   4.109704   3.775254   4.280409   4.014650
    29  H    4.024042   3.960962   2.602453   3.767632   3.580205
    30  H    7.411102   5.922351   6.712987   5.768318   7.376145
    31  H    8.047176   6.802260   6.820818   6.059092   8.209071
                   26         27         28         29         30
    26  H    0.000000
    27  H    3.952115   0.000000
    28  H    3.573947   2.465947   0.000000
    29  H    2.416021   3.035697   1.760476   0.000000
    30  H    7.620468   3.818224   4.895624   6.287680   0.000000
    31  H    8.088575   4.327131   5.115967   6.354606   1.753127
                   31
    31  H    0.000000
 Stoichiometry    C10H18O3
 Framework group  C1[X(C10H18O3)]
 Deg. of freedom    87
 Full point group                 C1      NOp   1
 Largest Abelian subgroup         C1      NOp   1
 Largest concise Abelian subgroup C1      NOp   1
                         Standard orientation:                         
 ---------------------------------------------------------------------
 Center     Atomic      Atomic             Coordinates (Angstroms)
 Number     Number       Type             X           Y           Z
 ---------------------------------------------------------------------
      1          6           0       -2.002144    1.477198    0.363942
      2          8           0       -1.771393    0.965159   -0.946310
      3          6           0       -2.479136   -0.823037    1.192307
      4          8           0        2.506531    1.374609    0.239297
      5          6           0       -1.505178   -0.392761   -1.162451
      6          6           0       -2.306168   -1.319827   -0.242862
      7          6           0        2.956150   -0.911735    0.886855
      8          8           0       -0.127152   -0.688084   -1.204988
      9          6           0        1.822826   -1.387112   -0.025045
     10          6           0        3.527173    0.403650    0.382752
     11          6           0        0.799921   -0.274243   -0.217338
     12          6           0        1.500422    1.000630   -0.677847
     13          6           0       -2.967516    0.621798    1.162351
     14          1           0       -1.060123    1.575482    0.889220
     15          1           0       -2.397433    2.470887    0.205648
     16          1           0       -1.545135   -0.886449    1.743046
     17          1           0       -3.192970   -1.458365    1.707385
     18          1           0       -1.812267   -0.574651   -2.179672
     19          1           0       -3.293613   -1.410689   -0.688211
     20          1           0       -1.852389   -2.303908   -0.275616
     21          1           0        3.746621   -1.655134    0.929175
     22          1           0        2.585486   -0.773442    1.899516
     23          1           0        2.224489   -1.661551   -0.997980
     24          1           0        1.337031   -2.265840    0.387441
     25          1           0        4.244423    0.816522    1.078877
     26          1           0        4.020620    0.264603   -0.576640
     27          1           0        0.305642   -0.088293    0.724749
     28          1           0        0.811845    1.829919   -0.739873
     29          1           0        1.938983    0.839003   -1.660157
     30          1           0       -3.048224    1.033642    2.164081
     31          1           0       -3.954957    0.667424    0.709030
 ---------------------------------------------------------------------
 Rotational constants (GHZ):           1.5087606           0.4753662           0.4485860
 Standard basis: 6-311++G(2d,2p) (5D, 7F)
 There are   557 symmetry adapted cartesian basis functions of A   symmetry.
 There are   531 symmetry adapted basis functions of A   symmetry.
   531 basis functions,   762 primitive gaussians,   557 cartesian basis functions
    51 alpha electrons       51 beta electrons
       nuclear repulsion energy       904.2148940765 Hartrees.
 NAtoms=   31 NActive=   31 NUniq=   31 SFac= 1.00D+00 NAtFMM=   60 NAOKFM=F Big=F
 Integral buffers will be    131072 words long.
 Raffenetti 2 integral format.
 Two-electron integral symmetry is turned on.
 ------------------------------------------------------------------------------
 Polarizable Continuum Model (PCM)
 =================================
 Model                : PCM.
 Atomic radii         : UFF (Universal Force Field).
 Polarization charges : Total charges.
 Charge compensation  : None.
 Solution method      : On-the-fly selection.
 Cavity type          : Scaled VdW (van der Waals Surface) (Alpha=1.100).
 Cavity algorithm     : GePol (No added spheres)
                        Default sphere list used, NSphG=   31.
                        Lebedev-Laikov grids with approx.  5.0 points / Ang**2.
                        Smoothing algorithm: York/Karplus (Gamma=1.0000).
                        Polarization charges: spherical gaussians, with
                                              point-specific exponents (IZeta= 3).
                        Self-potential: point-specific (ISelfS= 7).
                        Self-field    : sphere-specific E.n sum rule (ISelfD= 2).
 1st derivatives      : Analytical E(r).r(x)/FMM algorithm (CHGder, D1EAlg=3).
                        Cavity 1st derivative terms included.
 Solvent              : Water, Eps=  78.355300 Eps(inf)=   1.777849
 ------------------------------------------------------------------------------
 One-electron integrals computed using PRISM.
 NBasis=   531 RedAO= T EigKep=  4.99D-06  NBF=   531
 NBsUse=   531 1.00D-06 EigRej= -1.00D+00 NBFU=   531
 ExpMin= 3.60D-02 ExpMax= 8.59D+03 ExpMxC= 1.30D+03 IAcc=3 IRadAn=         5 AccDes= 0.00D+00
 Harris functional with IExCor= 1009 and IRadAn=       5 diagonalized for initial guess.
 HarFok:  IExCor= 1009 AccDes= 0.00D+00 IRadAn=         5 IDoV= 1 UseB2=F ITyADJ=14
 ICtDFT=  3500011 ScaDFX=  1.000000  1.000000  1.000000  1.000000
 FoFCou: FMM=F IPFlag=           0 FMFlag=      100000 FMFlg1=           0
         NFxFlg=           0 DoJE=T BraDBF=F KetDBF=T FulRan=T
         wScrn=  0.000000 ICntrl=       500 IOpCl=  0 I1Cent=   200000004 NGrid=           0
         NMat0=    1 NMatS0=      1 NMatT0=    0 NMatD0=    1 NMtDS0=    0 NMtDT0=    0
 Petite list used in FoFCou.
 Requested convergence on RMS density matrix=1.00D-08 within 128 cycles.
 Requested convergence on MAX density matrix=1.00D-06.
 Requested convergence on             energy=1.00D-06.
 No special actions if energy rises.
 Inv3:  Mode=1 IEnd=    12156507.
 Iteration    1 A*A^-1 deviation from unit magnitude is 3.77D-15 for   1980.
 Iteration    1 A*A^-1 deviation from orthogonality  is 2.87D-15 for   2007    867.
 Iteration    1 A^-1*A deviation from unit magnitude is 3.55D-15 for   1995.
 Iteration    1 A^-1*A deviation from orthogonality  is 1.48D-14 for   2010   1696.
 Error on total polarization charges =  0.01482
 SCF Done:  E(RM062X) =  -617.490424809     A.U. after   12 cycles
            NFock= 12  Conv=0.64D-08     -V/T= 2.0035

 **********************************************************************

            Population analysis using the SCF density.

 **********************************************************************

 Orbital symmetries:
       Occupied  (A) (A) (A) (A) (A) (A) (A) (A) (A) (A) (A) (A)
                 (A) (A) (A) (A) (A) (A) (A) (A) (A) (A) (A) (A)
                 (A) (A) (A) (A) (A) (A) (A) (A) (A) (A) (A) (A)
                 (A) (A) (A) (A) (A) (A) (A) (A) (A) (A) (A) (A)
                 (A) (A) (A)
       Virtual   (A) (A) (A) (A) (A) (A) (A) (A) (A) (A) (A) (A)
                 (A) (A) (A) (A) (A) (A) (A) (A) (A) (A) (A) (A)
                 (A) (A) (A) (A) (A) (A) (A) (A) (A) (A) (A) (A)
                 (A) (A) (A) (A) (A) (A) (A) (A) (A) (A) (A) (A)
                 (A) (A) (A) (A) (A) (A) (A) (A) (A) (A) (A) (A)
                 (A) (A) (A) (A) (A) (A) (A) (A) (A) (A) (A) (A)
                 (A) (A) (A) (A) (A) (A) (A) (A) (A) (A) (A) (A)
                 (A) (A) (A) (A) (A) (A) (A) (A) (A) (A) (A) (A)
                 (A) (A) (A) (A) (A) (A) (A) (A) (A) (A) (A) (A)
                 (A) (A) (A) (A) (A) (A) (A) (A) (A) (A) (A) (A)
                 (A) (A) (A) (A) (A) (A) (A) (A) (A) (A) (A) (A)
                 (A) (A) (A) (A) (A) (A) (A) (A) (A) (A) (A) (A)
                 (A) (A) (A) (A) (A) (A) (A) (A) (A) (A) (A) (A)
                 (A) (A) (A) (A) (A) (A) (A) (A) (A) (A) (A) (A)
                 (A) (A) (A) (A) (A) (A) (A) (A) (A) (A) (A) (A)
                 (A) (A) (A) (A) (A) (A) (A) (A) (A) (A) (A) (A)
                 (A) (A) (A) (A) (A) (A) (A) (A) (A) (A) (A) (A)
                 (A) (A) (A) (A) (A) (A) (A) (A) (A) (A) (A) (A)
                 (A) (A) (A) (A) (A) (A) (A) (A) (A) (A) (A) (A)
                 (A) (A) (A) (A) (A) (A) (A) (A) (A) (A) (A) (A)
                 (A) (A) (A) (A) (A) (A) (A) (A) (A) (A) (A) (A)
                 (A) (A) (A) (A) (A) (A) (A) (A) (A) (A) (A) (A)
                 (A) (A) (A) (A) (A) (A) (A) (A) (A) (A) (A) (A)
                 (A) (A) (A) (A) (A) (A) (A) (A) (A) (A) (A) (A)
                 (A) (A) (A) (A) (A) (A) (A) (A) (A) (A) (A) (A)
                 (A) (A) (A) (A) (A) (A) (A) (A) (A) (A) (A) (A)
                 (A) (A) (A) (A) (A) (A) (A) (A) (A) (A) (A) (A)
                 (A) (A) (A) (A) (A) (A) (A) (A) (A) (A) (A) (A)
                 (A) (A) (A) (A) (A) (A) (A) (A) (A) (A) (A) (A)
                 (A) (A) (A) (A) (A) (A) (A) (A) (A) (A) (A) (A)
                 (A) (A) (A) (A) (A) (A) (A) (A) (A) (A) (A) (A)
                 (A) (A) (A) (A) (A) (A) (A) (A) (A) (A) (A) (A)
                 (A) (A) (A) (A) (A) (A) (A) (A) (A) (A) (A) (A)
                 (A) (A) (A) (A) (A) (A) (A) (A) (A) (A) (A) (A)
                 (A) (A) (A) (A) (A) (A) (A) (A) (A) (A) (A) (A)
                 (A) (A) (A) (A) (A) (A) (A) (A) (A) (A) (A) (A)
                 (A) (A) (A) (A) (A) (A) (A) (A) (A) (A) (A) (A)
                 (A) (A) (A) (A) (A) (A) (A) (A) (A) (A) (A) (A)
                 (A) (A) (A) (A) (A) (A) (A) (A) (A) (A) (A) (A)
                 (A) (A) (A) (A) (A) (A) (A) (A) (A) (A) (A) (A)
 The electronic state is 1-A.
 Alpha  occ. eigenvalues --  -19.63185 -19.62835 -19.62579 -10.63850 -10.58779
 Alpha  occ. eigenvalues --  -10.58179 -10.57822 -10.57643 -10.53282 -10.53127
 Alpha  occ. eigenvalues --  -10.53109 -10.53089 -10.53061  -1.19636  -1.16668
 Alpha  occ. eigenvalues --   -1.13540  -0.90895  -0.90408  -0.87740  -0.84670
 Alpha  occ. eigenvalues --   -0.75418  -0.74330  -0.73882  -0.70615  -0.65937
 Alpha  occ. eigenvalues --   -0.64548  -0.59787  -0.58234  -0.57646  -0.55470
 Alpha  occ. eigenvalues --   -0.55249  -0.53427  -0.52566  -0.51158  -0.50652
 Alpha  occ. eigenvalues --   -0.48905  -0.47420  -0.45838  -0.45395  -0.44612
 Alpha  occ. eigenvalues --   -0.43886  -0.42561  -0.40821  -0.40543  -0.39564
 Alpha  occ. eigenvalues --   -0.39023  -0.37582  -0.37102  -0.34167  -0.33703
 Alpha  occ. eigenvalues --   -0.31250
 Alpha virt. eigenvalues --   -0.00219   0.00649   0.00896   0.01098   0.02242
 Alpha virt. eigenvalues --    0.02569   0.02655   0.03250   0.03588   0.04676
 Alpha virt. eigenvalues --    0.04814   0.05018   0.05459   0.05763   0.07396
 Alpha virt. eigenvalues --    0.07545   0.07655   0.08508   0.08694   0.09484
 Alpha virt. eigenvalues --    0.09969   0.10218   0.10998   0.11685   0.11823
 Alpha virt. eigenvalues --    0.12271   0.12457   0.12930   0.13503   0.13634
 Alpha virt. eigenvalues --    0.13978   0.14046   0.14367   0.14430   0.14684
 Alpha virt. eigenvalues --    0.15110   0.15525   0.15687   0.16134   0.16245
 Alpha virt. eigenvalues --    0.16487   0.16780   0.17201   0.17592   0.17754
 Alpha virt. eigenvalues --    0.18077   0.18272   0.18486   0.18827   0.19373
 Alpha virt. eigenvalues --    0.19577   0.19813   0.20419   0.21036   0.21353
 Alpha virt. eigenvalues --    0.21680   0.22094   0.22812   0.23677   0.24285
 Alpha virt. eigenvalues --    0.25104   0.25774   0.26277   0.26524   0.27349
 Alpha virt. eigenvalues --    0.27423   0.28184   0.28379   0.29194   0.29731
 Alpha virt. eigenvalues --    0.29949   0.30681   0.31117   0.31618   0.32472
 Alpha virt. eigenvalues --    0.32903   0.33268   0.33423   0.33831   0.34519
 Alpha virt. eigenvalues --    0.35115   0.35187   0.35660   0.36178   0.36642
 Alpha virt. eigenvalues --    0.36840   0.37047   0.37607   0.38130   0.38403
 Alpha virt. eigenvalues --    0.39263   0.39492   0.39789   0.39836   0.40794
 Alpha virt. eigenvalues --    0.41234   0.41763   0.42627   0.44189   0.45118
 Alpha virt. eigenvalues --    0.46155   0.47194   0.49208   0.49664   0.50895
 Alpha virt. eigenvalues --    0.51510   0.52623   0.53267   0.54075   0.54449
 Alpha virt. eigenvalues --    0.54705   0.57672   0.58046   0.58699   0.58830
 Alpha virt. eigenvalues --    0.60052   0.60440   0.61009   0.61293   0.61922
 Alpha virt. eigenvalues --    0.62086   0.62971   0.63465   0.63873   0.64437
 Alpha virt. eigenvalues --    0.64824   0.65336   0.66346   0.66741   0.67557
 Alpha virt. eigenvalues --    0.68821   0.69136   0.69370   0.69849   0.70682
 Alpha virt. eigenvalues --    0.71273   0.72029   0.72383   0.72741   0.72999
 Alpha virt. eigenvalues --    0.74450   0.74891   0.75254   0.75479   0.76077
 Alpha virt. eigenvalues --    0.76345   0.76969   0.77993   0.79102   0.80140
 Alpha virt. eigenvalues --    0.81513   0.82132   0.83047   0.84927   0.85050
 Alpha virt. eigenvalues --    0.87001   0.87869   0.88295   0.88365   0.89501
 Alpha virt. eigenvalues --    0.90694   0.91683   0.92112   0.94242   0.94486
 Alpha virt. eigenvalues --    0.96799   0.98079   0.99296   1.01434   1.02063
 Alpha virt. eigenvalues --    1.02597   1.04127   1.04405   1.05597   1.06194
 Alpha virt. eigenvalues --    1.07347   1.08401   1.09684   1.10704   1.12063
 Alpha virt. eigenvalues --    1.13051   1.14595   1.15362   1.15402   1.16600
 Alpha virt. eigenvalues --    1.17333   1.17892   1.18297   1.18774   1.20090
 Alpha virt. eigenvalues --    1.21227   1.21716   1.22979   1.23725   1.24163
 Alpha virt. eigenvalues --    1.24852   1.25316   1.26150   1.26778   1.27193
 Alpha virt. eigenvalues --    1.27486   1.28924   1.30283   1.31180   1.31702
 Alpha virt. eigenvalues --    1.32844   1.32941   1.34256   1.34642   1.34943
 Alpha virt. eigenvalues --    1.35144   1.36094   1.36593   1.37723   1.38012
 Alpha virt. eigenvalues --    1.38798   1.39960   1.40455   1.40729   1.41319
 Alpha virt. eigenvalues --    1.42677   1.43096   1.44321   1.44590   1.44768
 Alpha virt. eigenvalues --    1.45087   1.46511   1.47385   1.47633   1.48261
 Alpha virt. eigenvalues --    1.49089   1.50428   1.51025   1.51115   1.52976
 Alpha virt. eigenvalues --    1.53306   1.53853   1.54691   1.55167   1.56203
 Alpha virt. eigenvalues --    1.56784   1.57281   1.58000   1.58689   1.59003
 Alpha virt. eigenvalues --    1.60500   1.60865   1.61459   1.61888   1.63069
 Alpha virt. eigenvalues --    1.63674   1.64734   1.65005   1.65884   1.66598
 Alpha virt. eigenvalues --    1.68759   1.69324   1.70240   1.71127   1.71784
 Alpha virt. eigenvalues --    1.73665   1.74778   1.74863   1.76423   1.77582
 Alpha virt. eigenvalues --    1.78293   1.79399   1.81739   1.82389   1.84579
 Alpha virt. eigenvalues --    1.86227   1.87131   1.89910   1.93894   1.95905
 Alpha virt. eigenvalues --    2.04533   2.05580   2.11798   2.14669   2.20347
 Alpha virt. eigenvalues --    2.23739   2.26084   2.28163   2.31261   2.37939
 Alpha virt. eigenvalues --    2.38097   2.44501   2.46725   2.47564   2.53563
 Alpha virt. eigenvalues --    2.56154   2.76285   2.77317   2.80325   2.83988
 Alpha virt. eigenvalues --    2.84676   2.89608   2.91990   2.92986   2.94134
 Alpha virt. eigenvalues --    2.97602   2.98893   3.01015   3.02629   3.03620
 Alpha virt. eigenvalues --    3.06115   3.07245   3.07988   3.08948   3.11994
 Alpha virt. eigenvalues --    3.13473   3.14533   3.17690   3.18294   3.21608
 Alpha virt. eigenvalues --    3.22803   3.28036   3.31054   3.33837   3.34452
 Alpha virt. eigenvalues --    3.35919   3.37874   3.38199   3.39895   3.40970
 Alpha virt. eigenvalues --    3.41957   3.42984   3.45523   3.46028   3.46838
 Alpha virt. eigenvalues --    3.47173   3.49122   3.49874   3.51651   3.51861
 Alpha virt. eigenvalues --    3.53137   3.53315   3.54552   3.54807   3.55438
 Alpha virt. eigenvalues --    3.55802   3.57612   3.57868   3.58619   3.60049
 Alpha virt. eigenvalues --    3.60504   3.61193   3.62441   3.64214   3.65779
 Alpha virt. eigenvalues --    3.65938   3.66545   3.68607   3.68943   3.69399
 Alpha virt. eigenvalues --    3.70017   3.70711   3.71817   3.73383   3.74233
 Alpha virt. eigenvalues --    3.75274   3.75730   3.76704   3.77424   3.77868
 Alpha virt. eigenvalues --    3.78474   3.80320   3.80749   3.81831   3.82417
 Alpha virt. eigenvalues --    3.86296   3.87382   3.88567   3.90328   3.91765
 Alpha virt. eigenvalues --    3.93730   3.94925   3.95300   3.96407   3.98131
 Alpha virt. eigenvalues --    3.98221   4.01750   4.02149   4.02810   4.04085
 Alpha virt. eigenvalues --    4.04437   4.05646   4.06034   4.07088   4.07991
 Alpha virt. eigenvalues --    4.08520   4.08946   4.09898   4.11252   4.11797
 Alpha virt. eigenvalues --    4.12479   4.13140   4.14082   4.15895   4.16344
 Alpha virt. eigenvalues --    4.17044   4.17882   4.19022   4.19922   4.19959
 Alpha virt. eigenvalues --    4.21291   4.22628   4.24616   4.25488   4.27562
 Alpha virt. eigenvalues --    4.27856   4.29497   4.30298   4.31130   4.32522
 Alpha virt. eigenvalues --    4.33192   4.34235   4.36760   4.39723   4.41964
 Alpha virt. eigenvalues --    4.43305   4.44777   4.46299   4.47356   4.52845
 Alpha virt. eigenvalues --    4.59438   4.61415   4.74631   4.77920   4.83066
 Alpha virt. eigenvalues --    4.86227   4.92511   4.94040   4.98516   5.01419
 Alpha virt. eigenvalues --    5.06836   5.07641   5.07868   5.09057   5.12376
 Alpha virt. eigenvalues --    5.13721   5.14878   5.15564   5.31016   5.37206
 Alpha virt. eigenvalues --    5.42043   5.56498   5.58830   5.59763   5.86056
 Alpha virt. eigenvalues --    5.88221   6.01853   7.01111   7.03037   7.06066
 Alpha virt. eigenvalues --    7.08103   7.09938   7.12788   7.13659   7.16820
 Alpha virt. eigenvalues --    7.28183   7.37222   7.42783   7.48799   7.51993
 Alpha virt. eigenvalues --    7.54396   7.61977  23.95417  23.98056  24.06407
 Alpha virt. eigenvalues --   24.07595  24.08079  24.12930  24.14485  24.15672
 Alpha virt. eigenvalues --   24.16369  24.17099  50.16760  50.17628  50.22497
          Condensed to atoms (all electrons):
               1          2          3          4          5          6
     1  C    5.710361   0.216450   0.115944  -0.007624  -0.451822   0.209134
     2  O    0.216450   8.132731  -0.012012   0.000608   0.242794  -0.032870
     3  C    0.115944  -0.012012   5.939319   0.000606   0.141327  -0.359586
     4  O   -0.007624   0.000608   0.000606   8.263790   0.000449   0.000900
     5  C   -0.451822   0.242794   0.141327   0.000449   7.382901  -1.120649
     6  C    0.209134  -0.032870  -0.359586   0.000900  -1.120649   6.612695
     7  C    0.011613  -0.002705   0.032614  -0.008988  -0.000079  -0.006257
     8  O    0.060001  -0.008562  -0.028792   0.004697   0.179604  -0.026880
     9  C   -0.057804   0.000481   0.050708  -0.011929   0.167418  -0.107385
    10  C    0.001769   0.004346  -0.016913   0.105534  -0.055464   0.019711
    11  C    0.060785  -0.004238  -0.055568   0.056574  -0.799195   0.261259
    12  C    0.037643  -0.015534  -0.005235   0.150261   0.073384   0.039745
    13  C   -0.438598  -0.098824  -0.321967   0.000978   0.128772  -0.030850
    14  H    0.527230  -0.049864   0.076203   0.002420   0.000954  -0.001930
    15  H    0.408058  -0.054793   0.003778  -0.000036  -0.009396   0.004359
    16  H    0.033330  -0.004909   0.572242   0.003310   0.009594  -0.077005
    17  H    0.014062  -0.001625   0.419075   0.000069   0.002809  -0.038241
    18  H   -0.039992  -0.058049  -0.006144   0.000384   0.504203  -0.034535
    19  H    0.012283  -0.012413  -0.010206   0.000066  -0.082094   0.481374
    20  H    0.017345   0.010945  -0.043686  -0.000409  -0.108026   0.489279
    21  H    0.000712   0.000153   0.002260   0.008439  -0.001572  -0.000230
    22  H   -0.000059  -0.000750   0.004100  -0.003564   0.003314  -0.002601
    23  H    0.002421   0.000447   0.001916   0.000266  -0.008683   0.004505
    24  H   -0.004047  -0.001891  -0.004089  -0.002321   0.024894  -0.004044
    25  H   -0.000106   0.000213  -0.000501  -0.070863  -0.002598   0.000916
    26  H   -0.000436  -0.000087   0.000175  -0.051082   0.001964  -0.000824
    27  H   -0.092041   0.036541  -0.123642  -0.046134  -0.047057  -0.009415
    28  H    0.020612   0.005311  -0.006325  -0.059730  -0.007936   0.007812
    29  H   -0.006327  -0.002514   0.002075  -0.045433   0.030689  -0.009666
    30  H   -0.033667   0.010506  -0.057782  -0.000241  -0.015462   0.019788
    31  H   -0.073260  -0.008874   0.008998  -0.000007   0.035428  -0.048361
               7          8          9         10         11         12
     1  C    0.011613   0.060001  -0.057804   0.001769   0.060785   0.037643
     2  O   -0.002705  -0.008562   0.000481   0.004346  -0.004238  -0.015534
     3  C    0.032614  -0.028792   0.050708  -0.016913  -0.055568  -0.005235
     4  O   -0.008988   0.004697  -0.011929   0.105534   0.056574   0.150261
     5  C   -0.000079   0.179604   0.167418  -0.055464  -0.799195   0.073384
     6  C   -0.006257  -0.026880  -0.107385   0.019711   0.261259   0.039745
     7  C    5.499917  -0.005354   0.042487   0.035384  -0.025276   0.060774
     8  O   -0.005354   8.240647  -0.254878   0.017865   0.350041  -0.159395
     9  C    0.042487  -0.254878   7.073267  -0.071541  -1.479707   0.185193
    10  C    0.035384   0.017865  -0.071541   5.449340   0.144633  -0.281056
    11  C   -0.025276   0.350041  -1.479707   0.144633   8.380663  -1.052422
    12  C    0.060774  -0.159395   0.185193  -0.281056  -1.052422   6.563588
    13  C   -0.026165  -0.041123   0.024982   0.004606   0.044327  -0.019804
    14  H    0.020038   0.008546  -0.014250  -0.010690   0.045412  -0.039958
    15  H    0.000131  -0.001035  -0.000929   0.000001   0.006409   0.003643
    16  H    0.014234   0.003873  -0.022277   0.000933   0.026118  -0.001612
    17  H    0.001688  -0.001392  -0.003869  -0.000688  -0.003473   0.004471
    18  H    0.000311  -0.073293   0.015634  -0.002882  -0.065720   0.033682
    19  H    0.000664   0.001192   0.003494   0.000593   0.018110  -0.009390
    20  H   -0.003623  -0.003671  -0.002921  -0.000361   0.015797   0.000377
    21  H    0.436968  -0.001950  -0.066357  -0.031049   0.025630  -0.002333
    22  H    0.539126  -0.000805  -0.061619  -0.100660   0.016847   0.013095
    23  H   -0.044886  -0.003096   0.427384  -0.022186   0.025410  -0.019160
    24  H   -0.007514   0.005037   0.436214   0.001138  -0.039637  -0.000819
    25  H   -0.057092   0.001182   0.014290   0.442508  -0.002344   0.005032
    26  H   -0.012520  -0.000620  -0.073487   0.463408   0.100675  -0.058692
    27  H   -0.143488  -0.021474   0.150444   0.063839   0.169154  -0.032487
    28  H    0.001314  -0.007959   0.039753   0.010027  -0.145542   0.496845
    29  H    0.023790   0.005868  -0.056357  -0.001698   0.037223   0.377908
    30  H   -0.000765  -0.000689   0.000071   0.000345   0.000075   0.000374
    31  H   -0.000234   0.000246   0.002332  -0.000287  -0.007731   0.003751
              13         14         15         16         17         18
     1  C   -0.438598   0.527230   0.408058   0.033330   0.014062  -0.039992
     2  O   -0.098824  -0.049864  -0.054793  -0.004909  -0.001625  -0.058049
     3  C   -0.321967   0.076203   0.003778   0.572242   0.419075  -0.006144
     4  O    0.000978   0.002420  -0.000036   0.003310   0.000069   0.000384
     5  C    0.128772   0.000954  -0.009396   0.009594   0.002809   0.504203
     6  C   -0.030850  -0.001930   0.004359  -0.077005  -0.038241  -0.034535
     7  C   -0.026165   0.020038   0.000131   0.014234   0.001688   0.000311
     8  O   -0.041123   0.008546  -0.001035   0.003873  -0.001392  -0.073293
     9  C    0.024982  -0.014250  -0.000929  -0.022277  -0.003869   0.015634
    10  C    0.004606  -0.010690   0.000001   0.000933  -0.000688  -0.002882
    11  C    0.044327   0.045412   0.006409   0.026118  -0.003473  -0.065720
    12  C   -0.019804  -0.039958   0.003643  -0.001612   0.004471   0.033682
    13  C    6.477558  -0.206030  -0.001182  -0.154901  -0.031353   0.009115
    14  H   -0.206030   0.573801  -0.025355   0.016861   0.001707  -0.002369
    15  H   -0.001182  -0.025355   0.458891  -0.001711   0.002173  -0.000111
    16  H   -0.154901   0.016861  -0.001711   0.484751  -0.005581  -0.001046
    17  H   -0.031353   0.001707   0.002173  -0.005581   0.456130   0.002464
    18  H    0.009115  -0.002369  -0.000111  -0.001046   0.002464   0.478564
    19  H   -0.025971   0.000251   0.000748   0.003672  -0.008962  -0.009303
    20  H   -0.008288   0.000998   0.000646  -0.002144  -0.005742  -0.015218
    21  H   -0.001122   0.000699   0.000011   0.000189   0.000091  -0.000016
    22  H   -0.001119   0.004766   0.000009   0.001935   0.000314  -0.000061
    23  H   -0.000311   0.001636   0.000124  -0.000999   0.000249  -0.001391
    24  H    0.001174  -0.000618  -0.000072  -0.001247   0.000085   0.002336
    25  H    0.000297  -0.000602   0.000041  -0.000353   0.000003  -0.000142
    26  H    0.000122   0.001494  -0.000074   0.000649  -0.000026  -0.000203
    27  H    0.184064  -0.107103   0.003793  -0.066358  -0.002551   0.000581
    28  H   -0.011087  -0.003860  -0.001514  -0.003025  -0.000567   0.001856
    29  H    0.001536   0.002821   0.000293   0.003203   0.000133   0.000238
    30  H    0.452935  -0.006051  -0.010077  -0.007609  -0.006828   0.000158
    31  H    0.452522   0.003317  -0.004397   0.000466  -0.000512   0.003955
              19         20         21         22         23         24
     1  C    0.012283   0.017345   0.000712  -0.000059   0.002421  -0.004047
     2  O   -0.012413   0.010945   0.000153  -0.000750   0.000447  -0.001891
     3  C   -0.010206  -0.043686   0.002260   0.004100   0.001916  -0.004089
     4  O    0.000066  -0.000409   0.008439  -0.003564   0.000266  -0.002321
     5  C   -0.082094  -0.108026  -0.001572   0.003314  -0.008683   0.024894
     6  C    0.481374   0.489279  -0.000230  -0.002601   0.004505  -0.004044
     7  C    0.000664  -0.003623   0.436968   0.539126  -0.044886  -0.007514
     8  O    0.001192  -0.003671  -0.001950  -0.000805  -0.003096   0.005037
     9  C    0.003494  -0.002921  -0.066357  -0.061619   0.427384   0.436214
    10  C    0.000593  -0.000361  -0.031049  -0.100660  -0.022186   0.001138
    11  C    0.018110   0.015797   0.025630   0.016847   0.025410  -0.039637
    12  C   -0.009390   0.000377  -0.002333   0.013095  -0.019160  -0.000819
    13  C   -0.025971  -0.008288  -0.001122  -0.001119  -0.000311   0.001174
    14  H    0.000251   0.000998   0.000699   0.004766   0.001636  -0.000618
    15  H    0.000748   0.000646   0.000011   0.000009   0.000124  -0.000072
    16  H    0.003672  -0.002144   0.000189   0.001935  -0.000999  -0.001247
    17  H   -0.008962  -0.005742   0.000091   0.000314   0.000249   0.000085
    18  H   -0.009303  -0.015218  -0.000016  -0.000061  -0.001391   0.002336
    19  H    0.449294  -0.007074   0.000046   0.000030  -0.000173  -0.000137
    20  H   -0.007074   0.482183   0.000005  -0.000012   0.001983  -0.005948
    21  H    0.000046   0.000005   0.475032  -0.008379  -0.004854  -0.011691
    22  H    0.000030  -0.000012  -0.008379   0.476370   0.004421  -0.001791
    23  H   -0.000173   0.001983  -0.004854   0.004421   0.451203  -0.014052
    24  H   -0.000137  -0.005948  -0.011691  -0.001791  -0.014052   0.485053
    25  H    0.000021  -0.000024  -0.008019  -0.005461  -0.000735   0.000701
    26  H    0.000040  -0.000085   0.002725   0.004543  -0.003367  -0.000510
    27  H   -0.005671   0.002550  -0.000865  -0.044805  -0.003215  -0.007316
    28  H    0.000286  -0.000518   0.001387  -0.003306  -0.005415   0.001411
    29  H    0.000309  -0.000793  -0.001614   0.003333  -0.000027  -0.002042
    30  H   -0.001641   0.001018   0.000010  -0.000386   0.000052  -0.000204
    31  H   -0.004871  -0.002366  -0.000022   0.000099  -0.000072   0.000172
              25         26         27         28         29         30
     1  C   -0.000106  -0.000436  -0.092041   0.020612  -0.006327  -0.033667
     2  O    0.000213  -0.000087   0.036541   0.005311  -0.002514   0.010506
     3  C   -0.000501   0.000175  -0.123642  -0.006325   0.002075  -0.057782
     4  O   -0.070863  -0.051082  -0.046134  -0.059730  -0.045433  -0.000241
     5  C   -0.002598   0.001964  -0.047057  -0.007936   0.030689  -0.015462
     6  C    0.000916  -0.000824  -0.009415   0.007812  -0.009666   0.019788
     7  C   -0.057092  -0.012520  -0.143488   0.001314   0.023790  -0.000765
     8  O    0.001182  -0.000620  -0.021474  -0.007959   0.005868  -0.000689
     9  C    0.014290  -0.073487   0.150444   0.039753  -0.056357   0.000071
    10  C    0.442508   0.463408   0.063839   0.010027  -0.001698   0.000345
    11  C   -0.002344   0.100675   0.169154  -0.145542   0.037223   0.000075
    12  C    0.005032  -0.058692  -0.032487   0.496845   0.377908   0.000374
    13  C    0.000297   0.000122   0.184064  -0.011087   0.001536   0.452935
    14  H   -0.000602   0.001494  -0.107103  -0.003860   0.002821  -0.006051
    15  H    0.000041  -0.000074   0.003793  -0.001514   0.000293  -0.010077
    16  H   -0.000353   0.000649  -0.066358  -0.003025   0.003203  -0.007609
    17  H    0.000003  -0.000026  -0.002551  -0.000567   0.000133  -0.006828
    18  H   -0.000142  -0.000203   0.000581   0.001856   0.000238   0.000158
    19  H    0.000021   0.000040  -0.005671   0.000286   0.000309  -0.001641
    20  H   -0.000024  -0.000085   0.002550  -0.000518  -0.000793   0.001018
    21  H   -0.008019   0.002725  -0.000865   0.001387  -0.001614   0.000010
    22  H   -0.005461   0.004543  -0.044805  -0.003306   0.003333  -0.000386
    23  H   -0.000735  -0.003367  -0.003215  -0.005415  -0.000027   0.000052
    24  H    0.000701  -0.000510  -0.007316   0.001411  -0.002042  -0.000204
    25  H    0.476428  -0.006491   0.008205   0.001904  -0.002038   0.000048
    26  H   -0.006491   0.493804  -0.018477  -0.005681   0.011148  -0.000045
    27  H    0.008205  -0.018477   0.843606   0.017934  -0.035971   0.010746
    28  H    0.001904  -0.005681   0.017934   0.471662  -0.020369   0.000303
    29  H   -0.002038   0.011148  -0.035971  -0.020369   0.485188  -0.000224
    30  H    0.000048  -0.000045   0.010746   0.000303  -0.000224   0.478100
    31  H   -0.000037   0.000028  -0.002170   0.000412   0.000006  -0.007101
              31
     1  C   -0.073260
     2  O   -0.008874
     3  C    0.008998
     4  O   -0.000007
     5  C    0.035428
     6  C   -0.048361
     7  C   -0.000234
     8  O    0.000246
     9  C    0.002332
    10  C   -0.000287
    11  C   -0.007731
    12  C    0.003751
    13  C    0.452522
    14  H    0.003317
    15  H   -0.004397
    16  H    0.000466
    17  H   -0.000512
    18  H    0.003955
    19  H   -0.004871
    20  H   -0.002366
    21  H   -0.000022
    22  H    0.000099
    23  H   -0.000072
    24  H    0.000172
    25  H   -0.000037
    26  H    0.000028
    27  H   -0.002170
    28  H    0.000412
    29  H    0.000006
    30  H   -0.007101
    31  H    0.473044
 Mulliken charges:
               1
     1  C   -0.253970
     2  O   -0.291013
     3  C   -0.318890
     4  O   -0.290992
     5  C   -0.220463
     6  C   -0.240147
     7  C   -0.376108
     8  O   -0.237832
     9  C   -0.348841
    10  C   -0.170504
    11  C   -0.104290
    12  C   -0.351869
    13  C   -0.364292
    14  H    0.179526
    15  H    0.217576
    16  H    0.175417
    17  H    0.205886
    18  H    0.256992
    19  H    0.205434
    20  H    0.187785
    21  H    0.185715
    22  H    0.163077
    23  H    0.210605
    24  H    0.151778
    25  H    0.205619
    26  H    0.151932
    27  H    0.318780
    28  H    0.204005
    29  H    0.199312
    30  H    0.174244
    31  H    0.175526
 Sum of Mulliken charges =  -0.00000
 Mulliken charges with hydrogens summed into heavy atoms:
               1
     1  C    0.143132
     2  O   -0.291013
     3  C    0.062413
     4  O   -0.290992
     5  C    0.036530
     6  C    0.153072
     7  C   -0.027316
     8  O   -0.237832
     9  C    0.013542
    10  C    0.187047
    11  C    0.214491
    12  C    0.051448
    13  C   -0.014522
 Electronic spatial extent (au):  <R**2>=           2771.8042
 Charge=             -0.0000 electrons
 Dipole moment (field-independent basis, Debye):
    X=             -0.8779    Y=             -2.0779    Z=              2.4210  Tot=              3.3090
 Quadrupole moment (field-independent basis, Debye-Ang):
   XX=            -71.2660   YY=            -82.8885   ZZ=            -81.7777
   XY=             -3.6798   XZ=             -2.8549   YZ=              0.0017
 Traceless Quadrupole moment (field-independent basis, Debye-Ang):
   XX=              7.3781   YY=             -4.2444   ZZ=             -3.1337
   XY=             -3.6798   XZ=             -2.8549   YZ=              0.0017
 Octapole moment (field-independent basis, Debye-Ang**2):
  XXX=             10.3819  YYY=              1.0681  ZZZ=             -1.5421  XYY=            -12.3628
  XXY=            -15.8259  XXZ=              4.5208  XZZ=              0.8242  YZZ=              0.8057
  YYZ=              1.4413  XYZ=             -8.6942
 Hexadecapole moment (field-independent basis, Debye-Ang**3):
 XXXX=          -2444.1899 YYYY=           -633.4821 ZZZZ=           -461.0041 XXXY=            -16.9470
 XXXZ=             12.9980 YYYX=            -25.7321 YYYZ=             -3.2783 ZZZX=              8.7818
 ZZZY=              5.6136 XXYY=           -549.3546 XXZZ=           -495.0037 YYZZ=           -190.2923
 XXYZ=              9.8683 YYXZ=             -6.7797 ZZXY=             10.3466
 N-N= 9.042148940765D+02 E-N=-3.250123417791D+03  KE= 6.153242240330D+02
 D1PCM: PCM CHGder 1st derivatives, ID1Alg=3 FixD1E=F DoIter=F DoCFld=F I1PDM=0.
 Calling FoFJK, ICntrl=      2127 FMM=F ISym2X=0 I1Cent= 0 IOpClX= 0 NMat=1 NMatS=1 NMatT=0.
 ***** Axes restored to original set *****
 -------------------------------------------------------------------
 Center     Atomic                   Forces (Hartrees/Bohr)
 Number     Number              X              Y              Z
 -------------------------------------------------------------------
      1        6          -0.002755852    0.008040463    0.000848768
      2        8          -0.000634678   -0.006224193    0.008203946
      3        6           0.000047992   -0.002595451    0.004085982
      4        8           0.000058994   -0.008069392   -0.004828960
      5        6           0.001040878   -0.000816280   -0.014834902
      6        6           0.000908689   -0.002133562   -0.001818986
      7        6           0.000031257   -0.000124792    0.002840050
      8        8           0.004918998    0.004913693    0.009473515
      9        6           0.000871721   -0.004099504   -0.002806265
     10        6          -0.006144312    0.003004612   -0.000237979
     11        6          -0.001344825    0.002033791    0.004250856
     12        6           0.002760285    0.004349686   -0.006001230
     13        6           0.002939648    0.000504561   -0.000430175
     14        1           0.006196396   -0.000265652   -0.004234705
     15        1          -0.001668791   -0.004245779    0.000367848
     16        1           0.003686105   -0.000020900   -0.001772013
     17        1          -0.001482669    0.001485761   -0.001428196
     18        1          -0.001932112    0.001260279    0.006659880
     19        1          -0.003467610    0.000104178    0.001132361
     20        1           0.001899795    0.002726137    0.000281322
     21        1           0.001905262    0.002292557   -0.000244654
     22        1          -0.001315197   -0.001002088   -0.002752836
     23        1           0.000737168   -0.000051440    0.003827160
     24        1          -0.001993038    0.002326692   -0.000962150
     25        1           0.002809236   -0.001622853   -0.002909484
     26        1           0.002625466    0.001977828    0.005232990
     27        1          -0.003619591   -0.002117228   -0.007605945
     28        1          -0.005179797   -0.003590010    0.000380722
     29        1           0.001086281    0.002713575    0.005918253
     30        1          -0.000371606   -0.000767068   -0.002657061
     31        1          -0.002614092    0.000012378    0.002021890
 -------------------------------------------------------------------
 Cartesian Forces:  Max     0.014834902 RMS     0.003724435

 GradGradGradGradGradGradGradGradGradGradGradGradGradGradGradGradGradGrad
 Berny optimization.
 FormGI is forming the generalized inverse of G from B-inverse, IUseBI=4.
 Internal  Forces:  Max     0.025313859 RMS     0.002699978
 Search for a local minimum.
 Step number   1 out of a maximum of  186
 All quantities printed in internal units (Hartrees-Bohrs-Radians)
 Mixed Optimization -- RFO/linear search
 Second derivative matrix not updated -- first step.
 ITU=  0
     Eigenvalues ---    0.00552   0.00644   0.00731   0.00736   0.01254
     Eigenvalues ---    0.01442   0.01475   0.02561   0.02798   0.03000
     Eigenvalues ---    0.03160   0.03946   0.04377   0.04460   0.04723
     Eigenvalues ---    0.04801   0.04993   0.05006   0.05112   0.05152
     Eigenvalues ---    0.05192   0.05672   0.05733   0.05780   0.06158
     Eigenvalues ---    0.06165   0.06387   0.06745   0.07461   0.07769
     Eigenvalues ---    0.07924   0.07937   0.07991   0.08096   0.08573
     Eigenvalues ---    0.08731   0.09322   0.09337   0.10870   0.11614
     Eigenvalues ---    0.11703   0.11782   0.11890   0.12492   0.12598
     Eigenvalues ---    0.14542   0.15703   0.16621   0.16985   0.17458
     Eigenvalues ---    0.19831   0.21756   0.21890   0.25000   0.28233
     Eigenvalues ---    0.28513   0.28734   0.28949   0.29166   0.29257
     Eigenvalues ---    0.30135   0.30143   0.35064   0.35071   0.35071
     Eigenvalues ---    0.35105   0.35138   0.35158   0.35263   0.35268
     Eigenvalues ---    0.35285   0.35327   0.35338   0.35496   0.35629
     Eigenvalues ---    0.35822   0.35864   0.35993   0.36033   0.36235
     Eigenvalues ---    0.40427   0.41537   0.42192   0.43008   0.44009
     Eigenvalues ---    0.441991000.000001000.000001000.000001000.00000
     Eigenvalues --- 1000.000001000.000001000.000001000.000001000.00000
     Eigenvalues --- 1000.000001000.000001000.000001000.000001000.00000
     Eigenvalues --- 1000.000001000.000001000.000001000.000001000.00000
     Eigenvalues --- 1000.000001000.000001000.000001000.000001000.00000
     Eigenvalues --- 1000.000001000.000001000.000001000.000001000.00000
     Eigenvalues --- 1000.000001000.000001000.000001000.000001000.00000
     Eigenvalues --- 1000.000001000.000001000.000001000.000001000.00000
     Eigenvalues --- 1000.000001000.000001000.000001000.000001000.00000
     Eigenvalues --- 1000.000001000.000001000.000001000.000001000.00000
     Eigenvalues --- 1000.000001000.000001000.000001000.000001000.00000
     Eigenvalues --- 1000.000001000.000001000.000001000.000001000.00000
     Eigenvalues --- 1000.000001000.000001000.000001000.000001000.00000
     Eigenvalues --- 1000.000001000.000001000.000001000.000001000.00000
     Eigenvalues --- 1000.000001000.000001000.000001000.000001000.00000
     Eigenvalues --- 1000.000001000.000001000.000001000.000001000.00000
     Eigenvalues --- 1000.000001000.000001000.000001000.000001000.00000
     Eigenvalues --- 1000.000001000.000001000.000001000.000001000.00000
     Eigenvalues --- 1000.000001000.000001000.000001000.000001000.00000
     Eigenvalues --- 1000.000001000.000001000.000001000.000001000.00000
 RFO step:  Lambda=-6.21857237D-03 EMin= 5.52357711D-03
 Linear search not attempted -- first point.
 Iteration  1 RMS(Cart)=  0.15318713 RMS(Int)=  0.00384749
 Iteration  2 RMS(Cart)=  0.01320183 RMS(Int)=  0.00010812
 Iteration  3 RMS(Cart)=  0.00004632 RMS(Int)=  0.00010550
 Iteration  4 RMS(Cart)=  0.00000001 RMS(Int)=  0.00010550
 Iteration  1 RMS(Cart)=  0.00015080 RMS(Int)=  0.00003227
 Iteration  2 RMS(Cart)=  0.00007961 RMS(Int)=  0.00003607
 Iteration  3 RMS(Cart)=  0.00004202 RMS(Int)=  0.00004059
 Iteration  4 RMS(Cart)=  0.00002218 RMS(Int)=  0.00004346
 Iteration  5 RMS(Cart)=  0.00001171 RMS(Int)=  0.00004508
 Iteration  6 RMS(Cart)=  0.00000618 RMS(Int)=  0.00004596
 Iteration  7 RMS(Cart)=  0.00000326 RMS(Int)=  0.00004644
 Iteration  8 RMS(Cart)=  0.00000172 RMS(Int)=  0.00004669
 Iteration  9 RMS(Cart)=  0.00000091 RMS(Int)=  0.00004682
 Variable       Old X    -DE/DX   Delta X   Delta X   Delta X     New X
                                 (Linear)    (Quad)   (Total)
    R1        2.69390   0.00253   0.00000   0.00609   0.00608   2.69998
    R2        2.86660   0.00000   0.00000  -0.00149  -0.00160   2.86501
    R3        2.04665   0.00747   0.00000   0.02061   0.02061   2.06726
    R4        2.04294   0.00457   0.00000   0.01252   0.01252   2.05546
    R5        2.64665   0.00294   0.00000   0.00704   0.00716   2.65381
    R6        2.88852  -0.00089   0.00000  -0.00312  -0.00311   2.88541
    R7        2.88266  -0.00095   0.00000  -0.00398  -0.00410   2.87856
    R8        2.05250   0.00407   0.00000   0.01133   0.01133   2.06383
    R9        2.05147   0.00252   0.00000   0.00701   0.00701   2.05848
   R10        2.67585   0.00351   0.00000   0.00810   0.00813   2.68397
   R11        2.66798   0.00339   0.00000   0.00760   0.00762   2.67559
   R12        2.89485  -0.00087   0.00000  -0.00142  -0.00130   2.89355
   R13        2.66443  -0.00102   0.00000  -0.00229  -0.00229   2.66214
   R14        2.03716   0.00705   0.00000   0.01912   0.01912   2.05628
   R15        2.05419   0.00362   0.00000   0.01013   0.01013   2.06432
   R16        2.04877   0.00328   0.00000   0.00907   0.00907   2.05783
   R17        2.89194  -0.00062   0.00000  -0.00199  -0.00200   2.88994
   R18        2.87240   0.00063   0.00000   0.00199   0.00199   2.87439
   R19        2.05214   0.00297   0.00000   0.00826   0.00826   2.06040
   R20        2.05451   0.00314   0.00000   0.00878   0.00878   2.06328
   R21        2.67660   0.00028   0.00000   0.00065   0.00065   2.67725
   R22        2.87945  -0.00222   0.00000  -0.00731  -0.00733   2.87212
   R23        2.05560   0.00368   0.00000   0.01032   0.01032   2.06591
   R24        2.05129   0.00314   0.00000   0.00874   0.00874   2.06003
   R25        2.04362   0.00435   0.00000   0.01195   0.01195   2.05556
   R26        2.05560   0.00606   0.00000   0.01698   0.01698   2.07258
   R27        2.88335  -0.00110   0.00000  -0.00355  -0.00355   2.87980
   R28        2.04092   0.00866   0.00000   0.02364   0.02364   2.06456
   R29        2.04030   0.00608   0.00000   0.01659   0.01659   2.05689
   R30        2.05572   0.00619   0.00000   0.01733   0.01733   2.07305
   R31        2.05241   0.00277   0.00000   0.00772   0.00772   2.06013
   R32        2.05505   0.00321   0.00000   0.00900   0.00900   2.06405
    A1        1.96517   0.00251   0.00000   0.00859   0.00847   1.97363
    A2        1.91514   0.00013   0.00000   0.00357   0.00363   1.91877
    A3        1.82839  -0.00115   0.00000  -0.00129  -0.00124   1.82715
    A4        1.92776  -0.00155   0.00000  -0.00601  -0.00598   1.92178
    A5        1.94195  -0.00042   0.00000  -0.00445  -0.00446   1.93749
    A6        1.88140   0.00046   0.00000  -0.00037  -0.00041   1.88099
    A7        2.11866  -0.00573   0.00000  -0.02816  -0.02783   2.09083
    A8        1.90247   0.00187   0.00000  -0.00028  -0.00027   1.90220
    A9        1.93886  -0.00046   0.00000  -0.00121  -0.00124   1.93762
   A10        1.90677  -0.00064   0.00000   0.00144   0.00146   1.90823
   A11        1.91832  -0.00111   0.00000  -0.00134  -0.00135   1.91697
   A12        1.93169  -0.00006   0.00000   0.00070   0.00071   1.93240
   A13        1.86575   0.00035   0.00000   0.00071   0.00072   1.86647
   A14        1.97995  -0.00453   0.00000  -0.02635  -0.02628   1.95367
   A15        1.97657   0.00405   0.00000   0.00699   0.00621   1.98278
   A16        1.97524  -0.00200   0.00000  -0.02654  -0.02689   1.94835
   A17        1.82871  -0.00165   0.00000   0.01165   0.01176   1.84048
   A18        1.98492  -0.00318   0.00000  -0.02613  -0.02663   1.95829
   A19        1.89166   0.00049   0.00000   0.01477   0.01474   1.90640
   A20        1.78708   0.00235   0.00000   0.02785   0.02828   1.81537
   A21        2.01098  -0.00205   0.00000  -0.01190  -0.01185   1.99913
   A22        1.88498   0.00133   0.00000   0.01144   0.01149   1.89647
   A23        1.95060  -0.00019   0.00000  -0.00638  -0.00666   1.94394
   A24        1.85420   0.00053   0.00000   0.01190   0.01191   1.86610
   A25        1.88844   0.00066   0.00000  -0.00798  -0.00819   1.88024
   A26        1.86707  -0.00013   0.00000   0.00535   0.00542   1.87249
   A27        1.92773  -0.00084   0.00000  -0.00478  -0.00481   1.92292
   A28        1.92798  -0.00046   0.00000  -0.00096  -0.00096   1.92702
   A29        1.91990   0.00083   0.00000   0.00149   0.00149   1.92139
   A30        1.90909   0.00084   0.00000   0.00488   0.00491   1.91400
   A31        1.90383  -0.00033   0.00000  -0.00304  -0.00306   1.90077
   A32        1.87439  -0.00001   0.00000   0.00262   0.00262   1.87701
   A33        2.16213  -0.02531   0.00000  -0.09880  -0.09880   2.06333
   A34        1.92354   0.00113   0.00000  -0.00211  -0.00215   1.92139
   A35        1.91546  -0.00001   0.00000   0.00382   0.00380   1.91926
   A36        1.93527   0.00019   0.00000   0.00645   0.00645   1.94172
   A37        1.89576  -0.00131   0.00000  -0.00986  -0.00986   1.88590
   A38        1.91639  -0.00046   0.00000  -0.00247  -0.00244   1.91395
   A39        1.87643   0.00039   0.00000   0.00398   0.00393   1.88035
   A40        1.93501   0.00172   0.00000   0.00945   0.00946   1.94447
   A41        1.85613  -0.00118   0.00000  -0.00440  -0.00440   1.85174
   A42        1.90210   0.00079   0.00000   0.00700   0.00703   1.90913
   A43        1.94557  -0.00034   0.00000  -0.00362  -0.00363   1.94195
   A44        1.93082  -0.00154   0.00000  -0.00943  -0.00946   1.92136
   A45        1.89196   0.00058   0.00000   0.00136   0.00133   1.89328
   A46        1.89020  -0.00008   0.00000   0.00570   0.00571   1.89590
   A47        1.91152  -0.00011   0.00000  -0.00111  -0.00114   1.91038
   A48        1.93800   0.00006   0.00000  -0.00040  -0.00046   1.93754
   A49        1.91785   0.00041   0.00000   0.00371   0.00367   1.92152
   A50        1.89959   0.00073   0.00000   0.00436   0.00437   1.90396
   A51        1.90660  -0.00099   0.00000  -0.01197  -0.01196   1.89464
   A52        1.93097   0.00175   0.00000   0.00936   0.00943   1.94040
   A53        1.86330  -0.00010   0.00000   0.00699   0.00703   1.87032
   A54        1.91629   0.00151   0.00000   0.01380   0.01385   1.93013
   A55        1.94584  -0.00151   0.00000  -0.01406  -0.01416   1.93167
   A56        1.91079  -0.00260   0.00000  -0.01750  -0.01762   1.89317
   A57        1.89585   0.00105   0.00000   0.00238   0.00210   1.89794
   A58        1.91845  -0.00105   0.00000  -0.00613  -0.00632   1.91213
   A59        1.89537   0.00047   0.00000   0.00418   0.00426   1.89963
   A60        1.91218   0.00018   0.00000  -0.00182  -0.00180   1.91038
   A61        1.94426  -0.00036   0.00000  -0.00035  -0.00030   1.94396
   A62        1.91626   0.00078   0.00000   0.00069   0.00074   1.91700
   A63        1.87663   0.00001   0.00000   0.00365   0.00362   1.88025
    D1       -0.80777   0.00041   0.00000  -0.01960  -0.01966  -0.82742
    D2        1.34700   0.00027   0.00000  -0.01868  -0.01870   1.32830
    D3       -2.92061   0.00027   0.00000  -0.01813  -0.01814  -2.93875
    D4        0.95003   0.00115   0.00000   0.01130   0.01132   0.96135
    D5        3.08103   0.00036   0.00000   0.00970   0.00971   3.09074
[...]
 00141104,0.00156120,0.00000612,0.00000273,-0.00000912,-0.00000258,-0.0
 0000454,-0.00002369,0.00000659,0.00000431,-0.00000076,0.00000116,0.000
 00287,-0.00000538,0.00000454,-0.00000172,0.00000216,0.00000844,-0.0000
 0084,-0.00000565,0.00000490,-0.00000250,0.00000145,0.00000034,-0.00000
 186,0.00000115,0.00052232,-0.00075562,0.00018676,0.00012440,-0.0006925
 0,0.00086802,-0.00010623,0.00016648,0.00029252,-0.00031885,0.00030380,
 0.00040100,-0.12484367,0.07646007,0.18096844,0.00004192,0.00000068,0.0
 0000744,-0.00006823,-0.00002363,-0.00000878,-0.00000336,0.00000597,-0.
 00000287,-0.02630659,-0.01613587,-0.01973514,0.00016358,0.00004847,0.0
 0002200,-0.00001066,-0.00001016,-0.00000271,-0.00370294,0.00091864,-0.
 01110814,-0.00033404,0.00031679,0.00017661,0.00012458,-0.00095382,-0.0
 0057605,-0.09750594,-0.00228219,-0.09128339,-0.00017268,-0.00009362,0.
 00043572,0.00213542,-0.00107568,-0.00541075,-0.00000209,-0.00000303,0.
 00000537,0.00003334,0.00000620,0.00001418,-0.00000822,-0.00000384,-0.0
 0000051,0.00000064,-0.00000367,0.00000589,-0.00000475,0.00000096,-0.00
 000358,-0.00002186,-0.00000383,0.00000443,-0.00000849,0.00000324,-0.00
 000404,0.00000101,-0.00000153,-0.00000095,0.00038964,0.00023931,0.0000
 7642,0.00031916,0.00170600,-0.00075914,-0.00014288,0.00020835,0.000243
 24,0.00017953,0.00002258,0.00019525,0.01110183,0.00144198,0.01694061,0
 .11322697,0.00004702,0.00000312,0.00000519,-0.00008171,-0.00001104,-0.
 00001247,-0.00000451,0.00000609,-0.00000442,-0.02478022,-0.00995909,-0
 .01969592,0.00017626,0.00004502,-0.00001642,-0.00001534,-0.00001014,-0
 .00000200,0.01445889,0.00155567,0.02821693,-0.00024034,0.00031122,0.00
 006450,-0.00083190,0.00159951,0.00076046,-0.00353733,-0.04971330,-0.01
 460249,0.00004077,-0.00044583,0.00039752,0.00288472,-0.00029424,-0.002
 76704,-0.00000397,-0.00000373,0.00000771,0.00002413,0.00000407,0.00002
 207,-0.00001011,-0.00000432,0.00000030,-0.00000488,-0.00000332,0.00000
 803,-0.00000600,0.00000212,-0.00000362,-0.00001282,-0.00000090,0.00000
 480,-0.00000993,0.00000349,-0.00000521,0.00000010,-0.00000054,0.000000
 49,-0.00075859,0.00112616,-0.00063797,0.00285188,-0.00513395,0.0017300
 1,-0.00010899,-0.00011093,-0.00065123,-0.00038827,0.00000276,-0.000222
 25,-0.00534698,0.00007143,-0.01164103,0.01525234,0.06065891,0.00003728
 ,0.00000338,0.00003811,-0.00009881,-0.00005323,-0.00003786,-0.00000073
 ,0.00001470,-0.00001234,-0.00106217,-0.00372252,0.00628318,0.00023812,
 0.00007764,0.00002574,-0.00001876,-0.00001675,-0.00000304,-0.00408372,
 -0.00055573,-0.01071675,-0.00045251,0.00003009,0.00013833,0.00049995,-
 0.00061836,0.00089439,-0.09494788,-0.01645237,-0.24989961,0.00029150,-
 0.00024554,-0.00012676,0.00177984,0.00101277,0.00287387,0.00000253,0.0
 0000034,-0.00000035,0.00000157,0.00000795,0.00001362,-0.00001195,-0.00
 000607,-0.00000129,-0.00000523,-0.00000470,0.00001457,-0.00001127,0.00
 000024,-0.00000412,-0.00003844,-0.00000405,0.00000909,-0.00001460,0.00
 000532,-0.00000711,0.00000310,-0.00000178,-0.00000096,0.00006502,0.000
 35166,0.00011603,-0.00070051,0.00225589,0.00063723,-0.00049521,0.00014
 177,0.00049266,0.00010616,0.00016671,0.00018251,-0.00885798,-0.0007187
 0,-0.01738973,0.10921438,0.01800881,0.26602933,-0.00104699,-0.00197827
 ,0.00025332,0.00003503,-0.00063075,-0.00070527,-0.00186060,0.00078176,
 -0.00103534,0.00094216,-0.00063327,0.00048545,0.00368254,-0.00003199,0
 .00107922,0.00068857,0.00022539,-0.00058345,0.00071863,0.00004105,-0.0
 0100599,0.00722479,0.00683465,0.03054933,-0.01228521,-0.00385596,-0.01
 998680,-0.00015565,-0.00002336,0.00004426,-0.11822795,-0.01532454,-0.1
 1708105,-0.00620375,-0.00114906,-0.01256661,-0.00014932,-0.00012867,-0
 .00012183,-0.00105813,-0.00178086,0.00022993,-0.00029088,0.00003335,-0
 .00003643,-0.00227331,0.00115648,-0.00116435,-0.00019363,-0.00014412,-
 0.00012003,-0.00006153,0.00009252,-0.00026683,0.00011677,-0.00010491,-
 0.00007196,0.00006063,-0.00002153,-0.00002484,0.00020427,-0.00004638,0
 .00026167,-0.00026453,0.00008347,0.00060187,-0.00271254,-0.00306846,0.
 00076382,0.00114764,0.00027325,0.00058779,-0.00004058,0.00005348,-0.00
 000419,0.00009874,-0.00005821,0.00003880,0.13218357,-0.00160316,-0.000
 88312,0.00028492,0.00083271,0.00005547,-0.00035693,0.00072193,0.000154
 26,-0.00017481,-0.00217817,0.00153308,-0.00114449,-0.00133475,0.000941
 23,0.00056167,0.00006441,0.00000137,-0.00003697,0.00089394,0.00048581,
 -0.00036792,-0.00289259,-0.00189542,-0.01372299,-0.01459620,-0.0045438
 8,-0.02049155,-0.00018109,-0.00018481,0.00003720,-0.01210169,-0.052821
 66,-0.02520142,0.01666156,0.00221898,0.02703262,-0.00009561,0.00012147
 ,-0.00007809,-0.00179185,-0.00237397,-0.00017836,0.00013198,0.00001174
 ,-0.00002748,0.00093976,0.00006133,0.00079647,-0.00012339,-0.00005821,
 0.00009183,0.00006570,-0.00009236,0.00003506,-0.00003755,-0.00005550,0
 .00009241,-0.00003181,-0.00010478,0.00001953,0.00026842,-0.00007801,0.
 00026175,-0.00002062,0.00028578,0.00044486,-0.00351568,-0.00242150,0.0
 0032559,0.00085583,0.00093073,-0.00035054,0.00002214,0.00007376,-0.000
 04145,-0.00007743,-0.00006601,0.00005370,0.01714799,0.06218622,0.00082
 753,-0.00146980,-0.00102521,0.00066206,0.00139274,0.00059276,-0.000551
 14,0.00050775,-0.00130647,-0.00040153,-0.00019419,0.00207016,-0.003258
 26,-0.00226734,0.00001837,0.00148786,-0.00001096,-0.00005358,-0.000336
 17,0.00013100,0.00054120,0.00023433,-0.00686188,-0.02991534,0.00140782
 ,0.00018861,0.00475593,0.00015822,0.00023711,0.00001634,-0.10963844,-0
 .02446367,-0.23779614,-0.00617632,-0.00030195,-0.00928150,0.00004709,0
 .00002220,0.00019929,-0.00132679,-0.00045412,0.00100559,-0.00057638,0.
 00004281,0.00033043,-0.00251156,0.00063078,0.00026955,-0.00057983,-0.0
 0007176,0.00017194,0.00021162,0.00003237,0.00026420,0.00005869,0.00000
 498,0.00012182,0.00005907,0.00009525,-0.00004073,-0.00009622,0.0000498
 3,0.00018994,-0.00023540,0.00015376,0.00014492,0.00140400,0.00096599,0
 .00066404,-0.00018080,-0.00036010,0.00033178,-0.00000199,-0.00002764,0
 .00002028,0.00003623,-0.00003540,-0.00019869,0.11969559,0.03093941,0.2
 6768140,-0.00170239,0.00041426,-0.00038742,-0.00238416,-0.00009870,-0.
 00038965,0.00004749,-0.00000561,-0.00000442,-0.02372521,-0.01585930,0.
 00712298,-0.00003067,0.00096513,0.00031004,-0.00005516,-0.00010041,-0.
 00001691,-0.00052687,-0.00005549,0.00005789,0.00132000,-0.00223519,-0.
 00025665,-0.00129958,0.00299225,-0.00101666,-0.00010073,0.00360809,0.0
 0333364,0.01148920,0.01125822,-0.00086301,-0.16978507,-0.13453537,0.00
 959926,-0.00004904,0.00006987,-0.00005380,-0.00029019,0.00020045,-0.00
 061949,0.00005887,-0.00009874,0.00002837,-0.00000696,0.00000553,-0.000
 00566,0.00000121,-0.00003418,0.00001875,0.00000051,-0.00003399,-0.0000
 4439,0.00001688,-0.00000742,-0.00000010,0.00001660,-0.00004417,0.00002
 223,0.00009502,-0.00020046,0.00000560,0.00006357,-0.00004191,-0.000012
 53,-0.00001346,0.00004321,0.00004985,0.00067977,0.00080064,-0.00018236
 ,-0.00091352,-0.00095152,0.00046579,0.00020676,0.00013232,-0.00008420,
 0.00038423,-0.00093583,0.00006188,0.19456179,0.00062541,0.00072487,0.0
 0038765,-0.00164049,0.00116988,-0.00032332,-0.00006716,-0.00009471,0.0
 0004284,0.01115034,0.01241545,-0.00121764,-0.00002989,-0.00206579,-0.0
 0059819,0.00015063,0.00011796,0.00002303,0.00060883,0.00020895,-0.0004
 8228,0.00111424,0.00266730,-0.00043726,0.00445796,-0.00390761,0.001893
 42,0.00219849,-0.00000727,-0.00172952,-0.02133496,-0.02066594,0.001475
 33,-0.13995611,-0.20188276,0.01283072,-0.00022728,-0.00008806,0.000147
 18,0.00010106,0.00012010,0.00045754,-0.00005518,-0.00013320,0.00003957
 ,0.00002480,-0.00000400,-0.00001712,-0.00000119,0.00003899,-0.00001997
 ,0.00011182,0.00011292,0.00005197,0.00000759,-0.00000720,0.00001567,-0
 .00003259,0.00007363,-0.00002634,-0.00018291,0.00013296,0.00002153,-0.
 00005830,0.00005202,0.00008656,0.00014704,0.00023983,-0.00010208,-0.00
 134945,-0.00135621,0.00040347,0.00049759,0.00041891,-0.00019255,0.0000
 4094,-0.00004462,0.00003493,-0.00008327,0.00121920,-0.00016336,0.14535
 765,0.21179038,-0.00109015,0.00024583,0.00058451,0.00085009,-0.0005050
 6,-0.00028797,0.00003399,0.00000345,0.00004258,0.02501754,0.01785537,-
 0.00576145,0.00010948,0.00034889,0.00024045,-0.00003113,0.00002395,0.0
 0001857,0.00033582,0.00008980,-0.00001799,-0.00067470,-0.00039062,0.00
 001530,-0.00110733,0.00063512,0.00008704,0.00070809,-0.00269797,-0.002
 70362,0.00683085,0.00918138,-0.00056127,0.00256339,0.00730942,-0.05154
 069,0.00013580,0.00004276,-0.00024801,-0.00060601,0.00024185,-0.001031
 36,0.00011050,-0.00002055,-0.00005480,0.00000308,0.00000978,-0.0000230
 2,0.00001668,-0.00002996,0.00000086,-0.00005000,-0.00004946,-0.0000183
 6,0.00000099,-0.00000372,-0.00000706,-0.00000136,-0.00001185,-0.000000
 89,-0.00009138,0.00014112,-0.00001840,-0.00001775,-0.00002429,-0.00002
 498,0.00027270,0.00029629,0.00017235,0.00024444,0.00030231,0.00027559,
 0.00093661,0.00068260,0.00005296,0.00042610,0.00021973,0.00036599,0.00
 049076,-0.00058294,0.00033743,-0.01703209,-0.01285795,0.05653020,0.000
 43153,0.00010369,-0.00024716,-0.00036455,0.00025817,0.00007466,-0.0000
 1097,0.00004300,-0.00012239,0.00531310,0.00485426,0.03013986,0.0002237
 0,-0.00039188,-0.00015236,0.00010038,-0.00002864,-0.00005328,-0.000392
 96,-0.00025822,-0.00011693,0.00071661,-0.00070394,0.00036062,0.0003473
 2,-0.00098350,0.00077651,0.00448319,0.00250719,0.00299403,-0.00674354,
 -0.00205654,-0.01420909,-0.10777789,-0.01731255,-0.10508479,-0.0000906
 6,0.00000085,0.00015934,0.00003070,0.00014305,0.00034613,-0.00007837,-
 0.00003027,0.00003922,-0.00004831,-0.00003566,0.00012359,-0.00008128,0
 .00001303,0.00001142,-0.00005167,0.00001054,0.00003567,-0.00001747,0.0
 0000594,0.00001214,0.00000453,0.00001760,-0.00001089,0.00011374,-0.000
 19019,-0.00008736,-0.00019548,0.00005983,-0.00009562,0.00055095,0.0002
 0891,0.00021837,-0.00001241,0.00005690,0.00025350,0.00014483,0.0001256
 2,-0.00016179,0.00027594,0.00034034,-0.00138649,-0.00074391,0.00283657
 ,-0.00034045,-0.00813403,-0.00146407,-0.01846246,0.11208120,0.00011432
 ,0.00013829,-0.00010475,-0.00035072,0.00017513,0.00001894,-0.00005854,
 -0.00010978,0.00017904,-0.00009603,-0.00069346,-0.01635828,-0.00004821
 ,-0.00004813,-0.00008013,-0.00014148,0.00005554,0.00005588,0.00018644,
 -0.00014625,0.00005399,-0.00238985,0.00157259,-0.00009089,0.00067264,0
 .00185501,0.00045010,-0.00112995,-0.00059377,0.00196145,0.01617661,0.0
 0030530,0.02705936,-0.01670836,-0.05515289,-0.02430065,-0.00009464,-0.
 00005568,0.00009268,-0.00003793,-0.00010202,0.00017750,0.00003224,-0.0
 0000544,-0.00002255,0.00010944,0.00002627,-0.00015899,0.00010409,0.000
 02540,-0.00003622,0.00004103,0.00005580,-0.00000490,-0.00000862,-0.000
 00029,-0.00003133,-0.00002492,0.00000409,0.00000203,-0.00006391,0.0001
 2105,-0.00001288,-0.00004178,-0.00001891,-0.00013086,-0.00022832,-0.00
 041015,-0.00036245,-0.00006916,0.00016197,-0.00043700,0.00013751,-0.00
 002530,0.00008563,0.00045303,0.00040834,0.00023378,0.00224088,-0.00451
 559,0.00124940,-0.01058323,-0.00137514,-0.02038502,0.01182695,0.058279
 96,0.00015472,-0.00004251,0.00012787,-0.00031325,0.00001888,-0.0000558
 9,0.00003597,0.00005413,-0.00013193,0.00583912,-0.00845942,-0.03195963
 ,0.00026841,-0.00009252,0.00015195,0.00017036,-0.00000364,-0.00008234,
 0.00057113,0.00021895,-0.00000699,0.00010470,0.00011806,0.00222835,-0.
 00005368,-0.00086949,0.00033757,-0.00383914,-0.00222226,0.00085418,-0.
 00714333,-0.00136858,-0.01172452,-0.10218089,-0.02204163,-0.23251664,0
 .00003730,0.00001533,-0.00002055,0.00006115,0.00006397,0.00001928,-0.0
 0004393,-0.00000704,0.00001412,-0.00007411,-0.00001921,0.00008021,-0.0
 0006798,-0.00001140,0.00001060,-0.00007065,-0.00001706,-0.00000912,0.0
 0001278,-0.00000601,0.00003220,0.00000566,0.00001325,-0.00000878,0.000
 00557,0.00021155,-0.00003033,-0.00013399,-0.00008884,0.00002607,0.0005
 1783,0.00054677,0.00008578,0.00005946,0.00004182,0.00033371,0.00038798
 ,0.00009489,0.00045967,0.00109631,0.00085680,0.00028829,-0.00031252,0.
 00170750,-0.00004912,-0.00012291,0.00037147,0.00352512,0.10503911,0.03
 093080,0.26802271,-0.00066738,-0.01051552,-0.01893900,-0.00276647,0.00
 193696,-0.00471896,-0.00179229,-0.00394477,-0.00889578,-0.00005564,0.0
 0001550,0.00002065,0.00043811,0.00144220,0.00041404,0.00021783,-0.0015
 0218,0.00079082,-0.00000805,-0.00001674,-0.00001085,-0.00033913,-0.000
 24530,0.00004493,-0.00001282,0.00002450,0.00001642,0.00001486,0.000010
 98,0.00000581,0.00015075,-0.00002010,-0.00012197,0.00003345,-0.0000138
 7,0.00002644,-0.04911421,-0.00224688,-0.00767298,0.00041715,-0.0006433
 5,0.00077157,0.00057074,0.00013937,0.00037161,0.00026543,0.00049122,-0
 .00027572,0.00015621,0.00032285,0.00041546,0.00000902,-0.00010848,-0.0
 0000640,0.00016612,-0.00018857,-0.00043498,0.00031797,-0.00012276,-0.0
 0037186,-0.00000812,0.00000072,0.00000565,0.00000024,0.00000103,0.0000
 0345,-0.00000260,-0.00000167,-0.00000099,-0.00000040,-0.00000253,-0.00
 000002,-0.00000486,0.00000044,0.00000133,-0.00000091,-0.00000214,-0.00
 000200,0.00000991,0.00000846,-0.00001280,0.00002706,-0.00001390,-0.000
 00855,-0.00000179,0.00000572,-0.00000479,0.04960308,-0.00172843,0.0077
 9699,0.01577527,0.00370574,-0.00038975,0.00463056,-0.00077417,-0.01122
 914,-0.03087439,0.00000390,0.00002629,0.00000158,0.00044868,-0.0020764
 4,0.00047825,-0.00272421,-0.00644409,0.00187098,-0.00000315,-0.0000064
 9,-0.00000528,-0.00012622,0.00050444,-0.00006897,-0.00000131,0.0000127
 7,0.00000071,0.00000516,-0.00000493,-0.00000074,0.00006105,-0.00005608
 ,-0.00000475,-0.00002172,-0.00004947,-0.00000820,-0.00291325,-0.085561
 46,-0.09422829,-0.00019969,0.00067444,-0.00059708,-0.00089234,0.000160
 11,-0.00060365,-0.00004764,0.00139281,0.00038897,0.00078988,0.00127433
 ,0.00023771,-0.00004193,0.00028152,-0.00006925,0.00015953,0.00011839,0
 .00025424,-0.00031761,-0.00059372,-0.00211046,-0.00000416,0.00000084,0
 .00000209,0.00000127,0.00000103,0.00000047,-0.00000395,-0.00000252,-0.
 00000224,0.00000247,0.00000284,-0.00000023,-0.00000029,0.00000270,-0.0
 0000050,-0.00000009,-0.00000036,-0.00000069,0.00002598,-0.00003426,-0.
 00000618,0.00000060,0.00002282,0.00000685,-0.00000604,0.00000601,0.000
 00003,0.00400132,0.09401645,0.00226469,-0.00854826,-0.01575718,-0.0038
 8913,0.00136773,-0.00276747,0.00034253,0.00142915,0.00388276,-0.000107
 72,0.00001334,0.00003741,0.00092066,0.00179024,0.00076235,-0.00004780,
 0.00047664,0.00110519,-0.00000736,-0.00002522,-0.00001479,-0.00053023,
 -0.00034160,0.00003193,-0.00001607,0.00003679,0.00001452,0.00003289,0.
 00002517,0.00001112,0.00020366,-0.00000731,-0.00016484,0.00007224,-0.0
 0000220,0.00000216,-0.01021131,-0.09426263,-0.27715381,-0.00025808,-0.
 00006710,0.00081861,0.00034190,0.00031988,0.00025081,-0.00029671,-0.00
 044200,0.00033265,-0.00004993,-0.00055959,0.00027123,0.00002658,-0.000
 09162,-0.00004688,0.00000460,0.00009411,0.00011342,-0.00001890,0.00020
 187,0.00003190,-0.00001409,0.00000034,0.00000953,0.00000062,0.00000212
 ,0.00000368,-0.00000856,-0.00000749,-0.00000194,0.00000016,-0.00000807
 ,0.00000270,-0.00001079,-0.00000065,0.00000326,-0.00000308,-0.00000369
 ,-0.00000464,0.00001402,0.00001526,-0.00002539,0.00003601,-0.00005095,
 0.00000846,-0.00002330,-0.00000180,-0.00000642,0.01168692,0.10258167,0
 .29931381,-0.02217200,0.00062202,0.01011628,0.00190673,-0.00114156,-0.
 00004334,-0.00848502,-0.00159250,0.00417270,-0.00009997,-0.00000250,0.
 00003071,-0.00012012,0.00010765,-0.00026675,0.00018364,0.00062665,0.00
 017623,-0.00000193,-0.00001788,-0.00001681,0.00002687,-0.00006832,-0.0
 0002666,0.00000084,0.00002099,-0.00006865,0.00005035,0.00003604,0.0000
 0879,0.00000869,0.00007817,0.00022904,0.00014730,-0.00000631,-0.000107
 95,-0.26255609,-0.01630101,0.09550795,-0.00165138,0.00258050,-0.002793
 66,0.00121131,-0.00007141,-0.00010079,0.00079165,-0.00174266,-0.000051
 74,0.00067691,-0.00021104,-0.00010672,-0.00007160,-0.00007081,-0.00008
 926,-0.00005145,-0.00031388,-0.00054399,0.00026772,-0.00004921,-0.0001
 2710,-0.00001326,-0.00000257,0.00000792,0.00000349,0.00000319,0.000000
 62,-0.00003151,-0.00002433,-0.00000519,-0.00000127,-0.00001371,0.00000
 932,-0.00001254,-0.00000187,0.00000606,-0.00000542,-0.00000654,-0.0000
 0578,0.00007103,0.00006603,-0.00012791,0.00004810,-0.00009761,0.000086
 03,-0.00007244,-0.00002525,-0.00000637,0.00237675,0.00060063,-0.000454
 40,0.28757461,0.01960420,-0.00084280,-0.00967153,-0.00188553,0.0007473
 5,-0.00002164,-0.03119029,-0.00431168,0.01404947,0.00005479,0.00001976
 ,-0.00001286,-0.00010775,-0.00046921,-0.00001661,-0.00015853,0.0016700
 2,0.00102892,0.00000313,0.00000369,0.00000588,0.00007612,0.00003301,0.
 00003483,0.00001799,0.00001651,0.00003051,-0.00002234,-0.00002911,-0.0
 0000286,0.00002419,0.00006492,0.00002037,-0.00011272,-0.00008396,0.000
 03539,-0.01636933,-0.04876306,0.00629577,0.00273599,-0.00117834,0.0029
 8452,-0.00042183,0.00069085,-0.00080122,-0.00210030,-0.00607773,-0.000
 45943,0.00069817,0.00141733,0.00015227,-0.00001621,0.00014104,-0.00003
 658,0.00040775,-0.00017147,-0.00050348,0.00042885,0.00009274,0.0001293
 2,0.00000204,0.00000280,-0.00000283,0.00000108,-0.00000122,-0.00000218
 ,0.00000563,0.00000295,-0.00000292,0.00001247,0.00000762,0.00000375,0.
 00000723,0.00000449,-0.00000422,0.00000290,0.00000442,0.00000081,0.000
 07340,-0.00015134,0.00004434,-0.00002670,0.00010633,-0.00007712,0.0000
 4905,0.00006206,-0.00001462,0.01118747,0.00015390,-0.00393409,0.017019
 10,0.05683812,-0.01893496,-0.00068395,0.00677794,0.00142206,0.00010066
 ,0.00214253,0.00154059,0.00077677,-0.00172020,-0.00001015,-0.00002620,
 0.00000271,-0.00027711,-0.00024550,-0.00012963,-0.00104713,-0.00042145
 ,0.00042871,0.00000255,0.00000555,-0.00000273,0.00021778,0.00007176,-0
 .00000913,0.00001106,-0.00001854,-0.00002875,0.00000653,0.00001444,0.0
 0000130,-0.00009361,0.00001982,0.00006446,0.00004321,0.00004855,-0.000
 06822,0.09788482,0.00560342,-0.09395600,-0.00275658,0.00184693,-0.0011
 7112,0.00078176,-0.00068344,0.00065254,-0.00028878,0.00051526,0.001027
 44,0.00008994,0.00005951,0.00002459,0.00004682,-0.00001085,0.00004374,
 -0.00000121,-0.00009972,0.00027524,-0.00006606,0.00008712,0.00007513,0
 .00000202,-0.00000213,-0.00000083,-0.00000015,0.00000034,0.00000055,-0
 .00000433,-0.00000654,0.00000303,-0.00000084,-0.00000629,0.00000255,-0
 .00000294,-0.00000282,0.00000270,-0.00000105,-0.00000220,0.00000031,-0
 .00000837,0.00005619,-0.00003519,-0.00002003,-0.00006436,0.00004244,-0
 .00002981,-0.00003190,0.00000459,0.02690253,0.00235153,-0.01106416,-0.
 10540858,-0.00925198,0.09661345\\-0.00000631,0.00000068,0.00001160,0.0
 0003730,0.00022371,-0.00158109,-0.00000200,0.00000333,-0.00000431,-0.0
 0000630,0.00000264,0.00000084,0.00012295,-0.00098495,0.00262301,0.0000
 0627,-0.00000991,0.00000024,0.00000630,-0.00000077,0.00000251,-0.00047
 152,0.00215233,-0.00191140,-0.00000406,0.00000880,0.00000080,0.0000087
 6,0.00000203,0.00000341,0.00032123,-0.00138760,0.00085811,-0.00000373,
 0.00000147,0.00000239,0.00000480,-0.00000289,-0.00000047,0.00001026,-0
 .00000008,0.00000190,-0.00000413,-0.00000118,0.00000475,-0.00000177,-0
 .00000344,-0.00000220,-0.00000038,0.00000041,-0.00000296,-0.00000445,0
 .00000405,-0.00000052,-0.00000322,0.00000149,-0.00000278,0.00000130,0.
 00000409,-0.00000032,-0.00000196,0.00000071,-0.00000479,-0.00000249,-0
 .00000325,-0.00000586,0.00000002,0.00000121,-0.00000195,-0.00000150,-0
 .00000008,-0.00000428,0.00000091,-0.00000342,-0.00000009,-0.00000025,0
 .00000058,0.00000201,0.00000168,-0.00000450,0.00000360,-0.00000379,-0.
 00000261,0.00000091,0.00000023,0.00000558,0.00000431,-0.00000061,-0.00
 000741,0.00000194,-0.00000352,-0.00000099,0.00000068\\\@


 One man practicing sportsmanship is far better than 50 preaching it.
 -- Knute K. Rockne
 Job cpu time:       0 days 14 hours 10 minutes 10.2 seconds.
 Elapsed time:       0 days  0 hours 53 minutes  9.5 seconds.
 File lengths (MBytes):  RWF=    690 Int=      0 D2E=      0 Chk=     33 Scr=      1
 Normal termination of Gaussian 16 at Sun Nov  4 23:02:34 2018.
