 Entering Gaussian System, Link 0=g16
 Initial command:
 /apps/gaussian/g16a03/g16/l1.exe "/jobfs/local/2012039.r-man2/Gau-17803.inp" -scrdir="/jobfs/local/2012039.r-man2/"
 Entering Link 1 = /apps/gaussian/g16a03/g16/l1.exe PID=     17804.
  
 Copyright (c) 1988,1990,1992,1993,1995,1998,2003,2009,2016,
            Gaussian, Inc.  All Rights Reserved.
  
 This is part of the Gaussian(R) 16 program.  It is based on
 the Gaussian(R) 09 system (copyright 2009, Gaussian, Inc.),
 the Gaussian(R) 03 system (copyright 2003, Gaussian, Inc.),
 the Gaussian(R) 98 system (copyright 1998, Gaussian, Inc.),
 the Gaussian(R) 94 system (copyright 1995, Gaussian, Inc.),
 the Gaussian 92(TM) system (copyright 1992, Gaussian, Inc.),
 the Gaussian 90(TM) system (copyright 1990, Gaussian, Inc.),
 the Gaussian 88(TM) system (copyright 1988, Gaussian, Inc.),
 the Gaussian 86(TM) system (copyright 1986, Carnegie Mellon
 University), and the Gaussian 82(TM) system (copyright 1983,
 Carnegie Mellon University). Gaussian is a federally registered
 trademark of Gaussian, Inc.
  
 This software contains proprietary and confidential information,
 including trade secrets, belonging to Gaussian, Inc.
  
 This software is provided under written license and may be
 used, copied, transmitted, or stored only in accord with that
 written license.
  
 The following legend is applicable only to US Government
 contracts under FAR:
  
                    RESTRICTED RIGHTS LEGEND
  
 Use, reproduction and disclosure by the US Government is
 subject to restrictions as set forth in subparagraphs (a)
 and (c) of the Commercial Computer Software - Restricted
 Rights clause in FAR 52.227-19.
  
 Gaussian, Inc.
 340 Quinnipiac St., Bldg. 40, Wallingford CT 06492
  
  
 ---------------------------------------------------------------
 Warning -- This program may not be used in any manner that
 competes with the business of Gaussian, Inc. or will provide
 assistance to any competitor of Gaussian, Inc.  The licensee
 of this program is prohibited from giving any competitor of
 Gaussian, Inc. access to this program.  By using this program,
 the user acknowledges that Gaussian, Inc. is engaged in the
 business of creating and licensing software in the field of
 computational chemistry and represents and warrants to the
 licensee that it is not a competitor of Gaussian, Inc. and that
 it will not use this program in any manner prohibited above.
 ---------------------------------------------------------------
  

 Cite this work as:
 Gaussian 16, Revision A.03,
 M. J. Frisch, G. W. Trucks, H. B. Schlegel, G. E. Scuseria, 
 M. A. Robb, J. R. Cheeseman, G. Scalmani, V. Barone, 
 G. A. Petersson, H. Nakatsuji, X. Li, M. Caricato, A. V. Marenich, 
 J. Bloino, B. G. Janesko, R. Gomperts, B. Mennucci, H. P. Hratchian, 
 J. V. Ortiz, A. F. Izmaylov, J. L. Sonnenberg, D. Williams-Young, 
 F. Ding, F. Lipparini, F. Egidi, J. Goings, B. Peng, A. Petrone, 
 T. Henderson, D. Ranasinghe, V. G. Zakrzewski, J. Gao, N. Rega, 
 G. Zheng, W. Liang, M. Hada, M. Ehara, K. Toyota, R. Fukuda, 
 J. Hasegawa, M. Ishida, T. Nakajima, Y. Honda, O. Kitao, H. Nakai, 
 T. Vreven, K. Throssell, J. A. Montgomery, Jr., J. E. Peralta, 
 F. Ogliaro, M. J. Bearpark, J. J. Heyd, E. N. Brothers, K. N. Kudin, 
 V. N. Staroverov, T. A. Keith, R. Kobayashi, J. Normand, 
 K. Raghavachari, A. P. Rendell, J. C. Burant, S. S. Iyengar, 
 J. Tomasi, M. Cossi, J. M. Millam, M. Klene, C. Adamo, R. Cammi, 
 J. W. Ochterski, R. L. Martin, K. Morokuma, O. Farkas, 
 J. B. Foresman, and D. J. Fox, Gaussian, Inc., Wallingford CT, 2016.
 
 ******************************************
 Gaussian 16:  ES64L-G16RevA.03 25-Dec-2016
                 4-Nov-2018 
 ******************************************
 %mem=6000mb
 %nproc=24
 Will use up to   24 processors via shared memory.
 %chk=L_a1-e4_D_PHI.inp_extract_12.chk
 ----------------------------------------------------------------------
 #M062X/6-311++G(2d,2p) opt=ModRedundant freq=noraman SCRF=(Solvent=Wat
 er)
 ----------------------------------------------------------------------
 1/18=120,19=15,26=3,38=1/1,3;
 2/9=110,12=2,17=6,18=5,40=1/2;
 3/5=4,6=6,7=1212,11=2,25=1,30=1,70=2201,71=1,72=1,74=-55/1,2,3;
 4//1;
 5/5=2,38=5,53=1/2;
 6/7=2,8=2,9=2,10=2,28=1/1;
 7//1,2,3,16;
 1/18=20,19=15,26=3/3(2);
 2/9=110/2;
 99//99;
 2/9=110/2;
 3/5=4,6=6,7=1212,11=2,25=1,30=1,70=2205,71=1,72=1,74=-55/1,2,3;
 4/5=5,16=3,69=1/1;
 5/5=2,38=5,53=1/2;
 7//1,2,3,16;
 1/18=20,19=15,26=3/3(-5);
 2/9=110/2;
 6/7=2,8=2,9=2,10=2,19=2,28=1/1;
 99/9=1/99;
 ----------------------------
 L_a1-e4_D_PHI.inp_extract_12
 ----------------------------
 Symbolic Z-matrix:
 Charge =  0 Multiplicity = 1
 C                    -2.5298   -1.30308   0.01091 
 O                    -2.35265  -0.49879   1.16765 
 C                    -2.14455   0.67027  -1.45024 
 O                     2.57574  -1.35573  -0.58851 
 C                    -1.47875   0.59433   1.06072 
 C                    -1.78706   1.44685  -0.17564 
 C                     3.05015   1.01555  -0.51462 
 O                    -0.15252   0.15929   1.24274 
 C                     1.86576   1.21866   0.43387 
 C                     3.59796  -0.39653  -0.38505 
 C                     0.83956   0.10932   0.23355 
 C                     1.51687  -1.25208   0.33863 
 C                    -3.09637  -0.4801   -1.13006 
 H                    -1.5827   -1.75322  -0.2694 
 H                    -3.20392  -2.09438   0.30805 
 H                    -1.25694   0.2711   -1.92908 
 H                    -2.59802   1.35563  -2.15965 
 H                    -1.68603   1.1804    1.94163 
 H                    -2.65056   2.04277   0.10555 
 H                    -0.97492   2.14289  -0.35007 
 H                     3.83916   1.72894  -0.29597 
 H                     2.73712   1.1824   -1.54239 
 H                     2.21163   1.18528   1.46478 
 H                     1.40599   2.18885   0.27569 
 H                     4.35559  -0.5974   -1.13009 
 H                     4.03515  -0.54904   0.59918 
 H                     0.39691   0.19494  -0.74587 
 H                     0.82056  -2.04676   0.1113 
 H                     1.89539  -1.39911   1.34755 
 H                    -3.24041  -1.11527  -1.99924 
 H                    -4.07114  -0.09542  -0.8395 
 
 The following ModRedundant input section has been read:
 D       2       5       8      11 F                                           
 

 GradGradGradGradGradGradGradGradGradGradGradGradGradGradGradGradGradGrad
 Berny optimization.
 Initialization pass.
                           ----------------------------
                           !    Initial Parameters    !
                           ! (Angstroms and Degrees)  !
 --------------------------                            --------------------------
 ! Name  Definition              Value          Derivative Info.                !
 --------------------------------------------------------------------------------
 ! R1    R(1,2)                  1.42           estimate D2E/DX2                !
 ! R2    R(1,13)                 1.5166         estimate D2E/DX2                !
 ! R3    R(1,14)                 1.0854         estimate D2E/DX2                !
 ! R4    R(1,15)                 1.0812         estimate D2E/DX2                !
 ! R5    R(2,5)                  1.4036         estimate D2E/DX2                !
 ! R6    R(3,6)                  1.5348         estimate D2E/DX2                !
 ! R7    R(3,13)                 1.527          estimate D2E/DX2                !
 ! R8    R(3,16)                 1.0847         estimate D2E/DX2                !
 ! R9    R(3,17)                 1.0856         estimate D2E/DX2                !
 ! R10   R(4,10)                 1.4165         estimate D2E/DX2                !
 ! R11   R(4,12)                 1.4112         estimate D2E/DX2                !
 ! R12   R(5,6)                  1.5331         estimate D2E/DX2                !
 ! R13   R(5,8)                  1.4076         estimate D2E/DX2                !
 ! R14   R(5,18)                 1.0782         estimate D2E/DX2                !
 ! R15   R(6,19)                 1.0862         estimate D2E/DX2                !
 ! R16   R(6,20)                 1.0837         estimate D2E/DX2                !
 ! R17   R(7,9)                  1.5309         estimate D2E/DX2                !
 ! R18   R(7,10)                 1.5201         estimate D2E/DX2                !
 ! R19   R(7,21)                 1.0859         estimate D2E/DX2                !
 ! R20   R(7,22)                 1.0873         estimate D2E/DX2                !
 ! R21   R(8,11)                 1.416          estimate D2E/DX2                !
 ! R22   R(9,11)                 1.5244         estimate D2E/DX2                !
 ! R23   R(9,23)                 1.0879         estimate D2E/DX2                !
 ! R24   R(9,24)                 1.0852         estimate D2E/DX2                !
 ! R25   R(10,25)                1.0814         estimate D2E/DX2                !
 ! R26   R(10,26)                1.0877         estimate D2E/DX2                !
 ! R27   R(11,12)                1.5242         estimate D2E/DX2                !
 ! R28   R(11,27)                1.0782         estimate D2E/DX2                !
 ! R29   R(12,28)                1.0808         estimate D2E/DX2                !
 ! R30   R(12,29)                1.0876         estimate D2E/DX2                !
 ! R31   R(13,30)                1.0861         estimate D2E/DX2                !
 ! R32   R(13,31)                1.0875         estimate D2E/DX2                !
 ! A1    A(2,1,13)             110.6158         estimate D2E/DX2                !
 ! A2    A(2,1,14)             109.6586         estimate D2E/DX2                !
 ! A3    A(2,1,15)             105.5725         estimate D2E/DX2                !
 ! A4    A(13,1,14)            110.8987         estimate D2E/DX2                !
 ! A5    A(13,1,15)            111.7767         estimate D2E/DX2                !
 ! A6    A(14,1,15)            108.1499         estimate D2E/DX2                !
 ! A7    A(1,2,5)              117.1765         estimate D2E/DX2                !
 ! A8    A(6,3,13)             110.6246         estimate D2E/DX2                !
 ! A9    A(6,3,16)             111.2375         estimate D2E/DX2                !
 ! A10   A(6,3,17)             108.6962         estimate D2E/DX2                !
 ! A11   A(13,3,16)            108.9899         estimate D2E/DX2                !
 ! A12   A(13,3,17)            110.6238         estimate D2E/DX2                !
 ! A13   A(16,3,17)            106.5984         estimate D2E/DX2                !
 ! A14   A(10,4,12)            113.4148         estimate D2E/DX2                !
 ! A15   A(2,5,6)              111.673          estimate D2E/DX2                !
 ! A16   A(2,5,8)              109.6381         estimate D2E/DX2                !
 ! A17   A(2,5,18)             103.9687         estimate D2E/DX2                !
 ! A18   A(6,5,8)              117.7508         estimate D2E/DX2                !
 ! A19   A(6,5,18)             108.5396         estimate D2E/DX2                !
 ! A20   A(8,5,18)             104.0927         estimate D2E/DX2                !
 ! A21   A(3,6,5)              115.7985         estimate D2E/DX2                !
 ! A22   A(3,6,19)             107.9035         estimate D2E/DX2                !
 ! A23   A(3,6,20)             111.4612         estimate D2E/DX2                !
 ! A24   A(5,6,19)             104.844          estimate D2E/DX2                !
 ! A25   A(5,6,20)             109.6485         estimate D2E/DX2                !
 ! A26   A(19,6,20)            106.5617         estimate D2E/DX2                !
 ! A27   A(9,7,10)             110.4408         estimate D2E/DX2                !
 ! A28   A(9,7,21)             110.5            estimate D2E/DX2                !
 ! A29   A(9,7,22)             110.0331         estimate D2E/DX2                !
 ! A30   A(10,7,21)            109.3434         estimate D2E/DX2                !
 ! A31   A(10,7,22)            109.0792         estimate D2E/DX2                !
 ! A32   A(21,7,22)            107.3795         estimate D2E/DX2                !
 ! A33   A(5,8,11)             125.3701         estimate D2E/DX2                !
 ! A34   A(7,9,11)             110.0499         estimate D2E/DX2                !
 ! A35   A(7,9,23)             109.6984         estimate D2E/DX2                !
 ! A36   A(7,9,24)             110.8598         estimate D2E/DX2                !
 ! A37   A(11,9,23)            108.4341         estimate D2E/DX2                !
 ! A38   A(11,9,24)            110.2569         estimate D2E/DX2                !
 ! A39   A(23,9,24)            107.4728         estimate D2E/DX2                !
 ! A40   A(4,10,7)             110.8988         estimate D2E/DX2                !
 ! A41   A(4,10,25)            106.3115         estimate D2E/DX2                !
 ! A42   A(4,10,26)            108.9707         estimate D2E/DX2                !
 ! A43   A(7,10,25)            111.4874         estimate D2E/DX2                !
 ! A44   A(7,10,26)            110.623          estimate D2E/DX2                !
 ! A45   A(25,10,26)           108.4077         estimate D2E/DX2                !
 ! A46   A(8,11,9)             110.6279         estimate D2E/DX2                !
 ! A47   A(8,11,12)            107.0802         estimate D2E/DX2                !
 ! A48   A(8,11,27)            110.9135         estimate D2E/DX2                !
 ! A49   A(9,11,12)            109.9856         estimate D2E/DX2                !
 ! A50   A(9,11,27)            109.7521         estimate D2E/DX2                !
 ! A51   A(12,11,27)           108.4199         estimate D2E/DX2                !
 ! A52   A(4,12,11)            110.7156         estimate D2E/DX2                !
 ! A53   A(4,12,28)            106.9311         estimate D2E/DX2                !
 ! A54   A(4,12,29)            109.779          estimate D2E/DX2                !
 ! A55   A(11,12,28)           110.8524         estimate D2E/DX2                !
 ! A56   A(11,12,29)           109.8383         estimate D2E/DX2                !
 ! A57   A(28,12,29)           108.6602         estimate D2E/DX2                !
 ! A58   A(1,13,3)             109.492          estimate D2E/DX2                !
 ! A59   A(1,13,30)            109.527          estimate D2E/DX2                !
 ! A60   A(1,13,31)            109.0147         estimate D2E/DX2                !
 ! A61   A(3,13,30)            110.8192         estimate D2E/DX2                !
 ! A62   A(3,13,31)            110.3805         estimate D2E/DX2                !
 ! A63   A(30,13,31)           107.567          estimate D2E/DX2                !
 ! D1    D(13,1,2,5)           -60.6469         estimate D2E/DX2                !
 ! D2    D(14,1,2,5)            61.9755         estimate D2E/DX2                !
 ! D3    D(15,1,2,5)           178.2676         estimate D2E/DX2                !
 ! D4    D(2,1,13,3)            59.2487         estimate D2E/DX2                !
 ! D5    D(2,1,13,30)         -179.0447         estimate D2E/DX2                !
 ! D6    D(2,1,13,31)          -61.597          estimate D2E/DX2                !
 ! D7    D(14,1,13,3)          -62.6477         estimate D2E/DX2                !
 ! D8    D(14,1,13,30)          59.0589         estimate D2E/DX2                !
 ! D9    D(14,1,13,31)         176.5066         estimate D2E/DX2                !
 ! D10   D(15,1,13,3)          176.5813         estimate D2E/DX2                !
 ! D11   D(15,1,13,30)         -61.7121         estimate D2E/DX2                !
 ! D12   D(15,1,13,31)          55.7356         estimate D2E/DX2                !
 ! D13   D(1,2,5,6)             49.6065         estimate D2E/DX2                !
 ! D14   D(1,2,5,8)            -82.7544         estimate D2E/DX2                !
 ! D15   D(1,2,5,18)           166.4417         estimate D2E/DX2                !
 ! D16   D(13,3,6,5)            43.0306         estimate D2E/DX2                !
 ! D17   D(13,3,6,19)          -74.0467         estimate D2E/DX2                !
 ! D18   D(13,3,6,20)          169.2819         estimate D2E/DX2                !
 ! D19   D(16,3,6,5)           -78.2537         estimate D2E/DX2                !
 ! D20   D(16,3,6,19)          164.669          estimate D2E/DX2                !
 ! D21   D(16,3,6,20)           47.9977         estimate D2E/DX2                !
 ! D22   D(17,3,6,5)           164.6774         estimate D2E/DX2                !
 ! D23   D(17,3,6,19)           47.6001         estimate D2E/DX2                !
 ! D24   D(17,3,6,20)          -69.0713         estimate D2E/DX2                !
 ! D25   D(6,3,13,1)           -51.0387         estimate D2E/DX2                !
 ! D26   D(6,3,13,30)         -171.9649         estimate D2E/DX2                !
 ! D27   D(6,3,13,31)           68.9745         estimate D2E/DX2                !
 ! D28   D(16,3,13,1)           71.5658         estimate D2E/DX2                !
 ! D29   D(16,3,13,30)         -49.3605         estimate D2E/DX2                !
 ! D30   D(16,3,13,31)        -168.421          estimate D2E/DX2                !
 ! D31   D(17,3,13,1)         -171.5427         estimate D2E/DX2                !
 ! D32   D(17,3,13,30)          67.531          estimate D2E/DX2                !
 ! D33   D(17,3,13,31)         -51.5295         estimate D2E/DX2                !
 ! D34   D(12,4,10,7)          -60.3284         estimate D2E/DX2                !
 ! D35   D(12,4,10,25)         178.3209         estimate D2E/DX2                !
 ! D36   D(12,4,10,26)          61.6726         estimate D2E/DX2                !
 ! D37   D(10,4,12,11)          61.0997         estimate D2E/DX2                !
 ! D38   D(10,4,12,28)        -178.0409         estimate D2E/DX2                !
 ! D39   D(10,4,12,29)         -60.3378         estimate D2E/DX2                !
 ! D40   D(2,5,6,3)            -40.4648         estimate D2E/DX2                !
 ! D41   D(2,5,6,19)            78.3087         estimate D2E/DX2                !
 ! D42   D(2,5,6,20)          -167.6279         estimate D2E/DX2                !
 ! D43   D(8,5,6,3)             87.6862         estimate D2E/DX2                !
 ! D44   D(8,5,6,19)          -153.5403         estimate D2E/DX2                !
 ! D45   D(8,5,6,20)           -39.4769         estimate D2E/DX2                !
 ! D46   D(18,5,6,3)          -154.4969         estimate D2E/DX2                !
 ! D47   D(18,5,6,19)          -35.7234         estimate D2E/DX2                !
 ! D48   D(18,5,6,20)           78.34           estimate D2E/DX2                !
 ! D49   D(2,5,8,11)           110.4622         Frozen                          !
 ! D50   D(6,5,8,11)           -18.6489         estimate D2E/DX2                !
 ! D51   D(18,5,8,11)         -138.8157         estimate D2E/DX2                !
 ! D52   D(10,7,9,11)          -52.0013         estimate D2E/DX2                !
 ! D53   D(10,7,9,23)           67.2211         estimate D2E/DX2                !
 ! D54   D(10,7,9,24)         -174.2428         estimate D2E/DX2                !
 ! D55   D(21,7,9,11)         -173.1149         estimate D2E/DX2                !
 ! D56   D(21,7,9,23)          -53.8925         estimate D2E/DX2                !
 ! D57   D(21,7,9,24)           64.6436         estimate D2E/DX2                !
 ! D58   D(22,7,9,11)           68.4764         estimate D2E/DX2                !
 ! D59   D(22,7,9,23)         -172.3012         estimate D2E/DX2                !
 ! D60   D(22,7,9,24)          -53.7651         estimate D2E/DX2                !
 ! D61   D(9,7,10,4)            54.8428         estimate D2E/DX2                !
 ! D62   D(9,7,10,25)          173.0985         estimate D2E/DX2                !
 ! D63   D(9,7,10,26)          -66.1881         estimate D2E/DX2                !
 ! D64   D(21,7,10,4)          176.6416         estimate D2E/DX2                !
 ! D65   D(21,7,10,25)         -65.1028         estimate D2E/DX2                !
 ! D66   D(21,7,10,26)          55.6106         estimate D2E/DX2                !
 ! D67   D(22,7,10,4)          -66.2041         estimate D2E/DX2                !
 ! D68   D(22,7,10,25)          52.0515         estimate D2E/DX2                !
 ! D69   D(22,7,10,26)         172.7649         estimate D2E/DX2                !
 ! D70   D(5,8,11,9)           106.9448         estimate D2E/DX2                !
 ! D71   D(5,8,11,12)         -133.2065         estimate D2E/DX2                !
 ! D72   D(5,8,11,27)          -15.0888         estimate D2E/DX2                !
 ! D73   D(7,9,11,8)           170.644          estimate D2E/DX2                !
 ! D74   D(7,9,11,12)           52.5549         estimate D2E/DX2                !
 ! D75   D(7,9,11,27)          -66.6436         estimate D2E/DX2                !
 ! D76   D(23,9,11,8)           50.6526         estimate D2E/DX2                !
 ! D77   D(23,9,11,12)         -67.4364         estimate D2E/DX2                !
 ! D78   D(23,9,11,27)         173.365          estimate D2E/DX2                !
 ! D79   D(24,9,11,8)          -66.7585         estimate D2E/DX2                !
 ! D80   D(24,9,11,12)         175.1525         estimate D2E/DX2                !
 ! D81   D(24,9,11,27)          55.9539         estimate D2E/DX2                !
 ! D82   D(8,11,12,4)         -176.6769         estimate D2E/DX2                !
 ! D83   D(8,11,12,28)          64.8186         estimate D2E/DX2                !
 ! D84   D(8,11,12,29)         -55.2744         estimate D2E/DX2                !
 ! D85   D(9,11,12,4)          -56.4175         estimate D2E/DX2                !
 ! D86   D(9,11,12,28)        -174.922          estimate D2E/DX2                !
 ! D87   D(9,11,12,29)          64.985          estimate D2E/DX2                !
 ! D88   D(27,11,12,4)          63.5923         estimate D2E/DX2                !
 ! D89   D(27,11,12,28)        -54.9121         estimate D2E/DX2                !
 ! D90   D(27,11,12,29)       -175.0051         estimate D2E/DX2                !
 --------------------------------------------------------------------------------
 Trust Radius=3.00D-01 FncErr=1.00D-07 GrdErr=1.00D-06 EigMax=2.50D+02 EigMin=1.00D-04
 Number of steps in this run=    186 maximum allowed number of steps=    186.
 GradGradGradGradGradGradGradGradGradGradGradGradGradGradGradGradGradGrad

                          Input orientation:                          
 ---------------------------------------------------------------------
 Center     Atomic      Atomic             Coordinates (Angstroms)
 Number     Number       Type             X           Y           Z
 ---------------------------------------------------------------------
      1          6           0       -2.529796   -1.303080    0.010911
      2          8           0       -2.352651   -0.498791    1.167654
      3          6           0       -2.144549    0.670270   -1.450236
      4          8           0        2.575736   -1.355725   -0.588505
      5          6           0       -1.478751    0.594331    1.060715
      6          6           0       -1.787055    1.446851   -0.175636
      7          6           0        3.050145    1.015547   -0.514619
      8          8           0       -0.152522    0.159291    1.242736
      9          6           0        1.865759    1.218661    0.433869
     10          6           0        3.597963   -0.396528   -0.385051
     11          6           0        0.839559    0.109323    0.233549
     12          6           0        1.516870   -1.252075    0.338631
     13          6           0       -3.096371   -0.480100   -1.130059
     14          1           0       -1.582697   -1.753217   -0.269402
     15          1           0       -3.203923   -2.094383    0.308051
     16          1           0       -1.256936    0.271096   -1.929080
     17          1           0       -2.598017    1.355625   -2.159651
     18          1           0       -1.686034    1.180403    1.941625
     19          1           0       -2.650562    2.042773    0.105545
     20          1           0       -0.974924    2.142893   -0.350066
     21          1           0        3.839160    1.728937   -0.295968
     22          1           0        2.737117    1.182400   -1.542389
     23          1           0        2.211634    1.185275    1.464780
     24          1           0        1.405992    2.188850    0.275694
     25          1           0        4.355588   -0.597396   -1.130086
     26          1           0        4.035148   -0.549040    0.599178
     27          1           0        0.396913    0.194935   -0.745871
     28          1           0        0.820556   -2.046764    0.111304
     29          1           0        1.895391   -1.399107    1.347553
     30          1           0       -3.240406   -1.115266   -1.999240
     31          1           0       -4.071141   -0.095416   -0.839500
 ---------------------------------------------------------------------
                    Distance matrix (angstroms):
                    1          2          3          4          5
     1  C    0.000000
     2  O    1.419970   0.000000
     3  C    2.485453   2.874606   0.000000
     4  O    5.140868   5.301644   5.208486   0.000000
     5  C    2.409762   1.403586   2.598832   4.791817   0.000000
     6  C    2.854573   2.431018   1.534759   5.201811   1.533103
     7  C    6.065307   5.857770   5.289560   2.419391   4.813523
     8  O    3.050796   2.297668   3.388417   3.618302   1.407578
     9  C    5.085172   4.613357   4.464656   2.859507   3.459548
    10  C    6.207097   6.150704   5.937097   1.416475   5.370760
    11  C    3.660192   3.381207   3.471987   2.415874   2.508784
    12  C    4.060235   4.028388   4.505712   1.411213   3.592265
    13  C    1.516613   2.415151   1.527033   5.764789   2.927557
    14  H    1.085447   2.057072   2.753786   4.189557   2.700185
    15  H    1.081157   2.002372   3.443422   5.895243   3.282058
    16  H    2.803884   3.373882   1.084660   4.374136   3.015387
    17  H    3.432886   3.817070   1.085640   6.048772   3.493291
    18  H    3.256882   1.965478   3.460519   5.567422   1.078169
    19  H    3.349369   2.770627   2.135478   6.272614   2.093675
    20  H    3.797718   3.343666   2.178765   4.990428   2.154574
    21  H    7.060517   6.741178   6.185296   3.346186   5.604293
    22  H    6.027497   6.006369   4.909321   2.716251   4.989541
    23  H    5.548586   4.874121   5.266771   3.287131   3.759179
    24  H    5.268217   4.705997   4.229806   3.831338   3.388287
    25  H    7.014868   7.091530   6.630328   2.009041   6.345024
    26  H    6.634239   6.413241   6.623856   2.047246   5.650079
    27  H    3.373780   3.420955   2.679758   2.678914   2.634651
    28  H    3.433366   3.685287   4.314224   2.011945   3.628164
    29  H    4.623647   4.346124   5.332078   2.052577   3.929492
    30  H    2.140315   3.346247   2.165744   5.989616   3.922942
    31  H    2.134806   2.672936   2.161257   6.769959   3.287408
                    6          7          8          9         10
     6  C    0.000000
     7  C    4.868207   0.000000
     8  O    2.518191   3.752139   0.000000
     9  C    3.710339   1.530900   2.418675   0.000000
    10  C    5.695640   1.520147   4.126107   2.505992   0.000000
    11  C    2.975822   2.503535   1.416044   1.524416   2.871819
    12  C    4.297045   2.867242   2.365635   2.497064   2.363604
    13  C    2.517612   6.355736   3.834739   5.473061   6.736181
    14  H    3.207957   5.402723   2.826597   4.606354   5.356605
    15  H    3.844711   7.032910   3.906882   6.057538   7.044768
    16  H    2.176693   4.594111   3.360453   4.028974   5.138073
    17  H    2.145296   5.892666   4.357511   5.164339   6.679028
    18  H    2.136351   5.337762   1.970476   3.858760   5.985044
    19  H    1.086200   5.825621   3.328800   4.602620   6.725692
    20  H    1.083724   4.183201   2.673582   3.088404   5.230791
    21  H    5.634567   1.085946   4.556855   2.165030   2.140961
    22  H    4.733506   1.087262   4.141701   2.160133   2.138574
    23  H    4.330000   2.156369   2.586732   1.087898   2.801050
    24  H    3.309050   2.168980   2.735552   1.085206   3.453332
    25  H    6.543851   2.164386   5.150332   3.455903   1.081398
    26  H    6.203383   2.158404   4.295635   2.803274   1.087703
    27  H    2.581119   2.786848   2.063421   2.144134   3.275170
    28  H    4.368903   3.839348   2.663400   3.443762   3.268583
    29  H    4.896937   3.260628   2.575566   2.772797   2.627895
    30  H    3.464420   6.805549   4.655097   6.118836   7.062965
    31  H    2.834846   7.214742   4.444790   6.212491   7.688456
                   11         12         13         14         15
    11  C    0.000000
    12  C    1.524204   0.000000
    13  C    4.206946   4.902549   0.000000
    14  H    3.096666   3.198150   2.157027   0.000000
    15  H    4.605607   4.795446   2.164633   1.754486   0.000000
    16  H    3.016360   3.893143   2.141553   2.637896   3.793548
    17  H    4.370081   5.474834   2.162938   3.777408   4.284767
    18  H    3.231618   4.329565   3.765842   3.674976   3.961915
    19  H    3.991937   5.317691   2.844354   3.961119   4.178909
    20  H    2.787178   4.267218   3.462516   3.944055   4.832811
    21  H    3.449803   3.831733   7.326469   6.443806   8.036643
    22  H    2.811792   3.309669   6.079762   5.375792   7.032595
    23  H    2.134524   2.773370   6.138532   5.102849   6.436026
    24  H    2.155703   3.443286   5.419475   4.976875   6.292730
    25  H    3.836849   3.262523   7.452882   6.110641   7.839350
    26  H    3.283126   2.627521   7.338500   5.810736   7.407900
    27  H    1.078206   2.127037   3.578590   2.818009   4.395196
    28  H    2.159633   1.080769   4.397469   2.450863   4.029567
    29  H    2.152010   1.087575   5.648081   3.851887   5.250426
    30  H    4.809478   5.302455   1.086120   2.479379   2.506710
    31  H    5.030738   5.826810   1.087466   3.043956   2.462683
                   16         17         18         19         20
    16  H    0.000000
    17  H    1.740076   0.000000
    18  H    3.999165   4.205102   0.000000
    19  H    3.036566   2.367709   2.246149   0.000000
    20  H    2.465044   2.555156   2.585326   1.739359   0.000000
    21  H    5.546400   6.711924   5.986274   6.509700   4.832152
    22  H    4.114908   5.373516   5.630508   5.699387   4.015399
    23  H    4.938116   6.024804   3.926732   5.120915   3.790099
    24  H    3.953479   4.759964   3.654164   4.062748   2.462204
    25  H    5.735250   7.295678   7.006938   7.588374   6.044169
    26  H    5.922066   7.432211   6.125770   7.187481   5.766142
    27  H    2.034945   3.509356   3.540120   3.664221   2.415189
    28  H    3.721776   5.331053   4.477463   5.364048   4.581467
    29  H    4.843869   6.330856   4.453470   5.835650   4.864811
    30  H    2.420966   2.558065   4.818359   3.840735   4.297416
    31  H    3.039945   2.453245   3.879575   2.735509   3.851770
                   21         22         23         24         25
    21  H    0.000000
    22  H    1.751219   0.000000
    23  H    2.458586   3.052737   0.000000
    24  H    2.541382   2.467845   1.752184   0.000000
    25  H    2.524733   2.440720   3.808909   4.294124   0.000000
    26  H    2.455377   3.044516   2.661263   3.809612   1.759368
    27  H    3.795344   2.661970   3.026708   2.457139   4.055431
    28  H    4.851161   4.103097   3.770023   4.279040   4.017234
    29  H    4.032872   3.965406   2.606297   3.776484   3.582458
    30  H    7.817345   6.420184   6.856870   6.138528   7.663077
    31  H    8.136126   6.962704   6.813453   6.038254   8.446667
                   26         27         28         29         30
    26  H    0.000000
    27  H    3.949609   0.000000
    28  H    3.579777   2.437096   0.000000
    29  H    2.421000   3.028008   1.761545   0.000000
    30  H    7.746359   4.064191   4.670492   6.136611   0.000000
    31  H    8.245453   4.478457   5.351681   6.487088   1.753628
                   31
    31  H    0.000000
 Stoichiometry    C10H18O3
 Framework group  C1[X(C10H18O3)]
 Deg. of freedom    87
 Full point group                 C1      NOp   1
 Largest Abelian subgroup         C1      NOp   1
 Largest concise Abelian subgroup C1      NOp   1
                         Standard orientation:                         
 ---------------------------------------------------------------------
 Center     Atomic      Atomic             Coordinates (Angstroms)
 Number     Number       Type             X           Y           Z
 ---------------------------------------------------------------------
      1          6           0        2.529796   -1.303080   -0.010911
      2          8           0        2.352651   -0.498791   -1.167654
      3          6           0        2.144549    0.670270    1.450236
      4          8           0       -2.575736   -1.355725    0.588505
      5          6           0        1.478751    0.594331   -1.060715
      6          6           0        1.787055    1.446851    0.175636
      7          6           0       -3.050145    1.015547    0.514619
      8          8           0        0.152522    0.159291   -1.242736
      9          6           0       -1.865759    1.218661   -0.433869
     10          6           0       -3.597963   -0.396528    0.385051
     11          6           0       -0.839559    0.109323   -0.233549
     12          6           0       -1.516870   -1.252075   -0.338631
     13          6           0        3.096371   -0.480100    1.130059
     14          1           0        1.582697   -1.753217    0.269402
     15          1           0        3.203923   -2.094383   -0.308051
     16          1           0        1.256936    0.271096    1.929080
     17          1           0        2.598017    1.355625    2.159651
     18          1           0        1.686034    1.180403   -1.941625
     19          1           0        2.650562    2.042773   -0.105545
     20          1           0        0.974924    2.142893    0.350066
     21          1           0       -3.839160    1.728937    0.295968
     22          1           0       -2.737117    1.182400    1.542389
     23          1           0       -2.211634    1.185275   -1.464780
     24          1           0       -1.405992    2.188850   -0.275694
     25          1           0       -4.355588   -0.597396    1.130086
     26          1           0       -4.035148   -0.549040   -0.599178
     27          1           0       -0.396913    0.194935    0.745871
     28          1           0       -0.820556   -2.046764   -0.111304
     29          1           0       -1.895391   -1.399107   -1.347553
     30          1           0        3.240406   -1.115266    1.999240
     31          1           0        4.071141   -0.095416    0.839500
 ---------------------------------------------------------------------
 Rotational constants (GHZ):           1.5666716           0.4504751           0.4350744
 Standard basis: 6-311++G(2d,2p) (5D, 7F)
 There are   557 symmetry adapted cartesian basis functions of A   symmetry.
 There are   531 symmetry adapted basis functions of A   symmetry.
   531 basis functions,   762 primitive gaussians,   557 cartesian basis functions
    51 alpha electrons       51 beta electrons
       nuclear repulsion energy       900.0483188890 Hartrees.
 NAtoms=   31 NActive=   31 NUniq=   31 SFac= 1.00D+00 NAtFMM=   60 NAOKFM=F Big=F
 Integral buffers will be    131072 words long.
 Raffenetti 2 integral format.
 Two-electron integral symmetry is turned on.
 ------------------------------------------------------------------------------
 Polarizable Continuum Model (PCM)
 =================================
 Model                : PCM.
 Atomic radii         : UFF (Universal Force Field).
 Polarization charges : Total charges.
 Charge compensation  : None.
 Solution method      : On-the-fly selection.
 Cavity type          : Scaled VdW (van der Waals Surface) (Alpha=1.100).
 Cavity algorithm     : GePol (No added spheres)
                        Default sphere list used, NSphG=   31.
                        Lebedev-Laikov grids with approx.  5.0 points / Ang**2.
                        Smoothing algorithm: York/Karplus (Gamma=1.0000).
                        Polarization charges: spherical gaussians, with
                                              point-specific exponents (IZeta= 3).
                        Self-potential: point-specific (ISelfS= 7).
                        Self-field    : sphere-specific E.n sum rule (ISelfD= 2).
 1st derivatives      : Analytical E(r).r(x)/FMM algorithm (CHGder, D1EAlg=3).
                        Cavity 1st derivative terms included.
 Solvent              : Water, Eps=  78.355300 Eps(inf)=   1.777849
 ------------------------------------------------------------------------------
 One-electron integrals computed using PRISM.
 NBasis=   531 RedAO= T EigKep=  4.17D-06  NBF=   531
 NBsUse=   531 1.00D-06 EigRej= -1.00D+00 NBFU=   531
 ExpMin= 3.60D-02 ExpMax= 8.59D+03 ExpMxC= 1.30D+03 IAcc=3 IRadAn=         5 AccDes= 0.00D+00
 Harris functional with IExCor= 1009 and IRadAn=       5 diagonalized for initial guess.
 HarFok:  IExCor= 1009 AccDes= 0.00D+00 IRadAn=         5 IDoV= 1 UseB2=F ITyADJ=14
 ICtDFT=  3500011 ScaDFX=  1.000000  1.000000  1.000000  1.000000
 FoFCou: FMM=F IPFlag=           0 FMFlag=      100000 FMFlg1=           0
         NFxFlg=           0 DoJE=T BraDBF=F KetDBF=T FulRan=T
         wScrn=  0.000000 ICntrl=       500 IOpCl=  0 I1Cent=   200000004 NGrid=           0
         NMat0=    1 NMatS0=      1 NMatT0=    0 NMatD0=    1 NMtDS0=    0 NMtDT0=    0
 Petite list used in FoFCou.
 Requested convergence on RMS density matrix=1.00D-08 within 128 cycles.
 Requested convergence on MAX density matrix=1.00D-06.
 Requested convergence on             energy=1.00D-06.
 No special actions if energy rises.
 Inv3:  Mode=1 IEnd=    12411468.
 Iteration    1 A*A^-1 deviation from unit magnitude is 4.44D-15 for   2008.
 Iteration    1 A*A^-1 deviation from orthogonality  is 3.36D-15 for   2028    888.
 Iteration    1 A^-1*A deviation from unit magnitude is 4.44D-15 for   2008.
 Iteration    1 A^-1*A deviation from orthogonality  is 2.08D-15 for   1496    127.
 Error on total polarization charges =  0.01492
 SCF Done:  E(RM062X) =  -617.490821776     A.U. after   12 cycles
            NFock= 12  Conv=0.50D-08     -V/T= 2.0035

 **********************************************************************

            Population analysis using the SCF density.

 **********************************************************************

 Orbital symmetries:
       Occupied  (A) (A) (A) (A) (A) (A) (A) (A) (A) (A) (A) (A)
                 (A) (A) (A) (A) (A) (A) (A) (A) (A) (A) (A) (A)
                 (A) (A) (A) (A) (A) (A) (A) (A) (A) (A) (A) (A)
                 (A) (A) (A) (A) (A) (A) (A) (A) (A) (A) (A) (A)
                 (A) (A) (A)
       Virtual   (A) (A) (A) (A) (A) (A) (A) (A) (A) (A) (A) (A)
                 (A) (A) (A) (A) (A) (A) (A) (A) (A) (A) (A) (A)
                 (A) (A) (A) (A) (A) (A) (A) (A) (A) (A) (A) (A)
                 (A) (A) (A) (A) (A) (A) (A) (A) (A) (A) (A) (A)
                 (A) (A) (A) (A) (A) (A) (A) (A) (A) (A) (A) (A)
                 (A) (A) (A) (A) (A) (A) (A) (A) (A) (A) (A) (A)
                 (A) (A) (A) (A) (A) (A) (A) (A) (A) (A) (A) (A)
                 (A) (A) (A) (A) (A) (A) (A) (A) (A) (A) (A) (A)
                 (A) (A) (A) (A) (A) (A) (A) (A) (A) (A) (A) (A)
                 (A) (A) (A) (A) (A) (A) (A) (A) (A) (A) (A) (A)
                 (A) (A) (A) (A) (A) (A) (A) (A) (A) (A) (A) (A)
                 (A) (A) (A) (A) (A) (A) (A) (A) (A) (A) (A) (A)
                 (A) (A) (A) (A) (A) (A) (A) (A) (A) (A) (A) (A)
                 (A) (A) (A) (A) (A) (A) (A) (A) (A) (A) (A) (A)
                 (A) (A) (A) (A) (A) (A) (A) (A) (A) (A) (A) (A)
                 (A) (A) (A) (A) (A) (A) (A) (A) (A) (A) (A) (A)
                 (A) (A) (A) (A) (A) (A) (A) (A) (A) (A) (A) (A)
                 (A) (A) (A) (A) (A) (A) (A) (A) (A) (A) (A) (A)
                 (A) (A) (A) (A) (A) (A) (A) (A) (A) (A) (A) (A)
                 (A) (A) (A) (A) (A) (A) (A) (A) (A) (A) (A) (A)
                 (A) (A) (A) (A) (A) (A) (A) (A) (A) (A) (A) (A)
                 (A) (A) (A) (A) (A) (A) (A) (A) (A) (A) (A) (A)
                 (A) (A) (A) (A) (A) (A) (A) (A) (A) (A) (A) (A)
                 (A) (A) (A) (A) (A) (A) (A) (A) (A) (A) (A) (A)
                 (A) (A) (A) (A) (A) (A) (A) (A) (A) (A) (A) (A)
                 (A) (A) (A) (A) (A) (A) (A) (A) (A) (A) (A) (A)
                 (A) (A) (A) (A) (A) (A) (A) (A) (A) (A) (A) (A)
                 (A) (A) (A) (A) (A) (A) (A) (A) (A) (A) (A) (A)
                 (A) (A) (A) (A) (A) (A) (A) (A) (A) (A) (A) (A)
                 (A) (A) (A) (A) (A) (A) (A) (A) (A) (A) (A) (A)
                 (A) (A) (A) (A) (A) (A) (A) (A) (A) (A) (A) (A)
                 (A) (A) (A) (A) (A) (A) (A) (A) (A) (A) (A) (A)
                 (A) (A) (A) (A) (A) (A) (A) (A) (A) (A) (A) (A)
                 (A) (A) (A) (A) (A) (A) (A) (A) (A) (A) (A) (A)
                 (A) (A) (A) (A) (A) (A) (A) (A) (A) (A) (A) (A)
                 (A) (A) (A) (A) (A) (A) (A) (A) (A) (A) (A) (A)
                 (A) (A) (A) (A) (A) (A) (A) (A) (A) (A) (A) (A)
                 (A) (A) (A) (A) (A) (A) (A) (A) (A) (A) (A) (A)
                 (A) (A) (A) (A) (A) (A) (A) (A) (A) (A) (A) (A)
                 (A) (A) (A) (A) (A) (A) (A) (A) (A) (A) (A) (A)
 The electronic state is 1-A.
 Alpha  occ. eigenvalues --  -19.62933 -19.62870 -19.62742 -10.63870 -10.58860
 Alpha  occ. eigenvalues --  -10.57918 -10.57879 -10.57865 -10.53643 -10.53389
 Alpha  occ. eigenvalues --  -10.53146 -10.53069 -10.52918  -1.19748  -1.16789
 Alpha  occ. eigenvalues --   -1.13602  -0.90643  -0.90352  -0.87823  -0.84924
 Alpha  occ. eigenvalues --   -0.75470  -0.74397  -0.73773  -0.70614  -0.65927
 Alpha  occ. eigenvalues --   -0.64716  -0.59732  -0.58557  -0.57872  -0.55853
 Alpha  occ. eigenvalues --   -0.54932  -0.53817  -0.52013  -0.51255  -0.50342
 Alpha  occ. eigenvalues --   -0.49131  -0.47735  -0.46061  -0.45376  -0.45259
 Alpha  occ. eigenvalues --   -0.43942  -0.41611  -0.41298  -0.40783  -0.39252
 Alpha  occ. eigenvalues --   -0.38348  -0.38014  -0.36801  -0.35103  -0.33235
 Alpha  occ. eigenvalues --   -0.31685
 Alpha virt. eigenvalues --   -0.00188   0.00714   0.00923   0.01056   0.02259
 Alpha virt. eigenvalues --    0.02602   0.02648   0.03369   0.03595   0.04737
 Alpha virt. eigenvalues --    0.04808   0.04936   0.05564   0.05756   0.07129
 Alpha virt. eigenvalues --    0.07454   0.08295   0.08621   0.08813   0.09425
 Alpha virt. eigenvalues --    0.09766   0.10400   0.10757   0.11444   0.11924
 Alpha virt. eigenvalues --    0.12080   0.12276   0.12800   0.13227   0.13672
 Alpha virt. eigenvalues --    0.14110   0.14209   0.14410   0.14726   0.14831
 Alpha virt. eigenvalues --    0.15319   0.15522   0.15630   0.16089   0.16294
 Alpha virt. eigenvalues --    0.16615   0.16696   0.17112   0.17520   0.17617
 Alpha virt. eigenvalues --    0.18052   0.18094   0.18439   0.18908   0.19301
 Alpha virt. eigenvalues --    0.19700   0.20075   0.20724   0.21146   0.21297
 Alpha virt. eigenvalues --    0.21742   0.22079   0.23488   0.23796   0.24419
 Alpha virt. eigenvalues --    0.24632   0.25773   0.26316   0.26555   0.27205
 Alpha virt. eigenvalues --    0.27600   0.28062   0.28429   0.29393   0.29708
 Alpha virt. eigenvalues --    0.30158   0.30858   0.31564   0.31604   0.31871
 Alpha virt. eigenvalues --    0.32429   0.33125   0.33340   0.33672   0.34404
 Alpha virt. eigenvalues --    0.34614   0.35471   0.35565   0.36040   0.36395
 Alpha virt. eigenvalues --    0.36581   0.37006   0.37239   0.37655   0.38253
 Alpha virt. eigenvalues --    0.38760   0.39540   0.39677   0.40401   0.41092
 Alpha virt. eigenvalues --    0.41429   0.42862   0.42956   0.43697   0.44425
 Alpha virt. eigenvalues --    0.46179   0.47823   0.48694   0.49660   0.51138
 Alpha virt. eigenvalues --    0.51517   0.52474   0.53298   0.54299   0.55131
 Alpha virt. eigenvalues --    0.55961   0.57746   0.58311   0.58825   0.59645
 Alpha virt. eigenvalues --    0.60003   0.60509   0.60581   0.61003   0.61301
 Alpha virt. eigenvalues --    0.62516   0.62749   0.63250   0.63672   0.64572
 Alpha virt. eigenvalues --    0.64898   0.65873   0.65934   0.66664   0.67731
 Alpha virt. eigenvalues --    0.68142   0.68585   0.69339   0.69629   0.70485
 Alpha virt. eigenvalues --    0.71311   0.71917   0.72257   0.72834   0.73325
 Alpha virt. eigenvalues --    0.74005   0.74490   0.75370   0.75744   0.76116
 Alpha virt. eigenvalues --    0.76307   0.77034   0.78305   0.79047   0.79873
 Alpha virt. eigenvalues --    0.81095   0.81700   0.84552   0.84701   0.85047
 Alpha virt. eigenvalues --    0.85536   0.87730   0.88318   0.88405   0.89621
 Alpha virt. eigenvalues --    0.90147   0.91959   0.93178   0.94255   0.95741
 Alpha virt. eigenvalues --    0.96352   0.97127   0.98702   1.00369   1.00935
 Alpha virt. eigenvalues --    1.03628   1.03704   1.04550   1.05033   1.06693
 Alpha virt. eigenvalues --    1.08006   1.08887   1.10300   1.10748   1.11439
 Alpha virt. eigenvalues --    1.12270   1.13967   1.15440   1.15717   1.16388
 Alpha virt. eigenvalues --    1.17268   1.18088   1.18430   1.19226   1.20851
 Alpha virt. eigenvalues --    1.21153   1.21763   1.22348   1.23960   1.24568
 Alpha virt. eigenvalues --    1.25270   1.25391   1.26437   1.26840   1.28442
 Alpha virt. eigenvalues --    1.28806   1.29239   1.29874   1.31492   1.31708
 Alpha virt. eigenvalues --    1.31987   1.33127   1.33797   1.34236   1.34957
 Alpha virt. eigenvalues --    1.35267   1.36012   1.36648   1.37397   1.37815
 Alpha virt. eigenvalues --    1.38566   1.38941   1.39709   1.40639   1.41523
 Alpha virt. eigenvalues --    1.42153   1.42818   1.43224   1.44330   1.44678
 Alpha virt. eigenvalues --    1.45190   1.46373   1.46785   1.47043   1.48717
 Alpha virt. eigenvalues --    1.49768   1.50476   1.51334   1.52100   1.52231
 Alpha virt. eigenvalues --    1.52652   1.53784   1.54637   1.55237   1.55923
 Alpha virt. eigenvalues --    1.56493   1.57463   1.58014   1.58432   1.59014
 Alpha virt. eigenvalues --    1.60091   1.61021   1.61205   1.62135   1.63048
 Alpha virt. eigenvalues --    1.63248   1.64645   1.65350   1.65676   1.67058
 Alpha virt. eigenvalues --    1.67598   1.68704   1.69806   1.70272   1.71777
 Alpha virt. eigenvalues --    1.73755   1.74580   1.75193   1.76397   1.77893
 Alpha virt. eigenvalues --    1.78800   1.78981   1.81281   1.82116   1.84276
 Alpha virt. eigenvalues --    1.87034   1.88559   1.91096   1.93506   1.98889
 Alpha virt. eigenvalues --    2.02911   2.03176   2.11028   2.14299   2.20285
 Alpha virt. eigenvalues --    2.23209   2.24906   2.27167   2.32726   2.37714
 Alpha virt. eigenvalues --    2.41722   2.43660   2.45470   2.49827   2.52462
 Alpha virt. eigenvalues --    2.55130   2.75029   2.75933   2.80609   2.83162
 Alpha virt. eigenvalues --    2.84119   2.89701   2.92428   2.93490   2.94940
 Alpha virt. eigenvalues --    2.96194   2.98473   3.00462   3.01614   3.03352
 Alpha virt. eigenvalues --    3.06567   3.07007   3.08306   3.09147   3.10597
 Alpha virt. eigenvalues --    3.12355   3.14807   3.17555   3.18675   3.22344
 Alpha virt. eigenvalues --    3.23552   3.28613   3.31246   3.32202   3.34479
 Alpha virt. eigenvalues --    3.35833   3.36449   3.38605   3.39568   3.40905
 Alpha virt. eigenvalues --    3.42649   3.43561   3.44152   3.44938   3.45940
 Alpha virt. eigenvalues --    3.47927   3.48796   3.49255   3.50529   3.51994
 Alpha virt. eigenvalues --    3.52701   3.53093   3.54574   3.55064   3.55441
 Alpha virt. eigenvalues --    3.56148   3.57255   3.57641   3.58392   3.59868
 Alpha virt. eigenvalues --    3.60301   3.61592   3.63344   3.64088   3.65212
 Alpha virt. eigenvalues --    3.66978   3.67359   3.67906   3.68512   3.69422
 Alpha virt. eigenvalues --    3.70431   3.71260   3.72401   3.73154   3.73851
 Alpha virt. eigenvalues --    3.75062   3.75779   3.76621   3.77073   3.77540
 Alpha virt. eigenvalues --    3.78218   3.79088   3.81644   3.82529   3.84837
 Alpha virt. eigenvalues --    3.85323   3.87189   3.89093   3.90747   3.92684
 Alpha virt. eigenvalues --    3.94251   3.95020   3.95728   3.97118   3.97401
 Alpha virt. eigenvalues --    3.99459   4.01812   4.02846   4.03061   4.04533
 Alpha virt. eigenvalues --    4.05312   4.05547   4.06375   4.07275   4.08389
 Alpha virt. eigenvalues --    4.08861   4.09327   4.09779   4.10754   4.11715
 Alpha virt. eigenvalues --    4.12009   4.13085   4.13661   4.15250   4.16047
 Alpha virt. eigenvalues --    4.16551   4.18238   4.18870   4.18958   4.19924
 Alpha virt. eigenvalues --    4.22095   4.22952   4.25604   4.26339   4.28478
 Alpha virt. eigenvalues --    4.28646   4.29200   4.30896   4.32394   4.32966
 Alpha virt. eigenvalues --    4.34755   4.35061   4.36746   4.39431   4.41011
 Alpha virt. eigenvalues --    4.42501   4.43925   4.45889   4.47126   4.53300
 Alpha virt. eigenvalues --    4.58857   4.59946   4.74794   4.77162   4.82977
 Alpha virt. eigenvalues --    4.84870   4.92896   4.93926   4.98740   5.01815
 Alpha virt. eigenvalues --    5.06464   5.06674   5.08291   5.09021   5.12153
 Alpha virt. eigenvalues --    5.12880   5.14770   5.17604   5.31208   5.34272
 Alpha virt. eigenvalues --    5.44400   5.54321   5.59204   5.60927   5.85920
 Alpha virt. eigenvalues --    5.88322   6.00624   6.99881   7.05906   7.07138
 Alpha virt. eigenvalues --    7.08472   7.10127   7.11353   7.12850   7.14168
 Alpha virt. eigenvalues --    7.34498   7.36457   7.40913   7.46532   7.53091
 Alpha virt. eigenvalues --    7.54727   7.57612  23.96153  23.96952  24.06005
 Alpha virt. eigenvalues --   24.08364  24.09883  24.13317  24.14157  24.14952
 Alpha virt. eigenvalues --   24.15637  24.18930  50.16840  50.19177  50.21665
          Condensed to atoms (all electrons):
               1          2          3          4          5          6
     1  C    5.460213   0.195464   0.167112   0.001394  -0.214790   0.101434
     2  O    0.195464   8.196373  -0.031219  -0.000106   0.236148  -0.007672
     3  C    0.167112  -0.031219   6.195198  -0.002473   0.451197  -0.700515
     4  O    0.001394  -0.000106  -0.002473   8.253715  -0.011163   0.010500
     5  C   -0.214790   0.236148   0.451197  -0.011163   6.791507  -1.093904
     6  C    0.101434  -0.007672  -0.700515   0.010500  -1.093904   6.840602
     7  C    0.004478   0.000286   0.009250   0.003957  -0.059644   0.060268
     8  O    0.036776  -0.040612   0.016874   0.003797   0.236599   0.005171
     9  C   -0.040934  -0.023282   0.047601  -0.027488   0.322403  -0.110021
    10  C    0.002076   0.001733  -0.016680   0.115505  -0.045819   0.024724
    11  C    0.031150   0.041790  -0.296981   0.050094  -0.905431   0.403392
    12  C   -0.038811  -0.001940   0.045702   0.175349   0.066983  -0.053031
    13  C   -0.284885  -0.129452  -0.501777  -0.000343  -0.121706   0.228024
    14  H    0.501144  -0.033749   0.042681  -0.001461   0.010790  -0.017849
    15  H    0.420997  -0.051798  -0.003638   0.000005  -0.006790   0.008153
    16  H    0.027085   0.002382   0.546954   0.005488  -0.029969  -0.049892
    17  H    0.016170  -0.001065   0.437978  -0.000074   0.028770  -0.071419
    18  H   -0.016826  -0.071129   0.000691   0.000153   0.548480  -0.079517
    19  H    0.023167  -0.014556  -0.004657   0.000200  -0.081785   0.461767
    20  H    0.006387   0.012871  -0.064832   0.000551  -0.103415   0.496590
    21  H   -0.000378  -0.000089   0.001076   0.008763  -0.000133   0.000315
    22  H    0.001086  -0.000161   0.004132  -0.003192   0.005200  -0.003135
    23  H   -0.001738  -0.000949   0.007147   0.000557   0.030009  -0.020135
    24  H    0.002174   0.000983  -0.007502  -0.004514  -0.001156   0.005036
    25  H   -0.000303   0.000092  -0.000879  -0.069063  -0.002765   0.001156
    26  H    0.000837  -0.000001  -0.000553  -0.055537  -0.000563   0.001515
    27  H   -0.056911   0.001780  -0.012309  -0.051136  -0.005697  -0.056191
    28  H    0.000444  -0.008170   0.002272  -0.066579   0.015501   0.006362
    29  H    0.003480   0.002114  -0.000434  -0.047644   0.000028   0.006316
    30  H   -0.034226   0.006378  -0.041872  -0.000072   0.015262   0.005348
    31  H   -0.056725  -0.010339   0.011317  -0.000008   0.026914  -0.043616
               7          8          9         10         11         12
     1  C    0.004478   0.036776  -0.040934   0.002076   0.031150  -0.038811
     2  O    0.000286  -0.040612  -0.023282   0.001733   0.041790  -0.001940
     3  C    0.009250   0.016874   0.047601  -0.016680  -0.296981   0.045702
     4  O    0.003957   0.003797  -0.027488   0.115505   0.050094   0.175349
     5  C   -0.059644   0.236599   0.322403  -0.045819  -0.905431   0.066983
     6  C    0.060268   0.005171  -0.110021   0.024724   0.403392  -0.053031
     7  C    5.582949  -0.005099   0.043117   0.043253  -0.159612   0.143461
     8  O   -0.005099   8.211947  -0.203907   0.018434   0.345965  -0.234266
     9  C    0.043117  -0.203907   7.171157  -0.208761  -1.862466   0.104908
    10  C    0.043253   0.018434  -0.208761   5.470083   0.272875  -0.281542
    11  C   -0.159612   0.345965  -1.862466   0.272875   8.569398  -0.478743
    12  C    0.143461  -0.234266   0.104908  -0.281542  -0.478743   6.201742
    13  C   -0.011618  -0.030669   0.007463   0.001362   0.158160   0.006464
    14  H    0.000551   0.005908  -0.007012   0.000292   0.031652  -0.027552
    15  H   -0.000351  -0.001984  -0.001559   0.000163   0.008055  -0.001902
    16  H    0.018358  -0.005787  -0.023059  -0.005644   0.046081   0.012897
    17  H    0.001061  -0.000954   0.003906  -0.000678  -0.014310   0.003553
    18  H   -0.005493  -0.074119   0.042734  -0.003496  -0.086193   0.017992
    19  H    0.002187   0.004075  -0.006793   0.000500   0.014317  -0.003906
    20  H    0.000951  -0.006562  -0.071134   0.008420   0.097574   0.002909
    21  H    0.418080  -0.002071  -0.022132  -0.031943  -0.001938  -0.008386
    22  H    0.538636  -0.000269  -0.030821  -0.105508  -0.025629   0.031372
    23  H   -0.055457  -0.004432   0.524036  -0.025421  -0.082797  -0.003235
    24  H    0.008748   0.001715   0.421246  -0.010823  -0.037757   0.008317
    25  H   -0.064272   0.000918   0.015234   0.450472   0.000072   0.001787
    26  H   -0.011654  -0.000385  -0.058934   0.452641   0.074525  -0.037710
    27  H   -0.129345   0.003935   0.103430   0.094051   0.252889  -0.190768
    28  H    0.001170   0.006808   0.079358   0.004673  -0.166759   0.425441
    29  H    0.028173   0.006803  -0.058507  -0.009335   0.050568   0.394609
    30  H   -0.000443   0.000419   0.000663   0.000065  -0.006990   0.000087
    31  H   -0.000200   0.000612   0.000993  -0.000044  -0.005563  -0.000088
              13         14         15         16         17         18
     1  C   -0.284885   0.501144   0.420997   0.027085   0.016170  -0.016826
     2  O   -0.129452  -0.033749  -0.051798   0.002382  -0.001065  -0.071129
     3  C   -0.501777   0.042681  -0.003638   0.546954   0.437978   0.000691
     4  O   -0.000343  -0.001461   0.000005   0.005488  -0.000074   0.000153
     5  C   -0.121706   0.010790  -0.006790  -0.029969   0.028770   0.548480
     6  C    0.228024  -0.017849   0.008153  -0.049892  -0.071419  -0.079517
     7  C   -0.011618   0.000551  -0.000351   0.018358   0.001061  -0.005493
     8  O   -0.030669   0.005908  -0.001984  -0.005787  -0.000954  -0.074119
     9  C    0.007463  -0.007012  -0.001559  -0.023059   0.003906   0.042734
    10  C    0.001362   0.000292   0.000163  -0.005644  -0.000678  -0.003496
    11  C    0.158160   0.031652   0.008055   0.046081  -0.014310  -0.086193
    12  C    0.006464  -0.027552  -0.001902   0.012897   0.003553   0.017992
    13  C    6.435192  -0.156314  -0.008357  -0.109331  -0.033048   0.006933
    14  H   -0.156314   0.565309  -0.021636  -0.001975   0.000017  -0.002725
    15  H   -0.008357  -0.021636   0.448409  -0.001131   0.001215  -0.000324
    16  H   -0.109331  -0.001975  -0.001131   0.505058  -0.012404  -0.005393
    17  H   -0.033048   0.000017   0.001215  -0.012404   0.466764   0.002855
    18  H    0.006933  -0.002725  -0.000324  -0.005393   0.002855   0.477146
    19  H   -0.028179  -0.002294   0.000678   0.007986  -0.008912  -0.010320
    20  H   -0.020085   0.003685   0.000037   0.005441  -0.010849  -0.014240
    21  H   -0.000262   0.000142  -0.000022  -0.000102   0.000132   0.000432
    22  H   -0.000762   0.000147  -0.000006   0.005571  -0.000120  -0.000076
    23  H   -0.000688   0.001272  -0.000142   0.000924   0.000135   0.002929
    24  H    0.002105  -0.000573   0.000254   0.000363   0.000520  -0.002363
    25  H    0.000160   0.000414  -0.000012  -0.000803   0.000008  -0.000105
    26  H    0.000118  -0.000290   0.000060   0.001140  -0.000080  -0.000456
    27  H    0.040004  -0.007042   0.000241  -0.090873   0.009395   0.012619
    28  H   -0.009403  -0.003208   0.002191  -0.007855   0.000674   0.003350
    29  H    0.000059  -0.000257  -0.000223   0.005152  -0.000254  -0.003373
    30  H    0.426122   0.001757  -0.011993  -0.009787  -0.006573   0.001858
    31  H    0.443927  -0.001651  -0.000763  -0.003774   0.001226   0.001452
              19         20         21         22         23         24
     1  C    0.023167   0.006387  -0.000378   0.001086  -0.001738   0.002174
     2  O   -0.014556   0.012871  -0.000089  -0.000161  -0.000949   0.000983
     3  C   -0.004657  -0.064832   0.001076   0.004132   0.007147  -0.007502
     4  O    0.000200   0.000551   0.008763  -0.003192   0.000557  -0.004514
     5  C   -0.081785  -0.103415  -0.000133   0.005200   0.030009  -0.001156
     6  C    0.461767   0.496590   0.000315  -0.003135  -0.020135   0.005036
     7  C    0.002187   0.000951   0.418080   0.538636  -0.055457   0.008748
     8  O    0.004075  -0.006562  -0.002071  -0.000269  -0.004432   0.001715
     9  C   -0.006793  -0.071134  -0.022132  -0.030821   0.524036   0.421246
    10  C    0.000500   0.008420  -0.031943  -0.105508  -0.025421  -0.010823
    11  C    0.014317   0.097574  -0.001938  -0.025629  -0.082797  -0.037757
    12  C   -0.003906   0.002909  -0.008386   0.031372  -0.003235   0.008317
    13  C   -0.028179  -0.020085  -0.000262  -0.000762  -0.000688   0.002105
    14  H   -0.002294   0.003685   0.000142   0.000147   0.001272  -0.000573
    15  H    0.000678   0.000037  -0.000022  -0.000006  -0.000142   0.000254
    16  H    0.007986   0.005441  -0.000102   0.005571   0.000924   0.000363
    17  H   -0.008912  -0.010849   0.000132  -0.000120   0.000135   0.000520
    18  H   -0.010320  -0.014240   0.000432  -0.000076   0.002929  -0.002363
    19  H    0.436636  -0.006908  -0.000099   0.000332  -0.000337   0.001083
    20  H   -0.006908   0.505772  -0.000202  -0.002055  -0.001842  -0.002831
    21  H   -0.000099  -0.000202   0.482560  -0.006486  -0.001548  -0.016044
    22  H    0.000332  -0.002055  -0.006486   0.475113   0.002701   0.001497
    23  H   -0.000337  -0.001842  -0.001548   0.002701   0.441695  -0.009758
    24  H    0.001083  -0.002831  -0.016044   0.001497  -0.009758   0.501450
    25  H   -0.000006   0.000254  -0.007783  -0.007483  -0.001357   0.000452
    26  H    0.000101   0.000100   0.003062   0.004797  -0.003440  -0.000345
    27  H   -0.011630  -0.018704   0.002232  -0.051033  -0.009329  -0.006406
    28  H   -0.000442  -0.000788   0.002530  -0.003208  -0.003111   0.000008
    29  H    0.000840   0.000272  -0.002333   0.004894   0.000946  -0.003022
    30  H   -0.001602   0.000439   0.000019  -0.000162   0.000078  -0.000261
    31  H   -0.002947  -0.001452  -0.000007  -0.000003  -0.000017  -0.000090
              25         26         27         28         29         30
     1  C   -0.000303   0.000837  -0.056911   0.000444   0.003480  -0.034226
     2  O    0.000092  -0.000001   0.001780  -0.008170   0.002114   0.006378
     3  C   -0.000879  -0.000553  -0.012309   0.002272  -0.000434  -0.041872
     4  O   -0.069063  -0.055537  -0.051136  -0.066579  -0.047644  -0.000072
     5  C   -0.002765  -0.000563  -0.005697   0.015501   0.000028   0.015262
     6  C    0.001156   0.001515  -0.056191   0.006362   0.006316   0.005348
     7  C   -0.064272  -0.011654  -0.129345   0.001170   0.028173  -0.000443
     8  O    0.000918  -0.000385   0.003935   0.006808   0.006803   0.000419
     9  C    0.015234  -0.058934   0.103430   0.079358  -0.058507   0.000663
    10  C    0.450472   0.452641   0.094051   0.004673  -0.009335   0.000065
    11  C    0.000072   0.074525   0.252889  -0.166759   0.050568  -0.006990
    12  C    0.001787  -0.037710  -0.190768   0.425441   0.394609   0.000087
    13  C    0.000160   0.000118   0.040004  -0.009403   0.000059   0.426122
    14  H    0.000414  -0.000290  -0.007042  -0.003208  -0.000257   0.001757
    15  H   -0.000012   0.000060   0.000241   0.002191  -0.000223  -0.011993
    16  H   -0.000803   0.001140  -0.090873  -0.007855   0.005152  -0.009787
    17  H    0.000008  -0.000080   0.009395   0.000674  -0.000254  -0.006573
    18  H   -0.000105  -0.000456   0.012619   0.003350  -0.003373   0.001858
    19  H   -0.000006   0.000101  -0.011630  -0.000442   0.000840  -0.001602
    20  H    0.000254   0.000100  -0.018704  -0.000788   0.000272   0.000439
    21  H   -0.007783   0.003062   0.002232   0.002530  -0.002333   0.000019
    22  H   -0.007483   0.004797  -0.051033  -0.003208   0.004894  -0.000162
    23  H   -0.001357  -0.003440  -0.009329  -0.003111   0.000946   0.000078
    24  H    0.000452  -0.000345  -0.006406   0.000008  -0.003022  -0.000261
    25  H    0.478373  -0.008457   0.011070   0.001043  -0.002506   0.000016
    26  H   -0.008457   0.496286  -0.020333  -0.004164   0.011721  -0.000036
    27  H    0.011070  -0.020333   0.825580   0.036047  -0.048038   0.006220
    28  H    0.001043  -0.004164   0.036047   0.507951  -0.025151   0.000850
    29  H   -0.002506   0.011721  -0.048038  -0.025151   0.491551  -0.000220
    30  H    0.000016  -0.000036   0.006220   0.000850  -0.000220   0.487374
    31  H   -0.000009   0.000013   0.003150   0.000590  -0.000100  -0.003538
              31
     1  C   -0.056725
     2  O   -0.010339
     3  C    0.011317
     4  O   -0.000008
     5  C    0.026914
     6  C   -0.043616
     7  C   -0.000200
     8  O    0.000612
     9  C    0.000993
    10  C   -0.000044
    11  C   -0.005563
    12  C   -0.000088
    13  C    0.443927
    14  H   -0.001651
    15  H   -0.000763
    16  H   -0.003774
    17  H    0.001226
    18  H    0.001452
    19  H   -0.002947
    20  H   -0.001452
    21  H   -0.000007
    22  H   -0.000003
    23  H   -0.000017
    24  H   -0.000090
    25  H   -0.000009
    26  H    0.000013
    27  H    0.003150
    28  H    0.000590
    29  H   -0.000100
    30  H   -0.003538
    31  H    0.463119
 Mulliken charges:
               1
     1  C   -0.256542
     2  O   -0.272108
     3  C   -0.300859
     4  O   -0.289176
     5  C   -0.101060
     6  C   -0.359775
     7  C   -0.405747
     8  O   -0.295644
     9  C   -0.131438
    10  C   -0.215629
    11  C   -0.317387
    12  C   -0.281693
    13  C   -0.309214
    14  H    0.119827
    15  H    0.222174
    16  H    0.166900
    17  H    0.186363
    18  H    0.256524
    19  H    0.231504
    20  H    0.183646
    21  H    0.182616
    22  H    0.164630
    23  H    0.213305
    24  H    0.147493
    25  H    0.204282
    26  H    0.156022
    27  H    0.363105
    28  H    0.201576
    29  H    0.193869
    30  H    0.164817
    31  H    0.177620
 Sum of Mulliken charges =  -0.00000
 Mulliken charges with hydrogens summed into heavy atoms:
               1
     1  C    0.085458
     2  O   -0.272108
     3  C    0.052404
     4  O   -0.289176
     5  C    0.155464
     6  C    0.055375
     7  C   -0.058501
     8  O   -0.295644
     9  C    0.229360
    10  C    0.144675
    11  C    0.045717
    12  C    0.113752
    13  C    0.033223
 Electronic spatial extent (au):  <R**2>=           2844.6988
 Charge=             -0.0000 electrons
 Dipole moment (field-independent basis, Debye):
    X=             -0.2177    Y=              2.5804    Z=              2.4092  Tot=              3.5370
 Quadrupole moment (field-independent basis, Debye-Ang):
   XX=            -74.9294   YY=            -79.0162   ZZ=            -85.0584
   XY=             -3.7974   XZ=              7.2809   YZ=              0.0726
 Traceless Quadrupole moment (field-independent basis, Debye-Ang):
   XX=              4.7386   YY=              0.6518   ZZ=             -5.3904
   XY=             -3.7974   XZ=              7.2809   YZ=              0.0726
 Octapole moment (field-independent basis, Debye-Ang**2):
  XXX=            -21.9899  YYY=             -0.0775  ZZZ=              2.5796  XYY=             15.7029
  XXY=             12.9099  XXZ=              8.0321  XZZ=             -4.0622  YZZ=              3.8267
  YYZ=             -4.9550  XYZ=            -10.1285
 Hexadecapole moment (field-independent basis, Debye-Ang**3):
 XXXX=          -2582.0342 YYYY=           -597.0854 ZZZZ=           -478.8427 XXXY=            -29.6452
 XXXZ=             19.2465 YYYX=            -18.8387 YYYZ=              3.9266 ZZZX=             -1.1811
 ZZZY=             -8.0381 XXYY=           -550.1016 XXZZ=           -536.7615 YYZZ=           -179.9296
 XXYZ=              2.1379 YYXZ=              5.3282 ZZXY=              9.6429
 N-N= 9.000483188890D+02 E-N=-3.241664460361D+03  KE= 6.153288758802D+02
 D1PCM: PCM CHGder 1st derivatives, ID1Alg=3 FixD1E=F DoIter=F DoCFld=F I1PDM=0.
 Calling FoFJK, ICntrl=      2127 FMM=F ISym2X=0 I1Cent= 0 IOpClX= 0 NMat=1 NMatS=1 NMatT=0.
 ***** Axes restored to original set *****
 -------------------------------------------------------------------
 Center     Atomic                   Forces (Hartrees/Bohr)
 Number     Number              X              Y              Z
 -------------------------------------------------------------------
      1        6          -0.000212117    0.007817726   -0.001324576
      2        8          -0.005843642   -0.000682739    0.007879881
      3        6          -0.001074082   -0.000659397    0.004555388
      4        8          -0.000194431   -0.006187599   -0.006721990
      5        6           0.000205971   -0.003393064   -0.010692215
      6        6           0.000729581   -0.003935908   -0.000690654
      7        6           0.000004628   -0.000780103    0.002433072
      8        8           0.003889206   -0.002367391    0.006349141
      9        6           0.001499690   -0.003411506   -0.003893829
     10        6          -0.006154004    0.003214670    0.000515483
     11        6          -0.000401175    0.001724032    0.005144707
     12        6           0.003536866    0.005916522   -0.003908474
     13        6           0.002946813   -0.000466943   -0.000222036
     14        1           0.006095962   -0.002480465   -0.002689872
     15        1          -0.002519595   -0.003343634    0.000968813
     16        1           0.003498139   -0.001865681   -0.001477483
     17        1          -0.000966027    0.001544999   -0.001864508
     18        1          -0.001976474    0.003649076    0.005697229
     19        1          -0.002758746    0.001860236    0.000689896
     20        1           0.003614716    0.002423104   -0.000708663
     21        1           0.001895833    0.002245098    0.000533321
     22        1          -0.001173541   -0.000145107   -0.002985914
     23        1           0.000437908   -0.001114140    0.003586723
     24        1          -0.001823223    0.002945749   -0.000396825
     25        1           0.002945566   -0.000730924   -0.003092525
     26        1           0.002353282    0.000312182    0.005721732
     27        1          -0.002586876    0.000656006   -0.008131115
     28        1          -0.003936072   -0.003461213   -0.000829966
     29        1           0.000807277    0.000718840    0.006485896
     30        1          -0.000390643   -0.001270425   -0.002496082
     31        1          -0.002450786    0.001267998    0.001565442
 -------------------------------------------------------------------
 Cartesian Forces:  Max     0.010692215 RMS     0.003430102

 GradGradGradGradGradGradGradGradGradGradGradGradGradGradGradGradGradGrad
 Berny optimization.
 FormGI is forming the generalized inverse of G from B-inverse, IUseBI=4.
 Internal  Forces:  Max     0.016570338 RMS     0.002308977
 Search for a local minimum.
 Step number   1 out of a maximum of  186
 All quantities printed in internal units (Hartrees-Bohrs-Radians)
 Mixed Optimization -- RFO/linear search
 Second derivative matrix not updated -- first step.
 ITU=  0
     Eigenvalues ---    0.00482   0.00640   0.00718   0.00737   0.01384
     Eigenvalues ---    0.01446   0.01480   0.02512   0.02785   0.03044
     Eigenvalues ---    0.03158   0.03805   0.04370   0.04571   0.04787
     Eigenvalues ---    0.04800   0.05001   0.05065   0.05088   0.05157
     Eigenvalues ---    0.05190   0.05503   0.05637   0.05748   0.06157
     Eigenvalues ---    0.06287   0.06402   0.06754   0.07605   0.07866
     Eigenvalues ---    0.07894   0.07989   0.08007   0.08122   0.08527
     Eigenvalues ---    0.08824   0.09333   0.09377   0.10868   0.11613
     Eigenvalues ---    0.11632   0.11705   0.11934   0.12433   0.12492
     Eigenvalues ---    0.14537   0.15173   0.16550   0.16695   0.17532
     Eigenvalues ---    0.19774   0.21711   0.21763   0.25000   0.28107
     Eigenvalues ---    0.28489   0.28572   0.28704   0.29033   0.29201
     Eigenvalues ---    0.30127   0.30181   0.35057   0.35079   0.35094
     Eigenvalues ---    0.35107   0.35131   0.35256   0.35265   0.35285
     Eigenvalues ---    0.35321   0.35344   0.35373   0.35437   0.35548
     Eigenvalues ---    0.35826   0.35855   0.35902   0.36212   0.36216
     Eigenvalues ---    0.40976   0.41470   0.42285   0.43062   0.43556
     Eigenvalues ---    0.443871000.000001000.000001000.000001000.00000
     Eigenvalues --- 1000.000001000.000001000.000001000.000001000.00000
     Eigenvalues --- 1000.000001000.000001000.000001000.000001000.00000
     Eigenvalues --- 1000.000001000.000001000.000001000.000001000.00000
     Eigenvalues --- 1000.000001000.000001000.000001000.000001000.00000
     Eigenvalues --- 1000.000001000.000001000.000001000.000001000.00000
     Eigenvalues --- 1000.000001000.000001000.000001000.000001000.00000
     Eigenvalues --- 1000.000001000.000001000.000001000.000001000.00000
     Eigenvalues --- 1000.000001000.000001000.000001000.000001000.00000
     Eigenvalues --- 1000.000001000.000001000.000001000.000001000.00000
     Eigenvalues --- 1000.000001000.000001000.000001000.000001000.00000
     Eigenvalues --- 1000.000001000.000001000.000001000.000001000.00000
     Eigenvalues --- 1000.000001000.000001000.000001000.000001000.00000
     Eigenvalues --- 1000.000001000.000001000.000001000.000001000.00000
     Eigenvalues --- 1000.000001000.000001000.000001000.000001000.00000
     Eigenvalues --- 1000.000001000.000001000.000001000.000001000.00000
     Eigenvalues --- 1000.000001000.000001000.000001000.000001000.00000
     Eigenvalues --- 1000.000001000.000001000.000001000.000001000.00000
     Eigenvalues --- 1000.000001000.000001000.000001000.000001000.00000
     Eigenvalues --- 1000.000001000.000001000.000001000.000001000.00000
 RFO step:  Lambda=-4.16336654D-03 EMin= 4.82001548D-03
 Linear search not attempted -- first point.
 Iteration  1 RMS(Cart)=  0.09858463 RMS(Int)=  0.00198160
 Iteration  2 RMS(Cart)=  0.00460137 RMS(Int)=  0.00005400
 Iteration  3 RMS(Cart)=  0.00001048 RMS(Int)=  0.00005382
 Iteration  4 RMS(Cart)=  0.00000000 RMS(Int)=  0.00005382
 Iteration  1 RMS(Cart)=  0.00000506 RMS(Int)=  0.00000104
 Iteration  2 RMS(Cart)=  0.00000269 RMS(Int)=  0.00000116
 Iteration  3 RMS(Cart)=  0.00000143 RMS(Int)=  0.00000131
 Iteration  4 RMS(Cart)=  0.00000076 RMS(Int)=  0.00000140
 Variable       Old X    -DE/DX   Delta X   Delta X   Delta X     New X
                                 (Linear)    (Quad)   (Total)
    R1        2.68335   0.00286   0.00000   0.00619   0.00619   2.68955
    R2        2.86598   0.00001   0.00000   0.00014   0.00016   2.86614
    R3        2.05120   0.00704   0.00000   0.01969   0.01969   2.07088
    R4        2.04309   0.00428   0.00000   0.01181   0.01181   2.05490
    R5        2.65239   0.00215   0.00000   0.00458   0.00460   2.65699
    R6        2.90027  -0.00155   0.00000  -0.00463  -0.00464   2.89564
    R7        2.88567  -0.00102   0.00000  -0.00325  -0.00327   2.88241
    R8        2.04971   0.00420   0.00000   0.01172   0.01172   2.06143
    R9        2.05156   0.00260   0.00000   0.00727   0.00727   2.05883
   R10        2.67675   0.00348   0.00000   0.00801   0.00802   2.68477
   R11        2.66681   0.00292   0.00000   0.00656   0.00658   2.67339
   R12        2.89715  -0.00075   0.00000  -0.00258  -0.00259   2.89456
   R13        2.65994   0.00130   0.00000   0.00289   0.00289   2.66283
   R14        2.03744   0.00702   0.00000   0.01916   0.01916   2.05661
   R15        2.05262   0.00339   0.00000   0.00951   0.00951   2.06213
   R16        2.04794   0.00438   0.00000   0.01218   0.01218   2.06012
   R17        2.89298  -0.00069   0.00000  -0.00228  -0.00230   2.89068
   R18        2.87266   0.00028   0.00000   0.00067   0.00067   2.87333
   R19        2.05214   0.00296   0.00000   0.00829   0.00829   2.06043
   R20        2.05463   0.00314   0.00000   0.00882   0.00882   2.06345
   R21        2.67593   0.00193   0.00000   0.00444   0.00444   2.68037
   R22        2.88073  -0.00146   0.00000  -0.00476  -0.00478   2.87595
   R23        2.05583   0.00357   0.00000   0.01007   0.01007   2.06590
   R24        2.05074   0.00346   0.00000   0.00967   0.00967   2.06041
   R25        2.04355   0.00433   0.00000   0.01195   0.01195   2.05549
   R26        2.05546   0.00608   0.00000   0.01713   0.01713   2.07259
   R27        2.88033  -0.00032   0.00000  -0.00081  -0.00080   2.87953
   R28        2.03751   0.00850   0.00000   0.02321   0.02321   2.06072
   R29        2.04236   0.00526   0.00000   0.01448   0.01448   2.05684
   R30        2.05522   0.00620   0.00000   0.01746   0.01746   2.07268
   R31        2.05247   0.00279   0.00000   0.00782   0.00782   2.06029
   R32        2.05501   0.00307   0.00000   0.00863   0.00863   2.06364
    A1        1.93061   0.00283   0.00000   0.00954   0.00949   1.94009
    A2        1.91390   0.00031   0.00000   0.00348   0.00355   1.91746
    A3        1.84259  -0.00157   0.00000  -0.00130  -0.00130   1.84129
    A4        1.93555  -0.00190   0.00000  -0.00851  -0.00856   1.92699
    A5        1.95087  -0.00020   0.00000  -0.00261  -0.00258   1.94830
    A6        1.88757   0.00053   0.00000  -0.00028  -0.00031   1.88726
    A7        2.04512  -0.00585   0.00000  -0.03791  -0.03780   2.00732
    A8        1.93076   0.00131   0.00000  -0.00299  -0.00301   1.92776
    A9        1.94146  -0.00051   0.00000  -0.00104  -0.00105   1.94041
   A10        1.89711  -0.00023   0.00000   0.00270   0.00270   1.89981
   A11        1.90223  -0.00085   0.00000  -0.00220  -0.00226   1.89997
   A12        1.93075  -0.00004   0.00000   0.00200   0.00206   1.93281
   A13        1.86049   0.00028   0.00000   0.00176   0.00176   1.86225
   A14        1.97946  -0.00437   0.00000  -0.02578  -0.02571   1.95375
   A15        1.94906   0.00349   0.00000   0.01064   0.01033   1.95939
   A16        1.91355   0.00245   0.00000   0.00419   0.00412   1.91767
   A17        1.81460  -0.00185   0.00000   0.00032   0.00018   1.81478
   A18        2.05514  -0.00739   0.00000  -0.03961  -0.03955   2.01559
   A19        1.89437   0.00067   0.00000   0.00837   0.00850   1.90287
   A20        1.81676   0.00313   0.00000   0.02167   0.02174   1.83850
   A21        2.02107  -0.00110   0.00000  -0.01065  -0.01083   2.01024
   A22        1.88327   0.00097   0.00000   0.01003   0.01015   1.89342
   A23        1.94536  -0.00041   0.00000  -0.00605  -0.00620   1.93916
   A24        1.82987   0.00031   0.00000   0.01035   0.01037   1.84024
   A25        1.91373   0.00041   0.00000  -0.00546  -0.00552   1.90821
   A26        1.85985  -0.00004   0.00000   0.00460   0.00462   1.86448
   A27        1.92756  -0.00107   0.00000  -0.00700  -0.00704   1.92051
   A28        1.92859  -0.00031   0.00000  -0.00024  -0.00023   1.92836
   A29        1.92044   0.00080   0.00000   0.00159   0.00159   1.92203
   A30        1.90840   0.00078   0.00000   0.00515   0.00518   1.91358
   A31        1.90379  -0.00012   0.00000  -0.00235  -0.00236   1.90143
   A32        1.87412  -0.00004   0.00000   0.00314   0.00314   1.87726
   A33        2.18812  -0.01657   0.00000  -0.06520  -0.06520   2.12293
   A34        1.92073   0.00146   0.00000  -0.00023  -0.00026   1.92048
   A35        1.91460  -0.00002   0.00000   0.00454   0.00453   1.91912
   A36        1.93487  -0.00012   0.00000   0.00379   0.00380   1.93866
   A37        1.89253  -0.00130   0.00000  -0.00963  -0.00963   1.88290
   A38        1.92435  -0.00049   0.00000  -0.00183  -0.00181   1.92253
   A39        1.87575   0.00041   0.00000   0.00317   0.00313   1.87888
   A40        1.93555   0.00197   0.00000   0.00850   0.00849   1.94403
   A41        1.85549  -0.00120   0.00000  -0.00418  -0.00417   1.85132
   A42        1.90190   0.00063   0.00000   0.00723   0.00726   1.90916
   A43        1.94582  -0.00041   0.00000  -0.00357  -0.00357   1.94225
   A44        1.93074  -0.00155   0.00000  -0.00898  -0.00901   1.92173
   A45        1.89207   0.00059   0.00000   0.00138   0.00134   1.89341
   A46        1.93082  -0.00039   0.00000   0.00090   0.00091   1.93173
   A47        1.86890   0.00048   0.00000   0.00293   0.00294   1.87185
   A48        1.93581   0.00022   0.00000   0.00538   0.00538   1.94118
   A49        1.91961  -0.00028   0.00000  -0.00299  -0.00303   1.91658
   A50        1.91554   0.00022   0.00000  -0.00348  -0.00348   1.91205
   A51        1.89228  -0.00026   0.00000  -0.00271  -0.00273   1.88956
   A52        1.93235   0.00184   0.00000   0.00936   0.00939   1.94174
   A53        1.86630  -0.00068   0.00000   0.00227   0.00228   1.86858
   A54        1.91600   0.00139   0.00000   0.01280   0.01286   1.92887
   A55        1.93474  -0.00067   0.00000  -0.00673  -0.00680   1.92794
   A56        1.91704  -0.00255   0.00000  -0.01750  -0.01758   1.89946
   A57        1.89648   0.00075   0.00000   0.00048   0.00032   1.89680
   A58        1.91100  -0.00123   0.00000  -0.00589  -0.00608   1.90492
   A59        1.91161   0.00090   0.00000   0.00532   0.00538   1.91698
   A60        1.90267  -0.00013   0.00000  -0.00307  -0.00302   1.89964
   A61        1.93416  -0.00066   0.00000  -0.00167  -0.00164   1.93252
   A62        1.92650   0.00117   0.00000   0.00147   0.00153   1.92803
   A63        1.87740  -0.00001   0.00000   0.00404   0.00401   1.88141
    D1       -1.05849   0.00069   0.00000  -0.01783  -0.01775  -1.07623
    D2        1.08168   0.00039   0.00000  -0.01985  -0.01977   1.06190
    D3        3.11136   0.00032   0.00000  -0.01917  -0.01911   3.09225
    D4        1.03408   0.00162   0.00000   0.01707   0.01712   1.05120
    D5       -3.12492   0.00059   0.00000   0.01464   0.01463  -3.11029
    D6       -1.07507   0.00102   0.00000   0.02078   0.02079  -1.05428
    D7       -1.09341   0.00058   0.00000   0.01192   0.01199  -1.08141
    D8        1.03077  -0.00045   0.00000   0.00949   0.00950   1.04028
    D9        3.08062  -0.00002   0.00000   0.01563   0.01567   3.09629
[...]
 79,-0.00000037,-0.00000028,-0.00000583,-0.00000151,0.00000475,0.000000
 70,-0.00000011,0.00000122,-0.00000264,-0.00000800,0.00000503,-0.000000
 90,0.00000247,0.00001082,-0.00000511,-0.00000538,0.00000630,-0.0000018
 4,0.00000102,-0.00000722,0.00001038,-0.00000143,0.00035599,-0.00054174
 ,0.00004408,-0.00000061,-0.00057923,0.00080669,-0.00021195,0.00010592,
 0.00037325,0.00007493,0.00013342,0.00020910,-0.14144727,0.03987103,0.1
 9374063,0.00000651,0.00000088,0.00000990,-0.00003559,-0.00002389,-0.00
 001054,0.00000365,0.00000342,-0.00000391,-0.02223321,-0.01152015,-0.02
 331278,0.00012278,0.00001537,0.00007008,-0.00000690,-0.00000554,0.0000
 0278,-0.00387958,0.00362214,-0.01215089,-0.00032635,0.00023171,0.00016
 570,0.00029090,-0.00081343,-0.00095747,-0.08800198,0.01549120,-0.08052
 370,-0.00022196,-0.00016184,0.00037423,0.00224860,0.00036818,-0.005256
 51,0.00000044,0.00000024,0.00000048,0.00000544,0.00000358,0.00000041,-
 0.00000354,-0.00000164,-0.00000100,0.00000180,-0.00000076,0.00000531,-
 0.00000254,0.00000037,-0.00000224,-0.00003524,0.00001012,0.00000034,-0
 .00000220,0.00000425,-0.00000349,0.00000275,0.00000081,-0.00000276,0.0
 0041315,0.00014511,0.00017123,0.00007198,0.00209672,-0.00040227,-0.000
 17058,0.00014902,0.00037274,0.00020290,-0.00003435,0.00022345,0.010761
 37,-0.00240604,0.01918917,0.10030994,0.00001427,-0.00000617,0.00000142
 ,-0.00001859,-0.00001846,-0.00000153,-0.00000226,0.00000441,-0.0000036
 0,-0.02325834,-0.00547359,-0.02502522,0.00011076,0.00003973,0.00004418
 ,-0.00001536,0.00000085,0.00000169,0.01318044,-0.00462084,0.02977718,-
 0.00018472,0.00027763,0.00003234,-0.00103820,0.00142829,0.00087301,0.0
 1505598,-0.05225524,0.03037789,-0.00005556,-0.00045732,0.00034150,0.00
 276207,0.00050286,-0.00350029,-0.00000134,0.00000017,0.00000192,0.0000
 0390,0.00000553,0.00000204,-0.00000560,-0.00000047,-0.00000028,-0.0000
 0413,-0.00000250,0.00000490,-0.00000461,0.00000153,-0.00000225,-0.0000
 3057,0.00001002,0.00000198,-0.00000473,0.00000323,-0.00000528,-0.00000
 243,-0.00000549,0.00000262,-0.00077119,0.00109316,-0.00041765,0.003235
 69,-0.00545304,0.00032413,0.00009468,0.00003916,-0.00077822,-0.0003917
 4,0.00000974,-0.00028344,-0.00214238,0.00165999,-0.00607303,-0.0071938
 4,0.06326801,0.00002479,0.00000258,0.00001724,-0.00011328,-0.00005938,
 -0.00001213,0.00000386,0.00000677,-0.00001313,-0.00802763,-0.00727223,
 -0.00206221,0.00032525,-0.00002392,0.00004452,-0.00002686,0.00000879,-
 0.00000076,-0.00054321,0.00091032,-0.00434845,-0.00055381,0.00014159,0
 .00013185,0.00028994,-0.00052050,0.00095610,-0.08420275,0.02836994,-0.
 25723378,0.00032076,-0.00031941,-0.00006417,0.00231819,0.00050041,0.00
 212705,-0.00000300,0.00000314,-0.00000018,0.00000593,0.00001201,0.0000
 0387,-0.00001233,-0.00000353,-0.00000139,-0.00000801,0.00000707,0.0000
 2138,-0.00001365,0.00000288,-0.00000574,-0.00004936,0.00001757,0.00000
 930,-0.00001858,0.00000493,-0.00000967,0.00001067,-0.00001877,0.000003
 41,-0.00013161,0.00060483,0.00010320,-0.00009251,0.00081322,0.00119646
 ,-0.00052413,0.00001290,0.00031510,0.00000328,0.00012904,0.00017470,-0
 .00808479,0.00337824,-0.01867465,0.10051480,-0.02679835,0.27657904,0.0
 0004900,-0.00009888,0.00028494,-0.00026968,-0.00010616,-0.00006218,-0.
 00331850,0.00163074,-0.00107414,0.00116446,-0.00063379,0.00025902,0.00
 391845,-0.00097612,0.00126349,-0.00107961,0.00099220,-0.00049886,0.000
 75207,0.00028775,-0.00087423,0.00440932,-0.00119335,0.03323580,-0.0093
 5310,0.00035334,-0.01922804,-0.00023571,-0.00012311,-0.00000382,-0.105
 91575,0.00630616,-0.11343584,-0.00668351,0.00163817,-0.01391588,-0.000
 03702,-0.00024130,-0.00012080,0.00001619,-0.00025264,0.00022066,0.0000
 4438,-0.00000113,-0.00010177,-0.00295505,0.00069162,-0.00248078,-0.000
 20943,-0.00010209,-0.00017984,-0.00013269,0.00013396,-0.00028575,-0.00
 000419,-0.00032216,-0.00015604,-0.00030193,0.00011282,-0.00004548,0.00
 017695,-0.00007838,0.00021440,-0.00022548,-0.00007572,0.00053189,-0.00
 233737,-0.00308556,-0.00018032,0.00087985,0.00013084,0.00067032,-0.000
 03693,0.00005695,0.00000114,0.00010720,-0.00005259,0.00003733,0.121554
 96,-0.00029373,0.00030586,0.00005469,0.00008290,-0.00025844,0.00006556
 ,0.00055931,-0.00023839,0.00030503,-0.00225755,0.00177482,-0.00102399,
 0.00019175,0.00099590,-0.00039711,0.00114363,-0.00032639,-0.00024814,0
 .00093894,0.00056879,-0.00046116,-0.00044914,0.00041102,-0.00192117,-0
 .01410053,0.00061582,-0.02379354,-0.00008874,-0.00023436,-0.00000824,0
 .00512572,-0.04931960,0.01197583,0.01591947,-0.00426405,0.02897319,-0.
 00013518,0.00009706,-0.00011660,-0.00001943,-0.00019240,0.00009693,0.0
 0013000,-0.00006667,-0.00003350,0.00046623,0.00078452,0.00021985,0.000
 02907,-0.00005934,-0.00005935,-0.00000007,-0.00005609,0.00012320,-0.00
 020129,0.00005174,-0.00002630,0.00050369,-0.00082048,-0.00018059,0.000
 23292,-0.00014321,0.00029158,-0.00003393,0.00010442,0.00054242,-0.0037
 5247,-0.00318871,-0.00066764,0.00119291,0.00098425,0.00007092,-0.00000
 890,0.00009225,-0.00001857,-0.00008381,-0.00009161,0.00005988,-0.00729
 614,0.05562352,0.00046513,-0.00064696,-0.00054764,0.00106932,0.0005517
 8,0.00036916,-0.00213604,0.00086604,-0.00094556,-0.00057898,-0.0004352
 8,0.00152598,-0.00448516,0.00150289,0.00015187,0.00092801,-0.00049517,
 0.00000025,-0.00029209,-0.00002915,0.00042849,0.00226025,0.00057159,-0
 .03019867,-0.00294575,-0.00042757,-0.00204948,0.00002468,0.00008253,0.
 00007913,-0.10371993,0.01067016,-0.25913355,-0.00189570,0.00119444,-0.
 00232383,0.00006049,0.00000112,-0.00003109,-0.00003733,0.00020591,0.00
 008939,-0.00013466,0.00008914,0.00007384,-0.00371702,0.00083025,-0.000
 96032,-0.00063813,0.00016261,0.00006399,0.00021107,-0.00017071,0.00019
 554,-0.00020015,-0.00004886,-0.00002005,0.00005411,-0.00036019,-0.0000
 0859,-0.00009568,-0.00001051,0.00024956,-0.00021936,0.00016817,0.00023
 590,0.00024419,-0.00005622,0.00081158,0.00012676,-0.00005601,0.0002507
 0,0.00001264,0.00000394,0.00000290,0.00004273,0.00000194,-0.00017498,0
 .11514343,-0.01430853,0.29099635,-0.00066026,0.00040613,0.00021688,0.0
 0016090,-0.00022811,-0.00013263,-0.00001791,0.00000007,0.00002584,-0.0
 2614964,-0.02093903,0.00135282,-0.00016519,-0.00004157,-0.00007066,0.0
 0004198,0.00000999,-0.00001334,-0.00061381,-0.00020030,-0.00003030,0.0
 0199689,-0.00101298,-0.00130388,-0.00156943,0.00296138,0.00006487,-0.0
 0052690,0.00316363,0.00449645,0.01026356,0.01253321,0.00335270,-0.1526
 0834,-0.12460817,-0.03119338,0.00011079,-0.00001891,-0.00009372,-0.000
 66546,0.00018411,-0.00034002,0.00009586,-0.00005383,-0.00001050,0.0000
 3008,-0.00002640,-0.00001481,0.00000752,-0.00001303,0.00000272,0.00005
 734,-0.00002507,-0.00001134,0.00000592,-0.00001147,0.00000993,0.000012
 52,-0.00000980,0.00001085,0.00010657,-0.00023315,-0.00001525,0.0000793
 6,-0.00003780,-0.00001305,0.00001553,0.00006302,0.00008473,0.00066516,
 0.00081279,0.00006208,-0.00102387,-0.00122387,0.00016770,0.00017912,0.
 00013936,-0.00009998,0.00072721,-0.00088585,-0.00004316,0.17600726,0.0
 0035322,-0.00042068,-0.00046731,0.00015270,0.00031479,0.00016492,-0.00
 001517,-0.00003119,0.00001784,0.00236603,0.00614699,0.00250316,-0.0001
 4393,-0.00029104,-0.00011378,-0.00001568,-0.00005159,0.00002449,0.0004
 8255,0.00029536,-0.00040207,0.00028253,0.00277820,0.00059847,0.0046811
 2,-0.00410245,0.00110733,0.00196204,0.00124975,-0.00036028,-0.02005979
 ,-0.02327097,-0.00577649,-0.13003732,-0.20534611,-0.03586242,-0.000145
 72,0.00001853,0.00015647,0.00029624,0.00023606,0.00026850,-0.00019114,
 0.00005078,0.00003536,0.00004480,-0.00004386,0.00000016,0.00002011,0.0
 0002413,-0.00000802,0.00000819,-0.00000018,0.00001069,0.00002566,0.000
 01701,0.00000075,-0.00004741,0.00006971,-0.00002683,-0.00015925,0.0000
 4709,0.00004215,-0.00005418,0.00003023,0.00009965,0.00009812,0.0002176
 1,-0.00006904,-0.00130221,-0.00146388,-0.00008665,0.00015222,0.0001928
 6,-0.00010502,-0.00005418,-0.00008587,-0.00009255,-0.00022157,0.001430
 17,0.00020807,0.13897375,0.21859837,-0.00014024,0.00013000,0.00000504,
 0.00004617,-0.00007132,-0.00007187,-0.00002739,-0.00000040,0.00003948,
 0.02411166,0.02091225,0.00135052,0.00001596,-0.00005013,-0.00003808,-0
 .00001239,0.00000848,-0.00000265,0.00041692,0.00017635,-0.00006519,-0.
 00022950,-0.00048756,-0.00000557,-0.00020659,-0.00019773,0.00046465,0.
 00155186,-0.00149381,-0.00308411,0.00209055,0.00548832,0.00078750,-0.0
 3860222,-0.04161803,-0.06072001,0.00000063,-0.00000300,0.00000372,-0.0
 0029549,0.00005175,0.00000760,0.00003968,-0.00001589,-0.00000389,0.000
 03615,-0.00002036,-0.00002709,0.00001667,-0.00000662,-0.00000468,0.000
 03481,-0.00000620,0.00000309,0.00000376,-0.00000213,-0.00000563,-0.000
 00387,0.00000424,0.00000110,-0.00012591,0.00014068,0.00000492,-0.00002
 755,-0.00001888,-0.00001801,0.00027537,0.00032117,0.00026258,-0.000027
 10,-0.00001667,0.00035401,0.00089273,0.00069461,0.00024735,0.00041689,
 0.00015010,0.00040111,0.00063326,-0.00019239,0.00037261,0.02669033,0.0
 3775770,0.06285509,0.00017641,-0.00014461,-0.00017130,-0.00008358,0.00
 004401,0.00009429,0.00002205,0.00000945,-0.00006686,0.00269189,-0.0029
 1959,0.03372290,0.00030617,-0.00019296,0.00001325,0.00000372,0.0000282
 8,-0.00002037,-0.00042424,-0.00025282,-0.00019240,0.00088588,-0.000469
 39,-0.00004348,0.00031791,-0.00123238,0.00049008,0.00446210,0.00220570
 ,0.00364372,-0.00642102,0.00162033,-0.01605341,-0.09411628,0.00582037,
 -0.09671694,-0.00004684,0.00004217,0.00004520,0.00007441,0.00008997,0.
 00004132,-0.00007595,0.00001164,0.00001899,-0.00001143,0.00004100,0.00
 014947,-0.00007585,0.00002798,0.00000014,-0.00004718,0.00002048,0.0000
 1988,-0.00007027,-0.00000920,0.00001557,0.00001201,-0.00008565,0.00000
 860,0.00013542,-0.00018614,-0.00012676,-0.00018348,0.00007958,-0.00007
 984,0.00052154,0.00017246,0.00032425,-0.00005780,-0.00000345,0.0002521
 1,0.00008875,0.00016161,-0.00016716,0.00019347,0.00058370,-0.00134029,
 -0.00083352,0.00312690,0.00057900,-0.00658824,0.00258154,-0.01758503,0
 .09918468,0.00007114,-0.00009436,-0.00012283,-0.00000218,0.00007780,0.
 00004728,-0.00004377,-0.00003789,0.00011054,-0.00123643,0.00324392,-0.
 00589758,-0.00001184,0.00003823,-0.00002220,-0.00004426,-0.00003094,0.
 00002998,0.00003533,-0.00023346,-0.00003427,-0.00224882,0.00110674,-0.
 00008839,0.00056343,0.00201992,0.00094308,-0.00001602,-0.00025317,0.00
 180603,0.01510022,-0.00509692,0.02879931,0.00615332,-0.05517697,0.0182
 9186,-0.00002604,-0.00003978,0.00004602,0.00003402,-0.00001570,0.00004
 280,-0.00002353,0.00001341,-0.00000422,0.00008030,-0.00008746,-0.00016
 795,0.00010528,-0.00001833,-0.00001290,0.00002462,0.00001634,-0.000035
 58,0.00008166,0.00002973,-0.00004136,0.00002910,0.00012139,-0.00000762
 ,-0.00007114,0.00005015,0.00001319,-0.00001252,0.00003500,-0.00012527,
 -0.00031847,-0.00032847,-0.00053732,-0.00003570,0.00023119,-0.00045151
 ,0.00003463,-0.00003198,-0.00004257,0.00015617,0.00012546,0.00012513,0
 .00241511,-0.00448089,-0.00002875,-0.00964946,0.00330682,-0.02163640,-
 0.01116584,0.05544671,0.00006971,-0.00004279,-0.00001633,-0.00004459,-
 0.00001388,-0.00001625,0.00001847,0.00000591,-0.00009134,0.00837713,0.
 00066043,-0.03334430,0.00000381,0.00000030,0.00037596,0.00020455,-0.00
 013522,-0.00005899,0.00056171,0.00017278,0.00006380,-0.00036711,-0.000
 01398,0.00160125,0.00015294,-0.00049565,0.00042854,-0.00350851,-0.0025
 6385,0.00066911,-0.00314287,0.00010079,-0.00535049,-0.09404629,0.02057
 938,-0.24761561,-0.00000528,0.00001655,0.00001068,0.00001281,0.0000385
 7,0.00001838,-0.00003112,0.00000250,0.00000310,-0.00005002,0.00001995,
 0.00006261,-0.00004729,0.00000796,-0.00000193,-0.00010156,0.00002689,0
 .00000486,0.00002287,-0.00001039,0.00004226,0.00004104,-0.00001387,-0.
 00002232,-0.00001400,0.00022130,0.00001623,-0.00014638,-0.00009446,-0.
 00004754,0.00045195,0.00042831,0.00013446,-0.00000432,0.00003607,0.000
 23323,0.00038511,0.00000567,0.00047417,0.00106898,0.00095288,0.0005219
 8,0.00018866,0.00062723,0.00048494,-0.00319821,0.00045728,-0.00311254,
 0.09316425,-0.02097202,0.28453824,-0.00225046,-0.00803654,-0.00823451,
 0.00019524,0.00090568,-0.00260309,-0.00406235,-0.01215122,-0.01782520,
 -0.00003553,0.00002137,0.00001712,0.00060848,0.00014004,0.00049943,-0.
 00202571,-0.00303357,0.00204426,-0.00000560,-0.00000065,-0.00002061,-0
 .00023176,0.00015910,-0.00002503,-0.00001795,-0.00001069,0.00001965,0.
 00000868,-0.00000130,0.00001073,0.00014232,-0.00003051,-0.00005734,0.0
 0001294,-0.00004427,-0.00001025,-0.05047312,-0.01225089,-0.02088401,0.
 00005734,-0.00013092,0.00071074,0.00031105,0.00008323,0.00019746,0.000
 78344,0.00065046,-0.00048380,0.00052730,0.00049143,0.00031343,-0.00001
 541,0.00001330,-0.00001221,-0.00000370,-0.00029113,-0.00028744,-0.0000
 8156,-0.00062461,-0.00092705,-0.00000949,-0.00000079,0.00000494,0.0000
 0043,0.00000005,0.00000305,-0.00001120,0.00000741,-0.00000556,0.000015
 53,0.00002724,0.00000117,-0.00000459,0.00000409,0.00000112,-0.00000027
 ,-0.00000067,-0.00000244,0.00001613,-0.00002282,-0.00002489,-0.0000009
 1,0.00000525,0.00000179,-0.00000734,0.00000747,-0.00000227,0.05245572,
 0.00017435,0.01226309,0.01315127,0.00232887,0.00001720,0.00576850,-0.0
 0214285,-0.01405544,-0.02124067,-0.00003129,0.00000934,0.00001264,-0.0
 0056483,-0.00137098,0.00101428,-0.00390332,-0.00282741,0.00274911,-0.0
 0000025,0.00001390,-0.00002740,0.00018000,0.00019487,-0.00018288,0.000
 00457,-0.00002218,-0.00000939,0.00000645,-0.00000145,0.00001659,0.0000
 8309,-0.00001739,0.00009148,0.00002147,-0.00003315,-0.00003282,-0.0134
 5323,-0.13598552,-0.12493932,0.00003188,0.00040256,-0.00099391,-0.0007
 1913,0.00046494,-0.00079482,0.00025971,0.00133791,0.00020925,0.0008217
 5,0.00039015,0.00007140,0.00011175,0.00025793,-0.00013850,0.00022513,0
 .00014672,0.00024679,-0.00048026,-0.00063301,-0.00156657,-0.00000810,-
 0.00000180,0.00000293,0.00000198,0.00000139,0.00000259,-0.00002227,0.0
 0000484,-0.00000926,0.00002114,0.00004483,0.00000192,-0.00000564,0.000
 00586,0.00000119,-0.00000041,-0.00000106,-0.00000306,0.00004805,-0.000
 03886,-0.00003211,0.00000472,0.00000349,0.00000200,-0.00001251,0.00001
 406,-0.00000454,0.01823140,0.14602254,0.00071954,-0.01720742,-0.016350
 37,-0.00413498,0.00151167,-0.00679050,0.00104052,0.00502687,0.00767197
 ,-0.00007215,0.00002615,0.00002771,0.00218195,0.00191323,-0.00004025,0
 .00104975,0.00146879,0.00061366,-0.00001275,-0.00002992,-0.00002009,-0
 .00090434,-0.00004848,0.00014670,-0.00004690,0.00002599,0.00005865,0.0
 0002456,0.00000923,0.00001119,0.00019335,-0.00002441,-0.00025749,0.000
 03263,-0.00004876,0.00000454,-0.02299372,-0.12382383,-0.22586418,-0.00
 038905,0.00015886,0.00080268,0.00068435,0.00015201,0.00058557,-0.00047
 793,-0.00029418,0.00058426,-0.00049066,-0.00051923,0.00022366,-0.00005
 942,-0.00023839,0.00004178,-0.00001100,0.00000177,-0.00003804,0.000242
 55,0.00026622,0.00034240,-0.00001612,-0.00000077,0.00000978,-0.0000000
 5,0.00000149,0.00000360,-0.00000335,-0.00000151,-0.00000335,0.00000173
 ,-0.00000383,0.00000018,-0.00000669,0.00000060,0.00000164,-0.00000156,
 -0.00000154,-0.00000478,0.00000123,0.00000247,0.00001573,0.00001043,-0
 .00001381,0.00000110,-0.00001092,0.00000173,-0.00000471,0.02379639,0.1
 3509828,0.24413776,-0.01229265,0.00583352,0.00259048,0.00135393,-0.001
 07906,0.00067167,-0.01848759,0.00644359,0.00634671,-0.00008590,0.00000
 012,0.00002476,-0.00031299,-0.00027516,-0.00007457,0.00042566,0.000671
 06,0.00001162,0.00000068,-0.00001022,-0.00001678,0.00007666,-0.0000193
 5,-0.00006880,-0.00000523,0.00002722,-0.00006006,0.00003428,0.00001637
 ,0.00001749,0.00005307,0.00004972,0.00019675,0.00007202,-0.00003507,-0
 .00005984,-0.25991806,0.08072646,0.05999887,0.00036619,0.00146190,-0.0
 0185153,0.00075781,-0.00007151,-0.00035137,-0.00153118,-0.00344568,0.0
 0039015,0.00111611,0.00003727,-0.00005377,-0.00005986,0.00003462,-0.00
 011131,-0.00013144,-0.00033409,-0.00043356,0.00017965,-0.00016323,-0.0
 0006930,-0.00001253,-0.00000307,0.00000522,0.00000224,0.00000284,0.000
 00086,-0.00003318,-0.00001880,-0.00001289,0.00000186,-0.00000288,0.000
 00752,-0.00000878,-0.00000059,0.00000260,-0.00000205,-0.00000200,-0.00
 000657,0.00011326,-0.00001387,-0.00005778,0.00002637,-0.00003850,0.000
 00807,-0.00003337,0.00001421,-0.00001415,0.00410237,-0.00121222,-0.000
 34738,0.28423264,0.01960967,-0.00959352,-0.00578818,-0.00204895,0.0016
 5720,-0.00086670,-0.02489083,0.00901441,0.00791481,0.00005273,0.000023
 75,-0.00000765,-0.00028893,-0.00036730,0.00002931,0.00050580,0.0013626
 1,0.00032321,0.00000843,0.00000003,0.00000701,0.00015816,0.00007994,-0
 .00001076,0.00001047,0.00001980,-0.00003830,-0.00000292,-0.00001869,-0
 .00001213,-0.00015242,-0.00002342,0.00017984,-0.00006088,-0.00010516,-
 0.00005980,0.08133579,-0.07974878,-0.02434319,0.00112466,-0.00110024,0
 .00367753,-0.00039234,0.00039199,-0.00063285,-0.00397679,-0.00349075,0
 .00071507,0.00090237,0.00131806,-0.00015348,0.00007025,0.00008913,-0.0
 0003774,0.00041847,-0.00021980,-0.00014756,0.00030089,-0.00005768,0.00
 012687,-0.00000035,0.00000151,-0.00000145,0.00000101,0.00000129,-0.000
 00228,-0.00001476,-0.00001429,-0.00000831,-0.00000096,-0.00000228,0.00
 000606,0.00000435,0.00000379,-0.00000092,0.00000062,0.00000190,0.00000
 047,0.00006299,-0.00006064,-0.00000456,-0.00003335,0.00007985,-0.00000
 010,0.00000738,0.00004944,-0.00000010,0.01588305,-0.00660736,-0.003409
 31,-0.08859360,0.08731524,-0.02568012,0.01060433,0.00418691,0.00123860
 ,0.00013990,0.00294024,0.00692700,-0.00180125,-0.00340886,-0.00004050,
 -0.00003739,0.00000293,-0.00039549,0.00001375,-0.00008292,-0.00067343,
 0.00016560,0.00017836,0.00000166,0.00000291,0.00000109,0.00008435,-0.0
 0022504,-0.00002965,0.00001615,-0.00000993,0.00001553,0.00000165,0.000
 01711,0.00000906,0.00005270,0.00008069,-0.00008541,0.00005582,0.000092
 44,0.00001231,0.06183580,-0.02635638,-0.06612196,-0.00218699,0.0025547
 8,-0.00358751,0.00072875,-0.00074618,0.00101545,0.00094436,0.00169451,
 0.00080592,-0.00004872,-0.00026437,0.00014143,0.00001124,-0.00004574,0
 .00003724,0.00004024,0.00005424,0.00027157,-0.00000523,0.00005724,0.00
 001761,0.00000327,-0.00000182,-0.00000065,-0.00000068,-0.00000132,0.00
 000084,0.00000982,0.00000043,0.00000698,-0.00000367,-0.00001339,-0.000
 00200,-0.00000358,-0.00000544,0.00000042,-0.00000009,-0.00000099,-0.00
 000027,-0.00004182,0.00004802,-0.00000418,0.00003588,-0.00006875,-0.00
 000213,-0.00000829,-0.00002821,-0.00000145,0.02378441,-0.00846496,-0.0
 0591079,-0.06668310,0.02254520,0.06959387\\-0.00000914,-0.00001394,-0.
 00001159,0.00005720,-0.00003474,-0.00038909,0.00000058,-0.00000049,-0.
 00000267,-0.00000438,-0.00000540,-0.00000276,-0.00016585,-0.00013782,0
 .00046989,0.00000287,0.00000344,-0.00000096,-0.00000303,0.00000143,0.0
 0000360,0.00024392,0.00060965,0.00003353,0.00001460,0.00000467,-0.0000
 1337,0.00000577,-0.00000165,0.00000168,-0.00013063,-0.00041749,-0.0001
 0383,-0.00000503,0.00000972,0.00001245,0.00000087,-0.00001158,0.000003
 08,-0.00000303,0.00000344,0.00000789,-0.00000016,0.00000498,0.00001073
 ,-0.00000111,-0.00000376,0.00000405,0.00000047,-0.00000295,0.00000084,
 0.00000255,0.00000589,-0.00000429,0.00000058,0.00000272,-0.00000231,-0
 .00000464,-0.00000105,-0.00000389,-0.00000083,0.,-0.00000682,0.0000014
 7,-0.00000564,-0.00000451,-0.00000013,0.00000302,-0.00000537,0.0000025
 6,-0.00000032,-0.00000353,-0.00000196,-0.00000647,-0.00000181,-0.00000
 221,-0.00000011,-0.00000349,-0.00000039,-0.00000215,0.,0.00000059,-0.0
 0000094,0.00000176,0.00000167,0.00000025,-0.00000030,-0.00000379,-0.00
 000229,0.00000512,0.00000060,-0.00000044,0.00000596\\\@


 IN SO FAR AS QUANTUM MECHANICS IS CORRECT, CHEMICAL 
 QUESTIONS ARE PROBLEMS IN APPLIED MATHEMATICS.

                    -- EYRING, WALTER, & KIMBALL, 1944
 Job cpu time:       0 days 15 hours  3 minutes 43.5 seconds.
 Elapsed time:       0 days  0 hours 56 minutes 30.5 seconds.
 File lengths (MBytes):  RWF=    687 Int=      0 D2E=      0 Chk=     33 Scr=      1
 Normal termination of Gaussian 16 at Sun Nov  4 23:05:38 2018.
