 Entering Gaussian System, Link 0=g16
 Initial command:
 /apps/gaussian/g16a03/g16/l1.exe "/jobfs/local/2011826.r-man2/Gau-14081.inp" -scrdir="/jobfs/local/2011826.r-man2/"
 Entering Link 1 = /apps/gaussian/g16a03/g16/l1.exe PID=     14082.
  
 Copyright (c) 1988,1990,1992,1993,1995,1998,2003,2009,2016,
            Gaussian, Inc.  All Rights Reserved.
  
 This is part of the Gaussian(R) 16 program.  It is based on
 the Gaussian(R) 09 system (copyright 2009, Gaussian, Inc.),
 the Gaussian(R) 03 system (copyright 2003, Gaussian, Inc.),
 the Gaussian(R) 98 system (copyright 1998, Gaussian, Inc.),
 the Gaussian(R) 94 system (copyright 1995, Gaussian, Inc.),
 the Gaussian 92(TM) system (copyright 1992, Gaussian, Inc.),
 the Gaussian 90(TM) system (copyright 1990, Gaussian, Inc.),
 the Gaussian 88(TM) system (copyright 1988, Gaussian, Inc.),
 the Gaussian 86(TM) system (copyright 1986, Carnegie Mellon
 University), and the Gaussian 82(TM) system (copyright 1983,
 Carnegie Mellon University). Gaussian is a federally registered
 trademark of Gaussian, Inc.
  
 This software contains proprietary and confidential information,
 including trade secrets, belonging to Gaussian, Inc.
  
 This software is provided under written license and may be
 used, copied, transmitted, or stored only in accord with that
 written license.
  
 The following legend is applicable only to US Government
 contracts under FAR:
  
                    RESTRICTED RIGHTS LEGEND
  
 Use, reproduction and disclosure by the US Government is
 subject to restrictions as set forth in subparagraphs (a)
 and (c) of the Commercial Computer Software - Restricted
 Rights clause in FAR 52.227-19.
  
 Gaussian, Inc.
 340 Quinnipiac St., Bldg. 40, Wallingford CT 06492
  
  
 ---------------------------------------------------------------
 Warning -- This program may not be used in any manner that
 competes with the business of Gaussian, Inc. or will provide
 assistance to any competitor of Gaussian, Inc.  The licensee
 of this program is prohibited from giving any competitor of
 Gaussian, Inc. access to this program.  By using this program,
 the user acknowledges that Gaussian, Inc. is engaged in the
 business of creating and licensing software in the field of
 computational chemistry and represents and warrants to the
 licensee that it is not a competitor of Gaussian, Inc. and that
 it will not use this program in any manner prohibited above.
 ---------------------------------------------------------------
  

 Cite this work as:
 Gaussian 16, Revision A.03,
 M. J. Frisch, G. W. Trucks, H. B. Schlegel, G. E. Scuseria, 
 M. A. Robb, J. R. Cheeseman, G. Scalmani, V. Barone, 
 G. A. Petersson, H. Nakatsuji, X. Li, M. Caricato, A. V. Marenich, 
 J. Bloino, B. G. Janesko, R. Gomperts, B. Mennucci, H. P. Hratchian, 
 J. V. Ortiz, A. F. Izmaylov, J. L. Sonnenberg, D. Williams-Young, 
 F. Ding, F. Lipparini, F. Egidi, J. Goings, B. Peng, A. Petrone, 
 T. Henderson, D. Ranasinghe, V. G. Zakrzewski, J. Gao, N. Rega, 
 G. Zheng, W. Liang, M. Hada, M. Ehara, K. Toyota, R. Fukuda, 
 J. Hasegawa, M. Ishida, T. Nakajima, Y. Honda, O. Kitao, H. Nakai, 
 T. Vreven, K. Throssell, J. A. Montgomery, Jr., J. E. Peralta, 
 F. Ogliaro, M. J. Bearpark, J. J. Heyd, E. N. Brothers, K. N. Kudin, 
 V. N. Staroverov, T. A. Keith, R. Kobayashi, J. Normand, 
 K. Raghavachari, A. P. Rendell, J. C. Burant, S. S. Iyengar, 
 J. Tomasi, M. Cossi, J. M. Millam, M. Klene, C. Adamo, R. Cammi, 
 J. W. Ochterski, R. L. Martin, K. Morokuma, O. Farkas, 
 J. B. Foresman, and D. J. Fox, Gaussian, Inc., Wallingford CT, 2016.
 
 ******************************************
 Gaussian 16:  ES64L-G16RevA.03 25-Dec-2016
                 4-Nov-2018 
 ******************************************
 %mem=6000mb
 %nproc=24
 Will use up to   24 processors via shared memory.
 %chk=2SO_1_e4_D_PHI.inp_extract_16.chk
 ----------------------------------------------------------------------
 #M062X/6-311++G(2d,2p) opt=ModRedundant freq=noraman SCRF=(Solvent=Wat
 er)
 ----------------------------------------------------------------------
 1/18=120,19=15,26=3,38=1/1,3;
 2/9=110,12=2,17=6,18=5,40=1/2;
 3/5=4,6=6,7=1212,11=2,25=1,30=1,70=2201,71=1,72=1,74=-55/1,2,3;
 4//1;
 5/5=2,38=5,53=1/2;
 6/7=2,8=2,9=2,10=2,28=1/1;
 7//1,2,3,16;
 1/18=20,19=15,26=3/3(2);
 2/9=110/2;
 99//99;
 2/9=110/2;
 3/5=4,6=6,7=1212,11=2,25=1,30=1,70=2205,71=1,72=1,74=-55/1,2,3;
 4/5=5,16=3,69=1/1;
 5/5=2,38=5,53=1/2;
 7//1,2,3,16;
 1/18=20,19=15,26=3/3(-5);
 2/9=110/2;
 6/7=2,8=2,9=2,10=2,19=2,28=1/1;
 99/9=1/99;
 -----------------------------
 2SO_1_e4_D_PHI.inp_extract_16
 -----------------------------
 Symbolic Z-matrix:
 Charge =  0 Multiplicity = 1
 C                     1.07954   0.1033    0.06326 
 C                    -3.88462   0.039     0.60143 
 C                    -1.22783  -0.19031  -0.70259 
 C                    -3.05919   1.17382  -0.00547 
 C                    -3.08587  -1.27485   0.54892 
 C                     1.81114  -0.94965  -0.76524 
 C                     1.98313   1.30734   0.29524 
 C                     3.94594   0.00245   0.14191 
 O                     3.18634   0.91352   0.91642 
 C                     3.16075  -1.2727   -0.11807 
 O                    -0.07025   0.60706  -0.58821 
 C                    -1.58717  -0.97369   0.56107 
 O                    -2.25895   0.68209  -1.06951 
 H                     0.81213  -0.30976   1.02738 
 H                    -4.82196  -0.07068   0.06577 
 H                    -4.12936   0.29853   1.62734 
 H                    -1.10461  -0.86412  -1.53944 
 H                    -3.68528   1.9427   -0.43448 
 H                    -2.42227   1.63957   0.73758 
 H                    -3.33248  -1.82436  -0.35515 
 H                    -3.34463  -1.91503   1.38508 
 H                     1.2109   -1.84896  -0.85908 
 H                     1.96801  -0.55497  -1.76675 
 H                     1.50598   2.01987   0.95382 
 H                     2.19984   1.7972   -0.65108 
 H                     4.22283   0.4804   -0.79505 
 H                     4.84816  -0.19558   0.70418 
 H                     3.7414   -1.92876  -0.75954 
 H                     3.00621  -1.79308   0.8239 
 H                    -1.34177  -0.39559   1.44593 
 H                    -1.0051   -1.88696   0.59722 
 
 The following ModRedundant input section has been read:
 D      13       3      11       1 F                                           
 

 GradGradGradGradGradGradGradGradGradGradGradGradGradGradGradGradGradGrad
 Berny optimization.
 Initialization pass.
                           ----------------------------
                           !    Initial Parameters    !
                           ! (Angstroms and Degrees)  !
 --------------------------                            --------------------------
 ! Name  Definition              Value          Derivative Info.                !
 --------------------------------------------------------------------------------
 ! R1    R(1,6)                  1.5265         estimate D2E/DX2                !
 ! R2    R(1,7)                  1.5232         estimate D2E/DX2                !
 ! R3    R(1,11)                 1.4143         estimate D2E/DX2                !
 ! R4    R(1,14)                 1.0824         estimate D2E/DX2                !
 ! R5    R(2,4)                  1.5289         estimate D2E/DX2                !
 ! R6    R(2,5)                  1.5385         estimate D2E/DX2                !
 ! R7    R(2,15)                 1.0852         estimate D2E/DX2                !
 ! R8    R(2,16)                 1.0862         estimate D2E/DX2                !
 ! R9    R(3,11)                 1.4103         estimate D2E/DX2                !
 ! R10   R(3,12)                 1.5296         estimate D2E/DX2                !
 ! R11   R(3,13)                 1.3996         estimate D2E/DX2                !
 ! R12   R(3,17)                 1.0814         estimate D2E/DX2                !
 ! R13   R(4,13)                 1.4193         estimate D2E/DX2                !
 ! R14   R(4,18)                 1.0804         estimate D2E/DX2                !
 ! R15   R(4,19)                 1.0838         estimate D2E/DX2                !
 ! R16   R(5,12)                 1.5287         estimate D2E/DX2                !
 ! R17   R(5,20)                 1.0863         estimate D2E/DX2                !
 ! R18   R(5,21)                 1.0844         estimate D2E/DX2                !
 ! R19   R(6,10)                 1.5312         estimate D2E/DX2                !
 ! R20   R(6,22)                 1.0853         estimate D2E/DX2                !
 ! R21   R(6,23)                 1.0878         estimate D2E/DX2                !
 ! R22   R(7,9)                  1.4102         estimate D2E/DX2                !
 ! R23   R(7,24)                 1.0813         estimate D2E/DX2                !
 ! R24   R(7,25)                 1.0874         estimate D2E/DX2                !
 ! R25   R(8,9)                  1.4167         estimate D2E/DX2                !
 ! R26   R(8,10)                 1.5199         estimate D2E/DX2                !
 ! R27   R(8,26)                 1.0877         estimate D2E/DX2                !
 ! R28   R(8,27)                 1.0814         estimate D2E/DX2                !
 ! R29   R(10,28)                1.0858         estimate D2E/DX2                !
 ! R30   R(10,29)                1.0872         estimate D2E/DX2                !
 ! R31   R(12,30)                1.0851         estimate D2E/DX2                !
 ! R32   R(12,31)                1.0836         estimate D2E/DX2                !
 ! A1    A(6,1,7)              110.0963         estimate D2E/DX2                !
 ! A2    A(6,1,11)             112.6629         estimate D2E/DX2                !
 ! A3    A(6,1,14)             109.7912         estimate D2E/DX2                !
 ! A4    A(7,1,11)             105.7166         estimate D2E/DX2                !
 ! A5    A(7,1,14)             108.2133         estimate D2E/DX2                !
 ! A6    A(11,1,14)            110.204          estimate D2E/DX2                !
 ! A7    A(4,2,5)              109.8786         estimate D2E/DX2                !
 ! A8    A(4,2,15)             110.2079         estimate D2E/DX2                !
 ! A9    A(4,2,16)             108.6168         estimate D2E/DX2                !
 ! A10   A(5,2,15)             110.1995         estimate D2E/DX2                !
 ! A11   A(5,2,16)             110.6876         estimate D2E/DX2                !
 ! A12   A(15,2,16)            107.2029         estimate D2E/DX2                !
 ! A13   A(11,3,12)            114.5444         estimate D2E/DX2                !
 ! A14   A(11,3,13)            105.8756         estimate D2E/DX2                !
 ! A15   A(11,3,17)            108.7548         estimate D2E/DX2                !
 ! A16   A(12,3,13)            111.2685         estimate D2E/DX2                !
 ! A17   A(12,3,17)            110.3012         estimate D2E/DX2                !
 ! A18   A(13,3,17)            105.631          estimate D2E/DX2                !
 ! A19   A(2,4,13)             110.1723         estimate D2E/DX2                !
 ! A20   A(2,4,18)             111.9006         estimate D2E/DX2                !
 ! A21   A(2,4,19)             111.3518         estimate D2E/DX2                !
 ! A22   A(13,4,18)            105.9986         estimate D2E/DX2                !
 ! A23   A(13,4,19)            109.3613         estimate D2E/DX2                !
 ! A24   A(18,4,19)            107.876          estimate D2E/DX2                !
 ! A25   A(2,5,12)             109.906          estimate D2E/DX2                !
 ! A26   A(2,5,20)             110.0313         estimate D2E/DX2                !
 ! A27   A(2,5,21)             110.7293         estimate D2E/DX2                !
 ! A28   A(12,5,20)            109.1971         estimate D2E/DX2                !
 ! A29   A(12,5,21)            110.1268         estimate D2E/DX2                !
 ! A30   A(20,5,21)            106.7925         estimate D2E/DX2                !
 ! A31   A(1,6,10)             109.7884         estimate D2E/DX2                !
 ! A32   A(1,6,22)             110.6974         estimate D2E/DX2                !
 ! A33   A(1,6,23)             108.5735         estimate D2E/DX2                !
 ! A34   A(10,6,22)            110.4381         estimate D2E/DX2                !
 ! A35   A(10,6,23)            109.7884         estimate D2E/DX2                !
 ! A36   A(22,6,23)            107.5045         estimate D2E/DX2                !
 ! A37   A(1,7,9)              110.6395         estimate D2E/DX2                !
 ! A38   A(1,7,24)             110.6036         estimate D2E/DX2                !
 ! A39   A(1,7,25)             109.9855         estimate D2E/DX2                !
 ! A40   A(9,7,24)             106.9932         estimate D2E/DX2                !
 ! A41   A(9,7,25)             109.8228         estimate D2E/DX2                !
 ! A42   A(24,7,25)            108.7321         estimate D2E/DX2                !
 ! A43   A(9,8,10)             110.8586         estimate D2E/DX2                !
 ! A44   A(9,8,26)             108.9574         estimate D2E/DX2                !
 ! A45   A(9,8,27)             106.3122         estimate D2E/DX2                !
 ! A46   A(10,8,26)            110.6601         estimate D2E/DX2                !
 ! A47   A(10,8,27)            111.4892         estimate D2E/DX2                !
 ! A48   A(26,8,27)            108.4206         estimate D2E/DX2                !
 ! A49   A(7,9,8)              113.3455         estimate D2E/DX2                !
 ! A50   A(6,10,8)             110.5258         estimate D2E/DX2                !
 ! A51   A(6,10,28)            110.433          estimate D2E/DX2                !
 ! A52   A(6,10,29)            109.992          estimate D2E/DX2                !
 ! A53   A(8,10,28)            109.3719         estimate D2E/DX2                !
 ! A54   A(8,10,29)            109.0742         estimate D2E/DX2                !
 ! A55   A(28,10,29)           107.3772         estimate D2E/DX2                !
 ! A56   A(1,11,3)             120.2172         estimate D2E/DX2                !
 ! A57   A(3,12,5)             108.9438         estimate D2E/DX2                !
 ! A58   A(3,12,30)            110.3478         estimate D2E/DX2                !
 ! A59   A(3,12,31)            109.4522         estimate D2E/DX2                !
 ! A60   A(5,12,30)            109.4601         estimate D2E/DX2                !
 ! A61   A(5,12,31)            111.1523         estimate D2E/DX2                !
 ! A62   A(30,12,31)           107.4781         estimate D2E/DX2                !
 ! A63   A(3,13,4)             115.7723         estimate D2E/DX2                !
 ! D1    D(7,1,6,10)            52.5933         estimate D2E/DX2                !
 ! D2    D(7,1,6,22)           174.778          estimate D2E/DX2                !
 ! D3    D(7,1,6,23)           -67.4372         estimate D2E/DX2                !
 ! D4    D(11,1,6,10)          170.3258         estimate D2E/DX2                !
 ! D5    D(11,1,6,22)          -67.4895         estimate D2E/DX2                !
 ! D6    D(11,1,6,23)           50.2954         estimate D2E/DX2                !
 ! D7    D(14,1,6,10)          -66.4435         estimate D2E/DX2                !
 ! D8    D(14,1,6,22)           55.7411         estimate D2E/DX2                !
 ! D9    D(14,1,6,23)          173.526          estimate D2E/DX2                !
 ! D10   D(6,1,7,9)            -56.616          estimate D2E/DX2                !
 ! D11   D(6,1,7,24)          -174.9916         estimate D2E/DX2                !
 ! D12   D(6,1,7,25)            64.8892         estimate D2E/DX2                !
 ! D13   D(11,1,7,9)          -178.5661         estimate D2E/DX2                !
 ! D14   D(11,1,7,24)           63.0583         estimate D2E/DX2                !
 ! D15   D(11,1,7,25)          -57.0608         estimate D2E/DX2                !
 ! D16   D(14,1,7,9)            63.3806         estimate D2E/DX2                !
 ! D17   D(14,1,7,24)          -54.995          estimate D2E/DX2                !
 ! D18   D(14,1,7,25)         -175.1141         estimate D2E/DX2                !
 ! D19   D(6,1,11,3)            72.894          estimate D2E/DX2                !
 ! D20   D(7,1,11,3)          -166.8206         estimate D2E/DX2                !
 ! D21   D(14,1,11,3)          -50.1063         estimate D2E/DX2                !
 ! D22   D(5,2,4,13)            34.043          estimate D2E/DX2                !
 ! D23   D(5,2,4,18)           151.6985         estimate D2E/DX2                !
 ! D24   D(5,2,4,19)           -87.4796         estimate D2E/DX2                !
 ! D25   D(15,2,4,13)          -87.5808         estimate D2E/DX2                !
 ! D26   D(15,2,4,18)           30.0747         estimate D2E/DX2                !
 ! D27   D(15,2,4,19)          150.8966         estimate D2E/DX2                !
 ! D28   D(16,2,4,13)          155.2545         estimate D2E/DX2                !
 ! D29   D(16,2,4,18)          -87.09           estimate D2E/DX2                !
 ! D30   D(16,2,4,19)           33.7318         estimate D2E/DX2                !
 ! D31   D(4,2,5,12)            26.9595         estimate D2E/DX2                !
 ! D32   D(4,2,5,20)           -93.3222         estimate D2E/DX2                !
 ! D33   D(4,2,5,21)           148.8527         estimate D2E/DX2                !
 ! D34   D(15,2,5,12)          148.5883         estimate D2E/DX2                !
 ! D35   D(15,2,5,20)           28.3066         estimate D2E/DX2                !
 ! D36   D(15,2,5,21)          -89.5184         estimate D2E/DX2                !
 ! D37   D(16,2,5,12)          -93.0007         estimate D2E/DX2                !
 ! D38   D(16,2,5,20)          146.7176         estimate D2E/DX2                !
 ! D39   D(16,2,5,21)           28.8925         estimate D2E/DX2                !
 ! D40   D(12,3,11,1)           42.3362         estimate D2E/DX2                !
 ! D41   D(13,3,11,1)          165.3239         Frozen                          !
 ! D42   D(17,3,11,1)          -81.5722         estimate D2E/DX2                !
 ! D43   D(11,3,12,5)          155.3361         estimate D2E/DX2                !
 ! D44   D(11,3,12,30)          35.1401         estimate D2E/DX2                !
 ! D45   D(11,3,12,31)         -82.9398         estimate D2E/DX2                !
 ! D46   D(13,3,12,5)           35.3057         estimate D2E/DX2                !
 ! D47   D(13,3,12,30)         -84.8903         estimate D2E/DX2                !
 ! D48   D(13,3,12,31)         157.0298         estimate D2E/DX2                !
 ! D49   D(17,3,12,5)          -81.5844         estimate D2E/DX2                !
 ! D50   D(17,3,12,30)         158.2196         estimate D2E/DX2                !
 ! D51   D(17,3,12,31)          40.1397         estimate D2E/DX2                !
 ! D52   D(11,3,13,4)          -95.7759         estimate D2E/DX2                !
 ! D53   D(12,3,13,4)           29.2633         estimate D2E/DX2                !
 ! D54   D(17,3,13,4)          148.9673         estimate D2E/DX2                !
 ! D55   D(2,4,13,3)           -67.8346         estimate D2E/DX2                !
 ! D56   D(18,4,13,3)          170.919          estimate D2E/DX2                !
 ! D57   D(19,4,13,3)           54.8649         estimate D2E/DX2                !
 ! D58   D(2,5,12,3)           -63.4335         estimate D2E/DX2                !
 ! D59   D(2,5,12,30)           57.3088         estimate D2E/DX2                !
 ! D60   D(2,5,12,31)          175.8807         estimate D2E/DX2                !
 ! D61   D(20,5,12,3)           57.3522         estimate D2E/DX2                !
 ! D62   D(20,5,12,30)         178.0945         estimate D2E/DX2                !
 ! D63   D(20,5,12,31)         -63.3335         estimate D2E/DX2                !
 ! D64   D(21,5,12,3)          174.3151         estimate D2E/DX2                !
 ! D65   D(21,5,12,30)         -64.9426         estimate D2E/DX2                !
 ! D66   D(21,5,12,31)          53.6293         estimate D2E/DX2                !
 ! D67   D(1,6,10,8)           -51.9908         estimate D2E/DX2                !
 ! D68   D(1,6,10,28)         -173.1521         estimate D2E/DX2                !
 ! D69   D(1,6,10,29)           68.5087         estimate D2E/DX2                !
 ! D70   D(22,6,10,8)         -174.3296         estimate D2E/DX2                !
 ! D71   D(22,6,10,28)          64.5091         estimate D2E/DX2                !
 ! D72   D(22,6,10,29)         -53.8301         estimate D2E/DX2                !
 ! D73   D(23,6,10,8)           67.2975         estimate D2E/DX2                !
 ! D74   D(23,6,10,28)         -53.8638         estimate D2E/DX2                !
 ! D75   D(23,6,10,29)        -172.203          estimate D2E/DX2                !
 ! D76   D(1,7,9,8)             61.2527         estimate D2E/DX2                !
 ! D77   D(24,7,9,8)          -178.1958         estimate D2E/DX2                !
 ! D78   D(25,7,9,8)           -60.3485         estimate D2E/DX2                !
 ! D79   D(10,8,9,7)           -60.4657         estimate D2E/DX2                !
 ! D80   D(26,8,9,7)            61.547          estimate D2E/DX2                !
 ! D81   D(27,8,9,7)           178.2041         estimate D2E/DX2                !
 ! D82   D(9,8,10,6)            54.9915         estimate D2E/DX2                !
 ! D83   D(9,8,10,28)          176.7803         estimate D2E/DX2                !
 ! D84   D(9,8,10,29)          -66.0549         estimate D2E/DX2                !
 ! D85   D(26,8,10,6)          -66.0207         estimate D2E/DX2                !
 ! D86   D(26,8,10,28)          55.7681         estimate D2E/DX2                !
 ! D87   D(26,8,10,29)         172.9329         estimate D2E/DX2                !
 ! D88   D(27,8,10,6)          173.223          estimate D2E/DX2                !
 ! D89   D(27,8,10,28)         -64.9882         estimate D2E/DX2                !
 ! D90   D(27,8,10,29)          52.1766         estimate D2E/DX2                !
 --------------------------------------------------------------------------------
 Trust Radius=3.00D-01 FncErr=1.00D-07 GrdErr=1.00D-06 EigMax=2.50D+02 EigMin=1.00D-04
 Number of steps in this run=    186 maximum allowed number of steps=    186.
 GradGradGradGradGradGradGradGradGradGradGradGradGradGradGradGradGradGrad

                          Input orientation:                          
 ---------------------------------------------------------------------
 Center     Atomic      Atomic             Coordinates (Angstroms)
 Number     Number       Type             X           Y           Z
 ---------------------------------------------------------------------
      1          6           0        1.079543    0.103297    0.063263
      2          6           0       -3.884618    0.039002    0.601427
      3          6           0       -1.227829   -0.190313   -0.702588
      4          6           0       -3.059188    1.173818   -0.005468
      5          6           0       -3.085873   -1.274847    0.548916
      6          6           0        1.811137   -0.949647   -0.765236
      7          6           0        1.983133    1.307339    0.295244
      8          6           0        3.945940    0.002449    0.141914
      9          8           0        3.186335    0.913516    0.916417
     10          6           0        3.160748   -1.272696   -0.118073
     11          8           0       -0.070251    0.607057   -0.588209
     12          6           0       -1.587166   -0.973691    0.561067
     13          8           0       -2.258954    0.682092   -1.069512
     14          1           0        0.812130   -0.309759    1.027378
     15          1           0       -4.821960   -0.070680    0.065768
     16          1           0       -4.129362    0.298526    1.627338
     17          1           0       -1.104610   -0.864121   -1.539435
     18          1           0       -3.685280    1.942698   -0.434476
     19          1           0       -2.422268    1.639572    0.737582
     20          1           0       -3.332479   -1.824363   -0.355151
     21          1           0       -3.344627   -1.915034    1.385076
     22          1           0        1.210902   -1.848956   -0.859081
     23          1           0        1.968008   -0.554972   -1.766748
     24          1           0        1.505983    2.019873    0.953823
     25          1           0        2.199835    1.797199   -0.651082
     26          1           0        4.222828    0.480400   -0.795052
     27          1           0        4.848163   -0.195579    0.704180
     28          1           0        3.741397   -1.928760   -0.759543
     29          1           0        3.006212   -1.793076    0.823898
     30          1           0       -1.341773   -0.395592    1.445932
     31          1           0       -1.005104   -1.886959    0.597219
 ---------------------------------------------------------------------
                    Distance matrix (angstroms):
                    1          2          3          4          5
     1  C    0.000000
     2  C    4.993661   0.000000
     3  C    2.448816   2.968429   0.000000
     4  C    4.275492   1.528877   2.387615   0.000000
     5  C    4.414276   1.538490   2.488936   2.510780   0.000000
     6  C    1.526542   5.940271   3.133022   5.367161   5.080695
     7  C    1.523157   6.011067   3.680884   5.053044   5.694458
     8  C    2.869249   7.844114   5.245782   7.103918   7.158459
     9  O    2.413068   7.131786   4.829540   6.318559   6.653163
    10  C    2.501530   7.202459   4.557721   6.684737   6.282130
    11  O    1.414290   4.035755   1.410272   3.097507   3.732103
    12  C    2.918741   2.511068   1.529584   2.664509   1.528714
    13  O    3.572638   2.418344   1.399622   1.419281   2.670714
    14  H    1.082424   4.728902   2.677402   4.272572   4.044100
    15  H    5.904067   1.085159   3.677290   2.158985   2.167360
    16  H    5.442163   1.086161   3.753187   2.139501   2.174251
    17  H    2.876641   3.623171   1.081440   3.213507   2.907801
    18  H    5.131732   2.176440   3.265071   1.080377   3.417447
    19  H    3.882979   2.172287   2.617108   1.083844   2.994963
    20  H    4.832896   2.166109   2.687077   3.030851   1.086333
    21  H    5.039259   2.173466   3.437126   3.399426   1.084415
    22  H    2.163161   5.626881   2.953472   5.300895   4.557887
    23  H    2.138137   6.341474   3.388036   5.600314   5.605554
    24  H    2.155971   5.753835   3.886174   4.740974   5.666063
    25  H    2.152823   6.456052   3.962542   5.335049   6.230263
    26  H    3.280115   8.238669   5.492547   7.357447   7.635722
    27  H    3.834397   8.736535   6.236722   8.056367   8.008611
    28  H    3.448439   7.992523   5.264850   7.512827   6.982212
    29  H    2.808354   7.133691   4.777668   6.802895   6.120268
    30  H    2.832567   2.714428   2.161310   2.742102   2.149328
    31  H    2.931208   3.464238   2.148886   3.735083   2.169473
                    6          7          8          9         10
     6  C    0.000000
     7  C    2.499637   0.000000
     8  C    2.507348   2.361961   0.000000
     9  O    2.861905   1.410194   1.416650   0.000000
    10  C    1.531219   2.866041   1.519906   2.418749   0.000000
    11  O    2.448323   2.342492   4.126551   3.600440   3.767473
    12  C    3.648030   4.245091   5.634164   5.145302   4.805551
    13  O    4.395543   4.499866   6.358473   5.800745   5.839486
    14  H    2.149636   2.126564   3.271435   2.673119   2.784836
    15  H    6.742487   6.947006   8.768536   8.113263   8.074792
    16  H    6.524713   6.336779   8.216121   7.375842   7.659041
    17  H    3.017993   4.197075   5.393138   5.253895   4.514475
    18  H    6.219780   5.750398   7.895081   7.078363   7.570137
    19  H    5.185001   4.440000   6.602202   5.658230   6.354803
    20  H    5.233554   6.203733   7.520618   7.183857   6.520931
    21  H    5.669014   6.321111   7.640325   7.132587   6.707605
    22  H    1.085286   3.448334   3.451105   3.832229   2.164040
    23  H    1.087843   2.778532   2.804625   3.292439   2.157750
    24  H    3.444754   1.081251   3.268423   2.012215   3.837736
    25  H    2.776559   1.087408   2.626567   2.052104   3.260630
    26  H    2.803957   2.624654   1.087662   2.047201   2.158625
    27  H    3.457069   3.261041   1.081372   2.009181   2.164174
    28  H    2.164393   3.830980   2.141035   3.345963   1.085844
    29  H    2.159843   3.307376   2.138247   2.714156   1.087192
    30  H    3.890640   3.908843   5.460660   4.743196   4.846454
    31  H    3.265892   4.384551   5.318835   5.051011   4.271216
                   11         12         13         14         15
    11  O    0.000000
    12  C    2.473991   0.000000
    13  O    2.242254   2.419030   0.000000
    14  H    2.056519   2.532760   3.848672   0.000000
    15  H    4.844146   3.394796   2.902503   5.720561   0.000000
    16  H    4.634676   3.036154   3.304323   5.014809   1.747714
    17  H    2.034476   2.158002   1.985979   3.251113   4.126126
    18  H    3.856942   3.728071   2.006690   5.238060   2.365582
    19  H    2.890639   2.749126   2.051592   3.787506   3.022386
    20  H    4.075322   2.146908   2.818703   4.624197   2.339045
    21  H    4.579993   2.157264   3.734803   4.470289   2.706423
    22  H    2.783294   3.257621   4.300045   2.467159   6.357125
    23  H    2.625598   4.270048   4.459111   3.033698   7.049562
    24  H    2.618860   4.322413   4.478649   2.431877   6.723237
    25  H    2.563919   4.846495   4.615122   3.030219   7.301264
    26  H    4.299925   6.140804   6.490725   3.946956   9.102356
    27  H    5.148329   6.483780   7.377493   4.050562   9.691979
    28  H    4.581308   5.572230   6.551095   3.794055   8.801402
    29  H    4.149616   4.673285   6.118287   2.656243   8.051192
    30  H    2.599962   1.085082   2.886188   2.195872   3.757941
    31  H    2.915357   1.083587   3.309102   2.444368   4.260246
                   16         17         18         19         20
    16  H    0.000000
    17  H    4.530930   0.000000
    18  H    2.674245   3.969764   0.000000
    19  H    2.346112   3.631736   1.749516   0.000000
    20  H    3.011967   2.699628   3.784377   3.744515   0.000000
    21  H    2.361006   3.830778   4.278891   3.728970   1.742630
    22  H    6.269958   2.606603   6.207216   5.283851   4.571308
    23  H    7.030377   3.096486   6.322418   5.510192   5.630197
    24  H    5.930748   4.620493   5.374248   3.952537   6.316825
    25  H    6.891731   4.334876   5.890897   4.828775   6.618896
    26  H    8.698283   5.544677   8.050249   6.917366   7.911265
    27  H    9.038380   6.396582   8.870649   7.498537   8.408212
    28  H    8.520965   5.022497   8.381491   7.277715   7.086195
    29  H    7.479086   4.831890   7.766310   6.423311   6.447491
    30  H    2.878430   3.031201   3.807303   2.410627   3.041085
    31  H    3.949491   2.370947   4.786858   3.803219   2.515472
                   21         22         23         24         25
    21  H    0.000000
    22  H    5.078725   0.000000
    23  H    6.325176   1.752559   0.000000
    24  H    6.260822   4.282701   3.774228   0.000000
    25  H    6.976222   3.783609   2.613649   1.762593   0.000000
    26  H    8.231491   3.808109   2.664658   3.579076   2.418096
    27  H    8.398926   4.290351   3.811816   4.017551   3.580718
    28  H    7.403466   2.533709   2.458997   4.850196   4.033726
    29  H    6.376751   2.461438   3.053230   4.099530   3.964326
    30  H    2.514723   3.733832   4.615340   3.766478   4.663560
    31  H    2.468780   2.651968   4.025161   4.657903   5.040130
                   26         27         28         29         30
    26  H    0.000000
    27  H    1.759457   0.000000
    28  H    2.457049   2.524150   0.000000
    29  H    3.044642   2.441129   1.751055   0.000000
    30  H    6.062521   6.237428   5.749204   4.609215   0.000000
    31  H    5.905428   6.093680   4.936783   4.018812   1.748667
                   31
    31  H    0.000000
 Stoichiometry    C10H18O3
 Framework group  C1[X(C10H18O3)]
 Deg. of freedom    87
 Full point group                 C1      NOp   1
 Largest Abelian subgroup         C1      NOp   1
 Largest concise Abelian subgroup C1      NOp   1
                         Standard orientation:                         
 ---------------------------------------------------------------------
 Center     Atomic      Atomic             Coordinates (Angstroms)
 Number     Number       Type             X           Y           Z
 ---------------------------------------------------------------------
      1          6           0        1.079543   -0.103297   -0.063263
      2          6           0       -3.884618   -0.039002   -0.601427
      3          6           0       -1.227829    0.190313    0.702588
      4          6           0       -3.059188   -1.173818    0.005468
      5          6           0       -3.085873    1.274847   -0.548916
      6          6           0        1.811137    0.949647    0.765236
      7          6           0        1.983133   -1.307339   -0.295244
      8          6           0        3.945940   -0.002449   -0.141914
      9          8           0        3.186335   -0.913516   -0.916417
     10          6           0        3.160748    1.272696    0.118073
     11          8           0       -0.070251   -0.607057    0.588209
     12          6           0       -1.587166    0.973691   -0.561067
     13          8           0       -2.258954   -0.682092    1.069512
     14          1           0        0.812130    0.309759   -1.027378
     15          1           0       -4.821960    0.070680   -0.065768
     16          1           0       -4.129362   -0.298526   -1.627338
     17          1           0       -1.104610    0.864121    1.539435
     18          1           0       -3.685280   -1.942698    0.434476
     19          1           0       -2.422268   -1.639572   -0.737582
     20          1           0       -3.332479    1.824363    0.355151
     21          1           0       -3.344627    1.915034   -1.385076
     22          1           0        1.210902    1.848956    0.859081
     23          1           0        1.968008    0.554972    1.766748
     24          1           0        1.505983   -2.019873   -0.953823
     25          1           0        2.199835   -1.797199    0.651082
     26          1           0        4.222828   -0.480400    0.795052
     27          1           0        4.848163    0.195579   -0.704180
     28          1           0        3.741397    1.928760    0.759543
     29          1           0        3.006212    1.793076   -0.823898
     30          1           0       -1.341773    0.395592   -1.445932
     31          1           0       -1.005104    1.886959   -0.597219
 ---------------------------------------------------------------------
 Rotational constants (GHZ):           2.0697977           0.3730796           0.3523531
 Standard basis: 6-311++G(2d,2p) (5D, 7F)
 There are   557 symmetry adapted cartesian basis functions of A   symmetry.
 There are   531 symmetry adapted basis functions of A   symmetry.
   531 basis functions,   762 primitive gaussians,   557 cartesian basis functions
    51 alpha electrons       51 beta electrons
       nuclear repulsion energy       883.5762988294 Hartrees.
 NAtoms=   31 NActive=   31 NUniq=   31 SFac= 1.00D+00 NAtFMM=   60 NAOKFM=F Big=F
 Integral buffers will be    131072 words long.
 Raffenetti 2 integral format.
 Two-electron integral symmetry is turned on.
 ------------------------------------------------------------------------------
 Polarizable Continuum Model (PCM)
 =================================
 Model                : PCM.
 Atomic radii         : UFF (Universal Force Field).
 Polarization charges : Total charges.
 Charge compensation  : None.
 Solution method      : On-the-fly selection.
 Cavity type          : Scaled VdW (van der Waals Surface) (Alpha=1.100).
 Cavity algorithm     : GePol (No added spheres)
                        Default sphere list used, NSphG=   31.
                        Lebedev-Laikov grids with approx.  5.0 points / Ang**2.
                        Smoothing algorithm: York/Karplus (Gamma=1.0000).
                        Polarization charges: spherical gaussians, with
                                              point-specific exponents (IZeta= 3).
                        Self-potential: point-specific (ISelfS= 7).
                        Self-field    : sphere-specific E.n sum rule (ISelfD= 2).
 1st derivatives      : Analytical E(r).r(x)/FMM algorithm (CHGder, D1EAlg=3).
                        Cavity 1st derivative terms included.
 Solvent              : Water, Eps=  78.355300 Eps(inf)=   1.777849
 ------------------------------------------------------------------------------
 One-electron integrals computed using PRISM.
 NBasis=   531 RedAO= T EigKep=  4.80D-06  NBF=   531
 NBsUse=   531 1.00D-06 EigRej= -1.00D+00 NBFU=   531
 ExpMin= 3.60D-02 ExpMax= 8.59D+03 ExpMxC= 1.30D+03 IAcc=3 IRadAn=         5 AccDes= 0.00D+00
 Harris functional with IExCor= 1009 and IRadAn=       5 diagonalized for initial guess.
 HarFok:  IExCor= 1009 AccDes= 0.00D+00 IRadAn=         5 IDoV= 1 UseB2=F ITyADJ=14
 ICtDFT=  3500011 ScaDFX=  1.000000  1.000000  1.000000  1.000000
 FoFCou: FMM=F IPFlag=           0 FMFlag=      100000 FMFlg1=           0
         NFxFlg=           0 DoJE=T BraDBF=F KetDBF=T FulRan=T
         wScrn=  0.000000 ICntrl=       500 IOpCl=  0 I1Cent=   200000004 NGrid=           0
         NMat0=    1 NMatS0=      1 NMatT0=    0 NMatD0=    1 NMtDS0=    0 NMtDT0=    0
 Petite list used in FoFCou.
 Requested convergence on RMS density matrix=1.00D-08 within 128 cycles.
 Requested convergence on MAX density matrix=1.00D-06.
 Requested convergence on             energy=1.00D-06.
 No special actions if energy rises.
 Inv3:  Mode=1 IEnd=    12693747.
 Iteration    1 A*A^-1 deviation from unit magnitude is 5.44D-15 for   2038.
 Iteration    1 A*A^-1 deviation from orthogonality  is 3.55D-15 for   2032   1908.
 Iteration    1 A^-1*A deviation from unit magnitude is 5.44D-15 for   2038.
 Iteration    1 A^-1*A deviation from orthogonality  is 2.06D-15 for   2033   1999.
 Error on total polarization charges =  0.01500
 SCF Done:  E(RM062X) =  -617.491076809     A.U. after   12 cycles
            NFock= 12  Conv=0.43D-08     -V/T= 2.0035

 **********************************************************************

            Population analysis using the SCF density.

 **********************************************************************

 Orbital symmetries:
       Occupied  (A) (A) (A) (A) (A) (A) (A) (A) (A) (A) (A) (A)
                 (A) (A) (A) (A) (A) (A) (A) (A) (A) (A) (A) (A)
                 (A) (A) (A) (A) (A) (A) (A) (A) (A) (A) (A) (A)
                 (A) (A) (A) (A) (A) (A) (A) (A) (A) (A) (A) (A)
                 (A) (A) (A)
       Virtual   (A) (A) (A) (A) (A) (A) (A) (A) (A) (A) (A) (A)
                 (A) (A) (A) (A) (A) (A) (A) (A) (A) (A) (A) (A)
                 (A) (A) (A) (A) (A) (A) (A) (A) (A) (A) (A) (A)
                 (A) (A) (A) (A) (A) (A) (A) (A) (A) (A) (A) (A)
                 (A) (A) (A) (A) (A) (A) (A) (A) (A) (A) (A) (A)
                 (A) (A) (A) (A) (A) (A) (A) (A) (A) (A) (A) (A)
                 (A) (A) (A) (A) (A) (A) (A) (A) (A) (A) (A) (A)
                 (A) (A) (A) (A) (A) (A) (A) (A) (A) (A) (A) (A)
                 (A) (A) (A) (A) (A) (A) (A) (A) (A) (A) (A) (A)
                 (A) (A) (A) (A) (A) (A) (A) (A) (A) (A) (A) (A)
                 (A) (A) (A) (A) (A) (A) (A) (A) (A) (A) (A) (A)
                 (A) (A) (A) (A) (A) (A) (A) (A) (A) (A) (A) (A)
                 (A) (A) (A) (A) (A) (A) (A) (A) (A) (A) (A) (A)
                 (A) (A) (A) (A) (A) (A) (A) (A) (A) (A) (A) (A)
                 (A) (A) (A) (A) (A) (A) (A) (A) (A) (A) (A) (A)
                 (A) (A) (A) (A) (A) (A) (A) (A) (A) (A) (A) (A)
                 (A) (A) (A) (A) (A) (A) (A) (A) (A) (A) (A) (A)
                 (A) (A) (A) (A) (A) (A) (A) (A) (A) (A) (A) (A)
                 (A) (A) (A) (A) (A) (A) (A) (A) (A) (A) (A) (A)
                 (A) (A) (A) (A) (A) (A) (A) (A) (A) (A) (A) (A)
                 (A) (A) (A) (A) (A) (A) (A) (A) (A) (A) (A) (A)
                 (A) (A) (A) (A) (A) (A) (A) (A) (A) (A) (A) (A)
                 (A) (A) (A) (A) (A) (A) (A) (A) (A) (A) (A) (A)
                 (A) (A) (A) (A) (A) (A) (A) (A) (A) (A) (A) (A)
                 (A) (A) (A) (A) (A) (A) (A) (A) (A) (A) (A) (A)
                 (A) (A) (A) (A) (A) (A) (A) (A) (A) (A) (A) (A)
                 (A) (A) (A) (A) (A) (A) (A) (A) (A) (A) (A) (A)
                 (A) (A) (A) (A) (A) (A) (A) (A) (A) (A) (A) (A)
                 (A) (A) (A) (A) (A) (A) (A) (A) (A) (A) (A) (A)
                 (A) (A) (A) (A) (A) (A) (A) (A) (A) (A) (A) (A)
                 (A) (A) (A) (A) (A) (A) (A) (A) (A) (A) (A) (A)
                 (A) (A) (A) (A) (A) (A) (A) (A) (A) (A) (A) (A)
                 (A) (A) (A) (A) (A) (A) (A) (A) (A) (A) (A) (A)
                 (A) (A) (A) (A) (A) (A) (A) (A) (A) (A) (A) (A)
                 (A) (A) (A) (A) (A) (A) (A) (A) (A) (A) (A) (A)
                 (A) (A) (A) (A) (A) (A) (A) (A) (A) (A) (A) (A)
                 (A) (A) (A) (A) (A) (A) (A) (A) (A) (A) (A) (A)
                 (A) (A) (A) (A) (A) (A) (A) (A) (A) (A) (A) (A)
                 (A) (A) (A) (A) (A) (A) (A) (A) (A) (A) (A) (A)
                 (A) (A) (A) (A) (A) (A) (A) (A) (A) (A) (A) (A)
 The electronic state is 1-A.
 Alpha  occ. eigenvalues --  -19.63013 -19.62950 -19.62888 -10.63785 -10.58761
 Alpha  occ. eigenvalues --  -10.57956 -10.57886 -10.57868 -10.53418 -10.53335
 Alpha  occ. eigenvalues --  -10.53202 -10.53157 -10.52866  -1.20158  -1.16849
 Alpha  occ. eigenvalues --   -1.13834  -0.90353  -0.90236  -0.87709  -0.84650
 Alpha  occ. eigenvalues --   -0.75335  -0.74865  -0.73571  -0.70390  -0.65991
 Alpha  occ. eigenvalues --   -0.62407  -0.61099  -0.59149  -0.58129  -0.57160
 Alpha  occ. eigenvalues --   -0.54889  -0.53220  -0.52645  -0.50827  -0.49607
 Alpha  occ. eigenvalues --   -0.48363  -0.47382  -0.46121  -0.45480  -0.45169
 Alpha  occ. eigenvalues --   -0.44241  -0.42267  -0.41135  -0.40524  -0.39419
 Alpha  occ. eigenvalues --   -0.39140  -0.37592  -0.36353  -0.34745  -0.33440
 Alpha  occ. eigenvalues --   -0.31908
 Alpha virt. eigenvalues --   -0.00136   0.00780   0.00875   0.01062   0.02131
 Alpha virt. eigenvalues --    0.02473   0.02615   0.03654   0.03838   0.04261
 Alpha virt. eigenvalues --    0.04544   0.04589   0.05532   0.06055   0.06804
 Alpha virt. eigenvalues --    0.07299   0.07924   0.08198   0.08701   0.09188
 Alpha virt. eigenvalues --    0.09490   0.10420   0.11211   0.11431   0.11807
 Alpha virt. eigenvalues --    0.12269   0.12615   0.12962   0.13222   0.13403
 Alpha virt. eigenvalues --    0.13602   0.13980   0.14294   0.14673   0.14904
 Alpha virt. eigenvalues --    0.15289   0.15574   0.15839   0.15902   0.16278
 Alpha virt. eigenvalues --    0.16455   0.16890   0.17068   0.17489   0.17644
 Alpha virt. eigenvalues --    0.17756   0.18108   0.18511   0.18911   0.19687
 Alpha virt. eigenvalues --    0.19915   0.20403   0.20722   0.21118   0.21558
 Alpha virt. eigenvalues --    0.21919   0.22591   0.23408   0.23874   0.24505
 Alpha virt. eigenvalues --    0.24770   0.24915   0.26064   0.26621   0.26905
 Alpha virt. eigenvalues --    0.26916   0.27830   0.28290   0.28659   0.28933
 Alpha virt. eigenvalues --    0.30057   0.30119   0.30398   0.31683   0.32104
 Alpha virt. eigenvalues --    0.32417   0.32590   0.32836   0.33634   0.34230
 Alpha virt. eigenvalues --    0.34624   0.34990   0.35830   0.35895   0.36225
 Alpha virt. eigenvalues --    0.36726   0.37140   0.37457   0.37702   0.38326
 Alpha virt. eigenvalues --    0.38924   0.39395   0.40026   0.40706   0.41153
 Alpha virt. eigenvalues --    0.42027   0.42613   0.42886   0.43175   0.43692
 Alpha virt. eigenvalues --    0.46966   0.48381   0.48513   0.50473   0.50951
 Alpha virt. eigenvalues --    0.51673   0.52125   0.52770   0.53312   0.54217
 Alpha virt. eigenvalues --    0.55375   0.56439   0.57356   0.58008   0.58381
 Alpha virt. eigenvalues --    0.59551   0.59884   0.60405   0.61201   0.61539
 Alpha virt. eigenvalues --    0.61656   0.62373   0.62844   0.63213   0.63736
 Alpha virt. eigenvalues --    0.64399   0.65540   0.66160   0.66332   0.66646
 Alpha virt. eigenvalues --    0.67279   0.67696   0.69080   0.69621   0.70048
 Alpha virt. eigenvalues --    0.70357   0.70924   0.72046   0.72209   0.73184
 Alpha virt. eigenvalues --    0.73563   0.74252   0.74859   0.75277   0.75709
 Alpha virt. eigenvalues --    0.76639   0.76767   0.77378   0.77940   0.79349
 Alpha virt. eigenvalues --    0.80668   0.82546   0.83344   0.84052   0.84844
 Alpha virt. eigenvalues --    0.86406   0.87473   0.88329   0.88893   0.90161
 Alpha virt. eigenvalues --    0.90972   0.91720   0.92299   0.92471   0.95130
 Alpha virt. eigenvalues --    0.95939   0.98485   0.99228   1.00596   1.02248
 Alpha virt. eigenvalues --    1.02821   1.03859   1.04041   1.04808   1.06526
 Alpha virt. eigenvalues --    1.07674   1.08946   1.09747   1.10213   1.11370
 Alpha virt. eigenvalues --    1.12808   1.13092   1.13851   1.15146   1.15557
 Alpha virt. eigenvalues --    1.17141   1.17967   1.18387   1.19986   1.20351
 Alpha virt. eigenvalues --    1.20811   1.21823   1.22821   1.23776   1.24634
 Alpha virt. eigenvalues --    1.25563   1.26296   1.26769   1.27240   1.27839
 Alpha virt. eigenvalues --    1.28291   1.29602   1.30142   1.30995   1.31476
 Alpha virt. eigenvalues --    1.31770   1.32538   1.32988   1.33360   1.34036
 Alpha virt. eigenvalues --    1.34611   1.35438   1.36286   1.37130   1.37735
 Alpha virt. eigenvalues --    1.38114   1.38865   1.40182   1.40796   1.41592
 Alpha virt. eigenvalues --    1.42171   1.43148   1.44328   1.45001   1.45592
 Alpha virt. eigenvalues --    1.46160   1.47034   1.47145   1.48117   1.48945
 Alpha virt. eigenvalues --    1.49354   1.50016   1.50146   1.51946   1.52185
 Alpha virt. eigenvalues --    1.52710   1.52875   1.54068   1.54275   1.55546
 Alpha virt. eigenvalues --    1.55751   1.56733   1.57192   1.58305   1.59023
 Alpha virt. eigenvalues --    1.59141   1.59921   1.60518   1.62331   1.62726
 Alpha virt. eigenvalues --    1.62860   1.63474   1.64483   1.65790   1.66715
 Alpha virt. eigenvalues --    1.67883   1.68320   1.69151   1.70127   1.71009
 Alpha virt. eigenvalues --    1.72003   1.73700   1.74382   1.76268   1.77055
 Alpha virt. eigenvalues --    1.77471   1.79372   1.79931   1.80394   1.83872
 Alpha virt. eigenvalues --    1.85250   1.86650   1.92856   1.94328   1.97213
 Alpha virt. eigenvalues --    2.00625   2.04192   2.09617   2.15439   2.20941
 Alpha virt. eigenvalues --    2.23579   2.26597   2.28405   2.34244   2.35371
 Alpha virt. eigenvalues --    2.41843   2.43115   2.43643   2.46363   2.51546
 Alpha virt. eigenvalues --    2.61305   2.75718   2.76913   2.79934   2.80843
 Alpha virt. eigenvalues --    2.86062   2.88599   2.89932   2.92651   2.93600
 Alpha virt. eigenvalues --    2.95004   2.97191   2.99015   3.02864   3.04505
 Alpha virt. eigenvalues --    3.05383   3.06859   3.08959   3.09240   3.11849
 Alpha virt. eigenvalues --    3.15054   3.15978   3.16974   3.18552   3.21006
 Alpha virt. eigenvalues --    3.24911   3.29215   3.30651   3.31822   3.33085
 Alpha virt. eigenvalues --    3.35466   3.35969   3.37872   3.39364   3.40648
 Alpha virt. eigenvalues --    3.41823   3.42614   3.43407   3.44342   3.46067
 Alpha virt. eigenvalues --    3.47693   3.48573   3.49639   3.50259   3.51066
 Alpha virt. eigenvalues --    3.51368   3.52898   3.53752   3.54843   3.55166
 Alpha virt. eigenvalues --    3.56183   3.56943   3.58272   3.59169   3.59730
 Alpha virt. eigenvalues --    3.61331   3.61840   3.63167   3.64088   3.65305
 Alpha virt. eigenvalues --    3.66797   3.67942   3.69082   3.69538   3.70070
 Alpha virt. eigenvalues --    3.70795   3.71289   3.71932   3.72979   3.74998
 Alpha virt. eigenvalues --    3.75264   3.76141   3.77024   3.77621   3.79729
 Alpha virt. eigenvalues --    3.80278   3.80470   3.82583   3.84524   3.85903
 Alpha virt. eigenvalues --    3.86541   3.87749   3.88812   3.89177   3.90900
 Alpha virt. eigenvalues --    3.92391   3.93315   3.95271   3.96813   3.99183
 Alpha virt. eigenvalues --    4.00004   4.02383   4.02700   4.03919   4.04342
 Alpha virt. eigenvalues --    4.05003   4.05645   4.06460   4.07116   4.08010
 Alpha virt. eigenvalues --    4.08179   4.08830   4.09356   4.10121   4.10723
 Alpha virt. eigenvalues --    4.13583   4.14263   4.14704   4.15619   4.16559
 Alpha virt. eigenvalues --    4.17991   4.18579   4.19241   4.20307   4.21385
 Alpha virt. eigenvalues --    4.21952   4.22689   4.23719   4.24958   4.25652
 Alpha virt. eigenvalues --    4.28366   4.28976   4.30197   4.31193   4.32776
 Alpha virt. eigenvalues --    4.32930   4.35857   4.36107   4.37685   4.39528
 Alpha virt. eigenvalues --    4.44280   4.45376   4.46903   4.48788   4.52632
 Alpha virt. eigenvalues --    4.57039   4.59415   4.74589   4.76416   4.82628
 Alpha virt. eigenvalues --    4.84233   4.92296   4.94862   4.99762   5.00844
 Alpha virt. eigenvalues --    5.02633   5.06610   5.08579   5.12174   5.13031
 Alpha virt. eigenvalues --    5.13618   5.15730   5.18226   5.30640   5.36135
 Alpha virt. eigenvalues --    5.38969   5.57968   5.59447   5.64871   5.85997
 Alpha virt. eigenvalues --    5.89741   6.00063   7.01187   7.05811   7.07163
 Alpha virt. eigenvalues --    7.08122   7.10970   7.12155   7.13408   7.17303
 Alpha virt. eigenvalues --    7.21406   7.36554   7.37983   7.47754   7.54042
 Alpha virt. eigenvalues --    7.55600   7.62063  23.94649  23.99123  24.04796
 Alpha virt. eigenvalues --   24.07300  24.10601  24.11371  24.14636  24.15537
 Alpha virt. eigenvalues --   24.16556  24.20223  50.17565  50.18952  50.22370
          Condensed to atoms (all electrons):
               1          2          3          4          5          6
     1  C    7.828213  -0.000083  -1.230437   0.178470  -0.265475  -1.430201
     2  C   -0.000083   5.898699   0.203491  -0.209321  -0.316774   0.021077
     3  C   -1.230437   0.203491   7.320875  -0.402050   0.227347   0.412699
     4  C    0.178470  -0.209321  -0.402050   5.642748   0.246231  -0.064829
     5  C   -0.265475  -0.316774   0.227347   0.246231   6.655005   0.010438
     6  C   -1.430201   0.021077   0.412699  -0.064829   0.010438   6.948866
     7  C   -0.155905   0.001726   0.006054  -0.016463  -0.010703   0.014176
     8  C    0.193188  -0.002227  -0.056540   0.005059  -0.002927  -0.155197
     9  O    0.110005  -0.000064  -0.011687   0.000667  -0.000020  -0.035038
    10  C    0.041286   0.003030  -0.067806  -0.003827   0.019991  -0.269291
    11  O    0.349467   0.015720   0.223144  -0.022412  -0.012517  -0.161737
    12  C    0.398970   0.020607  -0.921771  -0.038075  -0.742776  -0.036919
    13  O   -0.019267   0.025144   0.122643   0.058566  -0.129660   0.000950
    14  H    0.411521   0.005509  -0.125246  -0.010824  -0.076825   0.035981
    15  H   -0.006410   0.456445   0.015506  -0.054339  -0.035656   0.000778
    16  H    0.000263   0.486988   0.001750  -0.062440  -0.061160   0.000842
    17  H   -0.073024   0.017625   0.566386  -0.040045  -0.014098   0.032595
    18  H    0.013368  -0.023364  -0.024964   0.434629  -0.002781  -0.002594
    19  H   -0.016335  -0.071312   0.033890   0.462793  -0.013309  -0.000406
    20  H    0.000134  -0.073820  -0.053136  -0.002136   0.476695  -0.001604
    21  H   -0.006133  -0.032310  -0.004608   0.010726   0.449752   0.005217
    22  H   -0.059008   0.001319   0.033026   0.002471   0.007367   0.413681
    23  H   -0.098376   0.001629   0.016379  -0.002826  -0.003148   0.544323
    24  H   -0.085038   0.001425  -0.000094   0.001255  -0.003131   0.050628
    25  H    0.034027  -0.001978  -0.000970   0.003035   0.004521  -0.038045
    26  H    0.054457  -0.000208   0.005924   0.000067   0.000576  -0.028182
    27  H   -0.008149   0.000008  -0.004951   0.000128  -0.000238   0.005727
    28  H   -0.025066   0.000281  -0.002647  -0.000439  -0.000759  -0.006458
    29  H   -0.036907  -0.000062   0.007637   0.000004   0.003463  -0.011162
    30  H   -0.017474   0.026678   0.005971  -0.022328   0.016546  -0.019593
    31  H    0.040920  -0.016443  -0.055196   0.006300  -0.002085  -0.033947
               7          8          9         10         11         12
     1  C   -0.155905   0.193188   0.110005   0.041286   0.349467   0.398970
     2  C    0.001726  -0.002227  -0.000064   0.003030   0.015720   0.020607
     3  C    0.006054  -0.056540  -0.011687  -0.067806   0.223144  -0.921771
     4  C   -0.016463   0.005059   0.000667  -0.003827  -0.022412  -0.038075
     5  C   -0.010703  -0.002927  -0.000020   0.019991  -0.012517  -0.742776
     6  C    0.014176  -0.155197  -0.035038  -0.269291  -0.161737  -0.036919
     7  C    5.921956  -0.173651   0.101523   0.101101  -0.175132  -0.145011
     8  C   -0.173651   5.472501   0.118516   0.044014   0.013488   0.009662
     9  O    0.101523   0.118516   8.295631  -0.017261  -0.002270   0.009385
    10  C    0.101101   0.044014  -0.017261   5.777039  -0.012672   0.021828
    11  O   -0.175132   0.013488  -0.002270  -0.012672   8.278840  -0.084777
    12  C   -0.145011   0.009662   0.009385   0.021828  -0.084777   6.790645
    13  O   -0.010147   0.001949   0.000216   0.001006   0.021749   0.123509
    14  H   -0.033557   0.025737  -0.030873  -0.038728  -0.021609   0.095138
    15  H    0.000321  -0.000105  -0.000007   0.000026   0.000431   0.012030
    16  H   -0.000974   0.000103   0.000000  -0.000097   0.000816  -0.003341
    17  H    0.015180   0.000863  -0.000250  -0.014098  -0.065172  -0.073952
    18  H   -0.000425   0.000253   0.000031  -0.000037  -0.002665   0.010164
    19  H   -0.000180  -0.000419   0.000090  -0.001081   0.007794  -0.002787
    20  H   -0.002041   0.000354   0.000013   0.000103   0.001499   0.004752
    21  H   -0.001347  -0.000116   0.000024  -0.000801  -0.001621  -0.048008
    22  H   -0.000426  -0.013539  -0.005063   0.014879  -0.004173  -0.014298
    23  H   -0.003392  -0.019375   0.001240  -0.060507   0.005776  -0.011593
    24  H    0.435377   0.002111  -0.072448  -0.000937   0.002567  -0.000235
    25  H    0.348627  -0.002808  -0.039663   0.016642   0.009008   0.008861
    26  H   -0.052823   0.445445  -0.047859  -0.026630  -0.000565   0.002083
    27  H    0.022526   0.437983  -0.068312  -0.047039   0.001074   0.000248
    28  H    0.002405  -0.033971   0.007950   0.420660  -0.001210  -0.000962
    29  H    0.004478  -0.096060   0.000597   0.505711   0.000447   0.002588
    30  H    0.000656  -0.001407   0.001994   0.008344  -0.013430   0.396916
    31  H    0.003170   0.005116   0.000730  -0.001499   0.006101   0.425322
              13         14         15         16         17         18
     1  C   -0.019267   0.411521  -0.006410   0.000263  -0.073024   0.013368
     2  C    0.025144   0.005509   0.456445   0.486988   0.017625  -0.023364
     3  C    0.122643  -0.125246   0.015506   0.001750   0.566386  -0.024964
     4  C    0.058566  -0.010824  -0.054339  -0.062440  -0.040045   0.434629
     5  C   -0.129660  -0.076825  -0.035656  -0.061160  -0.014098  -0.002781
     6  C    0.000950   0.035981   0.000778   0.000842   0.032595  -0.002594
     7  C   -0.010147  -0.033557   0.000321  -0.000974   0.015180  -0.000425
     8  C    0.001949   0.025737  -0.000105   0.000103   0.000863   0.000253
     9  O    0.000216  -0.030873  -0.000007   0.000000  -0.000250   0.000031
    10  C    0.001006  -0.038728   0.000026  -0.000097  -0.014098  -0.000037
    11  O    0.021749  -0.021609   0.000431   0.000816  -0.065172  -0.002665
    12  C    0.123509   0.095138   0.012030  -0.003341  -0.073952   0.010164
    13  O    8.254290  -0.002023  -0.015296   0.011934  -0.090411  -0.055337
    14  H   -0.002023   0.545059   0.000145   0.000444  -0.000806  -0.000399
    15  H   -0.015296   0.000145   0.501974  -0.016981   0.002807  -0.010178
    16  H    0.011934   0.000444  -0.016981   0.494113  -0.000772  -0.000494
    17  H   -0.090411  -0.000806   0.002807  -0.000772   0.481971  -0.002286
    18  H   -0.055337  -0.000399  -0.010178  -0.000494  -0.002286   0.470051
    19  H   -0.039039   0.002811   0.003275  -0.000074   0.000268  -0.009070
    20  H    0.011421   0.002018  -0.009828   0.005548  -0.004067  -0.001572
    21  H   -0.000613   0.002719  -0.003773  -0.004273  -0.000968   0.001351
    22  H    0.001170  -0.007486   0.000014  -0.000117  -0.011011   0.000087
    23  H   -0.000106   0.003419   0.000008   0.000058  -0.000650  -0.000089
    24  H   -0.001003   0.000239  -0.000024   0.000304  -0.001469   0.000379
    25  H    0.001939  -0.015975  -0.000026  -0.000077   0.000561   0.000042
    26  H   -0.000056  -0.008889   0.000002  -0.000008  -0.000044  -0.000009
    27  H    0.000079   0.003686  -0.000005   0.000007  -0.000389   0.000008
    28  H    0.000003   0.000877   0.000004   0.000006   0.000903  -0.000008
    29  H    0.000011  -0.019667   0.000011  -0.000036   0.000109  -0.000006
    30  H   -0.000731  -0.018204  -0.002493  -0.006208   0.005260  -0.003542
    31  H    0.003421  -0.017877   0.000596   0.000256  -0.013921   0.001408
              19         20         21         22         23         24
     1  C   -0.016335   0.000134  -0.006133  -0.059008  -0.098376  -0.085038
     2  C   -0.071312  -0.073820  -0.032310   0.001319   0.001629   0.001425
     3  C    0.033890  -0.053136  -0.004608   0.033026   0.016379  -0.000094
     4  C    0.462793  -0.002136   0.010726   0.002471  -0.002826   0.001255
     5  C   -0.013309   0.476695   0.449752   0.007367  -0.003148  -0.003131
     6  C   -0.000406  -0.001604   0.005217   0.413681   0.544323   0.050628
     7  C   -0.000180  -0.002041  -0.001347  -0.000426  -0.003392   0.435377
     8  C   -0.000419   0.000354  -0.000116  -0.013539  -0.019375   0.002111
     9  O    0.000090   0.000013   0.000024  -0.005063   0.001240  -0.072448
    10  C   -0.001081   0.000103  -0.000801   0.014879  -0.060507  -0.000937
    11  O    0.007794   0.001499  -0.001621  -0.004173   0.005776   0.002567
    12  C   -0.002787   0.004752  -0.048008  -0.014298  -0.011593  -0.000235
    13  O   -0.039039   0.011421  -0.000613   0.001170  -0.000106  -0.001003
    14  H    0.002811   0.002018   0.002719  -0.007486   0.003419   0.000239
    15  H    0.003275  -0.009828  -0.003773   0.000014   0.000008  -0.000024
    16  H   -0.000074   0.005548  -0.004273  -0.000117   0.000058   0.000304
    17  H    0.000268  -0.004067  -0.000968  -0.011011  -0.000650  -0.001469
    18  H   -0.009070  -0.001572   0.001351   0.000087  -0.000089   0.000379
    19  H    0.497435   0.001899  -0.001690  -0.000766   0.000337  -0.003039
    20  H    0.001899   0.486067  -0.008408  -0.001039   0.000024   0.000120
    21  H   -0.001690  -0.008408   0.493788  -0.000167  -0.000122  -0.000066
    22  H   -0.000766  -0.001039  -0.000167   0.488599   0.000370   0.001084
    23  H    0.000337   0.000024  -0.000122   0.000370   0.417951  -0.001494
    24  H   -0.003039   0.000120  -0.000066   0.001084  -0.001494   0.499333
    25  H    0.000123   0.000002   0.000012  -0.003362  -0.000732  -0.025544
    26  H    0.000002  -0.000009   0.000005  -0.000522  -0.004966  -0.002760
    27  H    0.000009   0.000018  -0.000012   0.000832  -0.001084   0.001736
    28  H   -0.000044  -0.000047   0.000062  -0.010925  -0.005085   0.002638
    29  H    0.000015  -0.000073  -0.000016   0.002388   0.001649  -0.002131
    30  H   -0.010828  -0.003122  -0.004773  -0.000082  -0.000527  -0.004219
    31  H    0.000401   0.001745  -0.016176  -0.003622  -0.001307   0.000813
              25         26         27         28         29         30
     1  C    0.034027   0.054457  -0.008149  -0.025066  -0.036907  -0.017474
     2  C   -0.001978  -0.000208   0.000008   0.000281  -0.000062   0.026678
     3  C   -0.000970   0.005924  -0.004951  -0.002647   0.007637   0.005971
     4  C    0.003035   0.000067   0.000128  -0.000439   0.000004  -0.022328
     5  C    0.004521   0.000576  -0.000238  -0.000759   0.003463   0.016546
     6  C   -0.038045  -0.028182   0.005727  -0.006458  -0.011162  -0.019593
     7  C    0.348627  -0.052823   0.022526   0.002405   0.004478   0.000656
     8  C   -0.002808   0.445445   0.437983  -0.033971  -0.096060  -0.001407
     9  O   -0.039663  -0.047859  -0.068312   0.007950   0.000597   0.001994
    10  C    0.016642  -0.026630  -0.047039   0.420660   0.505711   0.008344
    11  O    0.009008  -0.000565   0.001074  -0.001210   0.000447  -0.013430
    12  C    0.008861   0.002083   0.000248  -0.000962   0.002588   0.396916
    13  O    0.001939  -0.000056   0.000079   0.000003   0.000011  -0.000731
    14  H   -0.015975  -0.008889   0.003686   0.000877  -0.019667  -0.018204
    15  H   -0.000026   0.000002  -0.000005   0.000004   0.000011  -0.002493
    16  H   -0.000077  -0.000008   0.000007   0.000006  -0.000036  -0.006208
    17  H    0.000561  -0.000044  -0.000389   0.000903   0.000109   0.005260
    18  H    0.000042  -0.000009   0.000008  -0.000008  -0.000006  -0.003542
    19  H    0.000123   0.000002   0.000009  -0.000044   0.000015  -0.010828
    20  H    0.000002  -0.000009   0.000018  -0.000047  -0.000073  -0.003122
    21  H    0.000012   0.000005  -0.000012   0.000062  -0.000016  -0.004773
    22  H   -0.003362  -0.000522   0.000832  -0.010925   0.002388  -0.000082
    23  H   -0.000732  -0.004966  -0.001084  -0.005085   0.001649  -0.000527
    24  H   -0.025544  -0.002760   0.001736   0.002638  -0.002131  -0.004219
    25  H    0.493504   0.011525  -0.002129  -0.002880   0.003868   0.003198
    26  H    0.011525   0.503070  -0.009260   0.002791   0.005520   0.000694
    27  H   -0.002129  -0.009260   0.474456  -0.008743  -0.006649  -0.000299
    28  H   -0.002880   0.002791  -0.008743   0.494690  -0.011219  -0.000386
    29  H    0.003868   0.005520  -0.006649  -0.011219   0.481341   0.002604
    30  H    0.003198   0.000694  -0.000299  -0.000386   0.002604   0.445906
    31  H   -0.000487   0.000232   0.000046  -0.000707  -0.001999  -0.018047
              31
     1  C    0.040920
     2  C   -0.016443
     3  C   -0.055196
     4  C    0.006300
     5  C   -0.002085
     6  C   -0.033947
     7  C    0.003170
     8  C    0.005116
     9  O    0.000730
    10  C   -0.001499
    11  O    0.006101
    12  C    0.425322
    13  O    0.003421
    14  H   -0.017877
    15  H    0.000596
    16  H    0.000256
    17  H   -0.013921
    18  H    0.001408
    19  H    0.000401
    20  H    0.001745
    21  H   -0.016176
    22  H   -0.003622
    23  H   -0.001307
    24  H    0.000813
    25  H   -0.000487
    26  H    0.000232
    27  H    0.000046
    28  H   -0.000707
    29  H   -0.001999
    30  H   -0.018047
    31  H    0.493735
 Mulliken charges:
               1
     1  C   -0.121001
     2  C   -0.439434
     3  C   -0.240620
     4  C   -0.100798
     5  C   -0.423890
     6  C   -0.202779
     7  C   -0.197100
     8  C   -0.218003
     9  O   -0.317797
    10  C   -0.413349
    11  O   -0.355963
    12  C   -0.208203
    13  O   -0.276312
    14  H    0.293685
    15  H    0.160747
    16  H    0.153621
    17  H    0.282905
    18  H    0.208048
    19  H    0.159235
    20  H    0.168488
    21  H    0.172341
    22  H    0.168320
    23  H    0.222213
    24  H    0.203625
    25  H    0.195178
    26  H    0.150395
    27  H    0.208689
    28  H    0.178285
    29  H    0.163544
    30  H    0.232927
    31  H    0.193000
 Sum of Mulliken charges =  -0.00000
 Mulliken charges with hydrogens summed into heavy atoms:
               1
     1  C    0.172684
     2  C   -0.125066
     3  C    0.042284
     4  C    0.266486
     5  C   -0.083060
     6  C    0.187755
     7  C    0.201702
     8  C    0.141081
     9  O   -0.317797
    10  C   -0.071520
    11  O   -0.355963
    12  C    0.217724
    13  O   -0.276312
 Electronic spatial extent (au):  <R**2>=           3272.7235
 Charge=              0.0000 electrons
 Dipole moment (field-independent basis, Debye):
    X=             -0.5535    Y=              3.1961    Z=             -1.1476  Tot=              3.4407
 Quadrupole moment (field-independent basis, Debye-Ang):
   XX=            -74.3638   YY=            -79.4178   ZZ=            -83.9932
   XY=              4.0265   XZ=             10.3290   YZ=              1.4277
 Traceless Quadrupole moment (field-independent basis, Debye-Ang):
   XX=              4.8945   YY=             -0.1595   ZZ=             -4.7349
   XY=              4.0265   XZ=             10.3290   YZ=              1.4277
 Octapole moment (field-independent basis, Debye-Ang**2):
  XXX=             -5.7306  YYY=             -5.1319  ZZZ=             -0.5312  XYY=             -4.7408
  XXY=             12.8085  XXZ=              8.4546  XZZ=             -0.8124  YZZ=              3.9558
  YYZ=             -0.1390  XYZ=             -9.0690
 Hexadecapole moment (field-independent basis, Debye-Ang**3):
 XXXX=          -3322.2600 YYYY=           -546.2724 ZZZZ=           -319.6431 XXXY=             92.2731
 XXXZ=             54.5568 YYYX=              7.4228 YYYZ=              1.2446 ZZZX=             10.7931
 ZZZY=              2.5248 XXYY=           -670.4328 XXZZ=           -660.4056 YYZZ=           -144.0518
 XXYZ=            -20.2765 YYXZ=              4.0501 ZZXY=              0.2685
 N-N= 8.835762988294D+02 E-N=-3.208792044660D+03  KE= 6.153337762186D+02
 D1PCM: PCM CHGder 1st derivatives, ID1Alg=3 FixD1E=F DoIter=F DoCFld=F I1PDM=0.
 Calling FoFJK, ICntrl=      2127 FMM=F ISym2X=0 I1Cent= 0 IOpClX= 0 NMat=1 NMatS=1 NMatT=0.
 ***** Axes restored to original set *****
 -------------------------------------------------------------------
 Center     Atomic                   Forces (Hartrees/Bohr)
 Number     Number              X              Y              Z
 -------------------------------------------------------------------
      1        6          -0.000279402   -0.001073641   -0.008865207
      2        6           0.001653030   -0.000415671   -0.000292543
      3        6          -0.003855371    0.001567076    0.010563500
      4        6           0.001893889   -0.005857039    0.000736950
      5        6           0.001462728    0.002890089    0.000603093
      6        6           0.002243625    0.001727222    0.004223881
      7        6           0.002278535   -0.006831540    0.000795623
      8        6          -0.006675590   -0.001969889   -0.000053481
      9        8           0.002350607    0.002923959    0.008165624
     10        6          -0.000350859    0.001557156   -0.002017093
     11        8           0.001311035    0.010777218    0.002298375
     12        6          -0.001643876   -0.000423690   -0.003260399
     13        8          -0.000856012   -0.000549117   -0.011760726
     14        1          -0.000442917   -0.003151648    0.006890547
     15        1          -0.002142597   -0.000363888   -0.001487751
     16        1          -0.000493999    0.000304597    0.002993169
     17        1           0.000051970   -0.005673889   -0.005965811
     18        1          -0.002548472    0.003064668   -0.001549833
     19        1           0.003183475    0.002204498    0.004664602
     20        1          -0.000205195   -0.001007086   -0.003012360
     21        1          -0.000697145   -0.001453184    0.001973681
     22        1          -0.002512248   -0.003005673   -0.000193526
     23        1           0.000172681    0.002273715   -0.003076512
     24        1          -0.002748482    0.002790098    0.002646773
     25        1          -0.000341332    0.001764339   -0.006402159
     26        1           0.001199625    0.001679021   -0.005862957
     27        1           0.003545639   -0.000930820    0.002329037
     28        1           0.001366590   -0.002071067   -0.001715275
     29        1          -0.000570913   -0.000925174    0.003019926
     30        1           0.001254436    0.003371621    0.003195548
     31        1           0.002396543   -0.003192258    0.000415304
 -------------------------------------------------------------------
 Cartesian Forces:  Max     0.011760726 RMS     0.003557890

 GradGradGradGradGradGradGradGradGradGradGradGradGradGradGradGradGradGrad
 Berny optimization.
 FormGI is forming the generalized inverse of G from B-inverse, IUseBI=4.
 Internal  Forces:  Max     0.013942250 RMS     0.002152498
 Search for a local minimum.
 Step number   1 out of a maximum of  186
 All quantities printed in internal units (Hartrees-Bohrs-Radians)
 Mixed Optimization -- RFO/linear search
 Second derivative matrix not updated -- first step.
 ITU=  0
     Eigenvalues ---    0.00402   0.00630   0.00670   0.00740   0.01421
     Eigenvalues ---    0.01454   0.01503   0.02715   0.02764   0.03168
     Eigenvalues ---    0.03216   0.04136   0.04352   0.04470   0.04776
     Eigenvalues ---    0.04873   0.04900   0.04969   0.05131   0.05147
     Eigenvalues ---    0.05184   0.05471   0.05739   0.05841   0.06156
     Eigenvalues ---    0.06343   0.06403   0.06826   0.07631   0.07724
     Eigenvalues ---    0.07847   0.07854   0.07876   0.08002   0.08134
     Eigenvalues ---    0.09006   0.09344   0.09396   0.10854   0.11572
     Eigenvalues ---    0.11605   0.11675   0.11703   0.12491   0.12608
     Eigenvalues ---    0.14542   0.15706   0.16515   0.17590   0.18425
     Eigenvalues ---    0.20554   0.21786   0.22414   0.25000   0.27183
     Eigenvalues ---    0.27419   0.28438   0.28582   0.28711   0.29032
     Eigenvalues ---    0.29469   0.30234   0.35063   0.35084   0.35114
     Eigenvalues ---    0.35139   0.35240   0.35260   0.35297   0.35363
     Eigenvalues ---    0.35378   0.35387   0.35466   0.35534   0.35564
     Eigenvalues ---    0.35703   0.35821   0.35829   0.35844   0.35949
     Eigenvalues ---    0.39993   0.41444   0.42430   0.43332   0.43583
     Eigenvalues ---    0.439601000.000001000.000001000.000001000.00000
     Eigenvalues --- 1000.000001000.000001000.000001000.000001000.00000
     Eigenvalues --- 1000.000001000.000001000.000001000.000001000.00000
     Eigenvalues --- 1000.000001000.000001000.000001000.000001000.00000
     Eigenvalues --- 1000.000001000.000001000.000001000.000001000.00000
     Eigenvalues --- 1000.000001000.000001000.000001000.000001000.00000
     Eigenvalues --- 1000.000001000.000001000.000001000.000001000.00000
     Eigenvalues --- 1000.000001000.000001000.000001000.000001000.00000
     Eigenvalues --- 1000.000001000.000001000.000001000.000001000.00000
     Eigenvalues --- 1000.000001000.000001000.000001000.000001000.00000
     Eigenvalues --- 1000.000001000.000001000.000001000.000001000.00000
     Eigenvalues --- 1000.000001000.000001000.000001000.000001000.00000
     Eigenvalues --- 1000.000001000.000001000.000001000.000001000.00000
     Eigenvalues --- 1000.000001000.000001000.000001000.000001000.00000
     Eigenvalues --- 1000.000001000.000001000.000001000.000001000.00000
     Eigenvalues --- 1000.000001000.000001000.000001000.000001000.00000
     Eigenvalues --- 1000.000001000.000001000.000001000.000001000.00000
     Eigenvalues --- 1000.000001000.000001000.000001000.000001000.00000
     Eigenvalues --- 1000.000001000.000001000.000001000.000001000.00000
     Eigenvalues --- 1000.000001000.000001000.000001000.000001000.00000
 RFO step:  Lambda=-3.38931537D-03 EMin= 4.01840461D-03
 Linear search not attempted -- first point.
 Iteration  1 RMS(Cart)=  0.06589514 RMS(Int)=  0.00084914
 Iteration  2 RMS(Cart)=  0.00221657 RMS(Int)=  0.00004805
 Iteration  3 RMS(Cart)=  0.00000122 RMS(Int)=  0.00004804
 Iteration  4 RMS(Cart)=  0.00000000 RMS(Int)=  0.00004804
 Iteration  1 RMS(Cart)=  0.00002892 RMS(Int)=  0.00000643
 Iteration  2 RMS(Cart)=  0.00001548 RMS(Int)=  0.00000719
 Iteration  3 RMS(Cart)=  0.00000828 RMS(Int)=  0.00000810
 Iteration  4 RMS(Cart)=  0.00000443 RMS(Int)=  0.00000869
 Iteration  5 RMS(Cart)=  0.00000237 RMS(Int)=  0.00000903
 Iteration  6 RMS(Cart)=  0.00000127 RMS(Int)=  0.00000922
 Iteration  7 RMS(Cart)=  0.00000068 RMS(Int)=  0.00000932
 Variable       Old X    -DE/DX   Delta X   Delta X   Delta X     New X
                                 (Linear)    (Quad)   (Total)
    R1        2.88475  -0.00153   0.00000  -0.00494  -0.00496   2.87979
    R2        2.87835  -0.00059   0.00000  -0.00164  -0.00163   2.87672
    R3        2.67262   0.00120   0.00000   0.00275   0.00275   2.67537
    R4        2.04549   0.00745   0.00000   0.02067   0.02067   2.06616
    R5        2.88916   0.00133   0.00000   0.00409   0.00413   2.89328
    R6        2.90732  -0.00058   0.00000  -0.00258  -0.00254   2.90478
    R7        2.05065   0.00262   0.00000   0.00734   0.00734   2.05800
    R8        2.05255   0.00301   0.00000   0.00846   0.00846   2.06100
    R9        2.66503   0.00375   0.00000   0.00846   0.00846   2.67349
   R10        2.89050  -0.00113   0.00000  -0.00184  -0.00188   2.88862
   R11        2.64490   0.00052   0.00000   0.00221   0.00218   2.64708
   R12        2.04363   0.00816   0.00000   0.02256   0.02256   2.06619
   R13        2.68205   0.00338   0.00000   0.00696   0.00696   2.68901
   R14        2.04162   0.00427   0.00000   0.01178   0.01178   2.05340
   R15        2.04817   0.00602   0.00000   0.01677   0.01677   2.06494
   R16        2.88885  -0.00068   0.00000  -0.00356  -0.00357   2.88528
   R17        2.05287   0.00306   0.00000   0.00861   0.00861   2.06148
   R18        2.04925   0.00255   0.00000   0.00711   0.00711   2.05636
   R19        2.89358  -0.00070   0.00000  -0.00262  -0.00263   2.89095
   R20        2.05089   0.00390   0.00000   0.01092   0.01092   2.06181
   R21        2.05573   0.00368   0.00000   0.01040   0.01040   2.06612
   R22        2.66488   0.00302   0.00000   0.00697   0.00698   2.67186
   R23        2.04327   0.00466   0.00000   0.01289   0.01289   2.05615
   R24        2.05490   0.00630   0.00000   0.01777   0.01777   2.07267
   R25        2.67708   0.00362   0.00000   0.00827   0.00829   2.68537
   R26        2.87221   0.00032   0.00000   0.00075   0.00075   2.87296
   R27        2.05538   0.00609   0.00000   0.01720   0.01720   2.07258
   R28        2.04350   0.00434   0.00000   0.01200   0.01200   2.05550
   R29        2.05195   0.00300   0.00000   0.00840   0.00840   2.06035
   R30        2.05449   0.00314   0.00000   0.00886   0.00886   2.06335
   R31        2.05051   0.00469   0.00000   0.01312   0.01312   2.06362
   R32        2.04768   0.00399   0.00000   0.01112   0.01112   2.05880
    A1        1.92154   0.00004   0.00000  -0.00151  -0.00155   1.91999
    A2        1.96634  -0.00123   0.00000  -0.00595  -0.00593   1.96041
    A3        1.91622   0.00003   0.00000  -0.00656  -0.00654   1.90967
    A4        1.84510   0.00081   0.00000   0.00535   0.00535   1.85045
    A5        1.88868  -0.00024   0.00000  -0.00101  -0.00103   1.88765
    A6        1.92342   0.00064   0.00000   0.01028   0.01025   1.93367
    A7        1.91774  -0.00022   0.00000  -0.00741  -0.00754   1.91020
    A8        1.92349  -0.00058   0.00000   0.00067   0.00068   1.92417
    A9        1.89572   0.00092   0.00000   0.00485   0.00489   1.90061
   A10        1.92334   0.00091   0.00000   0.00207   0.00213   1.92547
   A11        1.93186  -0.00111   0.00000  -0.00310  -0.00307   1.92879
   A12        1.87104   0.00008   0.00000   0.00324   0.00321   1.87426
   A13        1.99918  -0.00419   0.00000  -0.02235  -0.02239   1.97679
   A14        1.84788   0.00104   0.00000   0.01062   0.01079   1.85866
   A15        1.89813   0.00189   0.00000   0.01031   0.01013   1.90826
   A16        1.94200   0.00409   0.00000   0.01289   0.01287   1.95488
   A17        1.92512  -0.00043   0.00000  -0.00672  -0.00667   1.91845
   A18        1.84361  -0.00224   0.00000  -0.00262  -0.00267   1.84094
   A19        1.92287   0.00181   0.00000   0.00369   0.00351   1.92638
   A20        1.95303  -0.00039   0.00000  -0.00391  -0.00385   1.94919
   A21        1.94345  -0.00113   0.00000  -0.00373  -0.00373   1.93972
   A22        1.85002  -0.00134   0.00000  -0.00172  -0.00168   1.84835
   A23        1.90871   0.00065   0.00000   0.00566   0.00575   1.91446
   A24        1.88279   0.00039   0.00000   0.00027   0.00024   1.88303
   A25        1.91822  -0.00121   0.00000  -0.00932  -0.00952   1.90870
   A26        1.92041   0.00057   0.00000   0.00178   0.00179   1.92220
   A27        1.93259   0.00011   0.00000   0.00138   0.00146   1.93405
   A28        1.90585   0.00047   0.00000  -0.00244  -0.00237   1.90347
   A29        1.92207   0.00008   0.00000   0.00352   0.00356   1.92563
   A30        1.86388   0.00003   0.00000   0.00548   0.00545   1.86933
   A31        1.91617   0.00132   0.00000  -0.00090  -0.00093   1.91524
   A32        1.93203  -0.00045   0.00000  -0.00262  -0.00259   1.92944
   A33        1.89496  -0.00116   0.00000  -0.00753  -0.00754   1.88743
   A34        1.92751  -0.00015   0.00000   0.00348   0.00348   1.93099
   A35        1.91617  -0.00002   0.00000   0.00390   0.00390   1.92007
   A36        1.87631   0.00041   0.00000   0.00362   0.00359   1.87989
   A37        1.93102   0.00164   0.00000   0.00825   0.00829   1.93932
   A38        1.93040  -0.00064   0.00000  -0.00641  -0.00647   1.92392
   A39        1.91961  -0.00253   0.00000  -0.01768  -0.01774   1.90187
   A40        1.86738  -0.00051   0.00000   0.00318   0.00319   1.87057
   A41        1.91677   0.00129   0.00000   0.01151   0.01156   1.92833
   A42        1.89773   0.00082   0.00000   0.00183   0.00168   1.89942
   A43        1.93485   0.00194   0.00000   0.00887   0.00885   1.94370
   A44        1.90166   0.00069   0.00000   0.00751   0.00755   1.90922
   A45        1.85550  -0.00118   0.00000  -0.00389  -0.00388   1.85162
   A46        1.93138  -0.00157   0.00000  -0.00946  -0.00949   1.92190
   A47        1.94585  -0.00044   0.00000  -0.00389  -0.00390   1.94195
   A48        1.89230   0.00060   0.00000   0.00128   0.00124   1.89354
   A49        1.97825  -0.00430   0.00000  -0.02486  -0.02480   1.95346
   A50        1.92904  -0.00108   0.00000  -0.00801  -0.00805   1.92099
   A51        1.92742  -0.00028   0.00000   0.00064   0.00065   1.92807
   A52        1.91972   0.00082   0.00000   0.00167   0.00166   1.92139
   A53        1.90890   0.00082   0.00000   0.00521   0.00524   1.91414
   A54        1.90370  -0.00019   0.00000  -0.00229  -0.00231   1.90140
   A55        1.87408  -0.00006   0.00000   0.00312   0.00311   1.87719
   A56        2.09819  -0.01394   0.00000  -0.05502  -0.05502   2.04316
   A57        1.90143  -0.00009   0.00000  -0.00560  -0.00570   1.89573
   A58        1.92593  -0.00053   0.00000  -0.00808  -0.00807   1.91786
   A59        1.91030   0.00000   0.00000   0.00308   0.00314   1.91344
   A60        1.91044   0.00029   0.00000   0.00235   0.00228   1.91272
   A61        1.93997   0.00026   0.00000   0.00600   0.00607   1.94605
   A62        1.87585   0.00006   0.00000   0.00225   0.00223   1.87807
   A63        2.02061  -0.00649   0.00000  -0.03681  -0.03690   1.98371
    D1        0.91793  -0.00030   0.00000   0.00288   0.00289   0.92081
    D2        3.05045   0.00011   0.00000   0.00492   0.00492   3.05538
    D3       -1.17700  -0.00035   0.00000   0.00326   0.00327  -1.17373
    D4        2.97275  -0.00003   0.00000   0.00483   0.00482   2.97757
    D5       -1.17791   0.00038   0.00000   0.00687   0.00686  -1.17105
    D6        0.87782  -0.00008   0.00000   0.00521   0.00521   0.88303
[...]
 1899669,-0.00038888,0.00007725,0.00010677,0.00107164,-0.00045122,0.001
 00861,-0.00024720,-0.00006594,-0.00001386,0.00015436,-0.00002316,0.000
 00394,-0.00062768,-0.00017608,0.00067162,0.00000208,0.00000038,0.00000
 022,0.00000068,0.00000230,-0.00000279,0.00004227,0.00004317,0.00000333
 ,0.00000737,-0.00000194,-0.00000335,-0.00000261,0.00000294,-0.00000578
 ,0.00000215,-0.00000050,-0.00000015,-0.00000805,-0.00000192,-0.0000022
 3,0.00007300,0.00005183,0.00013769,-0.00035232,0.00037149,0.00020522,0
 .00523599,0.00670053,-0.01440695,-0.05141744,-0.09367131,0.27330593,-0
 .00029057,0.00013021,-0.00020308,0.00000200,0.00000034,0.00000088,0.00
 002463,0.00004026,-0.00002852,0.00000176,-0.00000143,-0.00000372,0.000
 00005,-0.00000423,0.00000117,0.00088146,0.00040534,0.00131496,0.001864
 04,-0.00206972,0.00387756,-0.06686048,-0.02333077,0.04363457,-0.008923
 02,0.00336991,0.02134280,-0.00393365,-0.00978001,0.01607641,-0.0002097
 5,-0.00006209,-0.00011120,0.00000670,0.00001113,-0.00000134,-0.0000248
 2,0.00000060,-0.00000550,0.00010311,0.00008469,-0.00007955,-0.00000005
 ,-0.00000053,-0.00000005,-0.00000041,-0.00000027,0.00000016,-0.0000111
 6,-0.00001127,-0.00000437,-0.00000057,0.00000004,0.00000002,0.00000047
 ,-0.00000074,0.00000081,0.00000014,0.00000020,-0.00000019,-0.00000031,
 -0.00000004,0.00000007,0.00024120,0.00009713,-0.00025515,-0.00009634,0
 .00001541,-0.00034270,0.00010159,0.00010709,-0.00029107,0.00017087,0.0
 0016070,-0.00075938,0.06935835,0.00020925,-0.00048156,0.00019115,-0.00
 000028,-0.00000081,-0.00000006,0.00003120,-0.00000852,0.00002969,0.000
 00157,-0.00000033,-0.00000164,0.00000172,0.00000242,-0.00000006,0.0013
 0502,0.00100638,0.00046386,-0.00264215,0.00237051,-0.00369863,-0.02370
 724,-0.09200238,0.09434869,0.01469508,0.00345462,-0.02943622,-0.006967
 91,-0.01252006,0.02609613,0.00004263,0.00027220,0.00009711,-0.00000365
 ,-0.00000843,-0.00000299,-0.00000130,0.00000180,-0.00000051,0.00003622
 ,-0.00012640,0.00002315,-0.00000077,0.00000060,0.00000006,-0.00000002,
 0.00000017,0.00000019,0.00000382,0.00000818,0.00000545,-0.00000049,0.0
 0000044,0.00000014,0.00000103,0.,-0.00000055,-0.00000107,-0.00000002,-
 0.00000037,-0.00000064,-0.00000033,-0.00000002,0.00026680,0.00002588,-
 0.00035803,-0.00039535,0.00040608,-0.00062493,-0.00018620,-0.00003123,
 0.00005627,-0.00087288,-0.00000286,0.00100363,0.02330694,0.10235455,-0
 .00022500,-0.00046574,0.00006809,0.00000182,-0.00000017,-0.00000165,-0
 .00029313,-0.00014605,-0.00003010,-0.00002764,0.00001694,0.00004018,-0
 .00001327,0.00000214,-0.00000793,0.00019855,-0.00049450,0.00073374,-0.
 00347134,0.00141851,0.00054568,0.04691394,0.09165824,-0.23876628,0.014
 44303,-0.00688092,-0.02423852,-0.00230228,-0.00069205,0.00378635,0.000
 64631,0.00021828,0.00014045,0.00005448,0.00001529,0.00001082,0.0001578
 0,-0.00004443,0.00000985,-0.00005478,0.00006189,-0.00012549,0.00000594
 ,-0.00000248,0.00000045,0.00000290,0.00000146,-0.00000420,0.00002296,0
 .00003699,0.00000944,0.00000791,-0.00000446,-0.00000327,-0.00000201,0.
 00000244,-0.00000403,0.00000531,0.00000147,0.00000376,0.00001178,0.000
 00432,-0.00000351,0.00011824,0.00003652,0.00012837,0.00056363,-0.00009
 069,0.00004851,0.00004843,-0.00032888,0.00044206,0.00116897,-0.0003834
 5,0.00090415,-0.06064137,-0.09139243,0.26799963,0.00085054,0.00007808,
 -0.00008814,-0.00000569,-0.00000239,0.00000036,0.00041966,0.00008219,-
 0.00000686,0.00003791,-0.00002123,-0.00005953,0.00002374,0.00001140,0.
 00001452,-0.00048268,-0.00351190,0.00025621,0.00126570,0.00095219,0.00
 370916,-0.23363527,0.04061385,-0.11514911,-0.01924306,0.01058603,-0.00
 587847,-0.01352675,0.00250571,-0.00980718,-0.00060611,-0.00014981,-0.0
 0017330,-0.00006361,-0.00003093,-0.00001064,-0.00021026,0.00007951,0.0
 0000434,-0.00005335,0.00002907,0.00002969,-0.00000982,0.00000507,-0.00
 000019,-0.00000451,-0.00000120,0.00000677,-0.00004383,-0.00002987,0.00
 002123,-0.00001171,0.00000729,0.00000566,0.00000282,-0.00000275,0.0000
 0591,-0.00000709,-0.00000171,-0.00000601,-0.00001766,-0.00000691,0.000
 00543,-0.00090938,0.00036317,-0.00044700,0.00006824,0.00009230,-0.0001
 2129,-0.00083818,0.00024512,-0.00044668,0.00001502,0.00005400,-0.00028
 634,0.00820621,-0.00177235,0.00312505,0.25799792,0.00034899,-0.0012445
 7,-0.00030225,-0.00000661,-0.00000416,-0.00000318,0.00004424,-0.000108
 50,-0.00001263,0.00000208,0.00000375,-0.00001175,0.00000613,0.00002840
 ,0.00000756,-0.00255178,-0.00524109,0.00026132,0.00071293,-0.00230345,
 -0.00414436,0.03638990,-0.05712904,0.02539474,0.02798141,-0.01145413,0
 .01099060,-0.02440593,0.00734899,-0.01504563,0.00011688,0.00054739,0.0
 0015357,-0.00000026,-0.00002835,-0.00000134,-0.00001409,0.00003083,0.0
 0002454,-0.00002287,0.00009502,0.00006093,-0.00000417,0.00000408,0.000
 00029,-0.00000120,0.00000069,0.00000184,0.00003733,0.00002656,0.000054
 16,-0.00000356,0.00000288,0.00000211,-0.00000042,-0.00000072,0.0000012
 6,-0.00000032,-0.00000060,-0.00000197,-0.00000299,-0.00000192,0.000001
 35,-0.00177529,0.00042085,-0.00063873,0.00019622,0.00000578,-0.0000794
 9,0.00143856,-0.00022245,0.00035040,-0.00024204,0.00007826,-0.00007341
 ,0.01032512,-0.00146008,0.00746229,-0.05052703,0.06857033,0.00015331,-
 0.00060275,-0.00019635,-0.00000369,-0.00000296,-0.00000214,0.00004581,
 -0.00000909,0.00003131,0.00000063,0.00000039,-0.00000423,0.00000205,0.
 00001237,0.00000256,-0.00020840,-0.00144656,0.00097419,0.00166229,-0.0
 0190925,-0.00172120,-0.12494591,0.03150972,-0.12982473,0.02167858,-0.0
 0817615,0.01070038,-0.00129037,0.00188068,-0.00141215,0.00004581,0.000
 27995,0.00010776,0.00000277,-0.00001654,-0.00000013,-0.00000224,0.0000
 0721,0.00000974,-0.00000797,0.00001403,0.00002018,-0.00000219,0.000001
 90,0.,-0.00000009,0.00000042,0.00000078,0.00002759,0.00000876,0.000011
 35,-0.00000166,0.00000101,0.00000075,-0.00000064,-0.00000117,-0.000000
 66,-0.00000115,-0.00000040,-0.00000113,-0.00000099,-0.00000088,0.00000
 078,-0.00058289,0.00016632,0.00008872,0.00040258,-0.00009406,0.0003288
 6,0.00064557,-0.00033985,0.00049910,0.00015009,-0.00025368,0.00045268,
 -0.02294819,0.00461351,-0.01298467,0.12499201,-0.02500212,0.13222312,-
 0.00263127,-0.00180886,-0.00474999,-0.00000471,-0.00000030,0.00000513,
 0.00119955,0.00062081,0.00027883,0.00009054,-0.00005763,-0.00013424,0.
 00003469,-0.00000571,0.00003666,-0.01539887,0.02020514,0.01706757,-0.0
 0128611,-0.00031787,-0.00056691,0.01086508,-0.00955556,-0.01060024,-0.
 00035788,-0.00599383,-0.00155918,-0.11342458,0.08736382,0.07666651,-0.
 00252294,0.00220465,0.00030976,-0.00013247,-0.00004538,-0.00004540,-0.
 00049487,0.00005987,-0.00004494,0.00013012,-0.00025165,0.00008956,-0.0
 0001666,0.00000586,-0.00000083,-0.00000852,-0.00000480,0.00001332,-0.0
 0003732,-0.00010903,-0.00004203,-0.00002353,0.00001227,0.00000978,0.00
 001191,-0.00000794,0.00000639,-0.00001260,-0.00000219,-0.00001070,-0.0
 0003497,-0.00001319,0.00000967,0.00095476,-0.00068154,0.00057976,0.001
 32769,-0.00030451,-0.00013016,0.00021987,0.00006655,0.00015865,0.00021
 404,0.00002236,0.00004275,0.00058389,0.00069325,0.00049550,0.00023425,
 0.00112947,-0.00006961,0.12367227,0.00004259,0.00161485,0.00133018,0.0
 0000233,0.00000040,-0.00000129,-0.00041397,-0.00018267,-0.00006047,-0.
 00003553,0.00001945,0.00005249,-0.00001609,0.00000103,-0.00001476,0.00
 359559,-0.00477292,-0.00267054,-0.00169572,0.00105822,-0.00067637,0.01
 677967,-0.01417146,-0.01434936,-0.00229377,-0.00762594,-0.00198878,0.0
 8639106,-0.16522772,-0.09888776,0.00074824,-0.00019720,-0.00018168,0.0
 0005689,0.00001933,0.00001673,0.00018914,-0.00004632,0.00001104,0.0000
 5245,-0.00016250,-0.00024893,0.00000748,-0.00000255,0.,0.00000375,0.00
 000175,-0.00000554,0.00001795,0.00004021,0.00000264,0.00001003,-0.0000
 0538,-0.00000401,-0.00000345,0.00000375,-0.00000306,0.00000480,0.00000
 108,0.00000495,0.00001481,0.00000567,-0.00000382,0.00002621,0.00042393
 ,0.00033990,-0.00017226,0.00006142,-0.00005240,0.00019636,-0.00006042,
 0.00005026,0.00013997,-0.00006261,0.00015504,0.00024356,0.00082108,0.0
 0084235,-0.00029410,0.00078182,-0.00011251,-0.09634589,0.17770931,-0.0
 0211444,-0.00044715,-0.00141395,0.00000061,0.00000119,0.00000263,0.000
 28578,0.00022889,0.00008389,0.00001889,-0.00001453,-0.00003148,0.00000
 460,-0.00000793,0.00001230,-0.00900223,0.01264881,0.00917837,-0.000571
 53,0.00018960,-0.00044123,0.00223908,-0.00015398,-0.00349007,-0.000473
 24,-0.00201763,0.00116576,0.07694492,-0.10088135,-0.13198839,-0.001233
 34,0.00087089,0.00021195,-0.00002707,-0.00000847,-0.00001790,-0.000128
 78,-0.00000399,-0.00002608,-0.00009918,0.00021472,0.00037137,-0.000002
 13,-0.00000029,-0.00000030,-0.00000154,-0.00000148,0.00000273,-0.00001
 639,-0.00003278,-0.00002426,-0.00000428,0.00000188,0.00000171,0.000004
 78,-0.00000151,-0.00000002,0.00000015,0.00000017,-0.00000177,-0.000007
 25,-0.00000241,0.00000109,0.00086345,-0.00035316,0.00033124,0.00079233
 ,-0.00005439,0.00073146,0.00006770,-0.00000771,0.00000538,0.00015168,-
 0.00004058,0.00004263,-0.00028114,-0.00024207,0.00025009,-0.00014600,0
 .00009790,0.00001812,-0.08061721,0.10919553,0.14048268,0.00135664,-0.0
 0034080,-0.00096122,0.00000301,0.00000310,0.00000262,0.00012911,0.0000
 2845,-0.00000818,0.00000688,-0.00000025,-0.00001513,0.00000377,-0.0000
 1288,0.00000626,0.00430800,0.01259381,-0.02811583,-0.00051047,0.000151
 49,-0.00030613,-0.00599072,-0.00868371,0.01984371,0.00140171,0.0015308
 2,-0.00110504,-0.05528108,-0.01758637,0.03966809,-0.00039016,-0.000160
 19,0.00048797,-0.00000453,0.00002562,-0.00000069,-0.00002885,0.0000235
 2,0.00000898,-0.00022366,0.00007309,0.00043000,-0.00000053,-0.00000120
 ,-0.00000033,-0.00000007,-0.00000119,0.00000089,0.00004326,0.00000163,
 -0.00000403,-0.00000273,0.00000123,0.00000234,0.00000040,-0.00000103,0
 .00000070,0.00000197,0.00000099,-0.00000037,-0.00000509,-0.00000050,0.
 00000075,0.00136142,-0.00060564,0.00059093,-0.00497015,0.00195955,-0.0
 0226882,0.00010050,0.00005274,0.00001752,-0.00015352,-0.00001348,0.000
 13870,-0.00119963,-0.00405308,-0.00094801,0.00052583,0.00082083,0.0002
 5198,-0.00319270,-0.00723787,0.01335255,0.06268748,-0.00043947,-0.0000
 7745,0.00084286,0.00000272,0.00000026,0.00000037,-0.00001902,0.0000191
 1,0.00002393,-0.00000230,-0.00000028,0.00000542,0.00000179,-0.00000969
 ,-0.00000857,-0.00103986,-0.00331747,0.00584604,0.00009827,-0.00019228
 ,0.00001548,-0.00690512,-0.01406420,0.02613615,0.00086276,0.00302197,-
 0.00009122,-0.01631793,-0.09273807,0.09473847,0.00018751,0.00005216,-0
 .00025641,-0.00000603,0.00002894,0.00001057,0.00000713,-0.00001241,-0.
 00000587,0.00029199,-0.00019368,-0.00009951,0.00000060,-0.00000048,-0.
 00000008,0.00000033,-0.00000004,-0.00000070,-0.00001226,-0.00000710,-0
 .00000553,0.00000150,-0.00000049,-0.00000064,-0.00000016,-0.00000028,-
 0.00000036,-0.00000390,-0.00000022,-0.00000022,0.00000018,0.00000053,0
 .00000010,0.00015241,0.00040746,-0.00039186,0.00101177,0.00055664,0.00
 045532,0.00001296,-0.00001589,-0.00002254,-0.00007289,0.00011477,-0.00
 002896,-0.00302968,-0.00408101,-0.00084807,0.00062040,0.00121144,-0.00
 055226,0.00309527,0.00997006,-0.01918199,0.02146213,0.09935655,0.00100
 898,-0.00070013,-0.00008910,-0.00000340,-0.00000286,-0.00000160,0.0002
 5284,0.00003951,-0.00002930,0.00002189,-0.00000908,-0.00003780,0.00001
 205,0.00000958,0.00001423,0.00109705,0.00562655,-0.01365614,0.00006846
 ,-0.00006857,0.00013465,-0.00038525,-0.00316334,0.00341262,-0.00107973
 ,0.00105796,0.00126650,0.04073904,0.09649577,-0.25805811,-0.00046791,-
 0.00005960,0.00030991,-0.00003269,-0.00002584,-0.00000178,-0.00011940,
 0.00004953,0.00000869,-0.00019104,0.00042559,0.00053129,-0.00000542,0.
 00000291,0.00000014,-0.00000246,-0.00000100,0.00000394,0.00001788,-0.0
 0001311,0.00002415,-0.00000680,0.00000422,0.00000426,0.00000178,-0.000
 00168,0.00000311,-0.00000187,-0.00000019,-0.00000383,-0.00001032,-0.00
 000468,0.00000298,0.00001888,-0.00031875,0.00042711,-0.00288601,0.0006
 1687,0.00003016,0.00002312,0.00009081,0.00000019,0.00004373,-0.0000614
 8,-0.00016000,-0.00029713,-0.00116718,0.00103576,0.00047625,0.00047355
 ,0.00068827,0.00283085,0.00724133,-0.01545794,-0.04107676,-0.10658032,
 0.27962613,-0.00106427,-0.00008419,0.00100691,0.00153272,-0.00073907,-
 0.00061147,-0.00046248,0.00491811,0.00786446,0.00003016,0.00050359,-0.
 00066091,-0.00991862,-0.01765808,-0.02862095,-0.00011669,0.00018712,0.
 00032055,-0.00003629,-0.00006677,-0.00019104,-0.00004276,0.00002975,0.
 00002837,0.00010868,-0.00000612,0.00002288,0.00000676,-0.00003919,-0.0
 0001928,0.00019187,0.00069959,-0.00117858,-0.05567055,-0.02662042,-0.0
 4516682,0.00019800,0.00021667,-0.00032162,-0.00297258,-0.00046996,0.00
 091258,0.00032653,-0.00009848,0.00024519,-0.00003617,0.00019102,0.0004
 1012,-0.00010265,-0.00150701,0.00157530,0.00006805,-0.00003827,0.00014
 834,-0.00009433,0.00087434,-0.00044962,-0.00641727,-0.00146724,0.00017
 050,0.00136675,0.00023127,0.00053227,0.00004064,-0.00008221,-0.0000266
 7,-0.00009243,-0.00002261,-0.00004995,0.00000609,-0.00002356,-0.000002
 38,0.00004008,0.00005072,-0.00002461,0.00000219,0.00000141,-0.00000853
 ,0.00000693,-0.00000698,-0.00000216,0.00001931,-0.00000800,0.00000362,
 -0.00000223,0.00000563,-0.00001303,0.06949127,-0.00132631,0.00024073,-
 0.00065092,0.00044780,0.00011104,0.00081581,0.00320168,0.01071052,0.01
 566685,0.00089655,-0.00091684,0.00056458,-0.00249183,-0.00433230,-0.00
 648049,0.00004143,-0.00019133,0.00012990,0.00004930,0.00004047,0.00017
 808,0.00003477,-0.00001099,-0.00001330,-0.00001277,-0.00000407,0.00001
 577,0.00004710,0.00000070,-0.00002679,0.00159671,0.00145831,-0.0015754
 1,-0.02644125,-0.12192441,-0.11430948,-0.00006389,-0.00062450,-0.00087
 847,-0.00079181,0.00005340,0.00074216,-0.00004225,-0.00001474,-0.00002
 890,-0.00030544,0.00024228,-0.00025686,-0.00089532,-0.00115484,0.00251
 785,0.00006452,0.00017502,0.00015518,0.00126360,-0.00114180,0.00063060
 ,-0.00151906,0.00063667,0.00065151,0.00018421,-0.00008103,0.00007446,-
 0.00008027,0.00007305,0.00008226,-0.00000246,0.00013269,0.00004052,0.0
 0001924,-0.00002026,-0.00002763,-0.00006217,-0.00008153,-0.00000023,-0
 .00000083,-0.00000144,0.00000473,-0.00000423,0.00000287,0.00000391,-0.
 00000462,-0.00000050,0.00000446,-0.00000102,-0.00000891,0.00000156,0.0
 3234647,0.13016791,-0.00017027,-0.00005236,-0.00036890,-0.00056428,-0.
 00012424,0.00088631,-0.00394391,-0.01817437,-0.02486665,0.00000531,-0.
 00122162,-0.00096832,-0.00083911,0.00065783,0.00147454,-0.00003812,-0.
 00026932,0.00020102,0.00018975,0.00000024,0.00040850,0.00007343,-0.000
 03384,-0.00003940,-0.00008589,0.00004473,-0.00001595,0.00003693,0.0000
 6301,0.00003202,-0.00153776,-0.00027961,0.00284196,-0.04337262,-0.1113
 8617,-0.22781507,-0.00053834,0.00202442,0.00069031,0.00046059,-0.00022
 876,0.00083941,0.00003433,0.00011741,0.00002013,-0.00051958,0.00022562
 ,-0.00032031,0.00074701,0.00350690,-0.00314737,0.00016299,0.00020663,0
 .00038488,0.00029725,0.00056179,0.00062127,0.00065720,-0.00006952,0.00
 110072,-0.00054964,0.00001974,0.00035295,-0.00003655,0.00010331,-0.000
 01537,-0.00009967,0.00009911,0.00008957,0.00001969,-0.00001381,-0.0000
 2308,-0.00014359,-0.00012458,-0.00001545,0.00000130,-0.00000217,0.0000
 1128,-0.00000988,0.00000794,0.00000051,-0.00002563,0.00000940,-0.00000
 131,0.00000399,-0.00001123,0.00000052,0.04903113,0.12399444,0.24680114
 ,-0.00049063,-0.00035118,-0.00034081,-0.00562950,-0.00299109,-0.001277
 75,0.00355483,-0.00681436,-0.00192936,-0.00056080,-0.00118576,0.000295
 07,-0.01656490,0.02733231,0.00116240,-0.00052803,-0.00043056,0.0002671
 2,-0.00015001,0.00004055,0.00007245,0.00001324,-0.00006636,-0.00000362
 ,0.00000756,0.00001127,0.00001000,0.00001808,0.00005988,-0.00001562,-0
 .00026750,0.00064515,0.00044226,-0.12953945,0.12579345,-0.00106163,0.0
 0132912,-0.00081963,0.00127408,-0.00043136,-0.00067324,-0.00012641,-0.
 00109158,0.00164991,0.00026030,-0.00015998,0.00017502,0.00019584,0.000
 27427,0.00025554,-0.00036119,0.00009358,0.00011156,-0.00002066,0.00028
 299,-0.00002044,0.00015200,0.00116590,-0.00012632,-0.00048314,0.001547
 62,-0.00007598,0.00042827,-0.00083282,0.00004786,0.00074931,0.00001964
 ,0.00004367,-0.00006658,0.00002514,0.00003979,0.00000577,0.00002706,-0
 .00001437,0.00000069,0.00000210,0.00000944,-0.00000520,0.00001420,0.00
 001543,0.00000707,0.00002201,-0.00000622,-0.00000440,0.00002616,0.0000
 3325,-0.00003356,0.00359328,-0.00614784,0.00075393,0.14422979,0.000420
 12,-0.00093329,0.00046875,-0.00226863,0.00006333,0.00002101,0.01109084
 ,-0.01259448,-0.00434097,-0.00086481,0.00026629,0.00044858,-0.00584926
 ,0.00952114,0.00031050,-0.00006587,-0.00009813,-0.00015135,-0.00009765
 ,0.00015467,-0.00031714,0.00005218,-0.00008413,0.00006253,-0.00002100,
 -0.00002442,-0.00000235,-0.00003188,0.00021212,-0.00013705,-0.00197669
 ,-0.00023413,0.00115467,0.12583018,-0.23672510,0.00232805,0.00037765,-
 0.00168291,0.00281031,-0.00023581,-0.00040383,-0.00057104,-0.00033367,
 0.00036031,0.00002103,-0.00007049,0.00014025,0.00000850,-0.00029393,0.
 00104177,-0.00010545,0.00015051,0.00001854,0.00009507,0.00023019,0.000
 18620,0.00010432,0.00074162,0.00020668,-0.00004193,0.00073742,0.000559
 77,-0.00004539,-0.00000355,0.00051794,0.00022319,0.00020011,0.00012828
 ,-0.00004584,0.00002097,0.00003456,0.00001955,0.00009440,0.00009485,0.
 00001639,-0.00000709,0.00000056,-0.00000952,0.00003102,0.00003912,0.00
 002006,0.00003119,-0.00001515,-0.00000064,-0.00002980,-0.00001993,0.00
 004207,0.00868246,-0.01353617,0.00034907,-0.13654073,0.25280531,0.0003
 9631,0.00014302,0.00061079,0.00070434,0.00012949,0.00118685,-0.0175441
 8,0.02093728,0.00139711,0.00106901,-0.00105854,-0.00148041,0.00003942,
 -0.00045575,-0.00112305,0.00024058,0.00043286,0.00007578,0.00010927,-0
 .00009962,-0.00009298,-0.00006570,0.00009312,-0.00001762,0.00004328,0.
 00000363,-0.00000312,-0.00001769,-0.00017110,0.00006320,0.00069223,-0.
 00013073,-0.00040147,-0.00016071,-0.00010339,-0.04836494,-0.00103172,0
 .00568487,-0.00539431,0.00035408,-0.00005524,-0.00032422,0.00022011,-0
 .00018766,0.00011854,-0.00026231,0.00008898,-0.00004461,-0.00040485,-0
 .00053881,0.00100294,0.00001293,0.00009786,0.00028535,0.00019741,0.000
 22346,0.00030059,0.00011281,0.00033120,0.00015008,0.00006203,-0.000295
 25,0.00009182,0.00064010,-0.00019545,-0.00040422,-0.00009795,-0.000105
 06,0.00000633,-0.00001971,-0.00002550,-0.00000635,-0.00000380,0.000027
 11,-0.00001520,0.00000294,-0.00000120,0.00000100,-0.00001596,-0.000029
 49,-0.00001181,-0.00000362,0.00000943,0.00000130,0.00000256,0.00001163
 ,-0.00002901,0.01507542,-0.02202616,0.00084013,-0.00034664,-0.00273500
 ,0.05158152\\-0.00145985,0.00124784,0.00349871,0.00000274,0.00001095,0
 .00000169,0.00041769,0.00002672,-0.00301079,-0.00000748,0.00000234,0.0
 0000375,0.00000456,-0.00000467,-0.00000453,-0.00001194,0.00000639,0.00
 000143,0.00001172,0.00000235,-0.00000129,-0.00000016,-0.00000081,-0.00
 000730,-0.00000134,0.00000337,-0.00000143,0.00000909,0.00000443,0.0000
 0172,0.00189704,-0.00171337,-0.00410588,-0.00000522,-0.00000107,-0.000
 00055,-0.00085890,0.00042683,0.00361163,0.00000443,0.00000294,-0.00000
 315,-0.00000053,0.00000017,-0.00000190,-0.00000327,0.00000088,-0.00000
 051,0.00000110,0.00000547,0.00000404,-0.00000008,0.00000213,-0.0000008
 9,0.00000219,-0.00000231,0.00000012,-0.00000099,-0.00000150,0.00000275
 ,0.00000327,0.00000068,0.00000464,0.00000276,-0.00000414,0.00000070,0.
 00000024,-0.00000016,-0.00000010,-0.00000113,-0.00000036,0.00000166,-0
 .00000142,-0.00000336,0.00000051,0.00000079,0.00000055,0.00000238,-0.0
 0000111,-0.00000233,0.00000293,-0.00000253,-0.00000364,-0.00000063,-0.
 00000066,-0.00000142,0.00000222,0.00000128,0.00000173,-0.00000320,-0.0
 0000228,-0.00000662,0.00000124\\\@


 OPTIMIST - A PESSIMIST WHO LACKS EXPERIENCE
 Job cpu time:       0 days 13 hours 49 minutes 28.8 seconds.
 Elapsed time:       0 days  0 hours 51 minutes 51.9 seconds.
 File lengths (MBytes):  RWF=    686 Int=      0 D2E=      0 Chk=     33 Scr=      1
 Normal termination of Gaussian 16 at Mon Nov  5 01:01:26 2018.
