 Entering Gaussian System, Link 0=g16
 Initial command:
 /apps/gaussian/g16a03/g16/l1.exe "/jobfs/local/2011830.r-man2/Gau-25136.inp" -scrdir="/jobfs/local/2011830.r-man2/"
 Entering Link 1 = /apps/gaussian/g16a03/g16/l1.exe PID=     25137.
  
 Copyright (c) 1988,1990,1992,1993,1995,1998,2003,2009,2016,
            Gaussian, Inc.  All Rights Reserved.
  
 This is part of the Gaussian(R) 16 program.  It is based on
 the Gaussian(R) 09 system (copyright 2009, Gaussian, Inc.),
 the Gaussian(R) 03 system (copyright 2003, Gaussian, Inc.),
 the Gaussian(R) 98 system (copyright 1998, Gaussian, Inc.),
 the Gaussian(R) 94 system (copyright 1995, Gaussian, Inc.),
 the Gaussian 92(TM) system (copyright 1992, Gaussian, Inc.),
 the Gaussian 90(TM) system (copyright 1990, Gaussian, Inc.),
 the Gaussian 88(TM) system (copyright 1988, Gaussian, Inc.),
 the Gaussian 86(TM) system (copyright 1986, Carnegie Mellon
 University), and the Gaussian 82(TM) system (copyright 1983,
 Carnegie Mellon University). Gaussian is a federally registered
 trademark of Gaussian, Inc.
  
 This software contains proprietary and confidential information,
 including trade secrets, belonging to Gaussian, Inc.
  
 This software is provided under written license and may be
 used, copied, transmitted, or stored only in accord with that
 written license.
  
 The following legend is applicable only to US Government
 contracts under FAR:
  
                    RESTRICTED RIGHTS LEGEND
  
 Use, reproduction and disclosure by the US Government is
 subject to restrictions as set forth in subparagraphs (a)
 and (c) of the Commercial Computer Software - Restricted
 Rights clause in FAR 52.227-19.
  
 Gaussian, Inc.
 340 Quinnipiac St., Bldg. 40, Wallingford CT 06492
  
  
 ---------------------------------------------------------------
 Warning -- This program may not be used in any manner that
 competes with the business of Gaussian, Inc. or will provide
 assistance to any competitor of Gaussian, Inc.  The licensee
 of this program is prohibited from giving any competitor of
 Gaussian, Inc. access to this program.  By using this program,
 the user acknowledges that Gaussian, Inc. is engaged in the
 business of creating and licensing software in the field of
 computational chemistry and represents and warrants to the
 licensee that it is not a competitor of Gaussian, Inc. and that
 it will not use this program in any manner prohibited above.
 ---------------------------------------------------------------
  

 Cite this work as:
 Gaussian 16, Revision A.03,
 M. J. Frisch, G. W. Trucks, H. B. Schlegel, G. E. Scuseria, 
 M. A. Robb, J. R. Cheeseman, G. Scalmani, V. Barone, 
 G. A. Petersson, H. Nakatsuji, X. Li, M. Caricato, A. V. Marenich, 
 J. Bloino, B. G. Janesko, R. Gomperts, B. Mennucci, H. P. Hratchian, 
 J. V. Ortiz, A. F. Izmaylov, J. L. Sonnenberg, D. Williams-Young, 
 F. Ding, F. Lipparini, F. Egidi, J. Goings, B. Peng, A. Petrone, 
 T. Henderson, D. Ranasinghe, V. G. Zakrzewski, J. Gao, N. Rega, 
 G. Zheng, W. Liang, M. Hada, M. Ehara, K. Toyota, R. Fukuda, 
 J. Hasegawa, M. Ishida, T. Nakajima, Y. Honda, O. Kitao, H. Nakai, 
 T. Vreven, K. Throssell, J. A. Montgomery, Jr., J. E. Peralta, 
 F. Ogliaro, M. J. Bearpark, J. J. Heyd, E. N. Brothers, K. N. Kudin, 
 V. N. Staroverov, T. A. Keith, R. Kobayashi, J. Normand, 
 K. Raghavachari, A. P. Rendell, J. C. Burant, S. S. Iyengar, 
 J. Tomasi, M. Cossi, J. M. Millam, M. Klene, C. Adamo, R. Cammi, 
 J. W. Ochterski, R. L. Martin, K. Morokuma, O. Farkas, 
 J. B. Foresman, and D. J. Fox, Gaussian, Inc., Wallingford CT, 2016.
 
 ******************************************
 Gaussian 16:  ES64L-G16RevA.03 25-Dec-2016
                 4-Nov-2018 
 ******************************************
 %mem=6000mb
 %nproc=24
 Will use up to   24 processors via shared memory.
 %chk=2SO_1_e4_D_PHI.inp_extract_1.chk
 ----------------------------------------------------------------------
 #M062X/6-311++G(2d,2p) opt=ModRedundant freq=noraman SCRF=(Solvent=Wat
 er)
 ----------------------------------------------------------------------
 1/18=120,19=15,26=3,38=1/1,3;
 2/9=110,12=2,17=6,18=5,40=1/2;
 3/5=4,6=6,7=1212,11=2,25=1,30=1,70=2201,71=1,72=1,74=-55/1,2,3;
 4//1;
 5/5=2,38=5,53=1/2;
 6/7=2,8=2,9=2,10=2,28=1/1;
 7//1,2,3,16;
 1/18=20,19=15,26=3/3(2);
 2/9=110/2;
 99//99;
 2/9=110/2;
 3/5=4,6=6,7=1212,11=2,25=1,30=1,70=2205,71=1,72=1,74=-55/1,2,3;
 4/5=5,16=3,69=1/1;
 5/5=2,38=5,53=1/2;
 7//1,2,3,16;
 1/18=20,19=15,26=3/3(-5);
 2/9=110/2;
 6/7=2,8=2,9=2,10=2,19=2,28=1/1;
 99/9=1/99;
 ----------------------------
 2SO_1_e4_D_PHI.inp_extract_1
 ----------------------------
 Symbolic Z-matrix:
 Charge =  0 Multiplicity = 1
 C                     1.11292  -0.19485  -0.13395 
 C                    -3.79641   0.80204   0.03781 
 C                    -1.23886  -0.64679  -0.31432 
 C                    -2.39218   1.40912   0.00549 
 C                    -3.71729  -0.73306  -0.04948 
 C                     1.62907   1.07669   0.52584 
 C                     2.13384  -1.3173    0.00619 
 C                     3.94227   0.19788   0.12418 
 O                     3.38211  -0.92963  -0.52543 
 C                     3.02849   1.4065    0.00005 
 O                    -0.08832  -0.62741   0.48152 
 C                    -2.38308  -1.22356   0.50987 
 O                    -1.53682   0.62916  -0.81577 
 H                     0.93771  -0.01491  -1.18804 
 H                    -4.39071   1.19097  -0.78269 
 H                    -4.28346   1.10849   0.95906 
 H                    -1.04823  -1.25061  -1.19206 
 H                    -2.39447   2.40316  -0.41818 
 H                    -1.97066   1.47381   1.00209 
 H                    -3.80542  -1.04925  -1.08502 
 H                    -4.54099  -1.18994   0.48803 
 H                     0.94322   1.89764   0.34404 
 H                     1.66978   0.91612   1.60103 
 H                     1.81557  -2.19407  -0.54138 
 H                     2.24711  -1.58429   1.05459 
 H                     4.11483  -0.04607   1.17008 
 H                     4.89915   0.37535  -0.34735 
 H                     3.45572   2.2383    0.55211 
 H                     2.97277   1.70388  -1.04422 
 H                    -2.27508  -0.91003   1.54377 
 H                    -2.31529  -2.30546   0.49148 
 
 The following ModRedundant input section has been read:
 D      13       3      11       1 F                                           
 

 GradGradGradGradGradGradGradGradGradGradGradGradGradGradGradGradGradGrad
 Berny optimization.
 Initialization pass.
                           ----------------------------
                           !    Initial Parameters    !
                           ! (Angstroms and Degrees)  !
 --------------------------                            --------------------------
 ! Name  Definition              Value          Derivative Info.                !
 --------------------------------------------------------------------------------
 ! R1    R(1,6)                  1.5227         estimate D2E/DX2                !
 ! R2    R(1,7)                  1.5237         estimate D2E/DX2                !
 ! R3    R(1,11)                 1.4174         estimate D2E/DX2                !
 ! R4    R(1,14)                 1.0836         estimate D2E/DX2                !
 ! R5    R(2,4)                  1.5302         estimate D2E/DX2                !
 ! R6    R(2,5)                  1.5396         estimate D2E/DX2                !
 ! R7    R(2,15)                 1.0852         estimate D2E/DX2                !
 ! R8    R(2,16)                 1.0862         estimate D2E/DX2                !
 ! R9    R(3,11)                 1.3991         estimate D2E/DX2                !
 ! R10   R(3,12)                 1.5236         estimate D2E/DX2                !
 ! R11   R(3,13)                 1.403          estimate D2E/DX2                !
 ! R12   R(3,17)                 1.0823         estimate D2E/DX2                !
 ! R13   R(4,13)                 1.4193         estimate D2E/DX2                !
 ! R14   R(4,18)                 1.0806         estimate D2E/DX2                !
 ! R15   R(4,19)                 1.084          estimate D2E/DX2                !
 ! R16   R(5,12)                 1.5276         estimate D2E/DX2                !
 ! R17   R(5,20)                 1.0863         estimate D2E/DX2                !
 ! R18   R(5,21)                 1.0845         estimate D2E/DX2                !
 ! R19   R(6,10)                 1.5309         estimate D2E/DX2                !
 ! R20   R(6,22)                 1.0851         estimate D2E/DX2                !
 ! R21   R(6,23)                 1.0879         estimate D2E/DX2                !
 ! R22   R(7,9)                  1.4111         estimate D2E/DX2                !
 ! R23   R(7,24)                 1.0816         estimate D2E/DX2                !
 ! R24   R(7,25)                 1.0878         estimate D2E/DX2                !
 ! R25   R(8,9)                  1.4167         estimate D2E/DX2                !
 ! R26   R(8,10)                 1.5203         estimate D2E/DX2                !
 ! R27   R(8,26)                 1.0877         estimate D2E/DX2                !
 ! R28   R(8,27)                 1.0814         estimate D2E/DX2                !
 ! R29   R(10,28)                1.0859         estimate D2E/DX2                !
 ! R30   R(10,29)                1.0872         estimate D2E/DX2                !
 ! R31   R(12,30)                1.0858         estimate D2E/DX2                !
 ! R32   R(12,31)                1.0842         estimate D2E/DX2                !
 ! A1    A(6,1,7)              110.376          estimate D2E/DX2                !
 ! A2    A(6,1,11)             110.7312         estimate D2E/DX2                !
 ! A3    A(6,1,14)             109.7341         estimate D2E/DX2                !
 ! A4    A(7,1,11)             107.6437         estimate D2E/DX2                !
 ! A5    A(7,1,14)             108.6704         estimate D2E/DX2                !
 ! A6    A(11,1,14)            109.636          estimate D2E/DX2                !
 ! A7    A(4,2,5)              110.3172         estimate D2E/DX2                !
 ! A8    A(4,2,15)             110.1453         estimate D2E/DX2                !
 ! A9    A(4,2,16)             108.5101         estimate D2E/DX2                !
 ! A10   A(5,2,15)             110.0363         estimate D2E/DX2                !
 ! A11   A(5,2,16)             110.6363         estimate D2E/DX2                !
 ! A12   A(15,2,16)            107.1327         estimate D2E/DX2                !
 ! A13   A(11,3,12)            108.3686         estimate D2E/DX2                !
 ! A14   A(11,3,13)            111.4297         estimate D2E/DX2                !
 ! A15   A(11,3,17)            108.9172         estimate D2E/DX2                !
 ! A16   A(12,3,13)            112.2193         estimate D2E/DX2                !
 ! A17   A(12,3,17)            111.0878         estimate D2E/DX2                !
 ! A18   A(13,3,17)            104.77           estimate D2E/DX2                !
 ! A19   A(2,4,13)             110.3199         estimate D2E/DX2                !
 ! A20   A(2,4,18)             111.7965         estimate D2E/DX2                !
 ! A21   A(2,4,19)             111.1681         estimate D2E/DX2                !
 ! A22   A(13,4,18)            106.2564         estimate D2E/DX2                !
 ! A23   A(13,4,19)            109.2943         estimate D2E/DX2                !
 ! A24   A(18,4,19)            107.8413         estimate D2E/DX2                !
 ! A25   A(2,5,12)             110.1374         estimate D2E/DX2                !
 ! A26   A(2,5,20)             109.8825         estimate D2E/DX2                !
 ! A27   A(2,5,21)             110.6654         estimate D2E/DX2                !
 ! A28   A(12,5,20)            109.0534         estimate D2E/DX2                !
 ! A29   A(12,5,21)            110.2805         estimate D2E/DX2                !
 ! A30   A(20,5,21)            106.7515         estimate D2E/DX2                !
 ! A31   A(1,6,10)             109.9342         estimate D2E/DX2                !
 ! A32   A(1,6,22)             110.1782         estimate D2E/DX2                !
 ! A33   A(1,6,23)             108.5227         estimate D2E/DX2                !
 ! A34   A(10,6,22)            110.932          estimate D2E/DX2                !
 ! A35   A(10,6,23)            109.6966         estimate D2E/DX2                !
 ! A36   A(22,6,23)            107.513          estimate D2E/DX2                !
 ! A37   A(1,7,9)              110.8351         estimate D2E/DX2                !
 ! A38   A(1,7,24)             110.6968         estimate D2E/DX2                !
 ! A39   A(1,7,25)             109.829          estimate D2E/DX2                !
 ! A40   A(9,7,24)             106.9942         estimate D2E/DX2                !
 ! A41   A(9,7,25)             109.7817         estimate D2E/DX2                !
 ! A42   A(24,7,25)            108.6393         estimate D2E/DX2                !
 ! A43   A(9,8,10)             110.954          estimate D2E/DX2                !
 ! A44   A(9,8,26)             108.9735         estimate D2E/DX2                !
 ! A45   A(9,8,27)             106.2925         estimate D2E/DX2                !
 ! A46   A(10,8,26)            110.6196         estimate D2E/DX2                !
 ! A47   A(10,8,27)            111.4556         estimate D2E/DX2                !
 ! A48   A(26,8,27)            108.4026         estimate D2E/DX2                !
 ! A49   A(7,9,8)              113.3081         estimate D2E/DX2                !
 ! A50   A(6,10,8)             110.496          estimate D2E/DX2                !
 ! A51   A(6,10,28)            110.4909         estimate D2E/DX2                !
 ! A52   A(6,10,29)            109.9972         estimate D2E/DX2                !
 ! A53   A(8,10,28)            109.3284         estimate D2E/DX2                !
 ! A54   A(8,10,29)            109.0679         estimate D2E/DX2                !
 ! A55   A(28,10,29)           107.3941         estimate D2E/DX2                !
 ! A56   A(1,11,3)             117.0124         estimate D2E/DX2                !
 ! A57   A(3,12,5)             109.6518         estimate D2E/DX2                !
 ! A58   A(3,12,30)            109.3353         estimate D2E/DX2                !
 ! A59   A(3,12,31)            108.7621         estimate D2E/DX2                !
 ! A60   A(5,12,30)            110.0492         estimate D2E/DX2                !
 ! A61   A(5,12,31)            111.6427         estimate D2E/DX2                !
 ! A62   A(30,12,31)           107.3431         estimate D2E/DX2                !
 ! A63   A(3,13,4)             114.8952         estimate D2E/DX2                !
 ! D1    D(7,1,6,10)            52.1373         estimate D2E/DX2                !
 ! D2    D(7,1,6,22)           174.6957         estimate D2E/DX2                !
 ! D3    D(7,1,6,23)           -67.8372         estimate D2E/DX2                !
 ! D4    D(11,1,6,10)          171.2344         estimate D2E/DX2                !
 ! D5    D(11,1,6,22)          -66.2072         estimate D2E/DX2                !
 ! D6    D(11,1,6,23)           51.2599         estimate D2E/DX2                !
 ! D7    D(14,1,6,10)          -67.6008         estimate D2E/DX2                !
 ! D8    D(14,1,6,22)           54.9576         estimate D2E/DX2                !
 ! D9    D(14,1,6,23)          172.4247         estimate D2E/DX2                !
 ! D10   D(6,1,7,9)            -56.0039         estimate D2E/DX2                !
 ! D11   D(6,1,7,24)          -174.5639         estimate D2E/DX2                !
 ! D12   D(6,1,7,25)            65.474          estimate D2E/DX2                !
 ! D13   D(11,1,7,9)          -176.9602         estimate D2E/DX2                !
 ! D14   D(11,1,7,24)           64.4797         estimate D2E/DX2                !
 ! D15   D(11,1,7,25)          -55.4824         estimate D2E/DX2                !
 ! D16   D(14,1,7,9)            64.3744         estimate D2E/DX2                !
 ! D17   D(14,1,7,24)          -54.1857         estimate D2E/DX2                !
 ! D18   D(14,1,7,25)         -174.1477         estimate D2E/DX2                !
 ! D19   D(6,1,11,3)           116.8263         estimate D2E/DX2                !
 ! D20   D(7,1,11,3)          -122.4404         estimate D2E/DX2                !
 ! D21   D(14,1,11,3)           -4.3964         estimate D2E/DX2                !
 ! D22   D(5,2,4,13)            33.6259         estimate D2E/DX2                !
 ! D23   D(5,2,4,18)           151.6332         estimate D2E/DX2                !
 ! D24   D(5,2,4,19)           -87.7894         estimate D2E/DX2                !
 ! D25   D(15,2,4,13)          -88.0409         estimate D2E/DX2                !
 ! D26   D(15,2,4,18)           29.9664         estimate D2E/DX2                !
 ! D27   D(15,2,4,19)          150.5438         estimate D2E/DX2                !
 ! D28   D(16,2,4,13)          154.9767         estimate D2E/DX2                !
 ! D29   D(16,2,4,18)          -87.0161         estimate D2E/DX2                !
 ! D30   D(16,2,4,19)           33.5614         estimate D2E/DX2                !
 ! D31   D(4,2,5,12)            26.7948         estimate D2E/DX2                !
 ! D32   D(4,2,5,20)           -93.3612         estimate D2E/DX2                !
 ! D33   D(4,2,5,21)           148.9951         estimate D2E/DX2                !
 ! D34   D(15,2,5,12)          148.5261         estimate D2E/DX2                !
 ! D35   D(15,2,5,20)           28.3701         estimate D2E/DX2                !
 ! D36   D(15,2,5,21)          -89.2736         estimate D2E/DX2                !
 ! D37   D(16,2,5,12)          -93.2834         estimate D2E/DX2                !
 ! D38   D(16,2,5,20)          146.5606         estimate D2E/DX2                !
 ! D39   D(16,2,5,21)           28.9169         estimate D2E/DX2                !
 ! D40   D(12,3,11,1)          176.3804         estimate D2E/DX2                !
 ! D41   D(13,3,11,1)          -59.6763         Frozen                          !
 ! D42   D(17,3,11,1)           55.4125         estimate D2E/DX2                !
 ! D43   D(11,3,12,5)          155.9352         estimate D2E/DX2                !
 ! D44   D(11,3,12,30)          35.1986         estimate D2E/DX2                !
 ! D45   D(11,3,12,31)         -81.727          estimate D2E/DX2                !
 ! D46   D(13,3,12,5)           32.4659         estimate D2E/DX2                !
 ! D47   D(13,3,12,30)         -88.2708         estimate D2E/DX2                !
 ! D48   D(13,3,12,31)         154.8037         estimate D2E/DX2                !
 ! D49   D(17,3,12,5)          -84.4497         estimate D2E/DX2                !
 ! D50   D(17,3,12,30)         154.8137         estimate D2E/DX2                !
 ! D51   D(17,3,12,31)          37.8881         estimate D2E/DX2                !
 ! D52   D(11,3,13,4)          -90.3421         estimate D2E/DX2                !
 ! D53   D(12,3,13,4)           31.3946         estimate D2E/DX2                !
 ! D54   D(17,3,13,4)          152.0343         estimate D2E/DX2                !
 ! D55   D(2,4,13,3)           -67.9269         estimate D2E/DX2                !
 ! D56   D(18,4,13,3)          170.7126         estimate D2E/DX2                !
 ! D57   D(19,4,13,3)           54.595          estimate D2E/DX2                !
 ! D58   D(2,5,12,3)           -61.3467         estimate D2E/DX2                !
 ! D59   D(2,5,12,30)           58.9564         estimate D2E/DX2                !
 ! D60   D(2,5,12,31)          178.0474         estimate D2E/DX2                !
 ! D61   D(20,5,12,3)           59.3087         estimate D2E/DX2                !
 ! D62   D(20,5,12,30)         179.6119         estimate D2E/DX2                !
 ! D63   D(20,5,12,31)         -61.2972         estimate D2E/DX2                !
 ! D64   D(21,5,12,3)          176.2259         estimate D2E/DX2                !
 ! D65   D(21,5,12,30)         -63.4709         estimate D2E/DX2                !
 ! D66   D(21,5,12,31)          55.62           estimate D2E/DX2                !
 ! D67   D(1,6,10,8)           -51.8343         estimate D2E/DX2                !
 ! D68   D(1,6,10,28)         -172.9596         estimate D2E/DX2                !
 ! D69   D(1,6,10,29)           68.6416         estimate D2E/DX2                !
 ! D70   D(22,6,10,8)         -173.9462         estimate D2E/DX2                !
 ! D71   D(22,6,10,28)          64.9285         estimate D2E/DX2                !
 ! D72   D(22,6,10,29)         -53.4703         estimate D2E/DX2                !
 ! D73   D(23,6,10,8)           67.4247         estimate D2E/DX2                !
 ! D74   D(23,6,10,28)         -53.7005         estimate D2E/DX2                !
 ! D75   D(23,6,10,29)        -172.0993         estimate D2E/DX2                !
 ! D76   D(1,7,9,8)             60.7112         estimate D2E/DX2                !
 ! D77   D(24,7,9,8)          -178.51           estimate D2E/DX2                !
 ! D78   D(25,7,9,8)           -60.7945         estimate D2E/DX2                !
 ! D79   D(10,8,9,7)           -60.3676         estimate D2E/DX2                !
 ! D80   D(26,8,9,7)            61.6666         estimate D2E/DX2                !
 ! D81   D(27,8,9,7)           178.3003         estimate D2E/DX2                !
 ! D82   D(9,8,10,6)            55.0886         estimate D2E/DX2                !
 ! D83   D(9,8,10,28)          176.9017         estimate D2E/DX2                !
 ! D84   D(9,8,10,29)          -65.9414         estimate D2E/DX2                !
 ! D85   D(26,8,10,6)          -65.9807         estimate D2E/DX2                !
 ! D86   D(26,8,10,28)          55.8325         estimate D2E/DX2                !
 ! D87   D(26,8,10,29)         172.9893         estimate D2E/DX2                !
 ! D88   D(27,8,10,6)          173.3359         estimate D2E/DX2                !
 ! D89   D(27,8,10,28)         -64.8509         estimate D2E/DX2                !
 ! D90   D(27,8,10,29)          52.3059         estimate D2E/DX2                !
 --------------------------------------------------------------------------------
 Trust Radius=3.00D-01 FncErr=1.00D-07 GrdErr=1.00D-06 EigMax=2.50D+02 EigMin=1.00D-04
 Number of steps in this run=    186 maximum allowed number of steps=    186.
 GradGradGradGradGradGradGradGradGradGradGradGradGradGradGradGradGradGrad

                          Input orientation:                          
 ---------------------------------------------------------------------
 Center     Atomic      Atomic             Coordinates (Angstroms)
 Number     Number       Type             X           Y           Z
 ---------------------------------------------------------------------
      1          6           0        1.112925   -0.194848   -0.133946
      2          6           0       -3.796408    0.802036    0.037811
      3          6           0       -1.238857   -0.646793   -0.314320
      4          6           0       -2.392181    1.409115    0.005486
      5          6           0       -3.717289   -0.733061   -0.049483
      6          6           0        1.629068    1.076693    0.525843
      7          6           0        2.133842   -1.317295    0.006194
      8          6           0        3.942272    0.197877    0.124182
      9          8           0        3.382110   -0.929631   -0.525431
     10          6           0        3.028486    1.406495    0.000050
     11          8           0       -0.088321   -0.627409    0.481517
     12          6           0       -2.383081   -1.223564    0.509874
     13          8           0       -1.536818    0.629164   -0.815771
     14          1           0        0.937710   -0.014914   -1.188040
     15          1           0       -4.390712    1.190968   -0.782690
     16          1           0       -4.283455    1.108486    0.959064
     17          1           0       -1.048228   -1.250613   -1.192060
     18          1           0       -2.394468    2.403162   -0.418179
     19          1           0       -1.970656    1.473810    1.002086
     20          1           0       -3.805422   -1.049251   -1.085023
     21          1           0       -4.540994   -1.189936    0.488025
     22          1           0        0.943219    1.897637    0.344044
     23          1           0        1.669783    0.916117    1.601029
     24          1           0        1.815574   -2.194071   -0.541382
     25          1           0        2.247109   -1.584288    1.054593
     26          1           0        4.114828   -0.046073    1.170078
     27          1           0        4.899151    0.375352   -0.347346
     28          1           0        3.455718    2.238298    0.552113
     29          1           0        2.972772    1.703883   -1.044219
     30          1           0       -2.275077   -0.910029    1.543765
     31          1           0       -2.315291   -2.305458    0.491483
 ---------------------------------------------------------------------
                    Distance matrix (angstroms):
                    1          2          3          4          5
     1  C    0.000000
     2  C    5.012467   0.000000
     3  C    2.401597   2.960434   0.000000
     4  C    3.857189   1.530178   2.378905   0.000000
     5  C    4.860841   1.539611   2.494034   2.519494   0.000000
     6  C    1.522676   5.454301   3.449822   4.068380   5.673601
     7  C    1.523745   6.297653   3.453607   5.283767   5.880490
     8  C    2.868112   7.762708   5.267813   6.450309   7.717881
     9  O    2.417099   7.405878   4.634426   6.252523   7.118050
    10  C    2.500326   6.851713   4.746055   5.420670   7.077120
    11  O    1.417355   3.998762   1.399094   3.111560   3.669132
    12  C    3.700651   2.514636   1.523551   2.680576   1.527607
    13  O    2.857450   2.421618   1.402961   1.419307   2.682780
    14  H    1.083601   4.958023   2.429012   3.813206   4.845726
    15  H    5.712388   1.085213   3.678441   2.159383   2.166328
    16  H    5.658115   1.086201   3.737926   2.139300   2.174628
    17  H    2.627704   3.643960   1.082296   3.211616   2.949106
    18  H    4.374043   2.176457   3.263196   1.080568   3.423695
    19  H    3.685575   2.171285   2.601040   1.084011   3.004464
    20  H    5.081800   2.165202   2.709836   3.038095   1.086318
    21  H    5.774413   2.173719   3.441347   3.406656   1.084500
    22  H    2.153083   4.874237   3.415995   3.387945   5.366169
    23  H    2.134121   5.686467   3.817255   4.391851   5.870649
    24  H    2.157919   6.387994   3.431498   5.566616   5.743613
    25  H    2.151637   6.576662   3.860671   5.619973   6.125162
    26  H    3.276284   8.036726   5.588045   6.768679   7.956214
    27  H    3.834863   8.714537   6.222621   7.372698   8.692545
    28  H    3.446673   7.410849   5.577947   5.931633   7.787357
    29  H    2.809414   6.914182   4.878140   5.474622   7.189236
    30  H    3.847695   2.741079   2.143718   2.785398   2.156324
    31  H    4.074126   3.472182   2.135228   3.747020   2.175011
                    6          7          8          9         10
     6  C    0.000000
     7  C    2.501202   0.000000
     8  C    2.506903   2.362221   0.000000
     9  O    2.864205   1.411057   1.416705   0.000000
    10  C    1.530882   2.866960   1.520254   2.420468   0.000000
    11  O    2.419784   2.374844   4.129705   3.626179   3.752741
    12  C    4.624800   4.545885   6.494563   5.864783   6.038393
    13  O    3.467426   4.235336   5.575836   5.168171   4.702319
    14  H    2.146387   2.133805   3.285514   2.692740   2.793440
    15  H    6.161418   7.034453   8.440810   8.061010   7.463487
    16  H    5.928458   6.926332   8.317982   8.069606   7.380583
    17  H    3.941505   3.400857   5.360570   4.491694   5.010084
    18  H    4.340454   5.876009   6.731397   6.669922   5.529619
    19  H    3.652742   5.062506   6.112400   6.063163   5.099022
    20  H    6.053776   6.044622   7.940042   7.210275   7.342368
    21  H    6.573333   6.693416   8.603732   7.991898   8.017269
    22  H    1.085075   3.444926   3.454250   3.833748   2.169767
    23  H    1.087873   2.783339   2.803775   3.295555   2.156311
    24  H    3.445526   1.081605   3.269134   2.013231   3.837757
    25  H    2.782512   1.087775   2.629706   2.052627   3.266098
    26  H    2.802614   2.625821   1.087743   2.047511   2.158485
    27  H    3.456556   3.261438   1.081413   2.009007   2.164100
    28  H    2.164871   3.832444   2.140836   3.346983   1.085908
    29  H    2.159630   3.306764   2.138491   2.715160   1.087217
    30  H    4.497286   4.687063   6.472874   6.023763   5.989751
    31  H    5.195969   4.583313   6.749718   5.948730   6.525033
                   11         12         13         14         15
    11  O    0.000000
    12  C    2.371103   0.000000
    13  O    2.315184   2.430246   0.000000
    14  H    2.053122   3.920638   2.583933   0.000000
    15  H    4.838934   3.395772   2.908854   5.478188   0.000000
    16  H    4.565143   3.041653   3.305118   5.756097   1.747002
    17  H    2.027477   2.163133   1.978352   2.338999   4.159459
    18  H    3.913071   3.743602   2.010152   4.188459   2.363741
    19  H    2.868675   2.772759   2.050914   3.933388   3.020281
    20  H    4.055717   2.144093   2.834808   4.855694   2.335070
    21  H    4.488070   2.158286   3.746209   5.848595   2.702962
    22  H    2.731086   4.564391   3.017412   2.450543   5.497248
    23  H    2.593590   4.711110   4.025612   3.030125   6.518225
    24  H    2.669376   4.435733   4.391409   2.436706   7.073521
    25  H    2.588101   4.676056   4.766103   3.034281   7.425518
    26  H    4.298666   6.636654   6.028320   3.956737   8.814067
    27  H    5.154359   7.504816   6.457983   4.068426   9.335754
    28  H    4.558231   6.788066   5.420870   3.800718   8.027768
    29  H    4.139213   6.298437   4.641510   2.667663   7.385958
    30  H    2.447478   1.085771   2.912310   4.311147   3.781864
    31  H    2.788430   1.084172   3.305592   4.318496   4.260972
                   16         17         18         19         20
    16  H    0.000000
    17  H    4.545259   0.000000
    18  H    2.672313   3.970054   0.000000
    19  H    2.341869   3.617683   1.749418   0.000000
    20  H    3.010421   2.766608   3.788750   3.753429   0.000000
    21  H    2.360286   3.876310   4.282421   3.737170   1.742222
    22  H    5.321572   4.029510   3.460736   3.017170   5.768533
    23  H    5.990840   4.459109   4.775630   3.731293   6.407450
    24  H    7.096223   3.084616   6.234917   5.492830   5.762096
    25  H    7.064589   4.002254   6.293890   5.210016   6.441844
    26  H    8.479899   5.804116   7.133880   6.274662   8.295915
    27  H    9.304002   6.223232   7.570595   7.086736   8.851172
    28  H    7.831787   5.958202   5.932396   5.498405   8.137097
    29  H    7.551190   4.991928   5.448686   5.355164   7.316100
    30  H    2.906864   3.017597   3.852365   2.463489   3.044974
    31  H    3.968289   2.356367   4.796338   3.829146   2.506774
                   21         22         23         24         25
    21  H    0.000000
    22  H    6.295270   0.000000
    23  H    6.651916   1.752509   0.000000
    24  H    6.517202   4.276337   3.779477   0.000000
    25  H    6.823112   3.785342   2.623723   1.762156   0.000000
    26  H    8.757675   3.810439   2.662663   3.581837   2.422358
    27  H    9.605431   4.294737   3.810172   4.018461   3.583148
    28  H    8.700822   2.544011   2.457224   4.850948   4.040468
    29  H    8.196258   2.466556   3.052162   4.097072   3.967829
    30  H    2.515415   4.436186   4.347414   4.767602   4.598269
    31  H    2.489609   5.320304   5.243134   4.259491   4.653243
                   26         27         28         29         30
    26  H    0.000000
    27  H    1.759357   0.000000
    28  H    2.456554   2.522517   0.000000
    29  H    3.044626   2.441631   1.751317   0.000000
    30  H    6.458866   7.529811   6.613422   6.408597   0.000000
    31  H    6.849215   7.741999   7.345335   6.811520   1.748181
                   31
    31  H    0.000000
 Stoichiometry    C10H18O3
 Framework group  C1[X(C10H18O3)]
 Deg. of freedom    87
 Full point group                 C1      NOp   1
 Largest Abelian subgroup         C1      NOp   1
 Largest concise Abelian subgroup C1      NOp   1
                         Standard orientation:                         
 ---------------------------------------------------------------------
 Center     Atomic      Atomic             Coordinates (Angstroms)
 Number     Number       Type             X           Y           Z
 ---------------------------------------------------------------------
      1          6           0        1.112925   -0.194848   -0.133946
      2          6           0       -3.796408    0.802036    0.037811
      3          6           0       -1.238857   -0.646793   -0.314320
      4          6           0       -2.392181    1.409115    0.005486
      5          6           0       -3.717289   -0.733061   -0.049483
      6          6           0        1.629068    1.076693    0.525843
      7          6           0        2.133842   -1.317295    0.006194
      8          6           0        3.942272    0.197877    0.124182
      9          8           0        3.382110   -0.929631   -0.525431
     10          6           0        3.028486    1.406495    0.000050
     11          8           0       -0.088321   -0.627409    0.481517
     12          6           0       -2.383081   -1.223564    0.509874
     13          8           0       -1.536818    0.629164   -0.815771
     14          1           0        0.937710   -0.014914   -1.188040
     15          1           0       -4.390712    1.190968   -0.782690
     16          1           0       -4.283455    1.108486    0.959064
     17          1           0       -1.048228   -1.250613   -1.192060
     18          1           0       -2.394468    2.403162   -0.418179
     19          1           0       -1.970656    1.473810    1.002086
     20          1           0       -3.805422   -1.049251   -1.085023
     21          1           0       -4.540994   -1.189936    0.488025
     22          1           0        0.943219    1.897637    0.344044
     23          1           0        1.669783    0.916117    1.601029
     24          1           0        1.815574   -2.194071   -0.541382
     25          1           0        2.247109   -1.584288    1.054593
     26          1           0        4.114828   -0.046073    1.170078
     27          1           0        4.899151    0.375352   -0.347346
     28          1           0        3.455718    2.238298    0.552113
     29          1           0        2.972772    1.703883   -1.044219
     30          1           0       -2.275077   -0.910029    1.543765
     31          1           0       -2.315291   -2.305458    0.491483
 ---------------------------------------------------------------------
 Rotational constants (GHZ):           2.1863669           0.3810802           0.3437090
 Standard basis: 6-311++G(2d,2p) (5D, 7F)
 There are   557 symmetry adapted cartesian basis functions of A   symmetry.
 There are   531 symmetry adapted basis functions of A   symmetry.
   531 basis functions,   762 primitive gaussians,   557 cartesian basis functions
    51 alpha electrons       51 beta electrons
       nuclear repulsion energy       884.5742157110 Hartrees.
 NAtoms=   31 NActive=   31 NUniq=   31 SFac= 1.00D+00 NAtFMM=   60 NAOKFM=F Big=F
 Integral buffers will be    131072 words long.
 Raffenetti 2 integral format.
 Two-electron integral symmetry is turned on.
 ------------------------------------------------------------------------------
 Polarizable Continuum Model (PCM)
 =================================
 Model                : PCM.
 Atomic radii         : UFF (Universal Force Field).
 Polarization charges : Total charges.
 Charge compensation  : None.
 Solution method      : On-the-fly selection.
 Cavity type          : Scaled VdW (van der Waals Surface) (Alpha=1.100).
 Cavity algorithm     : GePol (No added spheres)
                        Default sphere list used, NSphG=   31.
                        Lebedev-Laikov grids with approx.  5.0 points / Ang**2.
                        Smoothing algorithm: York/Karplus (Gamma=1.0000).
                        Polarization charges: spherical gaussians, with
                                              point-specific exponents (IZeta= 3).
                        Self-potential: point-specific (ISelfS= 7).
                        Self-field    : sphere-specific E.n sum rule (ISelfD= 2).
 1st derivatives      : Analytical E(r).r(x)/FMM algorithm (CHGder, D1EAlg=3).
                        Cavity 1st derivative terms included.
 Solvent              : Water, Eps=  78.355300 Eps(inf)=   1.777849
 ------------------------------------------------------------------------------
 One-electron integrals computed using PRISM.
 NBasis=   531 RedAO= T EigKep=  5.42D-06  NBF=   531
 NBsUse=   531 1.00D-06 EigRej= -1.00D+00 NBFU=   531
 ExpMin= 3.60D-02 ExpMax= 8.59D+03 ExpMxC= 1.30D+03 IAcc=3 IRadAn=         5 AccDes= 0.00D+00
 Harris functional with IExCor= 1009 and IRadAn=       5 diagonalized for initial guess.
 HarFok:  IExCor= 1009 AccDes= 0.00D+00 IRadAn=         5 IDoV= 1 UseB2=F ITyADJ=14
 ICtDFT=  3500011 ScaDFX=  1.000000  1.000000  1.000000  1.000000
 FoFCou: FMM=F IPFlag=           0 FMFlag=      100000 FMFlg1=           0
         NFxFlg=           0 DoJE=T BraDBF=F KetDBF=T FulRan=T
         wScrn=  0.000000 ICntrl=       500 IOpCl=  0 I1Cent=   200000004 NGrid=           0
         NMat0=    1 NMatS0=      1 NMatT0=    0 NMatD0=    1 NMtDS0=    0 NMtDT0=    0
 Petite list used in FoFCou.
 Requested convergence on RMS density matrix=1.00D-08 within 128 cycles.
 Requested convergence on MAX density matrix=1.00D-06.
 Requested convergence on             energy=1.00D-06.
 No special actions if energy rises.
 Inv3:  Mode=1 IEnd=    13066707.
 Iteration    1 A*A^-1 deviation from unit magnitude is 3.22D-15 for   2070.
 Iteration    1 A*A^-1 deviation from orthogonality  is 2.59D-15 for   2074    869.
 Iteration    1 A^-1*A deviation from unit magnitude is 3.11D-15 for   2074.
 Iteration    1 A^-1*A deviation from orthogonality  is 1.22D-14 for   1674   1658.
 Error on total polarization charges =  0.01505
 SCF Done:  E(RM062X) =  -617.496705254     A.U. after   12 cycles
            NFock= 12  Conv=0.48D-08     -V/T= 2.0035

 **********************************************************************

            Population analysis using the SCF density.

 **********************************************************************

 Orbital symmetries:
       Occupied  (A) (A) (A) (A) (A) (A) (A) (A) (A) (A) (A) (A)
                 (A) (A) (A) (A) (A) (A) (A) (A) (A) (A) (A) (A)
                 (A) (A) (A) (A) (A) (A) (A) (A) (A) (A) (A) (A)
                 (A) (A) (A) (A) (A) (A) (A) (A) (A) (A) (A) (A)
                 (A) (A) (A)
       Virtual   (A) (A) (A) (A) (A) (A) (A) (A) (A) (A) (A) (A)
                 (A) (A) (A) (A) (A) (A) (A) (A) (A) (A) (A) (A)
                 (A) (A) (A) (A) (A) (A) (A) (A) (A) (A) (A) (A)
                 (A) (A) (A) (A) (A) (A) (A) (A) (A) (A) (A) (A)
                 (A) (A) (A) (A) (A) (A) (A) (A) (A) (A) (A) (A)
                 (A) (A) (A) (A) (A) (A) (A) (A) (A) (A) (A) (A)
                 (A) (A) (A) (A) (A) (A) (A) (A) (A) (A) (A) (A)
                 (A) (A) (A) (A) (A) (A) (A) (A) (A) (A) (A) (A)
                 (A) (A) (A) (A) (A) (A) (A) (A) (A) (A) (A) (A)
                 (A) (A) (A) (A) (A) (A) (A) (A) (A) (A) (A) (A)
                 (A) (A) (A) (A) (A) (A) (A) (A) (A) (A) (A) (A)
                 (A) (A) (A) (A) (A) (A) (A) (A) (A) (A) (A) (A)
                 (A) (A) (A) (A) (A) (A) (A) (A) (A) (A) (A) (A)
                 (A) (A) (A) (A) (A) (A) (A) (A) (A) (A) (A) (A)
                 (A) (A) (A) (A) (A) (A) (A) (A) (A) (A) (A) (A)
                 (A) (A) (A) (A) (A) (A) (A) (A) (A) (A) (A) (A)
                 (A) (A) (A) (A) (A) (A) (A) (A) (A) (A) (A) (A)
                 (A) (A) (A) (A) (A) (A) (A) (A) (A) (A) (A) (A)
                 (A) (A) (A) (A) (A) (A) (A) (A) (A) (A) (A) (A)
                 (A) (A) (A) (A) (A) (A) (A) (A) (A) (A) (A) (A)
                 (A) (A) (A) (A) (A) (A) (A) (A) (A) (A) (A) (A)
                 (A) (A) (A) (A) (A) (A) (A) (A) (A) (A) (A) (A)
                 (A) (A) (A) (A) (A) (A) (A) (A) (A) (A) (A) (A)
                 (A) (A) (A) (A) (A) (A) (A) (A) (A) (A) (A) (A)
                 (A) (A) (A) (A) (A) (A) (A) (A) (A) (A) (A) (A)
                 (A) (A) (A) (A) (A) (A) (A) (A) (A) (A) (A) (A)
                 (A) (A) (A) (A) (A) (A) (A) (A) (A) (A) (A) (A)
                 (A) (A) (A) (A) (A) (A) (A) (A) (A) (A) (A) (A)
                 (A) (A) (A) (A) (A) (A) (A) (A) (A) (A) (A) (A)
                 (A) (A) (A) (A) (A) (A) (A) (A) (A) (A) (A) (A)
                 (A) (A) (A) (A) (A) (A) (A) (A) (A) (A) (A) (A)
                 (A) (A) (A) (A) (A) (A) (A) (A) (A) (A) (A) (A)
                 (A) (A) (A) (A) (A) (A) (A) (A) (A) (A) (A) (A)
                 (A) (A) (A) (A) (A) (A) (A) (A) (A) (A) (A) (A)
                 (A) (A) (A) (A) (A) (A) (A) (A) (A) (A) (A) (A)
                 (A) (A) (A) (A) (A) (A) (A) (A) (A) (A) (A) (A)
                 (A) (A) (A) (A) (A) (A) (A) (A) (A) (A) (A) (A)
                 (A) (A) (A) (A) (A) (A) (A) (A) (A) (A) (A) (A)
                 (A) (A) (A) (A) (A) (A) (A) (A) (A) (A) (A) (A)
                 (A) (A) (A) (A) (A) (A) (A) (A) (A) (A) (A) (A)
 The electronic state is 1-A.
 Alpha  occ. eigenvalues --  -19.63044 -19.62864 -19.62849 -10.63513 -10.58486
 Alpha  occ. eigenvalues --  -10.57821 -10.57774 -10.57749 -10.53205 -10.53164
 Alpha  occ. eigenvalues --  -10.53065 -10.52951 -10.52812  -1.20287  -1.16702
 Alpha  occ. eigenvalues --   -1.13819  -0.90919  -0.89724  -0.87433  -0.84385
 Alpha  occ. eigenvalues --   -0.75391  -0.74105  -0.73663  -0.70359  -0.65749
 Alpha  occ. eigenvalues --   -0.62803  -0.60390  -0.59314  -0.58493  -0.56843
 Alpha  occ. eigenvalues --   -0.55287  -0.52913  -0.52580  -0.49712  -0.49407
 Alpha  occ. eigenvalues --   -0.47814  -0.47500  -0.45841  -0.45735  -0.44542
 Alpha  occ. eigenvalues --   -0.44432  -0.42603  -0.40683  -0.40497  -0.39023
 Alpha  occ. eigenvalues --   -0.38634  -0.38057  -0.35586  -0.35440  -0.34129
 Alpha  occ. eigenvalues --   -0.31641
 Alpha virt. eigenvalues --   -0.00099   0.00756   0.00854   0.01068   0.02121
 Alpha virt. eigenvalues --    0.02458   0.02567   0.03587   0.03653   0.04147
 Alpha virt. eigenvalues --    0.04455   0.04764   0.05619   0.05771   0.06943
 Alpha virt. eigenvalues --    0.07314   0.07729   0.07857   0.08468   0.09017
 Alpha virt. eigenvalues --    0.09953   0.10245   0.10895   0.11722   0.12150
 Alpha virt. eigenvalues --    0.12232   0.12334   0.12998   0.13245   0.13310
 Alpha virt. eigenvalues --    0.13934   0.14014   0.14305   0.14456   0.14965
 Alpha virt. eigenvalues --    0.15192   0.15227   0.15472   0.15927   0.16118
 Alpha virt. eigenvalues --    0.16501   0.16746   0.17156   0.17447   0.17920
 Alpha virt. eigenvalues --    0.18028   0.18105   0.18610   0.19262   0.19509
 Alpha virt. eigenvalues --    0.19810   0.20089   0.20689   0.20906   0.21863
 Alpha virt. eigenvalues --    0.22356   0.22637   0.23009   0.23734   0.24018
 Alpha virt. eigenvalues --    0.24842   0.25516   0.25846   0.26411   0.26866
 Alpha virt. eigenvalues --    0.27476   0.27626   0.28230   0.28966   0.29336
 Alpha virt. eigenvalues --    0.29825   0.30087   0.30807   0.31107   0.31574
 Alpha virt. eigenvalues --    0.31786   0.32462   0.33131   0.33929   0.34420
 Alpha virt. eigenvalues --    0.34475   0.35084   0.35577   0.35920   0.36288
 Alpha virt. eigenvalues --    0.36652   0.36945   0.37459   0.37613   0.38080
 Alpha virt. eigenvalues --    0.38960   0.39557   0.40172   0.40500   0.40576
 Alpha virt. eigenvalues --    0.41124   0.41992   0.43081   0.43931   0.44377
 Alpha virt. eigenvalues --    0.45621   0.47316   0.48620   0.49555   0.50991
 Alpha virt. eigenvalues --    0.51743   0.52647   0.54033   0.54379   0.54552
 Alpha virt. eigenvalues --    0.55761   0.56065   0.57918   0.58234   0.59121
 Alpha virt. eigenvalues --    0.59606   0.59968   0.60872   0.61062   0.61555
 Alpha virt. eigenvalues --    0.62025   0.62631   0.62836   0.63531   0.63709
 Alpha virt. eigenvalues --    0.63883   0.64780   0.65337   0.66652   0.66681
 Alpha virt. eigenvalues --    0.67979   0.68253   0.68737   0.69630   0.70447
 Alpha virt. eigenvalues --    0.70865   0.71194   0.71664   0.72386   0.73300
 Alpha virt. eigenvalues --    0.73841   0.74365   0.74665   0.75297   0.75560
 Alpha virt. eigenvalues --    0.76165   0.76506   0.76846   0.77346   0.78206
 Alpha virt. eigenvalues --    0.80502   0.81592   0.83543   0.84543   0.85150
 Alpha virt. eigenvalues --    0.86463   0.87086   0.87421   0.88824   0.89294
 Alpha virt. eigenvalues --    0.90948   0.91440   0.92171   0.93531   0.95063
 Alpha virt. eigenvalues --    0.96822   0.97414   0.98532   1.00971   1.01972
 Alpha virt. eigenvalues --    1.02766   1.04388   1.05474   1.06433   1.07020
 Alpha virt. eigenvalues --    1.07777   1.08240   1.09644   1.10659   1.11755
 Alpha virt. eigenvalues --    1.12416   1.13345   1.14461   1.15757   1.16172
 Alpha virt. eigenvalues --    1.17499   1.17924   1.18438   1.19251   1.20231
 Alpha virt. eigenvalues --    1.20636   1.22035   1.22893   1.23087   1.24296
 Alpha virt. eigenvalues --    1.24730   1.25082   1.26120   1.26371   1.27346
 Alpha virt. eigenvalues --    1.29131   1.29287   1.29480   1.31149   1.31594
 Alpha virt. eigenvalues --    1.31639   1.32422   1.33065   1.33320   1.33935
 Alpha virt. eigenvalues --    1.34990   1.35187   1.36269   1.36913   1.37700
 Alpha virt. eigenvalues --    1.38158   1.38430   1.39987   1.40491   1.40991
 Alpha virt. eigenvalues --    1.42373   1.42814   1.43346   1.43984   1.45312
 Alpha virt. eigenvalues --    1.45932   1.46210   1.47435   1.47498   1.48160
 Alpha virt. eigenvalues --    1.48796   1.49756   1.50154   1.50932   1.51342
 Alpha virt. eigenvalues --    1.52217   1.53048   1.53628   1.53976   1.54985
 Alpha virt. eigenvalues --    1.55750   1.56523   1.57465   1.57647   1.58372
 Alpha virt. eigenvalues --    1.58741   1.59449   1.59888   1.61084   1.61779
 Alpha virt. eigenvalues --    1.62376   1.63567   1.64243   1.65195   1.66516
 Alpha virt. eigenvalues --    1.67099   1.68626   1.68693   1.69886   1.70804
 Alpha virt. eigenvalues --    1.71676   1.73018   1.75207   1.76524   1.77469
 Alpha virt. eigenvalues --    1.78160   1.79132   1.80436   1.82453   1.84154
 Alpha virt. eigenvalues --    1.86974   1.87811   1.89207   1.93490   1.98935
 Alpha virt. eigenvalues --    2.00451   2.02309   2.09470   2.14565   2.19018
 Alpha virt. eigenvalues --    2.23703   2.26093   2.30058   2.35281   2.38629
 Alpha virt. eigenvalues --    2.41329   2.42457   2.44862   2.46422   2.53232
 Alpha virt. eigenvalues --    2.57304   2.75758   2.76305   2.80009   2.81172
 Alpha virt. eigenvalues --    2.86742   2.88213   2.90679   2.92143   2.93789
 Alpha virt. eigenvalues --    2.95072   2.96862   3.00760   3.02106   3.03310
 Alpha virt. eigenvalues --    3.05406   3.07344   3.07848   3.09178   3.11081
 Alpha virt. eigenvalues --    3.11989   3.14015   3.17414   3.18907   3.22100
 Alpha virt. eigenvalues --    3.27026   3.29126   3.30279   3.31153   3.33698
 Alpha virt. eigenvalues --    3.35584   3.36368   3.36969   3.39812   3.40597
 Alpha virt. eigenvalues --    3.41289   3.42134   3.43835   3.44779   3.45134
 Alpha virt. eigenvalues --    3.46174   3.47768   3.49073   3.49953   3.51038
 Alpha virt. eigenvalues --    3.52226   3.53205   3.54010   3.54651   3.56229
 Alpha virt. eigenvalues --    3.56898   3.57193   3.58741   3.58936   3.60916
 Alpha virt. eigenvalues --    3.61048   3.61805   3.62064   3.63349   3.64584
 Alpha virt. eigenvalues --    3.64950   3.65997   3.68107   3.68746   3.70022
 Alpha virt. eigenvalues --    3.70957   3.71227   3.71968   3.73184   3.73470
 Alpha virt. eigenvalues --    3.74688   3.74922   3.76248   3.76834   3.78192
 Alpha virt. eigenvalues --    3.79176   3.80887   3.82261   3.85277   3.85992
 Alpha virt. eigenvalues --    3.86779   3.87563   3.89374   3.90643   3.91652
 Alpha virt. eigenvalues --    3.92677   3.94321   3.94790   3.98143   3.98702
 Alpha virt. eigenvalues --    3.99695   4.01755   4.02944   4.03183   4.04153
 Alpha virt. eigenvalues --    4.04404   4.05636   4.06322   4.06826   4.07314
 Alpha virt. eigenvalues --    4.08020   4.09114   4.09449   4.10073   4.11113
 Alpha virt. eigenvalues --    4.12081   4.13411   4.14325   4.14979   4.16477
 Alpha virt. eigenvalues --    4.17130   4.17345   4.18808   4.19775   4.20258
 Alpha virt. eigenvalues --    4.20987   4.22824   4.24880   4.25344   4.25755
 Alpha virt. eigenvalues --    4.26280   4.28410   4.28860   4.31020   4.31803
 Alpha virt. eigenvalues --    4.33190   4.34481   4.35294   4.36343   4.38448
 Alpha virt. eigenvalues --    4.39775   4.43654   4.45238   4.45755   4.48267
 Alpha virt. eigenvalues --    4.57299   4.58892   4.75295   4.76769   4.82806
 Alpha virt. eigenvalues --    4.84081   4.92311   4.95187   4.99990   5.00732
 Alpha virt. eigenvalues --    5.02868   5.06541   5.08546   5.12116   5.12732
 Alpha virt. eigenvalues --    5.13991   5.14787   5.18252   5.30332   5.40908
 Alpha virt. eigenvalues --    5.41750   5.57510   5.58871   5.64896   5.85647
 Alpha virt. eigenvalues --    5.87622   6.06106   7.02561   7.04482   7.05725
 Alpha virt. eigenvalues --    7.08237   7.09677   7.12798   7.14499   7.20879
 Alpha virt. eigenvalues --    7.26761   7.34408   7.37487   7.41886   7.52943
 Alpha virt. eigenvalues --    7.55411   7.65257  23.96259  23.99268  24.04717
 Alpha virt. eigenvalues --   24.06738  24.11423  24.12748  24.13713  24.14901
 Alpha virt. eigenvalues --   24.15786  24.21498  50.16889  50.17563  50.24792
          Condensed to atoms (all electrons):
               1          2          3          4          5          6
     1  C    8.041730   0.068703  -0.542826   0.044160  -0.028197  -1.414151
     2  C    0.068703   6.264497   0.494293  -0.385095  -0.397161  -0.025448
     3  C   -0.542826   0.494293   6.481448  -0.506957  -0.321464  -0.011966
     4  C    0.044160  -0.385095  -0.506957   5.812936   0.345935   0.029455
     5  C   -0.028197  -0.397161  -0.321464   0.345935   5.876372  -0.026458
     6  C   -1.414151  -0.025448  -0.011966   0.029455  -0.026458   7.250546
     7  C   -0.475095  -0.022206   0.045235   0.011233   0.032100  -0.222408
     8  C    0.238735   0.003557  -0.019321   0.000893  -0.002171  -0.107085
     9  O    0.008435  -0.000026   0.008624  -0.000163  -0.000294  -0.013689
    10  C   -0.244009  -0.005947  -0.065199   0.009199  -0.002284   0.005063
    11  O    0.244248   0.024186   0.337244  -0.001156  -0.020695  -0.089397
    12  C   -0.192926  -0.216952  -0.221497  -0.133515   0.166207  -0.024051
    13  O    0.058972  -0.024880   0.275737   0.058979  -0.085618  -0.125133
    14  H    0.430655   0.007396  -0.010061  -0.005290  -0.010117   0.061385
    15  H    0.005718   0.473757  -0.008500  -0.085620  -0.048222  -0.006076
    16  H   -0.004985   0.485392   0.012695  -0.051230  -0.080431   0.006711
    17  H    0.009908   0.021732   0.493121  -0.053086  -0.029571  -0.009968
    18  H   -0.013789   0.000353   0.020586   0.424743  -0.014425   0.020452
    19  H    0.002447  -0.089414  -0.040657   0.469994   0.008137  -0.009493
    20  H   -0.002767  -0.069508  -0.026863   0.002580   0.459796   0.006060
    21  H   -0.000423  -0.062196   0.013526   0.013508   0.456283  -0.002151
    22  H   -0.112038  -0.017985   0.002816   0.016206   0.004505   0.441444
    23  H    0.011335   0.001917   0.006799  -0.001391   0.000499   0.484225
    24  H   -0.077238  -0.000218  -0.002151   0.000695  -0.001778   0.039369
    25  H   -0.025011   0.000628   0.016180  -0.002025  -0.001222   0.000434
    26  H    0.037112  -0.000037   0.007042  -0.000506  -0.000079  -0.023978
    27  H   -0.002544   0.000096  -0.003268   0.000143  -0.000083   0.009592
    28  H   -0.014732  -0.000192  -0.007000   0.000612  -0.000138  -0.001695
    29  H   -0.025587  -0.000157   0.007735  -0.000709   0.000466  -0.021203
    30  H   -0.017646   0.001583  -0.052982  -0.022575  -0.061314   0.007583
    31  H   -0.014238  -0.000059  -0.032739   0.012256  -0.006743   0.009344
               7          8          9         10         11         12
     1  C   -0.475095   0.238735   0.008435  -0.244009   0.244248  -0.192926
     2  C   -0.022206   0.003557  -0.000026  -0.005947   0.024186  -0.216952
     3  C    0.045235  -0.019321   0.008624  -0.065199   0.337244  -0.221497
     4  C    0.011233   0.000893  -0.000163   0.009199  -0.001156  -0.133515
     5  C    0.032100  -0.002171  -0.000294  -0.002284  -0.020695   0.166207
     6  C   -0.222408  -0.107085  -0.013689   0.005063  -0.089397  -0.024051
     7  C    6.258864  -0.246920   0.157438   0.161275  -0.210240   0.080516
     8  C   -0.246920   5.428227   0.100199   0.033246   0.014019  -0.010048
     9  O    0.157438   0.100199   8.330978  -0.033713   0.001647   0.001508
    10  C    0.161275   0.033246  -0.033713   5.758319   0.004941   0.010921
    11  O   -0.210240   0.014019   0.001647   0.004941   8.269604  -0.251893
    12  C    0.080516  -0.010048   0.001508   0.010921  -0.251893   6.161299
    13  O    0.035196   0.000710   0.000282  -0.005885  -0.017371  -0.014271
    14  H   -0.080715   0.012853  -0.010489  -0.014719  -0.013352  -0.022280
    15  H    0.001018   0.000005  -0.000001  -0.000274  -0.000181   0.044659
    16  H   -0.000796   0.000000   0.000002   0.000578   0.001281  -0.010803
    17  H   -0.014157   0.001358   0.001124  -0.008556  -0.045568   0.024202
    18  H   -0.002535   0.000454  -0.000018   0.001275  -0.000419  -0.022778
    19  H    0.006711  -0.001318  -0.000009  -0.006004   0.011121   0.049393
    20  H   -0.002192  -0.000058  -0.000002   0.000113   0.001386  -0.012103
    21  H    0.001530  -0.000030  -0.000000  -0.000098  -0.003861  -0.053107
    22  H    0.024485  -0.021272  -0.000756   0.036477  -0.001708   0.015026
    23  H   -0.031430  -0.000848   0.000136  -0.098698  -0.003023  -0.003869
    24  H    0.444891   0.004126  -0.077155   0.016189   0.000669  -0.005998
    25  H    0.372984  -0.001328  -0.036079  -0.011278   0.007878   0.007510
    26  H   -0.038079   0.448249  -0.044029  -0.036545   0.000025   0.000962
    27  H    0.014768   0.432305  -0.072431  -0.040993   0.001028  -0.000351
    28  H   -0.011769  -0.028180   0.006431   0.417279  -0.001296  -0.000783
    29  H    0.011611  -0.084149   0.000656   0.480330  -0.000150   0.002267
    30  H   -0.001646  -0.000342  -0.000027   0.000752  -0.012580   0.524526
    31  H   -0.000095  -0.000421   0.000127   0.000646   0.000090   0.400795
              13         14         15         16         17         18
     1  C    0.058972   0.430655   0.005718  -0.004985   0.009908  -0.013789
     2  C   -0.024880   0.007396   0.473757   0.485392   0.021732   0.000353
     3  C    0.275737  -0.010061  -0.008500   0.012695   0.493121   0.020586
     4  C    0.058979  -0.005290  -0.085620  -0.051230  -0.053086   0.424743
     5  C   -0.085618  -0.010117  -0.048222  -0.080431  -0.029571  -0.014425
     6  C   -0.125133   0.061385  -0.006076   0.006711  -0.009968   0.020452
     7  C    0.035196  -0.080715   0.001018  -0.000796  -0.014157  -0.002535
     8  C    0.000710   0.012853   0.000005   0.000000   0.001358   0.000454
     9  O    0.000282  -0.010489  -0.000001   0.000002   0.001124  -0.000018
    10  C   -0.005885  -0.014719  -0.000274   0.000578  -0.008556   0.001275
    11  O   -0.017371  -0.013352  -0.000181   0.001281  -0.045568  -0.000419
    12  C   -0.014271  -0.022280   0.044659  -0.010803   0.024202  -0.022778
    13  O    8.289521  -0.013879  -0.007537   0.012545  -0.087366  -0.068714
    14  H   -0.013879   0.434820  -0.000307   0.000424  -0.003744   0.001400
    15  H   -0.007537  -0.000307   0.511078  -0.022319   0.003209  -0.012631
    16  H    0.012545   0.000424  -0.022319   0.503845  -0.001258   0.000853
    17  H   -0.087366  -0.003744   0.003209  -0.001258   0.474935  -0.003028
    18  H   -0.068714   0.001400  -0.012631   0.000853  -0.003028   0.472824
    19  H   -0.020565  -0.001690   0.008169  -0.004743   0.001956  -0.010952
    20  H    0.009594   0.001531  -0.013723   0.007030  -0.004585  -0.000228
    21  H   -0.004507  -0.000544  -0.001084  -0.005262   0.000952   0.000028
    22  H    0.011828  -0.004691   0.000206   0.000419   0.000061  -0.004140
    23  H   -0.000734   0.004013  -0.000059  -0.000149  -0.000714   0.000210
    24  H   -0.000384  -0.002955  -0.000088   0.000057  -0.006457   0.000225
    25  H    0.000170  -0.004128   0.000030   0.000005   0.003238  -0.000143
    26  H    0.000086  -0.003118   0.000006  -0.000008   0.000607  -0.000105
    27  H   -0.000008   0.000335  -0.000001   0.000004  -0.000147   0.000051
    28  H   -0.001157   0.000915  -0.000051   0.000047  -0.000302   0.000496
    29  H    0.000699  -0.007465   0.000022  -0.000039   0.000767  -0.000383
    30  H    0.001543  -0.000167  -0.003626   0.001328   0.001346  -0.001646
    31  H    0.007862   0.000330   0.000181   0.000025  -0.014636   0.001415
              19         20         21         22         23         24
     1  C    0.002447  -0.002767  -0.000423  -0.112038   0.011335  -0.077238
     2  C   -0.089414  -0.069508  -0.062196  -0.017985   0.001917  -0.000218
     3  C   -0.040657  -0.026863   0.013526   0.002816   0.006799  -0.002151
     4  C    0.469994   0.002580   0.013508   0.016206  -0.001391   0.000695
     5  C    0.008137   0.459796   0.456283   0.004505   0.000499  -0.001778
     6  C   -0.009493   0.006060  -0.002151   0.441444   0.484225   0.039369
     7  C    0.006711  -0.002192   0.001530   0.024485  -0.031430   0.444891
     8  C   -0.001318  -0.000058  -0.000030  -0.021272  -0.000848   0.004126
     9  O   -0.000009  -0.000002  -0.000000  -0.000756   0.000136  -0.077155
    10  C   -0.006004   0.000113  -0.000098   0.036477  -0.098698   0.016189
    11  O    0.011121   0.001386  -0.003861  -0.001708  -0.003023   0.000669
    12  C    0.049393  -0.012103  -0.053107   0.015026  -0.003869  -0.005998
    13  O   -0.020565   0.009594  -0.004507   0.011828  -0.000734  -0.000384
    14  H   -0.001690   0.001531  -0.000544  -0.004691   0.004013  -0.002955
    15  H    0.008169  -0.013723  -0.001084   0.000206  -0.000059  -0.000088
    16  H   -0.004743   0.007030  -0.005262   0.000419  -0.000149   0.000057
    17  H    0.001956  -0.004585   0.000952   0.000061  -0.000714  -0.006457
    18  H   -0.010952  -0.000228   0.000028  -0.004140   0.000210   0.000225
    19  H    0.498350   0.000090  -0.000788  -0.000540   0.000345  -0.000566
    20  H    0.000090   0.489127  -0.009585  -0.000033   0.000125   0.000355
    21  H   -0.000788  -0.009585   0.476477   0.000216  -0.000092  -0.000171
    22  H   -0.000540  -0.000033   0.000216   0.484889  -0.016387  -0.000682
    23  H    0.000345   0.000125  -0.000092  -0.016387   0.453557  -0.001727
    24  H   -0.000566   0.000355  -0.000171  -0.000682  -0.001727   0.500922
    25  H    0.000395  -0.000119   0.000092  -0.000134  -0.003151  -0.025288
    26  H    0.000283  -0.000019   0.000008   0.002075  -0.006767  -0.004966
    27  H   -0.000175   0.000004  -0.000003   0.000638  -0.000751   0.002983
    28  H   -0.000464   0.000035  -0.000006  -0.013511  -0.003259   0.002822
    29  H    0.000741  -0.000039   0.000014  -0.000368   0.002015  -0.002740
    30  H   -0.007764   0.004725  -0.003191   0.000965  -0.000536   0.000969
    31  H   -0.000605  -0.000062  -0.008619  -0.000173  -0.000036   0.000378
              25         26         27         28         29         30
     1  C   -0.025011   0.037112  -0.002544  -0.014732  -0.025587  -0.017646
     2  C    0.000628  -0.000037   0.000096  -0.000192  -0.000157   0.001583
     3  C    0.016180   0.007042  -0.003268  -0.007000   0.007735  -0.052982
     4  C   -0.002025  -0.000506   0.000143   0.000612  -0.000709  -0.022575
     5  C   -0.001222  -0.000079  -0.000083  -0.000138   0.000466  -0.061314
     6  C    0.000434  -0.023978   0.009592  -0.001695  -0.021203   0.007583
     7  C    0.372984  -0.038079   0.014768  -0.011769   0.011611  -0.001646
     8  C   -0.001328   0.448249   0.432305  -0.028180  -0.084149  -0.000342
     9  O   -0.036079  -0.044029  -0.072431   0.006431   0.000656  -0.000027
    10  C   -0.011278  -0.036545  -0.040993   0.417279   0.480330   0.000752
    11  O    0.007878   0.000025   0.001028  -0.001296  -0.000150  -0.012580
    12  C    0.007510   0.000962  -0.000351  -0.000783   0.002267   0.524526
    13  O    0.000170   0.000086  -0.000008  -0.001157   0.000699   0.001543
    14  H   -0.004128  -0.003118   0.000335   0.000915  -0.007465  -0.000167
    15  H    0.000030   0.000006  -0.000001  -0.000051   0.000022  -0.003626
    16  H    0.000005  -0.000008   0.000004   0.000047  -0.000039   0.001328
    17  H    0.003238   0.000607  -0.000147  -0.000302   0.000767   0.001346
    18  H   -0.000143  -0.000105   0.000051   0.000496  -0.000383  -0.001646
    19  H    0.000395   0.000283  -0.000175  -0.000464   0.000741  -0.007764
    20  H   -0.000119  -0.000019   0.000004   0.000035  -0.000039   0.004725
    21  H    0.000092   0.000008  -0.000003  -0.000006   0.000014  -0.003191
    22  H   -0.000134   0.002075   0.000638  -0.013511  -0.000368   0.000965
    23  H   -0.003151  -0.006767  -0.000751  -0.003259   0.002015  -0.000536
    24  H   -0.025288  -0.004966   0.002983   0.002822  -0.002740   0.000969
    25  H    0.501164   0.013185  -0.003401  -0.002872   0.003121  -0.000115
    26  H    0.013185   0.505733  -0.008590   0.001009   0.003909   0.000087
    27  H   -0.003401  -0.008590   0.475216  -0.007828  -0.005220  -0.000006
    28  H   -0.002872   0.001009  -0.007828   0.495801  -0.009430  -0.000038
    29  H    0.003121   0.003909  -0.005220  -0.009430   0.477611   0.000034
    30  H   -0.000115   0.000087  -0.000006  -0.000038   0.000034   0.451387
    31  H   -0.000397  -0.000023  -0.000023   0.000047   0.000003  -0.010668
              31
     1  C   -0.014238
     2  C   -0.000059
     3  C   -0.032739
     4  C    0.012256
     5  C   -0.006743
     6  C    0.009344
     7  C   -0.000095
     8  C   -0.000421
     9  O    0.000127
    10  C    0.000646
    11  O    0.000090
    12  C    0.400795
    13  O    0.007862
    14  H    0.000330
    15  H    0.000181
    16  H    0.000025
    17  H   -0.014636
    18  H    0.001415
    19  H   -0.000605
    20  H   -0.000062
    21  H   -0.008619
    22  H   -0.000173
    23  H   -0.000036
    24  H    0.000378
    25  H   -0.000397
    26  H   -0.000023
    27  H   -0.000023
    28  H    0.000047
    29  H    0.000003
    30  H   -0.010668
    31  H    0.473714
 Mulliken charges:
               1
     1  C    0.006043
     2  C   -0.530607
     3  C   -0.349630
     4  C   -0.004208
     5  C   -0.211835
     6  C   -0.237315
     7  C   -0.299573
     8  C   -0.195447
     9  O   -0.328705
    10  C   -0.362402
    11  O   -0.246478
    12  C   -0.292567
    13  O   -0.285715
    14  H    0.253653
    15  H    0.162242
    16  H    0.148781
    17  H    0.244627
    18  H    0.210569
    19  H    0.137611
    20  H    0.159332
    21  H    0.193084
    22  H    0.152164
    23  H    0.208446
    24  H    0.195909
    25  H    0.189678
    26  H    0.146473
    27  H    0.208658
    28  H    0.179210
    29  H    0.165637
    30  H    0.200040
    31  H    0.182323
 Sum of Mulliken charges =  -0.00000
 Mulliken charges with hydrogens summed into heavy atoms:
               1
     1  C    0.259696
     2  C   -0.219584
     3  C   -0.105003
     4  C    0.343972
     5  C    0.140582
     6  C    0.123295
     7  C    0.086014
     8  C    0.159684
     9  O   -0.328705
    10  C   -0.017555
    11  O   -0.246478
    12  C    0.089796
    13  O   -0.285715
 Electronic spatial extent (au):  <R**2>=           3278.1191
 Charge=             -0.0000 electrons
 Dipole moment (field-independent basis, Debye):
    X=             -1.8880    Y=              1.1957    Z=              1.3467  Tot=              2.6092
 Quadrupole moment (field-independent basis, Debye-Ang):
   XX=            -74.7876   YY=            -77.6362   ZZ=            -82.4974
   XY=              6.0877   XZ=              2.4327   YZ=              1.3050
 Traceless Quadrupole moment (field-independent basis, Debye-Ang):
   XX=              3.5194   YY=              0.6709   ZZ=             -4.1903
   XY=              6.0877   XZ=              2.4327   YZ=              1.3050
 Octapole moment (field-independent basis, Debye-Ang**2):
  XXX=            -20.6595  YYY=             -0.1601  ZZZ=              0.3191  XYY=             -7.3093
  XXY=             25.7774  XXZ=             20.6484  XZZ=              0.6730  YZZ=             -0.9104
  YYZ=             -1.7329  XYZ=             -5.4808
 Hexadecapole moment (field-independent basis, Debye-Ang**3):
 XXXX=          -3460.3134 YYYY=           -603.8873 ZZZZ=           -220.8323 XXXY=             84.3258
 XXXZ=             36.2944 YYYX=            -12.2354 YYYZ=              0.1465 ZZZX=              0.1025
 ZZZY=              1.7759 XXYY=           -695.1744 XXZZ=           -629.5661 YYZZ=           -140.2804
 XXYZ=            -20.0559 YYXZ=              6.9670 ZZXY=              0.7392
 N-N= 8.845742157110D+02 E-N=-3.211003705858D+03  KE= 6.153487655464D+02
 D1PCM: PCM CHGder 1st derivatives, ID1Alg=3 FixD1E=F DoIter=F DoCFld=F I1PDM=0.
 Calling FoFJK, ICntrl=      2127 FMM=F ISym2X=0 I1Cent= 0 IOpClX= 0 NMat=1 NMatS=1 NMatT=0.
 ***** Axes restored to original set *****
 -------------------------------------------------------------------
 Center     Atomic                   Forces (Hartrees/Bohr)
 Number     Number              X              Y              Z
 -------------------------------------------------------------------
      1        6          -0.000138733   -0.001381584    0.003373125
      2        6           0.001256787   -0.001298950    0.000111424
      3        6          -0.001398138    0.002613422    0.003554565
      4        6          -0.001780066   -0.005356062   -0.000051203
      5        6           0.002598930    0.002080635    0.001336729
      6        6           0.002855331   -0.001940249   -0.003570034
      7        6           0.001880645    0.006852805   -0.001486313
      8        6          -0.006676285    0.001148370   -0.001418382
      9        8           0.004055547   -0.004127767   -0.007066521
     10        6          -0.000438118   -0.001523971    0.002409353
     11        8          -0.001617720   -0.000652457    0.012289109
     12        6          -0.000575227    0.000483889   -0.002919357
     13        8           0.001781175    0.003468325   -0.008752294
     14        1          -0.000241510    0.001774343   -0.006618650
     15        1          -0.001306518    0.000881979   -0.002147741
     16        1          -0.001391047    0.000423651    0.002665249
     17        1           0.000521348   -0.003989931   -0.007041446
     18        1          -0.000078947    0.004013429   -0.001558470
     19        1           0.001980779    0.000116232    0.005941616
     20        1           0.000421672   -0.000562089   -0.003084207
     21        1          -0.001886394   -0.001001746    0.001293537
     22        1          -0.003032237    0.001824703   -0.000869687
     23        1           0.000010377   -0.001658985    0.003505228
     24        1          -0.002071313   -0.003685190   -0.002372307
     25        1          -0.001075189   -0.000610756    0.006484611
     26        1           0.000430236   -0.000330068    0.006180557
     27        1           0.003808661    0.000762858   -0.001991922
     28        1           0.000909410    0.002522632    0.001422762
     29        1          -0.000197074    0.000198695   -0.003225056
     30        1           0.001276581    0.001902019    0.003431684
     31        1           0.000117035   -0.002948182    0.000174040
 -------------------------------------------------------------------
 Cartesian Forces:  Max     0.012289109 RMS     0.003206564

 GradGradGradGradGradGradGradGradGradGradGradGradGradGradGradGradGradGrad
 Berny optimization.
 FormGI is forming the generalized inverse of G from B-inverse, IUseBI=4.
 Internal  Forces:  Max     0.011445235 RMS     0.001975428
 Search for a local minimum.
 Step number   1 out of a maximum of  186
 All quantities printed in internal units (Hartrees-Bohrs-Radians)
 Mixed Optimization -- RFO/linear search
 Second derivative matrix not updated -- first step.
 ITU=  0
     Eigenvalues ---    0.00391   0.00645   0.00691   0.00741   0.01429
     Eigenvalues ---    0.01446   0.01462   0.02701   0.02780   0.03164
     Eigenvalues ---    0.03210   0.04086   0.04351   0.04508   0.04801
     Eigenvalues ---    0.04865   0.04964   0.04996   0.05121   0.05150
     Eigenvalues ---    0.05172   0.05563   0.05746   0.05926   0.06159
     Eigenvalues ---    0.06397   0.06603   0.06826   0.07653   0.07874
     Eigenvalues ---    0.07883   0.07913   0.07919   0.07996   0.08120
     Eigenvalues ---    0.08502   0.09382   0.09390   0.10879   0.11588
     Eigenvalues ---    0.11618   0.11688   0.11709   0.12504   0.12613
     Eigenvalues ---    0.14608   0.15454   0.16589   0.17588   0.18762
     Eigenvalues ---    0.20453   0.21771   0.22417   0.25000   0.27236
     Eigenvalues ---    0.27477   0.28588   0.28716   0.28720   0.29354
     Eigenvalues ---    0.29547   0.30192   0.35060   0.35071   0.35075
     Eigenvalues ---    0.35136   0.35242   0.35255   0.35290   0.35306
     Eigenvalues ---    0.35372   0.35388   0.35456   0.35495   0.35514
     Eigenvalues ---    0.35563   0.35718   0.35801   0.35824   0.35926
     Eigenvalues ---    0.40005   0.41439   0.42314   0.42861   0.43078
     Eigenvalues ---    0.457711000.000001000.000001000.000001000.00000
     Eigenvalues --- 1000.000001000.000001000.000001000.000001000.00000
     Eigenvalues --- 1000.000001000.000001000.000001000.000001000.00000
     Eigenvalues --- 1000.000001000.000001000.000001000.000001000.00000
     Eigenvalues --- 1000.000001000.000001000.000001000.000001000.00000
     Eigenvalues --- 1000.000001000.000001000.000001000.000001000.00000
     Eigenvalues --- 1000.000001000.000001000.000001000.000001000.00000
     Eigenvalues --- 1000.000001000.000001000.000001000.000001000.00000
     Eigenvalues --- 1000.000001000.000001000.000001000.000001000.00000
     Eigenvalues --- 1000.000001000.000001000.000001000.000001000.00000
     Eigenvalues --- 1000.000001000.000001000.000001000.000001000.00000
     Eigenvalues --- 1000.000001000.000001000.000001000.000001000.00000
     Eigenvalues --- 1000.000001000.000001000.000001000.000001000.00000
     Eigenvalues --- 1000.000001000.000001000.000001000.000001000.00000
     Eigenvalues --- 1000.000001000.000001000.000001000.000001000.00000
     Eigenvalues --- 1000.000001000.000001000.000001000.000001000.00000
     Eigenvalues --- 1000.000001000.000001000.000001000.000001000.00000
     Eigenvalues --- 1000.000001000.000001000.000001000.000001000.00000
     Eigenvalues --- 1000.000001000.000001000.000001000.000001000.00000
     Eigenvalues --- 1000.000001000.000001000.000001000.000001000.00000
 RFO step:  Lambda=-2.94806198D-03 EMin= 3.90937111D-03
 Linear search not attempted -- first point.
 Iteration  1 RMS(Cart)=  0.05327550 RMS(Int)=  0.00070391
 Iteration  2 RMS(Cart)=  0.00134139 RMS(Int)=  0.00005315
 Iteration  3 RMS(Cart)=  0.00000067 RMS(Int)=  0.00005315
 Iteration  1 RMS(Cart)=  0.00000007 RMS(Int)=  0.00000002
 Variable       Old X    -DE/DX   Delta X   Delta X   Delta X     New X
                                 (Linear)    (Quad)   (Total)
    R1        2.87744  -0.00239   0.00000  -0.00781  -0.00783   2.86961
    R2        2.87946  -0.00011   0.00000  -0.00027  -0.00027   2.87919
    R3        2.67841   0.00230   0.00000   0.00532   0.00532   2.68373
    R4        2.04771   0.00677   0.00000   0.01889   0.01889   2.06660
    R5        2.89162   0.00097   0.00000   0.00269   0.00272   2.89434
    R6        2.90944  -0.00036   0.00000  -0.00280  -0.00275   2.90669
    R7        2.05076   0.00265   0.00000   0.00744   0.00744   2.05820
    R8        2.05262   0.00301   0.00000   0.00845   0.00845   2.06108
    R9        2.64391   0.00272   0.00000   0.00591   0.00591   2.64982
   R10        2.87910  -0.00106   0.00000  -0.00231  -0.00231   2.87679
   R11        2.65121   0.00355   0.00000   0.00906   0.00903   2.66025
   R12        2.04524   0.00803   0.00000   0.02229   0.02229   2.06754
   R13        2.68210   0.00312   0.00000   0.00742   0.00737   2.68947
   R14        2.04198   0.00430   0.00000   0.01188   0.01188   2.05386
   R15        2.04848   0.00624   0.00000   0.01743   0.01743   2.06591
   R16        2.88676  -0.00053   0.00000  -0.00281  -0.00282   2.88394
   R17        2.05284   0.00307   0.00000   0.00863   0.00863   2.06148
   R18        2.04941   0.00250   0.00000   0.00698   0.00698   2.05639
   R19        2.89295  -0.00059   0.00000  -0.00219  -0.00221   2.89074
   R20        2.05050   0.00344   0.00000   0.00965   0.00965   2.06014
   R21        2.05578   0.00371   0.00000   0.01049   0.01049   2.06627
   R22        2.66651   0.00326   0.00000   0.00752   0.00754   2.67405
   R23        2.04394   0.00480   0.00000   0.01330   0.01330   2.05723
   R24        2.05560   0.00629   0.00000   0.01778   0.01778   2.07337
   R25        2.67718   0.00339   0.00000   0.00780   0.00782   2.68501
   R26        2.87286   0.00034   0.00000   0.00103   0.00103   2.87389
   R27        2.05554   0.00608   0.00000   0.01720   0.01720   2.07274
   R28        2.04357   0.00436   0.00000   0.01208   0.01208   2.05566
   R29        2.05207   0.00301   0.00000   0.00847   0.00847   2.06054
   R30        2.05454   0.00316   0.00000   0.00893   0.00893   2.06347
   R31        2.05181   0.00394   0.00000   0.01108   0.01108   2.06289
   R32        2.04879   0.00295   0.00000   0.00823   0.00823   2.05702
    A1        1.92642  -0.00010   0.00000  -0.00220  -0.00223   1.92419
    A2        1.93262  -0.00127   0.00000  -0.00646  -0.00644   1.92618
    A3        1.91522   0.00007   0.00000  -0.00654  -0.00652   1.90870
    A4        1.87874   0.00102   0.00000   0.00708   0.00708   1.88581
    A5        1.89666  -0.00004   0.00000   0.00212   0.00210   1.89876
    A6        1.91351   0.00036   0.00000   0.00648   0.00642   1.91993
    A7        1.92540  -0.00000   0.00000  -0.00894  -0.00912   1.91628
    A8        1.92240  -0.00054   0.00000   0.00007   0.00012   1.92251
    A9        1.89386   0.00069   0.00000   0.00529   0.00532   1.89918
   A10        1.92050   0.00084   0.00000   0.00223   0.00228   1.92278
   A11        1.93097  -0.00111   0.00000  -0.00176  -0.00172   1.92925
   A12        1.86982   0.00011   0.00000   0.00354   0.00350   1.87332
   A13        1.89139  -0.00278   0.00000  -0.01423  -0.01423   1.87716
   A14        1.94482  -0.00012   0.00000  -0.00594  -0.00582   1.93900
   A15        1.90096   0.00210   0.00000   0.01680   0.01680   1.91777
   A16        1.95860   0.00242   0.00000   0.00639   0.00618   1.96478
   A17        1.93885  -0.00044   0.00000   0.00117   0.00128   1.94013
   A18        1.82858  -0.00105   0.00000  -0.00306  -0.00308   1.82550
   A19        1.92545   0.00118   0.00000   0.00093   0.00069   1.92614
   A20        1.95122  -0.00031   0.00000  -0.00298  -0.00289   1.94833
   A21        1.94025  -0.00073   0.00000  -0.00175  -0.00174   1.93851
   A22        1.85452  -0.00105   0.00000  -0.00039  -0.00033   1.85420
   A23        1.90755   0.00062   0.00000   0.00360   0.00369   1.91124
   A24        1.88219   0.00029   0.00000   0.00080   0.00077   1.88295
   A25        1.92226  -0.00089   0.00000  -0.00769  -0.00794   1.91432
   A26        1.91781   0.00074   0.00000   0.00183   0.00189   1.91970
   A27        1.93148  -0.00028   0.00000   0.00012   0.00017   1.93165
   A28        1.90334   0.00039   0.00000  -0.00022  -0.00015   1.90319
   A29        1.92476   0.00002   0.00000   0.00117   0.00124   1.92599
   A30        1.86316   0.00008   0.00000   0.00523   0.00519   1.86835
   A31        1.91871   0.00137   0.00000  -0.00142  -0.00146   1.91726
   A32        1.92297  -0.00100   0.00000  -0.00792  -0.00789   1.91509
   A33        1.89408  -0.00110   0.00000  -0.00778  -0.00779   1.88629
   A34        1.93613   0.00034   0.00000   0.00841   0.00840   1.94453
   A35        1.91457  -0.00015   0.00000   0.00359   0.00357   1.91814
   A36        1.87646   0.00048   0.00000   0.00495   0.00486   1.88132
   A37        1.93444   0.00175   0.00000   0.00824   0.00828   1.94272
   A38        1.93202  -0.00065   0.00000  -0.00635  -0.00640   1.92562
   A39        1.91688  -0.00240   0.00000  -0.01633  -0.01640   1.90048
   A40        1.86740  -0.00061   0.00000   0.00228   0.00228   1.86969
   A41        1.91605   0.00122   0.00000   0.01161   0.01166   1.92771
   A42        1.89611   0.00075   0.00000   0.00115   0.00101   1.89713
   A43        1.93651   0.00180   0.00000   0.00849   0.00849   1.94500
   A44        1.90195   0.00071   0.00000   0.00699   0.00703   1.90898
   A45        1.85515  -0.00117   0.00000  -0.00372  -0.00372   1.85144
   A46        1.93068  -0.00156   0.00000  -0.00966  -0.00968   1.92099
   A47        1.94527  -0.00032   0.00000  -0.00296  -0.00297   1.94230
   A48        1.89198   0.00056   0.00000   0.00125   0.00122   1.89320
   A49        1.97760  -0.00445   0.00000  -0.02571  -0.02564   1.95196
   A50        1.92852  -0.00087   0.00000  -0.00688  -0.00693   1.92159
   A51        1.92843  -0.00037   0.00000   0.00033   0.00034   1.92877
   A52        1.91981   0.00077   0.00000   0.00118   0.00118   1.92099
   A53        1.90814   0.00079   0.00000   0.00533   0.00536   1.91350
   A54        1.90359  -0.00028   0.00000  -0.00292  -0.00293   1.90066
   A55        1.87438  -0.00001   0.00000   0.00325   0.00324   1.87762
   A56        2.04225  -0.01145   0.00000  -0.04525  -0.04525   1.99701
   A57        1.91378   0.00023   0.00000  -0.00573  -0.00586   1.90792
   A58        1.90826  -0.00035   0.00000  -0.00886  -0.00882   1.89944
   A59        1.89826  -0.00035   0.00000   0.00400   0.00404   1.90229
   A60        1.92072  -0.00011   0.00000   0.00179   0.00169   1.92241
   A61        1.94853   0.00038   0.00000   0.00531   0.00541   1.95394
   A62        1.87349   0.00018   0.00000   0.00341   0.00339   1.87688
   A63        2.00530  -0.00528   0.00000  -0.03363  -0.03374   1.97156
    D1        0.90997  -0.00037   0.00000   0.00401   0.00401   0.91397
    D2        3.04901   0.00030   0.00000   0.00836   0.00835   3.05736
    D3       -1.18398  -0.00034   0.00000   0.00525   0.00526  -1.17872
    D4        2.98860   0.00002   0.00000   0.00730   0.00729   2.99590
    D5       -1.15553   0.00070   0.00000   0.01165   0.01163  -1.14390
    D6        0.89465   0.00006   0.00000   0.00854   0.00854   0.90320
    D7       -1.17986  -0.00030   0.00000   0.00690   0.00690  -1.17296
    D8        0.95919   0.00037   0.00000   0.01124   0.01124   0.97043
    D9        3.00938  -0.00027   0.00000   0.00813   0.00815   3.01753
   D10       -0.97745  -0.00105   0.00000  -0.01240  -0.01239  -0.98984
   D11       -3.04672  -0.00098   0.00000  -0.01643  -0.01639  -3.06311
   D12        1.14274   0.00004   0.00000  -0.00332  -0.00337   1.13936
[...]
 82,-0.00065495,-0.00030547,0.00123987,-0.00007558,0.00003293,-0.000051
 51,0.00002043,-0.00001507,0.00006503,-0.00102084,0.00147720,0.00052285
 ,-0.00000515,0.00000340,-0.00000106,-0.00000742,-0.00000039,0.00000345
 ,0.00009742,0.00003292,0.00001994,-0.00000229,0.00000830,0.00000159,0.
 00000146,-0.00000060,0.00000004,-0.00000006,0.00000149,-0.00000287,-0.
 00001881,0.00000609,-0.00000372,-0.00014611,-0.00001515,0.00027234,0.0
 0023525,0.00065907,0.00043594,-0.00194146,0.00081690,-0.01095547,0.012
 28712,-0.02191960,0.32215329,-0.00035309,-0.00000081,0.00008827,0.0000
 0013,-0.00000016,0.00000039,-0.00002779,-0.00000544,0.00000386,-0.0000
 1098,0.00000743,0.00000346,-0.00000010,0.00000088,-0.00000257,0.001381
 94,-0.00063139,-0.00110752,0.00142227,0.00051853,-0.00353764,-0.056103
 15,0.00188410,-0.01071706,-0.00089393,-0.00610478,-0.01164777,-0.00166
 997,0.00410606,-0.02191692,-0.00008324,0.00001927,0.00007261,-0.000001
 21,-0.00000144,-0.00000058,0.00002983,0.00000352,0.00000520,0.00007574
 ,-0.00003050,0.00012554,0.00000125,-0.00000024,0.00000044,0.00000064,0
 .00000031,-0.00000052,0.00000676,0.00000111,0.00000137,-0.00000010,-0.
 00000082,-0.00000065,-0.00000219,-0.00000093,0.00000199,0.00000045,0.0
 0000004,0.00000035,0.00000136,0.00000025,0.00000030,0.00020475,0.00001
 876,0.00031312,-0.00017613,0.00005592,0.00039730,0.00005035,0.00004254
 ,0.00018125,0.00031901,0.00016641,0.00045001,0.05352956,-0.00013136,-0
 .00055402,0.00037132,0.00000021,-0.00000007,0.00000164,0.00005577,0.00
 000553,0.00011232,0.00000603,-0.00000685,-0.00001091,-0.00000171,-0.00
 000663,0.00000345,-0.00131966,0.00066666,-0.00005659,0.00425538,0.0023
 2692,-0.00384807,0.00062726,-0.05006479,0.03062810,-0.01014690,-0.0132
 4962,-0.03942756,0.00219337,-0.00227426,0.02607820,-0.00033451,0.00024
 330,-0.00001390,-0.00001266,0.00000100,-0.00001283,-0.00002583,0.00003
 153,-0.00001691,0.00000905,-0.00011326,0.00002112,-0.00000051,0.000001
 16,-0.00000011,-0.00000092,-0.00000026,0.00000053,0.00000324,-0.000000
 75,-0.00000985,-0.00000138,0.00000266,0.00000079,0.00000001,-0.0000016
 8,0.00000142,-0.00000004,0.00000004,-0.00000094,-0.00000356,0.00000173
 ,-0.00000066,-0.00016686,-0.00009694,-0.00029068,0.00028942,0.00018146
 ,-0.00054893,0.00012557,-0.00004270,0.00028217,0.00022961,0.00031493,0
 .00139251,-0.00032065,0.06413478,0.00027310,-0.00026793,0.00017959,0.0
 0000195,0.00000112,0.00000038,0.00023583,-0.00006349,0.00024462,0.0000
 3812,-0.00003604,-0.00003585,-0.00000820,-0.00001685,0.00001572,0.0004
 3778,-0.00067518,0.00061981,0.00233702,0.00163686,0.00109414,-0.013465
 36,0.02765793,-0.29054139,-0.00552425,-0.01437874,-0.01565371,0.000459
 44,0.00254738,-0.00895630,-0.00066185,-0.00004815,-0.00009703,-0.00003
 301,0.00001783,-0.00003677,-0.00010500,0.00009859,-0.00002752,0.000084
 13,0.00007173,-0.00012806,-0.00000465,0.00000244,-0.00000132,-0.000005
 81,-0.00000067,0.00000341,-0.00001479,-0.00000151,-0.00002604,-0.00000
 262,0.00000700,0.00000248,0.00000217,-0.00000213,-0.00000224,0.0000005
 8,0.00000066,-0.00000215,-0.00001276,0.00000319,-0.00000199,-0.0000480
 1,0.00009146,0.00027480,-0.00069336,-0.00020132,0.00020714,-0.00016377
 ,-0.00018777,0.00048989,-0.00139843,-0.00039078,0.00046128,0.01983196,
 -0.01996592,0.32159359,0.00082105,0.00032792,0.00025952,0.00000303,0.0
 0000093,-0.00000436,0.00033408,0.00000495,0.00028213,0.00009481,-0.000
 07088,-0.00005791,-0.00001005,-0.00001787,0.00002115,-0.00101156,0.003
 83903,-0.00196761,0.00229484,-0.00077597,-0.00224282,-0.27108182,-0.03
 927842,0.09436493,-0.01060648,-0.00809295,0.00225664,-0.01738695,-0.00
 269417,0.00864858,-0.00057403,-0.00012334,-0.00004641,-0.00003515,0.00
 001895,-0.00003683,-0.00024023,0.00005527,-0.00005432,-0.00004390,-0.0
 0004901,-0.00003993,-0.00001091,0.00000201,-0.00000315,-0.00000984,-0.
 00000110,0.00000556,-0.00001345,-0.00000439,-0.00003412,0.00000010,0.0
 0000969,0.00000557,0.00000839,0.00000308,-0.00001670,0.00000073,0.0000
 0093,-0.00000345,-0.00001652,0.00000131,-0.00000186,-0.00114293,-0.000
 50076,0.00042509,0.00016726,-0.00002659,0.00010621,-0.00057348,-0.0001
 4698,0.00021147,-0.00001986,0.00005140,0.00018146,0.00366159,0.0011275
 2,-0.00027537,0.29430633,0.00002558,-0.00141059,0.00009016,-0.00000115
 ,0.00000194,0.00001057,0.00003959,-0.00007620,0.00012488,-0.00005570,0
 .00002682,0.00000359,0.00000088,-0.00000852,-0.00000073,0.00258880,-0.
 00414303,0.00246653,0.00055679,-0.00419837,-0.00397561,-0.03118914,-0.
 05298390,0.01415748,-0.03654387,-0.01576750,0.01128049,0.02297697,0.00
 636943,-0.01042365,-0.00035015,0.00055768,-0.00006033,-0.00001373,0.00
 000348,-0.00001572,0.00010783,0.00013494,-0.00000307,-0.00000465,0.000
 09614,0.00001924,0.00000599,0.00000271,0.00000153,0.00000262,0.0000002
 3,-0.00000151,0.00000735,0.00000140,-0.00000467,-0.00000865,0.00000113
 ,-0.00000208,-0.00000982,-0.00000895,0.00002001,-0.00000068,0.00000068
 ,-0.00000053,-0.00000155,0.00000467,-0.00000095,0.00163570,0.00054793,
 -0.00035855,-0.00028544,-0.00006471,-0.00002002,-0.00173037,-0.0004626
 2,0.00029817,0.00015107,0.00004782,0.00015055,-0.00252299,0.00071938,0
 .00224737,0.04666490,0.06914463,0.00015004,-0.00019382,0.00001020,-0.0
 0000016,0.00000010,-0.00000064,0.00004211,0.00000312,0.00006157,0.0000
 0928,-0.00001071,-0.00001079,-0.00000222,-0.00000214,0.00000170,-0.000
 88770,0.00100810,0.00028591,-0.00072504,-0.00161791,-0.00073134,0.1013
 7420,0.02002656,-0.09627359,-0.01573689,-0.00589135,0.00612913,-0.0097
 9140,-0.00091725,0.00350333,-0.00016501,0.00010509,0.00001503,-0.00000
 667,-0.00000040,-0.00000800,-0.00004151,0.00003007,-0.00001730,-0.0000
 0714,-0.00002578,0.00000014,-0.00000130,0.00000015,-0.00000033,-0.0000
 0107,-0.00000010,0.00000079,-0.00000027,-0.00000133,-0.00000553,-0.000
 00002,0.00000217,0.00000037,0.00000274,0.00000025,-0.00000159,0.000000
 45,0.00000014,-0.00000053,-0.00000181,0.00000034,-0.00000031,-0.000263
 97,0.00003019,0.00033836,-0.00035714,-0.00004863,0.00032599,-0.0003688
 0,-0.00020401,0.00043494,-0.00028097,-0.00014587,0.00048983,0.02822641
 ,0.00469250,-0.01067027,-0.10176267,-0.01582318,0.09523201,-0.00399114
 ,0.00254351,0.00334191,0.00000612,0.00000437,0.00000903,0.00093879,-0.
 00052897,0.00089500,0.00012029,-0.00010531,-0.00011474,-0.00003021,-0.
 00006326,0.00006031,-0.00953253,-0.02893377,-0.01331362,-0.00163473,0.
 00009843,0.00028241,0.00839701,0.01566729,0.01058380,-0.00155962,0.006
 84511,-0.00096900,-0.06980498,-0.06724262,-0.03397631,-0.00243060,-0.0
 0272309,-0.00031257,-0.00014408,0.00011870,-0.00014360,-0.00029543,0.0
 0037091,-0.00010619,0.00007313,0.00020640,-0.00014755,-0.00001214,0.00
 000996,-0.00000376,-0.00001703,-0.00000057,0.00000949,-0.00007119,0.00
 000212,-0.00009995,-0.00001557,0.00002457,0.00000752,0.00000210,-0.000
 00860,0.00000277,0.00000020,0.00000313,-0.00000888,-0.00004399,0.00001
 455,-0.00000749,0.00110768,0.00072421,-0.00065125,0.00142846,0.0005265
 8,0.00013777,0.00028754,-0.00006585,-0.00007798,0.00025775,0.00002011,
 -0.00001212,0.00068831,-0.00071635,-0.00027183,0.00026744,-0.00108262,
 0.00047891,0.07681892,-0.00033292,0.00210011,0.00101431,0.00000424,0.0
 0000203,-0.00000094,0.00042289,-0.00013859,0.00038951,0.00006843,-0.00
 005899,-0.00005382,-0.00001028,-0.00002836,0.00002764,-0.00209674,-0.0
 0531996,-0.00183815,0.00153496,0.00114420,-0.00069376,-0.01033259,-0.0
 1723835,-0.01100736,0.00312839,-0.00649060,0.00132030,-0.06664244,-0.2
 4777718,-0.09352129,-0.00076253,-0.00054341,-0.00028078,-0.00005002,0.
 00004028,-0.00005917,-0.00017894,0.00014026,-0.00005223,0.00000979,-0.
 00007587,-0.00011922,-0.00000863,0.00000422,-0.00000240,-0.00000946,-0
 .00000085,0.00000521,-0.00002554,-0.00000074,-0.00004515,-0.00000434,0
 .00001085,0.00000609,0.00000363,-0.00000090,-0.00000821,0.00000018,0.0
 0000156,-0.00000386,-0.00002012,0.00000494,-0.00000359,-0.00023645,0.0
 0042323,0.00015645,0.00010114,0.00017440,0.00017206,-0.00016645,-0.000
 09446,0.00001403,-0.00016896,-0.00005271,0.00014824,-0.00025284,0.0007
 5967,0.00055195,0.00032712,0.00058178,-0.00020036,0.07402053,0.2683192
 0,0.00173292,-0.00044333,-0.00030471,-0.00000091,0.00000053,-0.0000019
 4,-0.00010225,0.00018125,-0.00018919,-0.00000768,0.00000604,0.00001492
 ,0.00000916,0.00001137,-0.00001427,0.00395911,0.01185181,0.00398405,-0
 .00018703,-0.00015243,-0.00010882,0.00369223,0.00751066,0.00206938,-0.
 00094299,0.00199445,0.00129425,-0.03412094,-0.09573336,-0.09289270,0.0
 0075496,0.00053145,0.00029807,0.00003441,-0.00002809,0.00003218,0.0000
 1132,-0.00007493,0.00002058,0.00004952,0.00038936,0.00029540,0.0000004
 4,-0.00000244,0.00000003,0.00000136,-0.00000023,-0.00000115,0.00000566
 ,0.00000281,0.00002061,0.00000256,-0.00000291,-0.00000143,0.00000083,0
 .00000133,-0.00000332,-0.00000083,-0.00000065,0.00000110,0.00000832,-0
 .00000334,0.00000164,-0.00054303,-0.00041705,0.00010486,-0.00070448,0.
 00010044,0.00059931,0.00004435,-0.00000478,-0.00003409,-0.00005108,-0.
 00003777,-0.00001783,0.00050863,-0.00052846,0.00015082,0.00010521,-0.0
 0029643,0.00018783,0.03465667,0.10287594,0.09661362,0.00119897,0.00093
 853,0.00094683,0.00000162,0.00000153,-0.00000957,0.00009337,-0.0000901
 3,0.00003484,0.00002670,-0.00000659,0.00001420,-0.00000459,-0.00000293
 ,0.00000834,-0.00106890,-0.00321200,0.03262745,-0.00048630,-0.00012236
 ,0.00019287,-0.00227551,0.00244595,-0.02542926,0.00111355,-0.00150070,
 0.00158006,-0.04741580,-0.00050238,0.00050833,-0.00029248,0.00003786,-
 0.00058326,0.00000224,0.00000431,-0.00001135,-0.00000411,0.00001459,-0
 .00001263,-0.00006900,-0.00028699,-0.00050787,-0.00000603,-0.00000137,
 -0.00000132,-0.00000089,-0.00000003,0.00000129,-0.00003634,0.00000033,
 -0.00003188,-0.00000360,0.00000308,-0.00000035,0.00001533,-0.00000196,
 -0.00001655,0.00000093,-0.00000076,-0.00000090,-0.00000455,0.00000016,
 -0.00000056,0.00133172,0.00064786,-0.00059256,-0.00547216,-0.00226041,
 0.00173193,0.00011580,-0.00005150,0.00002260,-0.00011745,-0.00002827,-
 0.00012626,-0.00205209,0.00426348,-0.00100874,0.00082424,-0.00096411,0
 .00011950,-0.00081915,0.00167986,-0.00891218,0.05540510,0.00020635,0.0
 0012157,0.00101139,-0.00000006,-0.00000005,-0.00000302,-0.00006432,0.0
 0000158,-0.00005837,-0.00000169,0.00000659,0.00001082,-0.00000040,0.00
 000450,-0.00000209,0.00025645,-0.00137466,0.00705673,-0.00016914,-0.00
 020358,0.00011716,0.00163884,-0.00482063,0.02600170,-0.00065129,0.0028
 0403,-0.00054991,-0.00174156,-0.05239735,0.02551930,-0.00003098,0.0000
 4979,-0.00020425,0.00001232,-0.00000790,0.00000064,0.00001074,-0.00003
 536,0.00000486,-0.00015012,-0.00003486,-0.00006567,-0.00000017,-0.0000
 0106,0.00000034,0.00000111,0.00000005,-0.00000023,-0.00000460,-0.00000
 472,-0.00000906,0.00000296,-0.00000182,-0.00000003,0.00000311,-0.00000
 028,-0.00000392,0.00000050,-0.00000033,0.00000067,0.00000222,-0.000001
 72,0.00000059,0.00008009,0.00028623,-0.00042065,-0.00111375,0.00045790
 ,0.00048296,0.00000256,-0.00000546,-0.00002563,0.00003833,0.00006585,-
 0.00011010,0.00304706,-0.00297766,0.00130408,-0.00064572,0.00088080,-0
 .00081471,0.00027318,0.00411912,-0.02772949,-0.00100415,0.05306855,-0.
 00068379,-0.00067286,-0.00006490,-0.00000136,-0.00000190,0.00000758,-0
 .00015483,0.00005771,-0.00016946,-0.00005370,0.00003311,0.00001086,0.0
 0000603,0.00000883,-0.00001416,0.00112822,0.00090880,-0.01003862,-0.00
 014892,-0.00000543,0.00014350,-0.00113310,-0.00008257,-0.00970980,0.00
 119791,0.00040898,0.00173705,-0.00056236,0.02738250,-0.30611271,0.0003
 8963,0.00014107,0.00036359,0.00001838,-0.00001288,0.00001982,0.0001107
 5,-0.00002255,0.00003120,0.00012025,0.00056909,0.00028761,0.00000803,-
 0.00000021,0.00000191,0.00000436,0.00000053,-0.00000273,0.00002580,0.0
 0000280,0.00002408,0.00000050,-0.00000573,-0.00000177,-0.00000677,-0.0
 0000008,0.00001802,-0.00000044,0.00000023,0.00000240,0.00000919,-0.000
 00075,0.00000142,0.00018770,-0.00012530,0.00051511,0.00196865,0.000512
 16,0.00066551,-0.00000981,0.00007890,-0.00002157,-0.00004221,-0.000141
 88,-0.00014613,-0.00128064,0.00114837,0.00084592,-0.00032357,0.0001195
 0,0.00070448,-0.00023418,0.00121285,-0.01212034,-0.00054309,-0.0315161
 1,0.33302086,-0.00010417,-0.00009536,0.00042084,0.00113926,-0.00133110
 ,0.00010320,0.00035327,0.00714895,0.02762714,0.00054552,0.00022717,0.0
 0051180,-0.00516842,-0.00399098,-0.03037005,0.00008760,-0.00000267,-0.
 00014916,0.00000410,0.00007562,-0.00008403,-0.00001184,-0.00001423,-0.
 00000767,0.00009278,-0.00001090,-0.00000214,0.00000710,0.00004530,0.00
 002042,0.00179459,0.00029499,0.00046584,-0.05039034,-0.00671648,-0.036
 09123,-0.00016865,-0.00135314,-0.00073040,-0.00005345,-0.00000955,-0.0
 0029465,0.00005270,-0.00025819,0.00017632,0.00001370,0.00013315,0.0002
 9620,-0.00360872,-0.00206533,0.00150892,0.00000977,-0.00004117,0.00001
 732,0.00025617,-0.00010096,-0.00021343,-0.00476459,0.00313820,-0.00151
 043,0.00101643,-0.00078768,0.00062009,0.00000261,0.00002329,0.00000707
 ,-0.00002298,-0.00003234,-0.00001672,0.00000683,-0.00000172,0.00000373
 ,-0.00002391,0.00001514,-0.00000569,-0.00000039,0.00000078,0.00000241,
 0.00000264,0.00000211,0.00000048,0.00001597,0.00000568,-0.00000363,0.0
 0000222,0.00000156,-0.00000096,0.05959573,-0.00008923,-0.00006009,0.00
 022313,-0.00047231,0.00073708,0.00084749,0.00227356,0.00227589,0.01312
 408,-0.00017384,-0.00060314,0.00073961,0.00251211,0.00150164,0.0152309
 7,0.00006218,0.00000829,-0.00007612,-0.00000848,0.00004107,-0.00003381
 ,-0.00000726,-0.00000206,-0.00000834,0.00004614,-0.00001195,0.00000335
 ,-0.00000281,0.00001989,0.00001681,0.00162996,0.00017614,-0.00025916,-
 0.00732455,-0.05668847,-0.04255799,-0.00071612,-0.00083056,-0.00059202
 ,-0.00001293,-0.00000577,-0.00007708,-0.00007550,0.00018769,-0.0001936
 5,0.00002870,0.00017448,-0.00040442,-0.00111807,0.00011557,0.00059241,
 0.00005924,0.00008806,-0.00002905,-0.00029077,-0.00103462,0.00017052,0
 .00273061,-0.00064836,0.00127277,-0.00050836,0.00030134,-0.00052494,-0
 .00000573,0.00000433,0.00000893,-0.00001099,-0.00000713,-0.00000818,0.
 00000355,-0.00000207,-0.00000100,-0.00000115,0.00000258,0.00000459,0.0
 0000010,0.00000048,0.00000291,0.00000293,-0.00000060,0.00000058,0.0000
 1159,0.00000420,-0.00000264,0.00000120,0.00000047,-0.00000182,0.005839
 32,0.05829026,-0.00009588,0.00022026,0.00058634,-0.00037418,-0.0002045
 3,0.00081733,-0.00194082,-0.00544913,-0.01936793,-0.00007027,-0.000875
 96,-0.00097265,-0.00251938,-0.00049392,-0.00839066,0.00001354,0.000020
 86,0.00003495,0.00000802,-0.00006106,0.00008640,0.00000906,0.00001392,
 0.00000967,-0.00007032,0.00001478,-0.00001910,0.00000845,-0.00001523,-
 0.00000957,-0.00239624,-0.00026663,0.00173891,-0.03191349,-0.04071578,
 -0.29840125,0.00069687,0.00180059,0.00043681,-0.00032661,-0.00010481,0
 .00009550,0.00008643,0.00001261,0.00012087,-0.00017217,0.00063761,-0.0
 0028166,0.00221661,0.00180234,-0.00053438,0.00007921,0.00005409,0.0003
 9752,0.00032041,0.00005518,0.00056706,-0.00146316,0.00055693,0.0009019
 0,-0.00027649,0.00009203,0.00044273,0.00000736,-0.00002175,-0.00001246
 ,0.00002029,0.00000271,0.00000058,-0.00000412,0.00000400,-0.00000371,0
 .00000728,-0.00000212,-0.00000358,0.,-0.00000157,-0.00000202,-0.000002
 48,-0.00000205,-0.00000119,-0.00000816,-0.00000271,-0.00000115,0.00000
 096,0.00000094,0.00000078,0.03843477,0.04398784,0.32562545,-0.00011302
 ,0.00070711,-0.00010040,-0.00508860,0.00193730,-0.00322781,0.00105366,
 -0.02489141,-0.00660737,-0.00160810,0.00043042,0.00054549,0.00204741,0
 .02953509,0.00683297,0.00009290,0.00000775,0.00000869,-0.00001342,-0.0
 0015903,0.00012782,0.00001760,0.00002672,0.00002915,-0.00016962,0.0000
 3128,-0.00000339,0.00000551,0.00001493,-0.00001412,-0.00112742,0.00046
 464,0.00049662,-0.04752531,-0.00804774,-0.00113956,-0.00214904,-0.0042
 2300,0.00294418,-0.00003680,-0.00002605,0.00004860,-0.00004171,0.00183
 569,0.00034302,0.00000015,0.00013589,0.00019604,0.00100621,0.00032242,
 -0.00017120,0.00017598,-0.00004481,-0.00002814,0.00017036,-0.00014665,
 0.00007714,0.00115511,-0.00082710,-0.00013083,0.00116701,-0.00077608,0
 .00069794,0.00001766,0.00002441,-0.00001256,-0.00000272,0.00000345,-0.
 00000495,0.00000103,0.00001415,0.00000546,-0.00000143,-0.00000277,-0.0
 0000833,0.00000042,-0.00000380,-0.00000667,-0.00000938,-0.00000158,-0.
 00000235,-0.00000734,-0.00000761,-0.00000063,-0.00000284,0.00000056,0.
 00000431,-0.00068154,-0.00438308,-0.00027549,0.05166727,-0.00002406,0.
 00027183,-0.00010062,0.00215856,0.00037761,0.00164063,0.00288811,-0.01
 168411,-0.00332975,0.00013090,0.00113395,0.00048587,-0.00088988,-0.011
 02279,-0.00242477,-0.00000519,-0.00001862,0.00004480,0.00000440,-0.000
 11413,0.00004985,0.00001044,0.00001108,0.00002724,-0.00010679,0.000019
 64,-0.00000674,0.00000481,0.00000133,-0.00003157,-0.00118532,0.0001840
 3,0.00032698,-0.00912755,-0.31334351,-0.04223340,-0.00198440,-0.001188
 17,0.00136783,-0.00003015,-0.00002031,0.00001673,-0.00005216,-0.000832
 12,-0.00029313,0.00009248,-0.00003759,-0.00009585,0.00017383,0.0011138
 9,0.00019225,-0.00001918,-0.00008930,0.00003844,0.00005125,0.00010216,
 -0.00002818,-0.00014699,0.00030003,0.00029513,0.00016585,0.00057515,-0
 .00017974,0.00002051,0.00003695,-0.00001234,-0.00000379,0.00000316,-0.
 00000633,-0.00000296,0.00000976,0.00000571,-0.00000671,0.00000455,-0.0
 0001006,0.00000069,-0.00000175,-0.00000601,-0.00000981,0.00000141,-0.0
 0000181,-0.00001426,-0.00000907,0.00000090,-0.00000209,0.00000041,0.00
 000463,-0.00013945,-0.00403465,-0.00105944,0.00804891,0.33824916,0.000
 07288,-0.00006546,0.00007241,-0.00159754,0.00040808,0.00029727,-0.0000
 2257,0.01777450,0.00108192,0.00032736,-0.00094669,-0.00109075,0.000774
 41,0.01039631,0.00106666,-0.00005060,0.00002778,0.00000135,0.00001310,
 -0.00000085,0.00000871,0.00000452,0.00000243,0.00000015,-0.00000254,-0
 .00000207,-0.00000789,0.00000498,-0.00002213,-0.00000217,-0.00026408,-
 0.00010445,0.00010828,-0.00136219,-0.04584144,-0.05469970,0.00313104,0
 .00406689,-0.00202949,-0.00005122,0.00000507,-0.00002000,-0.00002046,0
 .00031673,0.00022930,-0.00013834,0.00033101,-0.00000574,-0.00065960,0.
 00031030,0.00055212,0.00000267,0.00002639,0.00025886,0.00019077,0.0000
 5619,0.00035399,0.00067968,-0.00008535,0.00033924,0.00033822,-0.000483
 78,0.00021850,-0.00001036,-0.00002464,0.00000034,0.00000568,-0.0000081
 0,0.00000118,0.00000440,-0.00000301,0.00000276,-0.00000238,0.00000129,
 -0.00000360,-0.00000059,-0.00000053,-0.00000090,0.00000003,-0.00000096
 ,-0.00000023,-0.00000641,-0.00000158,0.00000226,-0.00000086,0.00000107
 ,0.00000049,-0.00073636,-0.03145577,-0.00386152,-0.00062362,0.04532277
 ,0.05712621\\0.00001032,-0.00007935,-0.00002734,-0.00000636,-0.0000055
 8,-0.00000123,0.00008154,-0.00004342,-0.00010186,0.00001078,-0.0000101
 0,-0.00000696,0.00000027,0.00001036,-0.00000184,0.00000104,-0.00000435
 ,0.00000058,0.00000148,0.00000123,0.00000072,-0.00000698,-0.00000551,-
 0.00000283,0.00000030,-0.00000058,0.00000055,0.00000535,-0.00000143,-0
 .00000221,-0.00004230,0.00012083,0.00006640,0.00000292,0.00000004,0.00
 000258,-0.00005659,0.00001250,0.00007217,-0.00000062,-0.00000072,-0.00
 000218,-0.00000005,0.00000186,0.00000015,0.00000018,0.00000029,0.00000
 054,-0.00000243,-0.00000238,-0.00000305,-0.00000090,-0.00000072,-0.000
 00392,0.00000039,0.00000251,0.00000290,-0.00000082,-0.00000060,-0.0000
 0061,-0.00000046,0.00000139,0.00000138,0.00000370,0.00000037,-0.000001
 53,0.00000072,0.00000077,0.00000084,0.00000042,-0.00000046,0.00000036,
 -0.00000135,0.00000043,0.00000341,0.00000068,0.00000063,0.00000205,0.0
 0000055,-0.00000129,-0.00000137,0.00000030,0.00000037,0.00000110,-0.00
 000045,-0.00000097,-0.00000029,-0.00000025,0.00000262,0.00000189,-0.00
 000135,0.00000127,-0.00000037\\\@


 BE LIKE A POSTAGE STAMP.  STICK TO ONE THING UNTIL
 YOU GET THERE -- JOSH BILLINGS
 Job cpu time:       0 days 15 hours 16 minutes  1.4 seconds.
 Elapsed time:       0 days  0 hours 57 minutes 16.6 seconds.
 File lengths (MBytes):  RWF=    686 Int=      0 D2E=      0 Chk=     33 Scr=      1
 Normal termination of Gaussian 16 at Mon Nov  5 01:16:37 2018.
