 Entering Gaussian System, Link 0=g16
 Initial command:
 /apps/gaussian/g16a03/g16/l1.exe "/jobfs/local/2011839.r-man2/Gau-1229.inp" -scrdir="/jobfs/local/2011839.r-man2/"
 Entering Link 1 = /apps/gaussian/g16a03/g16/l1.exe PID=      1230.
  
 Copyright (c) 1988,1990,1992,1993,1995,1998,2003,2009,2016,
            Gaussian, Inc.  All Rights Reserved.
  
 This is part of the Gaussian(R) 16 program.  It is based on
 the Gaussian(R) 09 system (copyright 2009, Gaussian, Inc.),
 the Gaussian(R) 03 system (copyright 2003, Gaussian, Inc.),
 the Gaussian(R) 98 system (copyright 1998, Gaussian, Inc.),
 the Gaussian(R) 94 system (copyright 1995, Gaussian, Inc.),
 the Gaussian 92(TM) system (copyright 1992, Gaussian, Inc.),
 the Gaussian 90(TM) system (copyright 1990, Gaussian, Inc.),
 the Gaussian 88(TM) system (copyright 1988, Gaussian, Inc.),
 the Gaussian 86(TM) system (copyright 1986, Carnegie Mellon
 University), and the Gaussian 82(TM) system (copyright 1983,
 Carnegie Mellon University). Gaussian is a federally registered
 trademark of Gaussian, Inc.
  
 This software contains proprietary and confidential information,
 including trade secrets, belonging to Gaussian, Inc.
  
 This software is provided under written license and may be
 used, copied, transmitted, or stored only in accord with that
 written license.
  
 The following legend is applicable only to US Government
 contracts under FAR:
  
                    RESTRICTED RIGHTS LEGEND
  
 Use, reproduction and disclosure by the US Government is
 subject to restrictions as set forth in subparagraphs (a)
 and (c) of the Commercial Computer Software - Restricted
 Rights clause in FAR 52.227-19.
  
 Gaussian, Inc.
 340 Quinnipiac St., Bldg. 40, Wallingford CT 06492
  
  
 ---------------------------------------------------------------
 Warning -- This program may not be used in any manner that
 competes with the business of Gaussian, Inc. or will provide
 assistance to any competitor of Gaussian, Inc.  The licensee
 of this program is prohibited from giving any competitor of
 Gaussian, Inc. access to this program.  By using this program,
 the user acknowledges that Gaussian, Inc. is engaged in the
 business of creating and licensing software in the field of
 computational chemistry and represents and warrants to the
 licensee that it is not a competitor of Gaussian, Inc. and that
 it will not use this program in any manner prohibited above.
 ---------------------------------------------------------------
  

 Cite this work as:
 Gaussian 16, Revision A.03,
 M. J. Frisch, G. W. Trucks, H. B. Schlegel, G. E. Scuseria, 
 M. A. Robb, J. R. Cheeseman, G. Scalmani, V. Barone, 
 G. A. Petersson, H. Nakatsuji, X. Li, M. Caricato, A. V. Marenich, 
 J. Bloino, B. G. Janesko, R. Gomperts, B. Mennucci, H. P. Hratchian, 
 J. V. Ortiz, A. F. Izmaylov, J. L. Sonnenberg, D. Williams-Young, 
 F. Ding, F. Lipparini, F. Egidi, J. Goings, B. Peng, A. Petrone, 
 T. Henderson, D. Ranasinghe, V. G. Zakrzewski, J. Gao, N. Rega, 
 G. Zheng, W. Liang, M. Hada, M. Ehara, K. Toyota, R. Fukuda, 
 J. Hasegawa, M. Ishida, T. Nakajima, Y. Honda, O. Kitao, H. Nakai, 
 T. Vreven, K. Throssell, J. A. Montgomery, Jr., J. E. Peralta, 
 F. Ogliaro, M. J. Bearpark, J. J. Heyd, E. N. Brothers, K. N. Kudin, 
 V. N. Staroverov, T. A. Keith, R. Kobayashi, J. Normand, 
 K. Raghavachari, A. P. Rendell, J. C. Burant, S. S. Iyengar, 
 J. Tomasi, M. Cossi, J. M. Millam, M. Klene, C. Adamo, R. Cammi, 
 J. W. Ochterski, R. L. Martin, K. Morokuma, O. Farkas, 
 J. B. Foresman, and D. J. Fox, Gaussian, Inc., Wallingford CT, 2016.
 
 ******************************************
 Gaussian 16:  ES64L-G16RevA.03 25-Dec-2016
                 4-Nov-2018 
 ******************************************
 %mem=6000mb
 %nproc=24
 Will use up to   24 processors via shared memory.
 %chk=2SO_1_e4_D_PHI.inp_extract_4.chk
 ----------------------------------------------------------------------
 #M062X/6-311++G(2d,2p) opt=ModRedundant freq=noraman SCRF=(Solvent=Wat
 er)
 ----------------------------------------------------------------------
 1/18=120,19=15,26=3,38=1/1,3;
 2/9=110,12=2,17=6,18=5,40=1/2;
 3/5=4,6=6,7=1212,11=2,25=1,30=1,70=2201,71=1,72=1,74=-55/1,2,3;
 4//1;
 5/5=2,38=5,53=1/2;
 6/7=2,8=2,9=2,10=2,28=1/1;
 7//1,2,3,16;
 1/18=20,19=15,26=3/3(2);
 2/9=110/2;
 99//99;
 2/9=110/2;
 3/5=4,6=6,7=1212,11=2,25=1,30=1,70=2205,71=1,72=1,74=-55/1,2,3;
 4/5=5,16=3,69=1/1;
 5/5=2,38=5,53=1/2;
 7//1,2,3,16;
 1/18=20,19=15,26=3/3(-5);
 2/9=110/2;
 6/7=2,8=2,9=2,10=2,19=2,28=1/1;
 99/9=1/99;
 ----------------------------
 2SO_1_e4_D_PHI.inp_extract_4
 ----------------------------
 Symbolic Z-matrix:
 Charge =  0 Multiplicity = 1
 C                     1.08447  -0.31638  -0.21878 
 C                    -3.62397   0.96229  -0.12914 
 C                    -1.32713  -0.87081  -0.28812 
 C                    -2.17518   1.36972  -0.38122 
 C                    -3.70231  -0.5031    0.34817 
 C                     1.39149   0.8605    0.69995 
 C                     2.26298  -1.2837   -0.23893 
 C                     3.82094   0.42168   0.25476 
 O                     3.44962  -0.62482  -0.62438 
 C                     2.73685   1.4847    0.31813 
 O                    -0.02778  -1.06807   0.2307 
 C                    -2.33686  -0.98075   0.84237 
 O                    -1.4576    0.31736  -1.01348 
 H                     0.91439   0.0347   -1.22732 
 H                    -4.20541   1.09081  -1.03628 
 H                    -4.03993   1.63555   0.61457 
 H                    -1.49461  -1.65991  -1.01053 
 H                    -2.10948   2.21448  -1.0518 
 H                    -1.68347   1.63965   0.54443 
 H                    -4.02014  -1.14079  -0.47188 
 H                    -4.44219  -0.61358   1.13306 
 H                     0.60211   1.60091   0.64929 
 H                     1.43386   0.49612   1.72429 
 H                     2.09342  -2.07344  -0.95791 
 H                     2.39448  -1.73035   0.74407 
 H                     4.00776   0.005     1.24208 
 H                     4.74925   0.82424  -0.12691 
 H                     3.02015   2.24518   1.03978 
 H                     2.65902   1.97055  -0.65144 
 H                    -2.00531  -0.38575   1.68751 
 H                    -2.37545  -2.01395   1.16912 
 
 The following ModRedundant input section has been read:
 D      13       3      11       1 F                                           
 

 GradGradGradGradGradGradGradGradGradGradGradGradGradGradGradGradGradGrad
 Berny optimization.
 Initialization pass.
                           ----------------------------
                           !    Initial Parameters    !
                           ! (Angstroms and Degrees)  !
 --------------------------                            --------------------------
 ! Name  Definition              Value          Derivative Info.                !
 --------------------------------------------------------------------------------
 ! R1    R(1,6)                  1.5243         estimate D2E/DX2                !
 ! R2    R(1,7)                  1.5248         estimate D2E/DX2                !
 ! R3    R(1,11)                 1.4157         estimate D2E/DX2                !
 ! R4    R(1,14)                 1.0814         estimate D2E/DX2                !
 ! R5    R(2,4)                  1.526          estimate D2E/DX2                !
 ! R6    R(2,5)                  1.5432         estimate D2E/DX2                !
 ! R7    R(2,15)                 1.0851         estimate D2E/DX2                !
 ! R8    R(2,16)                 1.086          estimate D2E/DX2                !
 ! R9    R(3,11)                 1.4129         estimate D2E/DX2                !
 ! R10   R(3,12)                 1.5198         estimate D2E/DX2                !
 ! R11   R(3,13)                 1.3982         estimate D2E/DX2                !
 ! R12   R(3,17)                 1.0829         estimate D2E/DX2                !
 ! R13   R(4,13)                 1.422          estimate D2E/DX2                !
 ! R14   R(4,18)                 1.0806         estimate D2E/DX2                !
 ! R15   R(4,19)                 1.0823         estimate D2E/DX2                !
 ! R16   R(5,12)                 1.5287         estimate D2E/DX2                !
 ! R17   R(5,20)                 1.0863         estimate D2E/DX2                !
 ! R18   R(5,21)                 1.0843         estimate D2E/DX2                !
 ! R19   R(6,10)                 1.5315         estimate D2E/DX2                !
 ! R20   R(6,22)                 1.0835         estimate D2E/DX2                !
 ! R21   R(6,23)                 1.088          estimate D2E/DX2                !
 ! R22   R(7,9)                  1.411          estimate D2E/DX2                !
 ! R23   R(7,24)                 1.0814         estimate D2E/DX2                !
 ! R24   R(7,25)                 1.0877         estimate D2E/DX2                !
 ! R25   R(8,9)                  1.4163         estimate D2E/DX2                !
 ! R26   R(8,10)                 1.5196         estimate D2E/DX2                !
 ! R27   R(8,26)                 1.0878         estimate D2E/DX2                !
 ! R28   R(8,27)                 1.0814         estimate D2E/DX2                !
 ! R29   R(10,28)                1.086          estimate D2E/DX2                !
 ! R30   R(10,29)                1.0873         estimate D2E/DX2                !
 ! R31   R(12,30)                1.0855         estimate D2E/DX2                !
 ! R32   R(12,31)                1.0843         estimate D2E/DX2                !
 ! A1    A(6,1,7)              110.005          estimate D2E/DX2                !
 ! A2    A(6,1,11)             112.1384         estimate D2E/DX2                !
 ! A3    A(6,1,14)             110.0691         estimate D2E/DX2                !
 ! A4    A(7,1,11)             105.9373         estimate D2E/DX2                !
 ! A5    A(7,1,14)             108.3729         estimate D2E/DX2                !
 ! A6    A(11,1,14)            110.1781         estimate D2E/DX2                !
 ! A7    A(4,2,5)              110.661          estimate D2E/DX2                !
 ! A8    A(4,2,15)             109.817          estimate D2E/DX2                !
 ! A9    A(4,2,16)             108.1348         estimate D2E/DX2                !
 ! A10   A(5,2,15)             110.1112         estimate D2E/DX2                !
 ! A11   A(5,2,16)             110.9429         estimate D2E/DX2                !
 ! A12   A(15,2,16)            107.0873         estimate D2E/DX2                !
 ! A13   A(11,3,12)            109.1327         estimate D2E/DX2                !
 ! A14   A(11,3,13)            113.2626         estimate D2E/DX2                !
 ! A15   A(11,3,17)            106.5866         estimate D2E/DX2                !
 ! A16   A(12,3,13)            112.6671         estimate D2E/DX2                !
 ! A17   A(12,3,17)            109.9243         estimate D2E/DX2                !
 ! A18   A(13,3,17)            104.9942         estimate D2E/DX2                !
 ! A19   A(2,4,13)             110.7909         estimate D2E/DX2                !
 ! A20   A(2,4,18)             111.6526         estimate D2E/DX2                !
 ! A21   A(2,4,19)             110.8944         estimate D2E/DX2                !
 ! A22   A(13,4,18)            105.7797         estimate D2E/DX2                !
 ! A23   A(13,4,19)            109.6069         estimate D2E/DX2                !
 ! A24   A(18,4,19)            107.9476         estimate D2E/DX2                !
 ! A25   A(2,5,12)             110.5711         estimate D2E/DX2                !
 ! A26   A(2,5,20)             109.803          estimate D2E/DX2                !
 ! A27   A(2,5,21)             110.8116         estimate D2E/DX2                !
 ! A28   A(12,5,20)            108.7811         estimate D2E/DX2                !
 ! A29   A(12,5,21)            110.0992         estimate D2E/DX2                !
 ! A30   A(20,5,21)            106.6775         estimate D2E/DX2                !
 ! A31   A(1,6,10)             109.9605         estimate D2E/DX2                !
 ! A32   A(1,6,22)             110.6526         estimate D2E/DX2                !
 ! A33   A(1,6,23)             108.4649         estimate D2E/DX2                !
 ! A34   A(10,6,22)            110.4776         estimate D2E/DX2                !
 ! A35   A(10,6,23)            109.6942         estimate D2E/DX2                !
 ! A36   A(22,6,23)            107.5324         estimate D2E/DX2                !
 ! A37   A(1,7,9)              110.9394         estimate D2E/DX2                !
 ! A38   A(1,7,24)             110.5425         estimate D2E/DX2                !
 ! A39   A(1,7,25)             109.9991         estimate D2E/DX2                !
 ! A40   A(9,7,24)             106.9343         estimate D2E/DX2                !
 ! A41   A(9,7,25)             109.6923         estimate D2E/DX2                !
 ! A42   A(24,7,25)            108.6596         estimate D2E/DX2                !
 ! A43   A(9,8,10)             110.8383         estimate D2E/DX2                !
 ! A44   A(9,8,26)             108.9889         estimate D2E/DX2                !
 ! A45   A(9,8,27)             106.3224         estimate D2E/DX2                !
 ! A46   A(10,8,26)            110.6475         estimate D2E/DX2                !
 ! A47   A(10,8,27)            111.5118         estimate D2E/DX2                !
 ! A48   A(26,8,27)            108.3902         estimate D2E/DX2                !
 ! A49   A(7,9,8)              113.3265         estimate D2E/DX2                !
 ! A50   A(6,10,8)             110.608          estimate D2E/DX2                !
 ! A51   A(6,10,28)            110.4206         estimate D2E/DX2                !
 ! A52   A(6,10,29)            109.9721         estimate D2E/DX2                !
 ! A53   A(8,10,28)            109.3582         estimate D2E/DX2                !
 ! A54   A(8,10,29)            109.0543         estimate D2E/DX2                !
 ! A55   A(28,10,29)           107.3574         estimate D2E/DX2                !
 ! A56   A(1,11,3)             122.1266         estimate D2E/DX2                !
 ! A57   A(3,12,5)             109.2919         estimate D2E/DX2                !
 ! A58   A(3,12,30)            109.6686         estimate D2E/DX2                !
 ! A59   A(3,12,31)            108.4654         estimate D2E/DX2                !
 ! A60   A(5,12,30)            110.6872         estimate D2E/DX2                !
 ! A61   A(5,12,31)            111.3069         estimate D2E/DX2                !
 ! A62   A(30,12,31)           107.3709         estimate D2E/DX2                !
 ! A63   A(3,13,4)             116.4434         estimate D2E/DX2                !
 ! D1    D(7,1,6,10)            52.2696         estimate D2E/DX2                !
 ! D2    D(7,1,6,22)           174.5903         estimate D2E/DX2                !
 ! D3    D(7,1,6,23)           -67.6822         estimate D2E/DX2                !
 ! D4    D(11,1,6,10)          169.8888         estimate D2E/DX2                !
 ! D5    D(11,1,6,22)          -67.7906         estimate D2E/DX2                !
 ! D6    D(11,1,6,23)           49.9369         estimate D2E/DX2                !
 ! D7    D(14,1,6,10)          -67.0796         estimate D2E/DX2                !
 ! D8    D(14,1,6,22)           55.241          estimate D2E/DX2                !
 ! D9    D(14,1,6,23)          172.9685         estimate D2E/DX2                !
 ! D10   D(6,1,7,9)            -56.2511         estimate D2E/DX2                !
 ! D11   D(6,1,7,24)          -174.7042         estimate D2E/DX2                !
 ! D12   D(6,1,7,25)            65.2971         estimate D2E/DX2                !
 ! D13   D(11,1,7,9)          -177.653          estimate D2E/DX2                !
 ! D14   D(11,1,7,24)           63.8939         estimate D2E/DX2                !
 ! D15   D(11,1,7,25)          -56.1048         estimate D2E/DX2                !
 ! D16   D(14,1,7,9)            64.1282         estimate D2E/DX2                !
 ! D17   D(14,1,7,24)          -54.325          estimate D2E/DX2                !
 ! D18   D(14,1,7,25)         -174.3237         estimate D2E/DX2                !
 ! D19   D(6,1,11,3)            97.2031         estimate D2E/DX2                !
 ! D20   D(7,1,11,3)          -142.779          estimate D2E/DX2                !
 ! D21   D(14,1,11,3)          -25.767          estimate D2E/DX2                !
 ! D22   D(5,2,4,13)            40.532          estimate D2E/DX2                !
 ! D23   D(5,2,4,18)           158.1578         estimate D2E/DX2                !
 ! D24   D(5,2,4,19)           -81.4158         estimate D2E/DX2                !
 ! D25   D(15,2,4,13)          -81.237          estimate D2E/DX2                !
 ! D26   D(15,2,4,18)           36.3888         estimate D2E/DX2                !
 ! D27   D(15,2,4,19)          156.8151         estimate D2E/DX2                !
 ! D28   D(16,2,4,13)          162.2324         estimate D2E/DX2                !
 ! D29   D(16,2,4,18)          -80.1417         estimate D2E/DX2                !
 ! D30   D(16,2,4,19)           40.2846         estimate D2E/DX2                !
 ! D31   D(4,2,5,12)            17.56           estimate D2E/DX2                !
 ! D32   D(4,2,5,20)          -102.4819         estimate D2E/DX2                !
 ! D33   D(4,2,5,21)           139.9257         estimate D2E/DX2                !
 ! D34   D(15,2,5,12)          139.1558         estimate D2E/DX2                !
 ! D35   D(15,2,5,20)           19.114          estimate D2E/DX2                !
 ! D36   D(15,2,5,21)          -98.4784         estimate D2E/DX2                !
 ! D37   D(16,2,5,12)         -102.473          estimate D2E/DX2                !
 ! D38   D(16,2,5,20)          137.4852         estimate D2E/DX2                !
 ! D39   D(16,2,5,21)           19.8928         estimate D2E/DX2                !
 ! D40   D(12,3,11,1)         -141.0565         estimate D2E/DX2                !
 ! D41   D(13,3,11,1)          -14.6761         Frozen                          !
 ! D42   D(17,3,11,1)          100.2779         estimate D2E/DX2                !
 ! D43   D(11,3,12,5)          169.0456         estimate D2E/DX2                !
 ! D44   D(11,3,12,30)          47.5396         estimate D2E/DX2                !
 ! D45   D(11,3,12,31)         -69.4366         estimate D2E/DX2                !
 ! D46   D(13,3,12,5)           42.3249         estimate D2E/DX2                !
 ! D47   D(13,3,12,30)         -79.1812         estimate D2E/DX2                !
 ! D48   D(13,3,12,31)         163.8427         estimate D2E/DX2                !
 ! D49   D(17,3,12,5)          -74.3939         estimate D2E/DX2                !
 ! D50   D(17,3,12,30)         164.1001         estimate D2E/DX2                !
 ! D51   D(17,3,12,31)          47.1239         estimate D2E/DX2                !
 ! D52   D(11,3,13,4)         -106.1085         estimate D2E/DX2                !
 ! D53   D(12,3,13,4)           18.3746         estimate D2E/DX2                !
 ! D54   D(17,3,13,4)          137.9903         estimate D2E/DX2                !
 ! D55   D(2,4,13,3)           -62.8431         estimate D2E/DX2                !
 ! D56   D(18,4,13,3)          175.9969         estimate D2E/DX2                !
 ! D57   D(19,4,13,3)           59.8555         estimate D2E/DX2                !
 ! D58   D(2,5,12,3)           -59.4927         estimate D2E/DX2                !
 ! D59   D(2,5,12,30)           61.3952         estimate D2E/DX2                !
 ! D60   D(2,5,12,31)         -179.2757         estimate D2E/DX2                !
 ! D61   D(20,5,12,3)           61.1602         estimate D2E/DX2                !
 ! D62   D(20,5,12,30)        -177.952          estimate D2E/DX2                !
 ! D63   D(20,5,12,31)         -58.6229         estimate D2E/DX2                !
 ! D64   D(21,5,12,3)          177.7257         estimate D2E/DX2                !
 ! D65   D(21,5,12,30)         -61.3865         estimate D2E/DX2                !
 ! D66   D(21,5,12,31)          57.9426         estimate D2E/DX2                !
 ! D67   D(1,6,10,8)           -51.9954         estimate D2E/DX2                !
 ! D68   D(1,6,10,28)         -173.1857         estimate D2E/DX2                !
 ! D69   D(1,6,10,29)           68.5193         estimate D2E/DX2                !
 ! D70   D(22,6,10,8)         -174.4196         estimate D2E/DX2                !
 ! D71   D(22,6,10,28)          64.3901         estimate D2E/DX2                !
 ! D72   D(22,6,10,29)         -53.9049         estimate D2E/DX2                !
 ! D73   D(23,6,10,8)           67.2072         estimate D2E/DX2                !
 ! D74   D(23,6,10,28)         -53.9831         estimate D2E/DX2                !
 ! D75   D(23,6,10,29)        -172.278          estimate D2E/DX2                !
 ! D76   D(1,7,9,8)             60.9963         estimate D2E/DX2                !
 ! D77   D(24,7,9,8)          -178.3896         estimate D2E/DX2                !
 ! D78   D(25,7,9,8)           -60.7316         estimate D2E/DX2                !
 ! D79   D(10,8,9,7)           -60.2727         estimate D2E/DX2                !
 ! D80   D(26,8,9,7)            61.7321         estimate D2E/DX2                !
 ! D81   D(27,8,9,7)           178.3748         estimate D2E/DX2                !
 ! D82   D(9,8,10,6)            54.9861         estimate D2E/DX2                !
 ! D83   D(9,8,10,28)          176.8035         estimate D2E/DX2                !
 ! D84   D(9,8,10,29)          -66.0746         estimate D2E/DX2                !
 ! D85   D(26,8,10,6)          -66.0439         estimate D2E/DX2                !
 ! D86   D(26,8,10,28)          55.7735         estimate D2E/DX2                !
 ! D87   D(26,8,10,29)         172.8955         estimate D2E/DX2                !
 ! D88   D(27,8,10,6)          173.2317         estimate D2E/DX2                !
 ! D89   D(27,8,10,28)         -64.9509         estimate D2E/DX2                !
 ! D90   D(27,8,10,29)          52.1711         estimate D2E/DX2                !
 --------------------------------------------------------------------------------
 Trust Radius=3.00D-01 FncErr=1.00D-07 GrdErr=1.00D-06 EigMax=2.50D+02 EigMin=1.00D-04
 Number of steps in this run=    186 maximum allowed number of steps=    186.
 GradGradGradGradGradGradGradGradGradGradGradGradGradGradGradGradGradGrad

                          Input orientation:                          
 ---------------------------------------------------------------------
 Center     Atomic      Atomic             Coordinates (Angstroms)
 Number     Number       Type             X           Y           Z
 ---------------------------------------------------------------------
      1          6           0        1.084466   -0.316381   -0.218777
      2          6           0       -3.623968    0.962286   -0.129144
      3          6           0       -1.327128   -0.870814   -0.288116
      4          6           0       -2.175180    1.369715   -0.381216
      5          6           0       -3.702306   -0.503100    0.348166
      6          6           0        1.391487    0.860497    0.699945
      7          6           0        2.262978   -1.283704   -0.238928
      8          6           0        3.820938    0.421675    0.254755
      9          8           0        3.449620   -0.624817   -0.624375
     10          6           0        2.736852    1.484703    0.318129
     11          8           0       -0.027779   -1.068067    0.230702
     12          6           0       -2.336863   -0.980753    0.842366
     13          8           0       -1.457604    0.317363   -1.013476
     14          1           0        0.914391    0.034698   -1.227318
     15          1           0       -4.205408    1.090806   -1.036280
     16          1           0       -4.039935    1.635551    0.614573
     17          1           0       -1.494609   -1.659907   -1.010531
     18          1           0       -2.109477    2.214480   -1.051804
     19          1           0       -1.683465    1.639645    0.544432
     20          1           0       -4.020136   -1.140787   -0.471880
     21          1           0       -4.442186   -0.613578    1.133057
     22          1           0        0.602109    1.600907    0.649287
     23          1           0        1.433859    0.496123    1.724289
     24          1           0        2.093421   -2.073440   -0.957910
     25          1           0        2.394477   -1.730353    0.744070
     26          1           0        4.007764    0.004996    1.242083
     27          1           0        4.749247    0.824243   -0.126908
     28          1           0        3.020146    2.245184    1.039779
     29          1           0        2.659017    1.970554   -0.651443
     30          1           0       -2.005313   -0.385749    1.687512
     31          1           0       -2.375452   -2.013953    1.169119
 ---------------------------------------------------------------------
                    Distance matrix (angstroms):
                    1          2          3          4          5
     1  C    0.000000
     2  C    4.879792   0.000000
     3  C    2.475478   2.942958   0.000000
     4  C    3.673499   1.525951   2.397463   0.000000
     5  C    4.823844   1.543152   2.486270   2.524193   0.000000
     6  C    1.524255   5.084539   3.371138   3.761559   5.284872
     7  C    1.524798   6.301798   3.614106   5.172826   6.044720
     8  C    2.873541   7.474374   5.335524   6.103824   7.580444
     9  O    2.419421   7.266347   4.794883   5.972910   7.218774
    10  C    2.502509   6.397891   4.736236   4.962899   6.739067
    11  O    1.415681   4.145407   1.412936   3.305837   3.719561
    12  C    3.643200   2.525049   1.519750   2.654806   1.528666
    13  O    2.737754   2.427159   1.398190   1.422010   2.750621
    14  H    1.081359   4.760579   2.593542   3.470390   4.907674
    15  H    5.534551   1.085120   3.562611   2.151447   2.170331
    16  H    5.546530   1.086015   3.802109   2.130628   2.181466
    17  H    3.013895   3.490975   1.082867   3.168252   2.838694
    18  H    4.159383   2.170939   3.273275   1.080571   3.447066
    19  H    3.474186   2.162885   2.668804   1.082345   2.950525
    20  H    5.176936   2.167333   2.712738   3.116842   1.086341
    21  H    5.697338   2.178527   3.433583   3.371319   1.084289
    22  H    2.159212   4.344366   3.272627   2.971316   4.800574
    23  H    2.134887   5.406860   3.679856   4.268662   5.410393
    24  H    2.156749   6.526180   3.687152   5.514422   6.145100
    25  H    2.154651   6.650901   3.956584   5.635464   6.231665
    26  H    3.283758   7.812810   5.618685   6.536540   7.778331
    27  H    3.839282   8.374353   6.310431   6.950532   8.568330
    28  H    3.448541   6.867056   5.511038   5.456838   7.295393
    29  H    2.810068   6.384771   4.908638   4.878882   6.898160
    30  H    3.631182   2.781633   2.144371   2.718482   2.165041
    31  H    4.096222   3.478833   2.128211   3.727312   2.171907
                    6          7          8          9         10
     6  C    0.000000
     7  C    2.497714   0.000000
     8  C    2.508583   2.362050   0.000000
     9  O    2.862847   1.410964   1.416295   0.000000
    10  C    1.531478   2.863380   1.519634   2.417939   0.000000
    11  O    2.440054   2.348323   4.127049   3.608314   3.763969
    12  C    4.160658   4.734925   6.342760   5.980084   5.665323
    13  O    3.368698   4.123842   5.429760   5.011981   4.552946
    14  H    2.150327   2.129269   3.285469   2.688101   2.795047
    15  H    5.864533   6.936432   8.157005   7.855729   7.084106
    16  H    5.487107   6.998373   7.962179   7.920713   6.784945
    17  H    4.196155   3.854395   5.847134   5.066155   5.436835
    18  H    4.142299   5.658306   6.331751   6.256825   5.088830
    19  H    3.175939   4.973332   5.644981   5.730834   4.428817
    20  H    5.887612   6.289055   8.028183   7.489108   7.292064
    21  H    6.032597   6.876819   8.373911   8.085128   7.523661
    22  H    1.083462   3.445053   3.450667   3.832020   2.163399
    23  H    1.088046   2.776588   2.804143   3.291811   2.156935
    24  H    3.442264   1.081373   3.268099   2.012220   3.834405
    25  H    2.778568   1.087691   2.627821   2.051384   3.261170
    26  H    2.805477   2.626484   1.087815   2.047402   2.158342
    27  H    3.458259   3.261522   1.081427   2.009049   2.164255
    28  H    2.164573   3.829027   2.140728   3.345260   1.085986
    29  H    2.159886   3.304120   2.137822   2.713252   1.087281
    30  H    3.750556   4.768207   6.053918   5.929441   5.278440
    31  H    4.761556   4.902131   6.720386   6.251223   6.253034
                   11         12         13         14         15
    11  O    0.000000
    12  C    2.390319   0.000000
    13  O    2.347721   2.429475   0.000000
    14  H    2.056598   3.985647   2.398330   0.000000
    15  H    4.870170   3.363351   2.854674   5.231080   0.000000
    16  H    4.853278   3.130078   3.325146   5.522738   1.746266
    17  H    2.010603   2.145663   1.977618   2.953297   3.862061
    18  H    4.093092   3.721438   2.006355   3.731760   2.378195
    19  H    3.189267   2.717017   2.055850   3.530412   3.026561
    20  H    4.054359   2.141556   2.997682   5.128548   2.309303
    21  H    4.528553   2.156781   3.792359   5.889359   2.768937
    22  H    2.774057   3.916606   2.941884   2.464179   5.119918
    23  H    2.610341   4.144550   3.985959   3.032284   6.306800
    24  H    2.631171   4.905341   4.281215   2.430419   7.049386
    25  H    2.563102   4.791361   4.703258   3.031902   7.395070
    26  H    4.296506   6.433177   5.920757   3.958255   8.592212
    27  H    5.150602   7.376344   6.290304   4.066990   9.004658
    28  H    4.574067   6.256452   5.289858   3.802655   7.606000
    29  H    4.150936   5.991702   4.450919   2.668874   6.931262
    30  H    2.549214   1.085462   2.844238   4.147009   3.799957
    31  H    2.699425   1.084324   3.322830   4.556638   4.225169
                   16         17         18         19         20
    16  H    0.000000
    17  H    4.469865   0.000000
    18  H    2.615079   3.923091   0.000000
    19  H    2.357517   3.652481   1.749254   0.000000
    20  H    2.981413   2.633993   3.904452   3.771435   0.000000
    21  H    2.342907   3.791831   4.267676   3.610268   1.741235
    22  H    4.642303   4.217123   3.259276   2.288306   5.489904
    23  H    5.700192   4.550124   4.818161   3.523835   6.103171
    24  H    7.338077   3.612165   6.004950   5.505352   6.203358
    25  H    7.262764   4.267151   6.250798   5.293992   6.555409
    26  H    8.235165   6.174324   6.896693   5.962288   8.288406
    27  H    8.857637   6.777723   7.059057   6.518847   8.993466
    28  H    7.099098   6.311618   5.539738   4.768228   7.957103
    29  H    6.825759   5.528273   4.791485   4.516278   7.370466
    30  H    3.062113   3.027166   3.778345   2.347858   3.048371
    31  H    4.049309   2.377416   4.783606   3.770658   2.481992
                   21         22         23         24         25
    21  H    0.000000
    22  H    5.530180   0.000000
    23  H    6.009068   1.751566   0.000000
    24  H    7.015518   4.278775   3.772515   0.000000
    25  H    6.938188   3.784027   2.615495   1.762124   0.000000
    26  H    8.473262   3.807470   2.664341   3.581142   2.421187
    27  H    9.388146   4.290040   3.811350   4.017529   3.581830
    28  H    7.991722   2.532682   2.458470   4.847690   4.035319
    29  H    7.764616   2.461586   3.052714   4.094839   3.964108
    30  H    2.509517   3.438512   3.550627   5.161994   4.696402
    31  H    2.496746   4.712039   4.595601   4.949608   4.797220
                   26         27         28         29         30
    26  H    0.000000
    27  H    1.759289   0.000000
    28  H    2.456575   2.523890   0.000000
    29  H    3.044335   2.440948   1.751019   0.000000
    30  H    6.042200   7.097907   5.709344   5.725282   0.000000
    31  H    6.695291   7.777942   6.875279   6.673576   1.748366
                   31
    31  H    0.000000
 Stoichiometry    C10H18O3
 Framework group  C1[X(C10H18O3)]
 Deg. of freedom    87
 Full point group                 C1      NOp   1
 Largest Abelian subgroup         C1      NOp   1
 Largest concise Abelian subgroup C1      NOp   1
                         Standard orientation:                         
 ---------------------------------------------------------------------
 Center     Atomic      Atomic             Coordinates (Angstroms)
 Number     Number       Type             X           Y           Z
 ---------------------------------------------------------------------
      1          6           0        1.084466   -0.316381   -0.218777
      2          6           0       -3.623968    0.962286   -0.129144
      3          6           0       -1.327128   -0.870814   -0.288116
      4          6           0       -2.175180    1.369715   -0.381216
      5          6           0       -3.702306   -0.503100    0.348166
      6          6           0        1.391487    0.860497    0.699945
      7          6           0        2.262978   -1.283704   -0.238928
      8          6           0        3.820938    0.421675    0.254755
      9          8           0        3.449620   -0.624817   -0.624375
     10          6           0        2.736852    1.484703    0.318129
     11          8           0       -0.027779   -1.068067    0.230702
     12          6           0       -2.336863   -0.980753    0.842366
     13          8           0       -1.457604    0.317363   -1.013476
     14          1           0        0.914391    0.034698   -1.227318
     15          1           0       -4.205408    1.090806   -1.036280
     16          1           0       -4.039935    1.635551    0.614573
     17          1           0       -1.494609   -1.659907   -1.010531
     18          1           0       -2.109477    2.214480   -1.051804
     19          1           0       -1.683465    1.639645    0.544432
     20          1           0       -4.020136   -1.140787   -0.471880
     21          1           0       -4.442186   -0.613578    1.133057
     22          1           0        0.602109    1.600907    0.649287
     23          1           0        1.433859    0.496123    1.724289
     24          1           0        2.093421   -2.073440   -0.957910
     25          1           0        2.394477   -1.730353    0.744070
     26          1           0        4.007764    0.004996    1.242083
     27          1           0        4.749247    0.824243   -0.126908
     28          1           0        3.020146    2.245184    1.039779
     29          1           0        2.659017    1.970554   -0.651443
     30          1           0       -2.005313   -0.385749    1.687512
     31          1           0       -2.375452   -2.013953    1.169119
 ---------------------------------------------------------------------
 Rotational constants (GHZ):           2.0502698           0.3958142           0.3625361
 Standard basis: 6-311++G(2d,2p) (5D, 7F)
 There are   557 symmetry adapted cartesian basis functions of A   symmetry.
 There are   531 symmetry adapted basis functions of A   symmetry.
   531 basis functions,   762 primitive gaussians,   557 cartesian basis functions
    51 alpha electrons       51 beta electrons
       nuclear repulsion energy       888.7215674746 Hartrees.
 NAtoms=   31 NActive=   31 NUniq=   31 SFac= 1.00D+00 NAtFMM=   60 NAOKFM=F Big=F
 Integral buffers will be    131072 words long.
 Raffenetti 2 integral format.
 Two-electron integral symmetry is turned on.
 ------------------------------------------------------------------------------
 Polarizable Continuum Model (PCM)
 =================================
 Model                : PCM.
 Atomic radii         : UFF (Universal Force Field).
 Polarization charges : Total charges.
 Charge compensation  : None.
 Solution method      : On-the-fly selection.
 Cavity type          : Scaled VdW (van der Waals Surface) (Alpha=1.100).
 Cavity algorithm     : GePol (No added spheres)
                        Default sphere list used, NSphG=   31.
                        Lebedev-Laikov grids with approx.  5.0 points / Ang**2.
                        Smoothing algorithm: York/Karplus (Gamma=1.0000).
                        Polarization charges: spherical gaussians, with
                                              point-specific exponents (IZeta= 3).
                        Self-potential: point-specific (ISelfS= 7).
                        Self-field    : sphere-specific E.n sum rule (ISelfD= 2).
 1st derivatives      : Analytical E(r).r(x)/FMM algorithm (CHGder, D1EAlg=3).
                        Cavity 1st derivative terms included.
 Solvent              : Water, Eps=  78.355300 Eps(inf)=   1.777849
 ------------------------------------------------------------------------------
 One-electron integrals computed using PRISM.
 NBasis=   531 RedAO= T EigKep=  4.76D-06  NBF=   531
 NBsUse=   531 1.00D-06 EigRej= -1.00D+00 NBFU=   531
 ExpMin= 3.60D-02 ExpMax= 8.59D+03 ExpMxC= 1.30D+03 IAcc=3 IRadAn=         5 AccDes= 0.00D+00
 Harris functional with IExCor= 1009 and IRadAn=       5 diagonalized for initial guess.
 HarFok:  IExCor= 1009 AccDes= 0.00D+00 IRadAn=         5 IDoV= 1 UseB2=F ITyADJ=14
 ICtDFT=  3500011 ScaDFX=  1.000000  1.000000  1.000000  1.000000
 FoFCou: FMM=F IPFlag=           0 FMFlag=      100000 FMFlg1=           0
         NFxFlg=           0 DoJE=T BraDBF=F KetDBF=T FulRan=T
         wScrn=  0.000000 ICntrl=       500 IOpCl=  0 I1Cent=   200000004 NGrid=           0
         NMat0=    1 NMatS0=      1 NMatT0=    0 NMatD0=    1 NMtDS0=    0 NMtDT0=    0
 Petite list used in FoFCou.
 Requested convergence on RMS density matrix=1.00D-08 within 128 cycles.
 Requested convergence on MAX density matrix=1.00D-06.
 Requested convergence on             energy=1.00D-06.
 No special actions if energy rises.
 Inv3:  Mode=1 IEnd=    13066707.
 Iteration    1 A*A^-1 deviation from unit magnitude is 4.44D-15 for   2065.
 Iteration    1 A*A^-1 deviation from orthogonality  is 3.49D-15 for   2077    402.
 Iteration    1 A^-1*A deviation from unit magnitude is 4.44D-15 for   2065.
 Iteration    1 A^-1*A deviation from orthogonality  is 2.37D-15 for   1536   1519.
 Error on total polarization charges =  0.01497
 SCF Done:  E(RM062X) =  -617.488048762     A.U. after   12 cycles
            NFock= 12  Conv=0.53D-08     -V/T= 2.0035

 **********************************************************************

            Population analysis using the SCF density.

 **********************************************************************

 Orbital symmetries:
       Occupied  (A) (A) (A) (A) (A) (A) (A) (A) (A) (A) (A) (A)
                 (A) (A) (A) (A) (A) (A) (A) (A) (A) (A) (A) (A)
                 (A) (A) (A) (A) (A) (A) (A) (A) (A) (A) (A) (A)
                 (A) (A) (A) (A) (A) (A) (A) (A) (A) (A) (A) (A)
                 (A) (A) (A)
       Virtual   (A) (A) (A) (A) (A) (A) (A) (A) (A) (A) (A) (A)
                 (A) (A) (A) (A) (A) (A) (A) (A) (A) (A) (A) (A)
                 (A) (A) (A) (A) (A) (A) (A) (A) (A) (A) (A) (A)
                 (A) (A) (A) (A) (A) (A) (A) (A) (A) (A) (A) (A)
                 (A) (A) (A) (A) (A) (A) (A) (A) (A) (A) (A) (A)
                 (A) (A) (A) (A) (A) (A) (A) (A) (A) (A) (A) (A)
                 (A) (A) (A) (A) (A) (A) (A) (A) (A) (A) (A) (A)
                 (A) (A) (A) (A) (A) (A) (A) (A) (A) (A) (A) (A)
                 (A) (A) (A) (A) (A) (A) (A) (A) (A) (A) (A) (A)
                 (A) (A) (A) (A) (A) (A) (A) (A) (A) (A) (A) (A)
                 (A) (A) (A) (A) (A) (A) (A) (A) (A) (A) (A) (A)
                 (A) (A) (A) (A) (A) (A) (A) (A) (A) (A) (A) (A)
                 (A) (A) (A) (A) (A) (A) (A) (A) (A) (A) (A) (A)
                 (A) (A) (A) (A) (A) (A) (A) (A) (A) (A) (A) (A)
                 (A) (A) (A) (A) (A) (A) (A) (A) (A) (A) (A) (A)
                 (A) (A) (A) (A) (A) (A) (A) (A) (A) (A) (A) (A)
                 (A) (A) (A) (A) (A) (A) (A) (A) (A) (A) (A) (A)
                 (A) (A) (A) (A) (A) (A) (A) (A) (A) (A) (A) (A)
                 (A) (A) (A) (A) (A) (A) (A) (A) (A) (A) (A) (A)
                 (A) (A) (A) (A) (A) (A) (A) (A) (A) (A) (A) (A)
                 (A) (A) (A) (A) (A) (A) (A) (A) (A) (A) (A) (A)
                 (A) (A) (A) (A) (A) (A) (A) (A) (A) (A) (A) (A)
                 (A) (A) (A) (A) (A) (A) (A) (A) (A) (A) (A) (A)
                 (A) (A) (A) (A) (A) (A) (A) (A) (A) (A) (A) (A)
                 (A) (A) (A) (A) (A) (A) (A) (A) (A) (A) (A) (A)
                 (A) (A) (A) (A) (A) (A) (A) (A) (A) (A) (A) (A)
                 (A) (A) (A) (A) (A) (A) (A) (A) (A) (A) (A) (A)
                 (A) (A) (A) (A) (A) (A) (A) (A) (A) (A) (A) (A)
                 (A) (A) (A) (A) (A) (A) (A) (A) (A) (A) (A) (A)
                 (A) (A) (A) (A) (A) (A) (A) (A) (A) (A) (A) (A)
                 (A) (A) (A) (A) (A) (A) (A) (A) (A) (A) (A) (A)
                 (A) (A) (A) (A) (A) (A) (A) (A) (A) (A) (A) (A)
                 (A) (A) (A) (A) (A) (A) (A) (A) (A) (A) (A) (A)
                 (A) (A) (A) (A) (A) (A) (A) (A) (A) (A) (A) (A)
                 (A) (A) (A) (A) (A) (A) (A) (A) (A) (A) (A) (A)
                 (A) (A) (A) (A) (A) (A) (A) (A) (A) (A) (A) (A)
                 (A) (A) (A) (A) (A) (A) (A) (A) (A) (A) (A) (A)
                 (A) (A) (A) (A) (A) (A) (A) (A) (A) (A) (A) (A)
                 (A) (A) (A) (A) (A) (A) (A) (A) (A) (A) (A) (A)
                 (A) (A) (A) (A) (A) (A) (A) (A) (A) (A) (A) (A)
 The electronic state is 1-A.
 Alpha  occ. eigenvalues --  -19.63320 -19.62769 -19.62367 -10.63598 -10.58391
 Alpha  occ. eigenvalues --  -10.58071 -10.57773 -10.57656 -10.53280 -10.53139
 Alpha  occ. eigenvalues --  -10.53025 -10.52947 -10.52829  -1.19905  -1.16649
 Alpha  occ. eigenvalues --   -1.13594  -0.90930  -0.89820  -0.87580  -0.84352
 Alpha  occ. eigenvalues --   -0.75560  -0.74168  -0.73883  -0.69975  -0.65459
 Alpha  occ. eigenvalues --   -0.62942  -0.60357  -0.59490  -0.58218  -0.56655
 Alpha  occ. eigenvalues --   -0.55165  -0.52969  -0.52331  -0.50074  -0.49687
 Alpha  occ. eigenvalues --   -0.48001  -0.46485  -0.46067  -0.45928  -0.44964
 Alpha  occ. eigenvalues --   -0.44489  -0.42593  -0.40801  -0.40248  -0.39389
 Alpha  occ. eigenvalues --   -0.38962  -0.37579  -0.36334  -0.34486  -0.33651
 Alpha  occ. eigenvalues --   -0.31124
 Alpha virt. eigenvalues --   -0.00145   0.00756   0.00899   0.01023   0.02193
 Alpha virt. eigenvalues --    0.02451   0.02594   0.03397   0.03765   0.04187
 Alpha virt. eigenvalues --    0.04654   0.04779   0.05438   0.05997   0.06954
 Alpha virt. eigenvalues --    0.07186   0.07666   0.08160   0.08727   0.08894
 Alpha virt. eigenvalues --    0.09964   0.10549   0.10720   0.11642   0.12055
 Alpha virt. eigenvalues --    0.12246   0.12583   0.12824   0.13198   0.13404
 Alpha virt. eigenvalues --    0.13506   0.14077   0.14232   0.14683   0.15097
 Alpha virt. eigenvalues --    0.15490   0.15505   0.15797   0.16110   0.16440
 Alpha virt. eigenvalues --    0.16694   0.17080   0.17336   0.17594   0.17809
 Alpha virt. eigenvalues --    0.17960   0.18519   0.18685   0.19013   0.19156
 Alpha virt. eigenvalues --    0.19428   0.20106   0.20501   0.21075   0.21662
 Alpha virt. eigenvalues --    0.21898   0.23301   0.23581   0.24012   0.24266
 Alpha virt. eigenvalues --    0.24674   0.24995   0.25227   0.26103   0.26509
 Alpha virt. eigenvalues --    0.27249   0.27922   0.28376   0.29025   0.29305
 Alpha virt. eigenvalues --    0.29935   0.30073   0.30590   0.31363   0.31708
 Alpha virt. eigenvalues --    0.32283   0.32713   0.33594   0.33794   0.34504
 Alpha virt. eigenvalues --    0.34823   0.35110   0.35575   0.36281   0.36626
 Alpha virt. eigenvalues --    0.36802   0.37212   0.37443   0.37802   0.38130
 Alpha virt. eigenvalues --    0.39118   0.39236   0.39680   0.39873   0.40440
 Alpha virt. eigenvalues --    0.41194   0.41895   0.42303   0.43372   0.45599
 Alpha virt. eigenvalues --    0.46667   0.48124   0.49434   0.50306   0.51288
 Alpha virt. eigenvalues --    0.51762   0.53067   0.53858   0.54729   0.55151
 Alpha virt. eigenvalues --    0.55731   0.57239   0.57481   0.58672   0.58992
 Alpha virt. eigenvalues --    0.59120   0.59862   0.60943   0.61342   0.61473
 Alpha virt. eigenvalues --    0.61782   0.62252   0.62919   0.63570   0.63701
 Alpha virt. eigenvalues --    0.65091   0.65526   0.66307   0.66946   0.67284
 Alpha virt. eigenvalues --    0.67677   0.68610   0.69393   0.69827   0.70320
 Alpha virt. eigenvalues --    0.70769   0.71139   0.71501   0.72032   0.72735
 Alpha virt. eigenvalues --    0.73054   0.73720   0.74041   0.75031   0.75485
 Alpha virt. eigenvalues --    0.75896   0.76780   0.77563   0.77980   0.78728
 Alpha virt. eigenvalues --    0.81159   0.82215   0.83247   0.83937   0.85058
 Alpha virt. eigenvalues --    0.86026   0.87528   0.88089   0.88894   0.89849
 Alpha virt. eigenvalues --    0.91175   0.91404   0.92455   0.95045   0.95623
 Alpha virt. eigenvalues --    0.96606   0.97580   0.99480   1.00170   1.01062
 Alpha virt. eigenvalues --    1.03196   1.04280   1.05016   1.06197   1.06711
 Alpha virt. eigenvalues --    1.08272   1.08973   1.09594   1.10938   1.11513
 Alpha virt. eigenvalues --    1.12251   1.13153   1.13364   1.15146   1.15292
 Alpha virt. eigenvalues --    1.17260   1.17619   1.19367   1.19827   1.20588
 Alpha virt. eigenvalues --    1.21160   1.21743   1.22155   1.22931   1.24366
 Alpha virt. eigenvalues --    1.24822   1.26095   1.26521   1.27089   1.27668
 Alpha virt. eigenvalues --    1.28133   1.29095   1.30101   1.30959   1.31486
 Alpha virt. eigenvalues --    1.32128   1.32821   1.33669   1.34112   1.34390
 Alpha virt. eigenvalues --    1.35217   1.35695   1.36125   1.36491   1.37933
 Alpha virt. eigenvalues --    1.37960   1.39621   1.39959   1.40821   1.41834
 Alpha virt. eigenvalues --    1.42543   1.43749   1.44186   1.44692   1.45486
 Alpha virt. eigenvalues --    1.46155   1.47098   1.47363   1.47575   1.48896
 Alpha virt. eigenvalues --    1.49680   1.50431   1.50684   1.50975   1.51613
 Alpha virt. eigenvalues --    1.52529   1.53580   1.53938   1.54649   1.55121
 Alpha virt. eigenvalues --    1.56016   1.56284   1.57262   1.57736   1.58699
 Alpha virt. eigenvalues --    1.59193   1.59989   1.61066   1.62067   1.62301
 Alpha virt. eigenvalues --    1.62950   1.63607   1.64866   1.65569   1.66027
 Alpha virt. eigenvalues --    1.67828   1.68257   1.69006   1.70288   1.71120
 Alpha virt. eigenvalues --    1.72018   1.73679   1.75477   1.76096   1.77646
 Alpha virt. eigenvalues --    1.78577   1.79032   1.80872   1.82774   1.84528
 Alpha virt. eigenvalues --    1.85730   1.86764   1.89446   1.91848   1.96451
 Alpha virt. eigenvalues --    1.98580   2.06101   2.08201   2.14926   2.20937
 Alpha virt. eigenvalues --    2.23619   2.25999   2.27343   2.36549   2.39238
 Alpha virt. eigenvalues --    2.41276   2.42362   2.45268   2.50779   2.52068
 Alpha virt. eigenvalues --    2.57662   2.74654   2.75886   2.80377   2.82546
 Alpha virt. eigenvalues --    2.87210   2.89124   2.90757   2.92198   2.95058
 Alpha virt. eigenvalues --    2.95502   2.97196   3.00582   3.02180   3.03561
 Alpha virt. eigenvalues --    3.05463   3.06922   3.08498   3.08997   3.12974
 Alpha virt. eigenvalues --    3.13783   3.15105   3.16970   3.18304   3.20421
 Alpha virt. eigenvalues --    3.22766   3.28534   3.30498   3.30997   3.32191
 Alpha virt. eigenvalues --    3.35575   3.36358   3.37712   3.39380   3.40708
 Alpha virt. eigenvalues --    3.42482   3.43024   3.43627   3.45640   3.46678
 Alpha virt. eigenvalues --    3.47064   3.48305   3.49206   3.49459   3.51559
 Alpha virt. eigenvalues --    3.51830   3.52941   3.53287   3.54422   3.55831
 Alpha virt. eigenvalues --    3.57038   3.57510   3.58151   3.59163   3.60248
 Alpha virt. eigenvalues --    3.61065   3.61543   3.62419   3.62650   3.63482
 Alpha virt. eigenvalues --    3.67162   3.67968   3.68327   3.69352   3.69494
 Alpha virt. eigenvalues --    3.70308   3.71011   3.72262   3.73918   3.74867
 Alpha virt. eigenvalues --    3.75465   3.75791   3.76901   3.77087   3.78018
 Alpha virt. eigenvalues --    3.79138   3.80256   3.81694   3.83387   3.84738
 Alpha virt. eigenvalues --    3.86698   3.88461   3.89168   3.90125   3.91238
 Alpha virt. eigenvalues --    3.92664   3.93826   3.94277   3.95211   3.98142
 Alpha virt. eigenvalues --    3.99368   4.01685   4.02654   4.02867   4.03742
 Alpha virt. eigenvalues --    4.04891   4.05522   4.06626   4.07383   4.07716
 Alpha virt. eigenvalues --    4.08371   4.08999   4.09504   4.09847   4.11423
 Alpha virt. eigenvalues --    4.12040   4.13394   4.15660   4.15812   4.17010
 Alpha virt. eigenvalues --    4.18264   4.19274   4.20237   4.21053   4.21482
 Alpha virt. eigenvalues --    4.21842   4.23758   4.24591   4.24656   4.25695
 Alpha virt. eigenvalues --    4.27175   4.28701   4.29568   4.30136   4.32258
 Alpha virt. eigenvalues --    4.33722   4.35810   4.37106   4.37474   4.39843
 Alpha virt. eigenvalues --    4.41601   4.44273   4.45147   4.47265   4.52067
 Alpha virt. eigenvalues --    4.57865   4.58732   4.75407   4.76663   4.82665
 Alpha virt. eigenvalues --    4.83227   4.92792   4.94491   5.00314   5.01260
 Alpha virt. eigenvalues --    5.03146   5.06859   5.08642   5.11973   5.12773
 Alpha virt. eigenvalues --    5.14584   5.14954   5.19223   5.30651   5.40030
 Alpha virt. eigenvalues --    5.40548   5.56348   5.58898   5.63456   5.84524
 Alpha virt. eigenvalues --    5.88257   6.04814   6.99966   7.05367   7.05939
 Alpha virt. eigenvalues --    7.09269   7.09639   7.13019   7.13617   7.20163
 Alpha virt. eigenvalues --    7.28211   7.36344   7.37965   7.46903   7.53933
 Alpha virt. eigenvalues --    7.55129   7.57520  23.95635  23.99470  24.03100
 Alpha virt. eigenvalues --   24.06236  24.10690  24.11461  24.14448  24.14659
 Alpha virt. eigenvalues --   24.16809  24.20923  50.17522  50.18206  50.22432
          Condensed to atoms (all electrons):
               1          2          3          4          5          6
     1  C    8.014577   0.025574  -0.692636   0.000227  -0.003441  -1.462588
     2  C    0.025574   6.067901   0.196686  -0.301508  -0.282382   0.005474
     3  C   -0.692636   0.196686   6.752940  -0.408916  -0.145465  -0.013862
     4  C    0.000227  -0.301508  -0.408916   5.710188   0.349194   0.027442
     5  C   -0.003441  -0.282382  -0.145465   0.349194   5.736374  -0.006996
     6  C   -1.462588   0.005474  -0.013862   0.027442  -0.006996   7.079600
     7  C   -0.326486  -0.031808   0.037436   0.027444   0.023728  -0.185239
     8  C    0.329790   0.004694  -0.010353  -0.002175  -0.002109  -0.207176
     9  O    0.051475   0.000247   0.004734   0.001006  -0.000186  -0.019628
    10  C   -0.128922   0.007109  -0.085979   0.020128   0.001037  -0.066543
    11  O    0.222843   0.038045   0.228483   0.014662  -0.009364  -0.026572
    12  C    0.014200  -0.025556  -0.254523  -0.176001   0.008178   0.021781
    13  O    0.136153  -0.025282   0.234123   0.069914  -0.037487  -0.111344
    14  H    0.389663   0.006935   0.020870  -0.019012  -0.011983   0.044992
    15  H    0.005505   0.464422   0.001158  -0.077192  -0.073958  -0.005464
    16  H   -0.007685   0.483259  -0.001056  -0.043840  -0.064507   0.006803
    17  H   -0.005955   0.013292   0.540211  -0.065576  -0.045365  -0.010340
    18  H   -0.011285  -0.010896  -0.004810   0.428285   0.002736   0.015545
    19  H    0.014058  -0.046951   0.021718   0.453249  -0.005894  -0.005359
    20  H   -0.008344  -0.088964  -0.005944   0.011630   0.487559   0.002805
    21  H    0.000770  -0.054564  -0.002520   0.013400   0.440129  -0.000407
    22  H   -0.159314  -0.038292   0.018883   0.041264   0.007572   0.452955
    23  H   -0.023990  -0.000481   0.010666  -0.004126  -0.001432   0.502251
    24  H   -0.078871   0.000390  -0.006405  -0.000175  -0.000001   0.019222
    25  H   -0.003067   0.000723   0.004841   0.000176  -0.001082   0.021996
    26  H    0.022709  -0.000066   0.003135   0.000348   0.000193   0.007057
    27  H    0.003429   0.000234  -0.001782  -0.000140  -0.000150  -0.002375
    28  H   -0.011881  -0.000081  -0.006377   0.000948  -0.000296  -0.020314
    29  H   -0.046168  -0.001017  -0.001253   0.000848   0.000803   0.006011
    30  H   -0.030129  -0.004714   0.061043  -0.024552  -0.056514   0.005334
    31  H   -0.011967   0.008929  -0.051542   0.001281  -0.004909   0.009175
               7          8          9         10         11         12
     1  C   -0.326486   0.329790   0.051475  -0.128922   0.222843   0.014200
     2  C   -0.031808   0.004694   0.000247   0.007109   0.038045  -0.025556
     3  C    0.037436  -0.010353   0.004734  -0.085979   0.228483  -0.254523
     4  C    0.027444  -0.002175   0.001006   0.020128   0.014662  -0.176001
     5  C    0.023728  -0.002109  -0.000186   0.001037  -0.009364   0.008178
     6  C   -0.185239  -0.207176  -0.019628  -0.066543  -0.026572   0.021781
     7  C    6.285839  -0.262483   0.104344   0.120972  -0.278273  -0.010798
     8  C   -0.262483   5.491920   0.117532   0.052778   0.006664   0.000762
     9  O    0.104344   0.117532   8.339759  -0.043331   0.000171   0.000740
    10  C    0.120972   0.052778  -0.043331   5.761189   0.012762  -0.004407
    11  O   -0.278273   0.006664   0.000171   0.012762   8.389749  -0.224125
    12  C   -0.010798   0.000762   0.000740  -0.004407  -0.224125   5.937379
    13  O    0.006110   0.006043   0.000758  -0.008531  -0.030639   0.004996
    14  H   -0.062980   0.004222  -0.008239  -0.020045  -0.008370  -0.013737
    15  H    0.000717   0.000001   0.000008  -0.000446  -0.001144   0.049138
    16  H   -0.000534  -0.000120  -0.000003   0.001101   0.001858  -0.007606
    17  H   -0.003849   0.000242   0.000783  -0.006045  -0.099518  -0.021306
    18  H   -0.000649  -0.000304  -0.000005   0.000876   0.001825  -0.009522
    19  H   -0.002281   0.004030  -0.000348  -0.015883   0.002803  -0.003418
    20  H   -0.000620   0.000008  -0.000006   0.000181   0.001164  -0.025670
    21  H    0.000295  -0.000004  -0.000003  -0.000406  -0.003750  -0.037463
    22  H    0.035384  -0.050025  -0.001629   0.045325  -0.005819   0.003738
    23  H   -0.017857  -0.003466   0.000821  -0.086726   0.000988  -0.003947
    24  H    0.471167   0.004791  -0.073421   0.012296   0.003458  -0.003690
    25  H    0.330565   0.002404  -0.035251  -0.015016   0.006055   0.007543
    26  H   -0.048120   0.447909  -0.045581  -0.047637   0.000530   0.000608
    27  H    0.019321   0.428362  -0.071037  -0.035082   0.000659  -0.000180
    28  H   -0.004871  -0.032529   0.007122   0.431796  -0.001469   0.000933
    29  H    0.013838  -0.083247   0.000167   0.475541   0.000348   0.000843
    30  H   -0.000311  -0.000489   0.000135  -0.002962  -0.017550   0.449188
    31  H   -0.000262  -0.000518  -0.000034  -0.000024   0.004365   0.422561
              13         14         15         16         17         18
     1  C    0.136153   0.389663   0.005505  -0.007685  -0.005955  -0.011285
     2  C   -0.025282   0.006935   0.464422   0.483259   0.013292  -0.010896
     3  C    0.234123   0.020870   0.001158  -0.001056   0.540211  -0.004810
     4  C    0.069914  -0.019012  -0.077192  -0.043840  -0.065576   0.428285
     5  C   -0.037487  -0.011983  -0.073958  -0.064507  -0.045365   0.002736
     6  C   -0.111344   0.044992  -0.005464   0.006803  -0.010340   0.015545
     7  C    0.006110  -0.062980   0.000717  -0.000534  -0.003849  -0.000649
     8  C    0.006043   0.004222   0.000001  -0.000120   0.000242  -0.000304
     9  O    0.000758  -0.008239   0.000008  -0.000003   0.000783  -0.000005
    10  C   -0.008531  -0.020045  -0.000446   0.001101  -0.006045   0.000876
    11  O   -0.030639  -0.008370  -0.001144   0.001858  -0.099518   0.001825
    12  C    0.004996  -0.013737   0.049138  -0.007606  -0.021306  -0.009522
    13  O    8.249005  -0.022376  -0.007261   0.010138  -0.080336  -0.059979
    14  H   -0.022376   0.428816   0.000372   0.000398   0.002503   0.000185
    15  H   -0.007261   0.000372   0.512368  -0.019726   0.006558  -0.009590
    16  H    0.010138   0.000398  -0.019726   0.501531  -0.002300  -0.002629
    17  H   -0.080336   0.002503   0.006558  -0.002300   0.550962  -0.003706
    18  H   -0.059979   0.000185  -0.009590  -0.002629  -0.003706   0.458229
    19  H   -0.026553  -0.000363   0.005635  -0.008581   0.004510  -0.006396
    20  H   -0.000805   0.000466  -0.008647   0.004349  -0.001002  -0.001998
    21  H   -0.000927  -0.000184  -0.001191  -0.003400  -0.000265   0.000799
    22  H   -0.005911   0.005006   0.000693   0.002359  -0.000988  -0.002270
    23  H   -0.000790   0.005199  -0.000041  -0.000192  -0.001035  -0.000007
    24  H   -0.001095  -0.006916  -0.000061   0.000045  -0.004226   0.000090
    25  H    0.001346   0.001067   0.000029  -0.000020   0.002195  -0.000016
    26  H    0.000113  -0.001488   0.000003  -0.000009   0.000289  -0.000029
    27  H    0.000116  -0.000145   0.000001   0.000006  -0.000109   0.000031
    28  H   -0.000772  -0.000804  -0.000069   0.000092  -0.000432   0.000442
    29  H    0.000294  -0.004986  -0.000013  -0.000062   0.000173   0.000009
    30  H   -0.005560  -0.000480  -0.000844  -0.000758   0.009350  -0.003175
    31  H    0.007210   0.000365   0.000294  -0.000404  -0.015556   0.001190
              19         20         21         22         23         24
     1  C    0.014058  -0.008344   0.000770  -0.159314  -0.023990  -0.078871
     2  C   -0.046951  -0.088964  -0.054564  -0.038292  -0.000481   0.000390
     3  C    0.021718  -0.005944  -0.002520   0.018883   0.010666  -0.006405
     4  C    0.453249   0.011630   0.013400   0.041264  -0.004126  -0.000175
     5  C   -0.005894   0.487559   0.440129   0.007572  -0.001432  -0.000001
     6  C   -0.005359   0.002805  -0.000407   0.452955   0.502251   0.019222
     7  C   -0.002281  -0.000620   0.000295   0.035384  -0.017857   0.471167
     8  C    0.004030   0.000008  -0.000004  -0.050025  -0.003466   0.004791
     9  O   -0.000348  -0.000006  -0.000003  -0.001629   0.000821  -0.073421
    10  C   -0.015883   0.000181  -0.000406   0.045325  -0.086726   0.012296
    11  O    0.002803   0.001164  -0.003750  -0.005819   0.000988   0.003458
    12  C   -0.003418  -0.025670  -0.037463   0.003738  -0.003947  -0.003690
    13  O   -0.026553  -0.000805  -0.000927  -0.005911  -0.000790  -0.001095
    14  H   -0.000363   0.000466  -0.000184   0.005006   0.005199  -0.006916
    15  H    0.005635  -0.008647  -0.001191   0.000693  -0.000041  -0.000061
    16  H   -0.008581   0.004349  -0.003400   0.002359  -0.000192   0.000045
    17  H    0.004510  -0.001002  -0.000265  -0.000988  -0.001035  -0.004226
    18  H   -0.006396  -0.001998   0.000799  -0.002270  -0.000007   0.000090
    19  H    0.502335  -0.000543  -0.001368  -0.008860   0.002151  -0.000024
    20  H   -0.000543   0.484444  -0.008872   0.000544   0.000146   0.000112
    21  H   -0.001368  -0.008872   0.486654  -0.000127  -0.000009  -0.000138
    22  H   -0.008860   0.000544  -0.000127   0.558840  -0.021113  -0.001023
    23  H    0.002151   0.000146  -0.000009  -0.021113   0.444784  -0.001607
    24  H   -0.000024   0.000112  -0.000138  -0.001023  -0.001607   0.492981
    25  H   -0.000458  -0.000065   0.000118   0.000316  -0.005821  -0.024799
    26  H   -0.000128  -0.000005   0.000009   0.003911  -0.009610  -0.003575
    27  H   -0.000329   0.000003  -0.000005   0.001336  -0.000730   0.002614
    28  H   -0.000334   0.000022  -0.000005  -0.014428  -0.003659   0.002489
    29  H    0.000366  -0.000030   0.000025   0.000621   0.000662  -0.002131
    30  H   -0.013049   0.002481  -0.004009   0.005997  -0.001801  -0.000668
    31  H   -0.000394  -0.004110  -0.008012  -0.000461   0.000798   0.000617
              25         26         27         28         29         30
     1  C   -0.003067   0.022709   0.003429  -0.011881  -0.046168  -0.030129
     2  C    0.000723  -0.000066   0.000234  -0.000081  -0.001017  -0.004714
     3  C    0.004841   0.003135  -0.001782  -0.006377  -0.001253   0.061043
     4  C    0.000176   0.000348  -0.000140   0.000948   0.000848  -0.024552
     5  C   -0.001082   0.000193  -0.000150  -0.000296   0.000803  -0.056514
     6  C    0.021996   0.007057  -0.002375  -0.020314   0.006011   0.005334
     7  C    0.330565  -0.048120   0.019321  -0.004871   0.013838  -0.000311
     8  C    0.002404   0.447909   0.428362  -0.032529  -0.083247  -0.000489
     9  O   -0.035251  -0.045581  -0.071037   0.007122   0.000167   0.000135
    10  C   -0.015016  -0.047637  -0.035082   0.431796   0.475541  -0.002962
    11  O    0.006055   0.000530   0.000659  -0.001469   0.000348  -0.017550
    12  C    0.007543   0.000608  -0.000180   0.000933   0.000843   0.449188
    13  O    0.001346   0.000113   0.000116  -0.000772   0.000294  -0.005560
    14  H    0.001067  -0.001488  -0.000145  -0.000804  -0.004986  -0.000480
    15  H    0.000029   0.000003   0.000001  -0.000069  -0.000013  -0.000844
    16  H   -0.000020  -0.000009   0.000006   0.000092  -0.000062  -0.000758
    17  H    0.002195   0.000289  -0.000109  -0.000432   0.000173   0.009350
    18  H   -0.000016  -0.000029   0.000031   0.000442   0.000009  -0.003175
    19  H   -0.000458  -0.000128  -0.000329  -0.000334   0.000366  -0.013049
    20  H   -0.000065  -0.000005   0.000003   0.000022  -0.000030   0.002481
    21  H    0.000118   0.000009  -0.000005  -0.000005   0.000025  -0.004009
    22  H    0.000316   0.003911   0.001336  -0.014428   0.000621   0.005997
    23  H   -0.005821  -0.009610  -0.000730  -0.003659   0.000662  -0.001801
    24  H   -0.024799  -0.003575   0.002614   0.002489  -0.002131  -0.000668
    25  H    0.509038   0.012972  -0.003175  -0.002540   0.002198   0.001250
    26  H    0.012972   0.508649  -0.009423   0.003708   0.002911   0.000455
    27  H   -0.003175  -0.009423   0.476883  -0.009295  -0.005344  -0.000047
    28  H   -0.002540   0.003708  -0.009295   0.497420  -0.008834  -0.000217
    29  H    0.002198   0.002911  -0.005344  -0.008834   0.475452   0.000270
    30  H    0.001250   0.000455  -0.000047  -0.000217   0.000270   0.454831
    31  H   -0.000975  -0.000136   0.000003   0.000053   0.000016  -0.015147
              31
     1  C   -0.011967
     2  C    0.008929
     3  C   -0.051542
     4  C    0.001281
     5  C   -0.004909
     6  C    0.009175
     7  C   -0.000262
     8  C   -0.000518
     9  O   -0.000034
    10  C   -0.000024
    11  O    0.004365
    12  C    0.422561
    13  O    0.007210
    14  H    0.000365
    15  H    0.000294
    16  H   -0.000404
    17  H   -0.015556
    18  H    0.001190
    19  H   -0.000394
    20  H   -0.004110
    21  H   -0.008012
    22  H   -0.000461
    23  H    0.000798
    24  H    0.000617
    25  H   -0.000975
    26  H   -0.000136
    27  H    0.000003
    28  H    0.000053
    29  H    0.000016
    30  H   -0.015147
    31  H    0.466218
 Mulliken charges:
               1
     1  C   -0.218247
     2  C   -0.411353
     3  C   -0.443502
     4  C   -0.048420
     5  C   -0.303985
     6  C   -0.084235
     7  C   -0.239741
     8  C   -0.247152
     9  O   -0.331098
    10  C   -0.375108
    11  O   -0.230840
    12  C   -0.100638
    13  O   -0.300674
    14  H    0.271048
    15  H    0.158747
    16  H    0.151495
    17  H    0.236840
    18  H    0.217026
    19  H    0.136657
    20  H    0.159713
    21  H    0.185430
    22  H    0.125518
    23  H    0.219974
    24  H    0.198553
    25  H    0.187453
    26  H    0.150299
    27  H    0.206352
    28  H    0.174184
    29  H    0.171690
    30  H    0.192642
    31  H    0.191373
 Sum of Mulliken charges =  -0.00000
 Mulliken charges with hydrogens summed into heavy atoms:
               1
     1  C    0.052801
     2  C   -0.101111
     3  C   -0.206662
     4  C    0.305262
     5  C    0.041158
     6  C    0.261256
     7  C    0.146264
     8  C    0.109500
     9  O   -0.331098
    10  C   -0.029234
    11  O   -0.230840
    12  C    0.283378
    13  O   -0.300674
 Electronic spatial extent (au):  <R**2>=           3163.7442
 Charge=             -0.0000 electrons
 Dipole moment (field-independent basis, Debye):
    X=             -2.5820    Y=              2.1298    Z=              2.0263  Tot=              3.9127
 Quadrupole moment (field-independent basis, Debye-Ang):
   XX=            -76.7226   YY=            -77.3170   ZZ=            -82.3859
   XY=              3.9956   XZ=              3.4181   YZ=              1.0394
 Traceless Quadrupole moment (field-independent basis, Debye-Ang):
   XX=              2.0859   YY=              1.4915   ZZ=             -3.5774
   XY=              3.9956   XZ=              3.4181   YZ=              1.0394
 Octapole moment (field-independent basis, Debye-Ang**2):
  XXX=            -31.7649  YYY=             -0.2220  ZZZ=              0.0842  XYY=             -3.4413
  XXY=             20.7968  XXZ=             23.7389  XZZ=             -0.7780  YZZ=             -0.6339
  YYZ=             -4.9209  XYZ=             -1.9051
 Hexadecapole moment (field-independent basis, Debye-Ang**3):
 XXXX=          -3331.8542 YYYY=           -597.5455 ZZZZ=           -280.0630 XXXY=             74.3315
 XXXZ=             62.0498 YYYX=            -11.0366 YYYZ=              1.5850 ZZZX=              0.4686
 ZZZY=              0.9985 XXYY=           -639.8517 XXZZ=           -607.9558 YYZZ=           -139.2306
 XXYZ=            -14.3075 YYXZ=              3.7108 ZZXY=             -1.2352
 N-N= 8.887215674746D+02 E-N=-3.219268248370D+03  KE= 6.153407294829D+02
 D1PCM: PCM CHGder 1st derivatives, ID1Alg=3 FixD1E=F DoIter=F DoCFld=F I1PDM=0.
 Calling FoFJK, ICntrl=      2127 FMM=F ISym2X=0 I1Cent= 0 IOpClX= 0 NMat=1 NMatS=1 NMatT=0.
 ***** Axes restored to original set *****
 -------------------------------------------------------------------
 Center     Atomic                   Forces (Hartrees/Bohr)
 Number     Number              X              Y              Z
 -------------------------------------------------------------------
      1        6          -0.001449803   -0.003478393    0.001237825
      2        6           0.001361445   -0.001226482    0.000972900
      3        6          -0.000800496    0.002426305   -0.001521512
      4        6          -0.002542525   -0.005259360    0.000843263
      5        6           0.003051728    0.001888989    0.000087029
      6        6           0.003733375   -0.001519284   -0.003558001
      7        6           0.000674957    0.007097689   -0.000173761
      8        6          -0.006842200    0.000350187   -0.001410048
      9        8           0.004735819   -0.002070801   -0.007475207
     10        6          -0.000407253   -0.001644182    0.001949925
     11        8           0.001955542   -0.000747773    0.014380479
     12        6          -0.001727039   -0.000021037   -0.003006984
     13        8           0.002384510    0.002979563   -0.005837268
     14        1          -0.000330564    0.003232023   -0.006223243
     15        1          -0.001093819    0.000254883   -0.002426629
     16        1          -0.001270592    0.001534741    0.002191032
     17        1          -0.002285067   -0.005360467   -0.005226050
     18        1           0.000255902    0.003578317   -0.002491307
     19        1           0.002324880    0.001845266    0.006186432
     20        1          -0.000388735   -0.001744837   -0.002609676
     21        1          -0.001711712   -0.000207300    0.001779964
     22        1          -0.003841802    0.002342301   -0.000795740
     23        1           0.000068277   -0.002247410    0.003121011
     24        1          -0.001475124   -0.003261753   -0.003004817
     25        1          -0.001073734   -0.002009518    0.006250368
     26        1           0.000329038   -0.001463836    0.006029615
     27        1           0.003684024    0.001754623   -0.001626599
     28        1           0.000520558    0.002314982    0.001901297
     29        1          -0.000138091    0.000799133   -0.003111584
     30        1           0.002198722    0.002641510    0.002454992
     31        1           0.000099777   -0.002778077    0.001112294
 -------------------------------------------------------------------
 Cartesian Forces:  Max     0.014380479 RMS     0.003248256

 GradGradGradGradGradGradGradGradGradGradGradGradGradGradGradGradGradGrad
 Berny optimization.
 FormGI is forming the generalized inverse of G from B-inverse, IUseBI=4.
 Internal  Forces:  Max     0.015634777 RMS     0.002178638
 Search for a local minimum.
 Step number   1 out of a maximum of  186
 All quantities printed in internal units (Hartrees-Bohrs-Radians)
 Mixed Optimization -- RFO/linear search
 Second derivative matrix not updated -- first step.
 ITU=  0
     Eigenvalues ---    0.00396   0.00637   0.00735   0.00763   0.01366
     Eigenvalues ---    0.01445   0.01484   0.02669   0.02771   0.03139
     Eigenvalues ---    0.03165   0.04041   0.04349   0.04448   0.04779
     Eigenvalues ---    0.04845   0.04945   0.04980   0.05147   0.05158
     Eigenvalues ---    0.05179   0.05544   0.05738   0.05987   0.06150
     Eigenvalues ---    0.06387   0.06517   0.06816   0.07592   0.07829
     Eigenvalues ---    0.07878   0.07981   0.07991   0.08016   0.08148
     Eigenvalues ---    0.08533   0.09345   0.09496   0.10879   0.11627
     Eigenvalues ---    0.11632   0.11703   0.11727   0.12500   0.12629
     Eigenvalues ---    0.14536   0.15858   0.16538   0.17573   0.19126
     Eigenvalues ---    0.20650   0.21775   0.22276   0.25000   0.27023
     Eigenvalues ---    0.27768   0.28546   0.28667   0.28895   0.29217
     Eigenvalues ---    0.29754   0.30190   0.35039   0.35066   0.35081
     Eigenvalues ---    0.35129   0.35239   0.35277   0.35281   0.35342
     Eigenvalues ---    0.35383   0.35477   0.35481   0.35579   0.35650
     Eigenvalues ---    0.35713   0.35822   0.35829   0.35831   0.35925
     Eigenvalues ---    0.39742   0.41500   0.42321   0.43118   0.43542
     Eigenvalues ---    0.439651000.000001000.000001000.000001000.00000
     Eigenvalues --- 1000.000001000.000001000.000001000.000001000.00000
     Eigenvalues --- 1000.000001000.000001000.000001000.000001000.00000
     Eigenvalues --- 1000.000001000.000001000.000001000.000001000.00000
     Eigenvalues --- 1000.000001000.000001000.000001000.000001000.00000
     Eigenvalues --- 1000.000001000.000001000.000001000.000001000.00000
     Eigenvalues --- 1000.000001000.000001000.000001000.000001000.00000
     Eigenvalues --- 1000.000001000.000001000.000001000.000001000.00000
     Eigenvalues --- 1000.000001000.000001000.000001000.000001000.00000
     Eigenvalues --- 1000.000001000.000001000.000001000.000001000.00000
     Eigenvalues --- 1000.000001000.000001000.000001000.000001000.00000
     Eigenvalues --- 1000.000001000.000001000.000001000.000001000.00000
     Eigenvalues --- 1000.000001000.000001000.000001000.000001000.00000
     Eigenvalues --- 1000.000001000.000001000.000001000.000001000.00000
     Eigenvalues --- 1000.000001000.000001000.000001000.000001000.00000
     Eigenvalues --- 1000.000001000.000001000.000001000.000001000.00000
     Eigenvalues --- 1000.000001000.000001000.000001000.000001000.00000
     Eigenvalues --- 1000.000001000.000001000.000001000.000001000.00000
     Eigenvalues --- 1000.000001000.000001000.000001000.000001000.00000
     Eigenvalues --- 1000.000001000.000001000.000001000.000001000.00000
 RFO step:  Lambda=-3.67976767D-03 EMin= 3.95915706D-03
 Linear search not attempted -- first point.
 Iteration  1 RMS(Cart)=  0.09821757 RMS(Int)=  0.00185807
 Iteration  2 RMS(Cart)=  0.00480418 RMS(Int)=  0.00005425
 Iteration  3 RMS(Cart)=  0.00000594 RMS(Int)=  0.00005416
 Iteration  4 RMS(Cart)=  0.00000000 RMS(Int)=  0.00005416
 Iteration  1 RMS(Cart)=  0.00004412 RMS(Int)=  0.00001000
 Iteration  2 RMS(Cart)=  0.00002311 RMS(Int)=  0.00001118
 Iteration  3 RMS(Cart)=  0.00001211 RMS(Int)=  0.00001257
 Iteration  4 RMS(Cart)=  0.00000634 RMS(Int)=  0.00001345
 Iteration  5 RMS(Cart)=  0.00000332 RMS(Int)=  0.00001394
 Iteration  6 RMS(Cart)=  0.00000174 RMS(Int)=  0.00001420
 Iteration  7 RMS(Cart)=  0.00000091 RMS(Int)=  0.00001434
 Variable       Old X    -DE/DX   Delta X   Delta X   Delta X     New X
                                 (Linear)    (Quad)   (Total)
    R1        2.88042  -0.00223   0.00000  -0.00727  -0.00730   2.87313
    R2        2.88145  -0.00039   0.00000  -0.00116  -0.00116   2.88029
    R3        2.67525   0.00087   0.00000   0.00201   0.00201   2.67726
    R4        2.04347   0.00691   0.00000   0.01908   0.01908   2.06255
    R5        2.88363   0.00074   0.00000   0.00196   0.00196   2.88559
    R6        2.91613  -0.00018   0.00000  -0.00219  -0.00218   2.91395
    R7        2.05058   0.00265   0.00000   0.00740   0.00740   2.05798
    R8        2.05227   0.00294   0.00000   0.00824   0.00824   2.06051
    R9        2.67006   0.00296   0.00000   0.00674   0.00674   2.67680
   R10        2.87191  -0.00077   0.00000  -0.00200  -0.00195   2.86996
   R11        2.64220   0.00355   0.00000   0.00860   0.00861   2.65080
   R12        2.04632   0.00775   0.00000   0.02151   0.02151   2.06783
   R13        2.68721   0.00318   0.00000   0.00804   0.00798   2.69519
   R14        2.04198   0.00436   0.00000   0.01201   0.01201   2.05399
   R15        2.04534   0.00681   0.00000   0.01886   0.01886   2.06420
   R16        2.88876  -0.00068   0.00000  -0.00282  -0.00284   2.88592
   R17        2.05289   0.00311   0.00000   0.00873   0.00873   2.06162
   R18        2.04901   0.00248   0.00000   0.00691   0.00691   2.05592
   R19        2.89407  -0.00067   0.00000  -0.00257  -0.00259   2.89149
   R20        2.04745   0.00444   0.00000   0.01234   0.01234   2.05979
   R21        2.05611   0.00369   0.00000   0.01043   0.01043   2.06654
   R22        2.66634   0.00324   0.00000   0.00755   0.00757   2.67390
   R23        2.04350   0.00461   0.00000   0.01274   0.01274   2.05624
   R24        2.05544   0.00634   0.00000   0.01790   0.01790   2.07334
   R25        2.67641   0.00358   0.00000   0.00820   0.00823   2.68464
   R26        2.87169   0.00036   0.00000   0.00105   0.00104   2.87273
   R27        2.05567   0.00609   0.00000   0.01718   0.01718   2.07286
   R28        2.04360   0.00439   0.00000   0.01213   0.01213   2.05573
   R29        2.05222   0.00302   0.00000   0.00847   0.00847   2.06069
   R30        2.05466   0.00314   0.00000   0.00885   0.00885   2.06352
   R31        2.05123   0.00403   0.00000   0.01129   0.01129   2.06251
   R32        2.04908   0.00298   0.00000   0.00831   0.00831   2.05739
    A1        1.91995   0.00008   0.00000  -0.00041  -0.00044   1.91951
    A2        1.95718  -0.00158   0.00000  -0.00910  -0.00908   1.94810
    A3        1.92107  -0.00020   0.00000  -0.01017  -0.01015   1.91092
    A4        1.84896   0.00115   0.00000   0.00877   0.00877   1.85772
    A5        1.89146   0.00013   0.00000   0.00488   0.00485   1.89631
    A6        1.92297   0.00052   0.00000   0.00722   0.00710   1.93008
    A7        1.93140   0.00009   0.00000  -0.00810  -0.00828   1.92312
    A8        1.91667  -0.00054   0.00000  -0.00209  -0.00203   1.91464
    A9        1.88731   0.00051   0.00000   0.00552   0.00556   1.89287
   A10        1.92180   0.00081   0.00000   0.00299   0.00302   1.92482
   A11        1.93632  -0.00100   0.00000  -0.00124  -0.00118   1.93514
   A12        1.86903   0.00013   0.00000   0.00331   0.00328   1.87230
   A13        1.90473  -0.00216   0.00000  -0.01122  -0.01140   1.89333
   A14        1.97680  -0.00167   0.00000  -0.02021  -0.02016   1.95664
   A15        1.86029   0.00272   0.00000   0.02162   0.02172   1.88201
   A16        1.96641   0.00168   0.00000   0.00478   0.00449   1.97090
   A17        1.91854  -0.00115   0.00000   0.00203   0.00207   1.92061
   A18        1.83250   0.00079   0.00000   0.00542   0.00548   1.83798
   A19        1.93367   0.00090   0.00000   0.00037   0.00016   1.93383
   A20        1.94871  -0.00026   0.00000  -0.00333  -0.00327   1.94543
   A21        1.93547  -0.00089   0.00000  -0.00320  -0.00317   1.93230
   A22        1.84620  -0.00091   0.00000  -0.00085  -0.00078   1.84542
   A23        1.91300   0.00096   0.00000   0.00788   0.00796   1.92096
   A24        1.88404   0.00021   0.00000  -0.00055  -0.00059   1.88345
   A25        1.92983  -0.00082   0.00000  -0.00834  -0.00857   1.92125
   A26        1.91642   0.00096   0.00000   0.00351   0.00360   1.92002
   A27        1.93403  -0.00051   0.00000  -0.00065  -0.00062   1.93340
   A28        1.89859   0.00017   0.00000   0.00061   0.00067   1.89926
   A29        1.92159   0.00023   0.00000   0.00124   0.00131   1.92291
   A30        1.86187   0.00002   0.00000   0.00414   0.00410   1.86598
   A31        1.91917   0.00140   0.00000  -0.00110  -0.00114   1.91804
   A32        1.93125  -0.00092   0.00000  -0.00809  -0.00805   1.92320
   A33        1.89307  -0.00112   0.00000  -0.00676  -0.00676   1.88631
   A34        1.92820   0.00014   0.00000   0.00616   0.00615   1.93435
   A35        1.91453  -0.00004   0.00000   0.00484   0.00485   1.91937
   A36        1.87679   0.00049   0.00000   0.00493   0.00485   1.88165
   A37        1.93626   0.00158   0.00000   0.00750   0.00754   1.94380
   A38        1.92933  -0.00062   0.00000  -0.00627  -0.00632   1.92301
   A39        1.91985  -0.00240   0.00000  -0.01641  -0.01647   1.90338
   A40        1.86636  -0.00047   0.00000   0.00318   0.00318   1.86954
   A41        1.91449   0.00122   0.00000   0.01114   0.01118   1.92567
   A42        1.89647   0.00076   0.00000   0.00151   0.00137   1.89784
   A43        1.93449   0.00188   0.00000   0.00910   0.00909   1.94358
   A44        1.90222   0.00071   0.00000   0.00723   0.00728   1.90949
   A45        1.85568  -0.00116   0.00000  -0.00380  -0.00379   1.85189
   A46        1.93116  -0.00156   0.00000  -0.00969  -0.00971   1.92145
   A47        1.94625  -0.00044   0.00000  -0.00383  -0.00384   1.94240
   A48        1.89177   0.00060   0.00000   0.00139   0.00135   1.89312
   A49        1.97792  -0.00438   0.00000  -0.02490  -0.02483   1.95309
   A50        1.93047  -0.00107   0.00000  -0.00819  -0.00822   1.92225
   A51        1.92720  -0.00030   0.00000   0.00070   0.00071   1.92791
   A52        1.91938   0.00085   0.00000   0.00184   0.00183   1.92121
   A53        1.90866   0.00087   0.00000   0.00541   0.00545   1.91411
   A54        1.90336  -0.00026   0.00000  -0.00264  -0.00266   1.90070
   A55        1.87374  -0.00005   0.00000   0.00321   0.00320   1.87694
   A56        2.13151  -0.01563   0.00000  -0.06163  -0.06163   2.06988
   A57        1.90750   0.00034   0.00000  -0.00533  -0.00535   1.90215
   A58        1.91408  -0.00024   0.00000  -0.00874  -0.00871   1.90537
   A59        1.89308  -0.00068   0.00000   0.00183   0.00181   1.89489
   A60        1.93186  -0.00012   0.00000   0.00278   0.00266   1.93451
   A61        1.94267   0.00053   0.00000   0.00654   0.00661   1.94928
   A62        1.87398   0.00016   0.00000   0.00283   0.00281   1.87679
   A63        2.03232  -0.00437   0.00000  -0.02928  -0.02931   2.00301
    D1        0.91228  -0.00025   0.00000   0.00341   0.00341   0.91569
    D2        3.04717   0.00026   0.00000   0.00503   0.00503   3.05220
    D3       -1.18128  -0.00035   0.00000   0.00229   0.00231  -1.17897
    D4        2.96512   0.00025   0.00000   0.00841   0.00839   2.97351
    D5       -1.18317   0.00076   0.00000   0.01003   0.01000  -1.17317
    D6        0.87156   0.00015   0.00000   0.00729   0.00728   0.87885
    D7       -1.17076  -0.00033   0.00000   0.00398   0.00400  -1.16676
[...]
 ,-0.00008927,0.00002819,-0.00006923,0.00003433,-0.00009361,0.00008960,
 -0.00043606,0.00072617,0.00098439,-0.00000596,0.00000109,-0.00000213,-
 0.00000592,0.00000174,0.00000265,0.00001399,-0.00000481,-0.00002246,0.
 00000139,0.00000761,0.00000040,0.00000067,0.00000357,-0.00000607,0.000
 00140,-0.00000160,-0.00000203,-0.00001871,0.00000600,-0.00000296,-0.00
 013563,-0.00001908,0.00018452,0.00020888,0.00048471,0.00047082,-0.0028
 4688,0.00553985,-0.01646241,0.01970582,-0.08011799,0.29661622,-0.00031
 121,0.00001851,0.00007439,0.00000092,0.00000012,0.00000383,-0.00003327
 ,-0.00001083,0.00000261,-0.00000287,0.00000997,-0.00000586,-0.00000073
 ,0.00000019,-0.00000097,0.00160949,-0.00026261,-0.00115488,0.00082916,
 0.00109009,-0.00294664,-0.05735418,0.00608432,-0.01782720,0.00067700,-
 0.00276435,-0.00814364,-0.00279453,0.01002700,-0.02327035,-0.00005229,
 -0.00005048,0.00005768,-0.00000142,-0.00000051,-0.00000213,0.00002971,
 -0.00000366,0.00000669,0.00007677,-0.00003861,0.00011115,0.00000252,0.
 00000028,0.00000045,0.00000072,-0.00000018,-0.00000059,0.00000446,0.00
 000209,0.00000157,-0.00000061,-0.00000148,-0.00000081,-0.00000223,0.00
 000027,0.00000685,0.00000039,0.00000020,0.00000022,0.00000106,0.000000
 10,-0.00000014,0.00022616,-0.00002157,0.00034403,-0.00016430,-0.000093
 11,0.00047995,0.00002991,0.00000590,0.00016295,0.00019601,0.00002709,0
 .00035189,0.05495293,-0.00020188,-0.00054643,0.00020944,0.00000188,-0.
 00000010,0.00000400,-0.00003332,-0.00000373,0.00005692,-0.00000461,0.0
 0000271,-0.00000714,-0.00000285,-0.00000345,0.00000431,-0.00119682,0.0
 0063518,-0.00018140,0.00338258,0.00330334,-0.00387730,0.00553664,-0.07
 730148,0.08243818,-0.00801871,-0.00188010,-0.03686111,0.00240277,-0.00
 790984,0.02342070,-0.00018211,0.00021634,0.00005180,-0.00001643,0.0000
 0600,-0.00001081,0.00001820,0.00000474,-0.00000387,0.00002283,-0.00013
 806,0.00004444,0.00000199,0.00000080,0.00000012,0.00000077,-0.00000049
 ,-0.00000026,0.00000738,-0.00000216,0.00000195,-0.00000023,0.00000003,
 0.00000085,-0.00000351,0.00000213,0.00000584,0.00000009,-0.00000008,0.
 00000008,-0.00000131,0.00000134,-0.00000091,-0.00012717,-0.00005232,-0
 .00032719,0.00037023,0.00042190,-0.00045113,0.00017293,-0.00001087,0.0
 0017918,0.00058483,0.00007700,0.00135291,-0.00832953,0.08754385,0.0002
 6802,-0.00039521,0.00015492,-0.00000127,0.00000295,-0.00000182,0.00026
 593,-0.00007802,0.00019449,0.00002416,-0.00004965,-0.00001804,-0.00000
 977,-0.00000719,0.00002679,0.00015910,-0.00058809,0.00042439,0.0031052
 0,0.00246073,0.00062134,-0.02051541,0.07917078,-0.26255312,-0.00624944
 ,-0.01139608,-0.02851882,0.00068420,0.00260006,-0.00200182,-0.00073795
 ,-0.00004904,-0.00005511,-0.00005269,0.00001738,-0.00004247,-0.0001034
 9,0.00009342,-0.00002585,0.00008595,0.00006207,-0.00009299,-0.00000551
 ,0.00000094,-0.00000228,-0.00000595,0.00000144,0.00000321,-0.00004032,
 -0.00000815,-0.00002582,-0.00000288,0.00000883,0.00000134,0.00000573,-
 0.00000035,-0.00000644,0.00000098,-0.00000128,-0.00000231,-0.00001421,
 0.00000417,-0.00000151,-0.00007910,0.00000680,0.00020686,-0.00054991,-
 0.00021860,0.00000143,-0.00008566,-0.00033361,0.00049472,-0.00120804,-
 0.00068863,0.00066800,0.02597035,-0.07594845,0.29723572,0.00077023,0.0
 0054868,0.00037294,-0.00000483,0.00000121,-0.00003595,0.00038758,0.000
 02664,0.00018711,0.00005021,-0.00008196,0.00004728,-0.00000909,-0.0000
 0165,0.00002621,-0.00185414,0.00451360,-0.00117116,0.00219742,0.000412
 54,-0.00177738,-0.25576177,-0.08464686,0.07676979,-0.00565989,-0.00712
 311,-0.00062663,-0.01954262,-0.00818126,0.00858059,-0.00054825,-0.0002
 5676,-0.00001807,-0.00004296,0.00001297,-0.00003766,-0.00021874,0.0000
 5713,-0.00005059,-0.00002467,-0.00006531,-0.00005478,-0.00002347,-0.00
 000516,-0.00000266,-0.00000843,0.00000248,0.00000616,-0.00004862,-0.00
 001706,-0.00003582,-0.00000109,0.00001337,-0.00000181,0.00001753,-0.00
 000945,-0.00007036,-0.00000036,-0.00000315,-0.00000433,-0.00001773,0.0
 0000035,0.00000004,-0.00127465,-0.00078884,0.00029631,0.00019350,-0.00
 002528,0.00011369,-0.00035220,-0.00017787,0.00015220,-0.00004021,-0.00
 000698,0.00017882,0.00426460,0.00179202,-0.00038829,0.27617009,0.00019
 610,-0.00126411,-0.00021348,0.00000383,0.00000470,0.00004160,0.0000399
 1,-0.00011275,0.00013684,-0.00000072,-0.00000114,-0.00008502,-0.000004
 24,-0.00001227,0.00001406,0.00304089,-0.00375487,0.00112838,0.00135508
 ,-0.00255785,-0.00471062,-0.07844780,-0.08055657,0.03127283,-0.0304319
 9,-0.02027856,0.00552164,0.02132420,0.01086959,-0.00784762,-0.00043287
 ,0.00048866,0.00002774,-0.00004025,0.00001326,-0.00002997,0.00004871,0
 .00009713,-0.00000039,-0.00001284,0.00007892,0.00004579,0.00001677,0.0
 0000760,-0.00000121,-0.00000133,-0.00000030,-0.00000158,-0.00000407,0.
 00000170,-0.00000458,-0.00000451,0.00000052,0.00000519,-0.00001095,0.0
 0001018,0.00006770,0.00000064,0.00000162,0.00000021,-0.00000442,0.0000
 0646,-0.00000307,0.00142479,0.00067618,-0.00022077,-0.00016443,-0.0000
 4741,-0.00009481,-0.00156786,-0.00063580,0.00008958,0.00020982,0.00010
 509,0.00006129,-0.00866904,-0.00254096,0.00440983,0.09429367,0.0979924
 9,0.00021152,-0.00049029,-0.00008948,0.00000003,0.00000118,0.00000972,
 0.00003878,-0.00003071,0.00009026,0.00000102,-0.00001146,-0.00002745,-
 0.00000465,-0.00000502,0.00000883,-0.00027046,-0.00024919,0.00087143,-
 0.00022615,-0.00212856,-0.00230844,0.08479908,0.03810058,-0.08383337,-
 0.02283403,-0.01430040,0.00589303,-0.00407452,-0.00008595,0.00100881,-
 0.00027154,0.00020985,0.00005280,-0.00002657,0.00000563,-0.00001842,-0
 .00001614,0.00005329,-0.00001725,-0.00000194,-0.00000735,0.00000885,0.
 00000290,0.00000191,-0.00000066,-0.00000137,0.00000022,0.00000014,-0.0
 0000671,-0.00000190,-0.00000459,-0.00000285,0.00000213,-0.00000043,0.0
 0000110,0.00000121,0.00001639,0.00000062,0.00000016,-0.00000070,-0.000
 00418,0.00000258,-0.00000137,0.00013380,0.00011497,0.00026476,-0.00039
 550,-0.00017810,0.00025520,-0.00072363,-0.00051435,0.00040997,-0.00020
 531,-0.00028192,0.00048353,0.02586782,0.01015982,-0.00806503,-0.082158
 32,-0.02956563,0.08434136,-0.00395848,0.00115899,0.00354384,0.00000198
 ,0.00001181,0.00001597,0.00109984,-0.00047495,0.00043178,0.00011041,-0
 .00014298,-0.00009439,-0.00000939,-0.00001432,0.00005739,-0.00633461,-
 0.02489215,-0.01930784,-0.00178883,-0.00033121,0.00034927,0.00764423,0
 .01536593,0.01590955,-0.00286902,0.00737045,0.00077717,-0.05714429,-0.
 03885642,-0.03336942,-0.00207695,-0.00282725,-0.00052880,-0.00008221,0
 .00003063,-0.00009042,-0.00029544,0.00032546,-0.00010371,0.00008746,0.
 00024271,-0.00011098,-0.00000750,0.00000489,-0.00000667,-0.00001814,0.
 00000454,0.00000791,-0.00017198,0.00001178,-0.00010796,-0.00001367,0.0
 0002774,0.00000606,0.00001074,0.00000020,0.00001280,0.00000190,-0.0000
 0168,-0.00000562,-0.00003207,0.00000987,-0.00000263,0.00104742,0.00087
 931,-0.00046524,0.00131775,0.00059339,0.00028200,0.00029869,0.00000896
 ,-0.00008880,0.00027078,0.00006230,-0.00001904,0.00080985,-0.00062545,
 -0.00051279,0.00037812,-0.00119788,0.00020406,0.06282353,-0.00140571,0
 .00195323,0.00194982,0.00000040,0.00000529,-0.00000701,0.00064952,-0.0
 0020693,0.00027779,0.00006344,-0.00009336,-0.00002594,-0.00000898,-0.0
 0001055,0.00004011,-0.00296772,-0.01043527,-0.00694183,0.00121172,0.00
 142337,-0.00029189,-0.00797419,-0.01474491,-0.01362450,0.00373238,-0.0
 0559677,-0.00061217,-0.03822702,-0.20595233,-0.12417131,-0.00111516,-0
 .00103399,-0.00039015,-0.00006253,0.00001965,-0.00006215,-0.00022063,0
 .00017149,-0.00005979,0.00005404,-0.00010169,-0.00024650,-0.00001213,0
 .00000133,-0.00000449,-0.00001201,0.00000335,0.00000597,-0.00010437,-0
 .00000155,-0.00006563,-0.00000707,0.00001761,0.00000430,0.00001065,-0.
 00000180,-0.00002050,0.00000122,-0.00000147,-0.00000455,-0.00002281,0.
 00000531,-0.00000139,-0.00001238,0.00057468,0.00019696,0.00040870,0.00
 023971,0.00010698,-0.00012280,-0.00010964,-0.00001348,-0.00010903,-0.0
 0008825,0.00012939,-0.00036788,0.00060224,0.00063968,0.00024382,0.0005
 6192,-0.00005239,0.04396109,0.22305216,0.00146016,0.00016544,0.0000207
 2,-0.00000116,0.00000175,-0.00000850,-0.00004396,0.00014174,-0.0000204
 6,-0.00000347,-0.00000755,0.00001742,0.00000190,0.00000188,-0.00000203
 ,0.00226890,0.00917241,0.00560689,0.00016842,0.00021673,-0.00023378,0.
 00080301,0.00345337,0.00027621,-0.00019208,0.00001838,0.00166441,-0.03
 310167,-0.12629076,-0.14683480,0.00056131,0.00042620,0.00018817,0.0000
 0071,-0.00000043,0.00000490,-0.00002739,-0.00002981,0.00000779,-0.0000
 0788,0.00028845,0.00034799,-0.00000410,-0.00000209,0.00000020,-0.00000
 073,-0.00000006,0.00000077,0.00001923,-0.00000762,0.00001874,0.0000001
 5,-0.00000065,-0.00000166,0.00000165,-0.00000470,-0.00001479,-0.000000
 68,-0.00000118,-0.00000045,0.00000004,-0.00000140,-0.00000028,-0.00054
 062,-0.00035378,0.00003143,-0.00063356,-0.00006639,0.00063182,0.000008
 55,-0.00002013,-0.00003581,-0.00008014,-0.00006087,0.00000423,0.000483
 05,-0.00035413,0.00018461,0.00020085,-0.00017808,0.00009772,0.03396833
 ,0.13668554,0.15556923,0.00100027,0.00077734,0.00099373,0.00000076,-0.
 00000165,-0.00001281,0.00012282,-0.00006115,0.00001167,0.00001043,-0.0
 0000013,0.00003092,0.00000003,-0.00000571,0.00000450,-0.00031167,-0.01
 041546,0.02972811,-0.00046147,-0.00019108,0.00015541,-0.00331821,0.009
 50765,-0.02698105,0.00146001,-0.00195150,0.00118627,-0.04723869,0.0024
 8379,-0.00679669,-0.00028520,0.00003016,-0.00053796,-0.00000288,0.0000
 1070,0.00000814,0.00001463,0.00003620,-0.00001368,-0.00009423,-0.00018
 079,-0.00053573,-0.00000681,-0.00000116,-0.00000130,0.00000009,0.00000
 030,0.00000134,-0.00004371,-0.00000006,-0.00002299,-0.00000143,0.00000
 640,-0.00000431,0.00003000,-0.00001393,-0.00000582,-0.00000124,-0.0000
 0065,-0.00000191,-0.00000432,0.00000106,0.00000032,0.00130371,0.000830
 04,-0.00030521,-0.00494909,-0.00317084,0.00098326,0.00011644,-0.000041
 23,0.00001698,-0.00011470,-0.00003222,-0.00011458,-0.00299299,0.004448
 21,-0.00000830,0.00100432,-0.00095920,-0.00003667,-0.00110055,0.002414
 77,-0.00530860,0.05585953,0.00043166,0.00013695,0.00113779,0.00000111,
 -0.00000501,-0.00001464,0.00000276,-0.00001649,-0.00001399,0.00000459,
 0.00000859,0.00002781,-0.00000015,0.00000129,0.00000148,0.00037731,-0.
 00486199,0.01224651,-0.00017208,-0.00024780,0.00006090,0.00254138,-0.0
 0984477,0.02266295,-0.00101603,0.00247432,-0.00022308,0.00158227,-0.07
 939929,0.08168888,-0.00017680,0.00000756,-0.00035488,0.00000828,0.0000
 0362,0.00000710,-0.00000058,-0.00001989,-0.00000946,-0.00024019,-0.000
 22547,-0.00022052,-0.00000575,-0.00000165,0.00000030,0.00000098,0.0000
 0023,0.00000012,-0.00001885,0.00000052,-0.00001125,0.00000036,-0.00000
 102,0.00000017,0.00001642,-0.00000477,-0.00001566,-0.00000040,-0.00000
 090,-0.00000085,-0.00000129,-0.00000122,0.00000045,0.00018606,0.000559
 49,-0.00050441,-0.00217314,-0.00029491,0.00045054,0.00002034,-0.000025
 60,-0.00002289,0.00002798,0.00011438,-0.00005970,0.00334660,-0.0024271
 0,0.00028477,-0.00052416,0.00084709,-0.00074993,-0.00070253,0.00975142
 ,-0.02319198,-0.00351715,0.08347382,-0.00052483,-0.00073267,-0.0000417
 6,0.00000093,-0.00000032,0.00001761,-0.00020553,0.00004141,-0.00012481
 ,-0.00002451,0.00003465,-0.00002524,0.00000375,0.00000289,-0.00001257,
 0.00100397,0.00248117,-0.00723582,-0.00017450,-0.00009614,0.00014753,-
 0.00064507,-0.00042748,-0.00359787,0.00094420,0.00069483,0.00177003,-0
 .00833736,0.08341908,-0.27895781,0.00036685,0.00015081,0.00026031,0.00
 002263,-0.00000939,0.00001524,0.00008487,-0.00003332,0.00002334,-0.000
 01125,0.00045312,0.00038700,0.00001173,0.00000219,0.00000166,0.0000035
 9,-0.00000128,-0.00000300,0.00003535,0.00000261,0.00002445,0.00000478,
 -0.00000545,0.00000049,-0.00001917,0.00000881,0.00003025,0.00000080,0.
 00000153,0.00000259,0.00000885,-0.00000080,-0.00000009,0.00022328,-0.0
 0012432,0.00039380,0.00151065,0.00052433,0.00089863,-0.00001833,0.0000
 7835,-0.00001005,-0.00002513,-0.00007942,-0.00019038,-0.00057264,0.000
 09298,0.00119662,-0.00049183,0.00012978,0.00055477,-0.00074760,0.00656
 260,-0.01752063,0.00757300,-0.09317441,0.30199010,-0.00003385,-0.00022
 205,0.00000622,0.00093658,-0.00104894,0.00049334,0.00463098,0.01468942
 ,0.01979661,0.00016407,-0.00039788,0.00004691,-0.01024579,-0.01517644,
 -0.02507697,0.00002659,0.00005187,-0.00002762,-0.00000650,0.00004570,-
 0.00002193,0.00000056,0.00000317,-0.00001245,0.00005348,-0.00000204,0.
 00000195,-0.00001504,-0.00003154,-0.00000106,0.00308037,0.00010697,-0.
 00022404,-0.07329110,-0.04277880,-0.06860916,0.00027402,-0.00061868,-0
 .00135495,0.00007603,0.00004772,-0.00006014,0.00008535,-0.00006809,0.0
 0015773,0.00004028,0.00022768,0.00008778,-0.00287605,-0.00060375,0.003
 17592,0.00005268,0.00005016,0.00019111,0.00074919,-0.00052934,0.000359
 73,-0.00506935,0.00286257,-0.00181869,0.00112923,-0.00049944,0.0008111
 7,0.00004930,-0.00001446,0.00000455,0.00000726,0.00001125,-0.00006560,
 0.00000720,-0.00000198,-0.00000137,-0.00000089,0.00000120,-0.00000184,
 -0.00000037,-0.00000004,0.00000250,0.00000630,-0.00000205,0.00000108,0
 .00000350,0.00000402,0.00000064,0.00000662,0.00000175,-0.00000369,0.08
 143339,0.00005555,-0.00008427,0.00009794,-0.00072964,0.00087413,0.0002
 2606,0.00123472,0.00046903,0.00228314,-0.00055467,-0.00176660,0.000693
 82,0.00385539,0.00644960,0.01094459,0.00002135,0.00006903,-0.00006982,
 -0.00000594,0.00002726,-0.00001337,0.00000266,0.00000884,-0.00001209,0
 .00002354,-0.00000384,0.00000085,0.00000397,-0.00003489,0.00001240,0.0
 0074218,0.00023867,0.00028822,-0.04219937,-0.11460021,-0.10612074,0.00
 013015,0.00031080,-0.00071416,-0.00003606,-0.00001760,0.00000764,-0.00
 009983,0.00010874,-0.00023560,0.00000569,0.00011085,-0.00038977,0.0000
 2056,0.00114931,0.00020163,0.00010557,0.00022262,0.00018641,-0.0000216
 1,-0.00194041,0.00182830,0.00253311,-0.00008238,0.00135685,-0.00076658
 ,0.00033001,-0.00039386,0.00006258,-0.00003235,0.00000499,0.00000307,0
 .00001263,-0.00002085,0.00000304,-0.00000403,-0.00000149,0.00000641,-0
 .00000277,0.00000410,0.00000060,-0.00000085,0.00000241,0.00000464,-0.0
 0000333,0.00000016,0.00000234,0.00000218,0.00000043,0.00000061,-0.0000
 0009,-0.00000052,0.04509153,0.12287371,0.00013734,0.00010478,0.0001958
 0,-0.00038211,-0.00021648,0.00029934,-0.00891234,-0.01624084,-0.023319
 57,-0.00037991,-0.00089990,-0.00102229,-0.00326573,-0.00310559,-0.0066
 1173,0.00010612,-0.00005845,-0.00002381,0.00001381,-0.00000739,0.00004
 417,-0.00001057,-0.00002401,0.00000787,-0.00002771,0.00000079,-0.00001
 197,-0.00000358,0.00004950,-0.00000505,-0.00186612,0.00155575,0.003170
 35,-0.06503967,-0.10440235,-0.21972582,0.00032397,0.00133499,0.0012458
 6,-0.00014208,-0.00006352,-0.00000509,0.00017176,0.00005542,0.00005034
 ,-0.00010297,0.00026363,-0.00030121,0.00329410,0.00109719,-0.00271294,
 0.00016367,0.00013423,0.00050500,0.00053497,0.00084215,0.00067598,-0.0
 0138812,0.00051781,0.00062469,-0.00013334,0.00033122,0.00047573,0.0000
 4932,0.00003963,-0.00003996,0.00004089,0.00000669,-0.00003798,-0.00000
 302,-0.00000236,0.00000165,0.00000117,-0.00000082,-0.00000272,0.000000
 36,0.00000032,-0.00000197,-0.00000943,0.00000512,-0.00000107,-0.000003
 34,-0.00000538,-0.00000101,-0.00000537,-0.00000257,0.00000731,0.073916
 49,0.11524203,0.23953472,0.00024019,0.00002926,-0.00026468,-0.00542738
 ,0.00082274,-0.00249613,-0.00109740,-0.02274878,0.00216510,-0.00143912
 ,0.00050801,0.00036809,0.00319469,0.03071982,-0.00647298,0.00003782,-0
 .00004368,0.00000653,0.00001204,-0.00000180,-0.00000787,-0.00000208,-0
 .00000960,0.00000871,-0.00002135,-0.00000707,0.00000466,-0.00000553,0.
 00002087,-0.00000606,-0.00000911,0.00139572,0.00024600,-0.04815784,-0.
 01948185,0.00486238,-0.00188966,-0.00233553,0.00443677,0.00007346,0.00
 000308,-0.00003808,0.00003531,0.00159903,-0.00037647,-0.00000570,0.000
 53252,-0.00001902,0.00081075,0.00046530,-0.00050247,0.00018804,-0.0000
 4313,0.00004328,0.00019489,-0.00011094,0.00023878,0.00127580,-0.000838
 56,0.00016350,0.00127412,-0.00057837,0.00080415,0.00001980,0.00003284,
 -0.00000130,-0.00000253,0.00000274,-0.00000601,0.00000213,-0.00000067,
 0.00000106,-0.00000627,0.00000261,-0.00000175,-0.00000068,0.00000063,-
 0.00000113,-0.00000616,0.00000203,-0.00000129,-0.00000307,-0.00000335,
 -0.00000086,-0.00000245,-0.00000077,0.00000222,-0.00127405,-0.00949555
 ,0.00292143,0.05199133,-0.00015585,0.00017164,-0.00008543,0.00167571,0
 .00097883,0.00098862,0.00153437,-0.00396170,-0.00098181,0.00026172,0.0
 0046320,-0.00016114,-0.00114657,-0.00877077,0.00152470,0.00001718,-0.0
 0003762,0.00002084,0.00000789,-0.00005687,0.00001350,-0.00000057,-0.00
 000813,0.00001720,-0.00005686,0.00000423,-0.00000224,0.00000001,0.0000
 2912,-0.00001612,-0.00045527,0.00054221,0.00005630,-0.02036360,-0.3048
 6677,0.06213775,0.00004969,0.00115713,0.00005383,0.00002405,0.00002024
 ,-0.00003671,-0.00001021,-0.00069362,0.00009533,0.00006490,-0.00013269
 ,-0.00005472,-0.00018363,0.00103826,0.00014808,-0.00000730,-0.00003273
 ,0.00020053,0.00016555,0.00019837,0.00011025,0.00009090,0.00047722,0.0
 0020658,0.00013245,0.00029547,-0.00031646,0.00002369,0.00004196,-0.000
 00835,-0.00000284,-0.00000261,-0.00000493,-0.00000367,0.00000356,0.000
 00457,-0.00000814,0.00000314,-0.00000667,0.00000052,0.00000042,-0.0000
 0388,-0.00000823,0.00000280,-0.00000053,-0.00000558,-0.00000644,-0.000
 00075,-0.00000332,-0.00000129,0.00000439,-0.00119948,-0.01468379,0.003
 44843,0.01956245,0.32782724,0.00014688,-0.00005324,-0.00000441,-0.0015
 8322,0.00013706,0.00051190,-0.00021048,0.02527953,-0.00638250,0.000158
 52,-0.00210015,-0.00096409,0.00068656,0.00842483,-0.00309405,-0.000021
 06,0.00002010,0.00001106,0.00000177,0.00001127,0.00002469,0.00000166,0
 .00000010,-0.00000573,0.00002075,0.00000499,-0.00000564,-0.00000131,-0
 .00001925,0.00000105,-0.00040858,-0.00073247,0.00008801,0.00489178,0.0
 5836382,-0.06194691,0.00424278,0.00303489,-0.00466178,-0.00006423,0.00
 000795,0.00005794,0.00002811,0.00033547,0.00000804,-0.00009816,0.00027
 033,-0.00016878,-0.00082883,0.00002460,0.00082272,0.00003665,0.0001430
 1,0.00028574,0.00026919,0.00005146,0.00051807,0.00047227,0.00003996,0.
 00015456,0.00007664,-0.00045055,0.00030363,0.00000480,-0.00002402,-0.0
 0002329,0.00001783,-0.00000453,0.00000427,-0.00000092,-0.00000126,-0.0
 0000136,0.00000983,-0.00000452,0.00000056,0.00000004,-0.00000014,0.000
 00097,0.00000309,-0.00000075,0.00000069,-0.00000088,0.00000196,0.00000
 097,-0.00000069,0.00000043,-0.00000171,-0.00177422,-0.02540969,0.00698
 539,-0.00607653,-0.06735117,0.06748000\\-0.00082331,0.00352471,0.00405
 230,0.00001376,0.00001602,0.00000386,-0.00217736,0.00496148,0.00818836
 ,-0.00002588,0.00002836,0.00002154,-0.00001128,-0.00001618,-0.00000512
 ,-0.00001769,-0.00000846,0.00000906,-0.00000207,-0.00001876,0.00001467
 ,0.00001173,-0.00001224,0.00000488,0.00001303,0.00001434,0.00000060,0.
 00000673,-0.00000938,-0.00000535,0.00174552,-0.00613111,-0.00778706,0.
 00001813,-0.00000149,0.00000221,0.00125074,-0.00235695,-0.00448589,0.0
 0000015,0.00000251,0.00000062,0.00000428,-0.00000511,-0.00000097,-0.00
 000484,-0.00000176,-0.00000568,0.00001000,0.00001040,0.00001281,0.0000
 0288,-0.00000241,0.00000449,0.00000333,-0.00000950,-0.00000496,-0.0000
 0220,0.00000374,0.00000058,0.00000400,-0.00000247,0.00000116,0.0000110
 3,0.00000556,0.00000121,-0.00000101,-0.00000230,-0.00000164,0.00000050
 ,0.00000686,-0.00000273,0.00000269,0.00000587,-0.00001396,0.00000013,0
 .00000038,-0.00000662,-0.00000505,0.00000274,0.00000417,-0.00001237,0.
 00000264,0.00000315,0.00000008,0.00000126,0.00000489,-0.00000437,-0.00
 000797,-0.00000726,-0.00001129,-0.00000076,-0.00000330\\\@


 ERROR IS THE FORCE THAT WELDS MEN TOGETHER....
 TRUTH IS COMMUNICATED TO MEN ONLY BY DEEDS OF TRUTH.
           TOLSTOI,MY RELIGION
 Job cpu time:       0 days 17 hours 59 minutes 16.6 seconds.
 Elapsed time:       0 days  1 hours  7 minutes 28.7 seconds.
 File lengths (MBytes):  RWF=    684 Int=      0 D2E=      0 Chk=     33 Scr=      1
 Normal termination of Gaussian 16 at Mon Nov  5 01:24:51 2018.
