 Entering Gaussian System, Link 0=g16
 Initial command:
 /apps/gaussian/g16a03/g16/l1.exe "/jobfs/local/2011829.r-man2/Gau-29169.inp" -scrdir="/jobfs/local/2011829.r-man2/"
 Entering Link 1 = /apps/gaussian/g16a03/g16/l1.exe PID=     29170.
  
 Copyright (c) 1988,1990,1992,1993,1995,1998,2003,2009,2016,
            Gaussian, Inc.  All Rights Reserved.
  
 This is part of the Gaussian(R) 16 program.  It is based on
 the Gaussian(R) 09 system (copyright 2009, Gaussian, Inc.),
 the Gaussian(R) 03 system (copyright 2003, Gaussian, Inc.),
 the Gaussian(R) 98 system (copyright 1998, Gaussian, Inc.),
 the Gaussian(R) 94 system (copyright 1995, Gaussian, Inc.),
 the Gaussian 92(TM) system (copyright 1992, Gaussian, Inc.),
 the Gaussian 90(TM) system (copyright 1990, Gaussian, Inc.),
 the Gaussian 88(TM) system (copyright 1988, Gaussian, Inc.),
 the Gaussian 86(TM) system (copyright 1986, Carnegie Mellon
 University), and the Gaussian 82(TM) system (copyright 1983,
 Carnegie Mellon University). Gaussian is a federally registered
 trademark of Gaussian, Inc.
  
 This software contains proprietary and confidential information,
 including trade secrets, belonging to Gaussian, Inc.
  
 This software is provided under written license and may be
 used, copied, transmitted, or stored only in accord with that
 written license.
  
 The following legend is applicable only to US Government
 contracts under FAR:
  
                    RESTRICTED RIGHTS LEGEND
  
 Use, reproduction and disclosure by the US Government is
 subject to restrictions as set forth in subparagraphs (a)
 and (c) of the Commercial Computer Software - Restricted
 Rights clause in FAR 52.227-19.
  
 Gaussian, Inc.
 340 Quinnipiac St., Bldg. 40, Wallingford CT 06492
  
  
 ---------------------------------------------------------------
 Warning -- This program may not be used in any manner that
 competes with the business of Gaussian, Inc. or will provide
 assistance to any competitor of Gaussian, Inc.  The licensee
 of this program is prohibited from giving any competitor of
 Gaussian, Inc. access to this program.  By using this program,
 the user acknowledges that Gaussian, Inc. is engaged in the
 business of creating and licensing software in the field of
 computational chemistry and represents and warrants to the
 licensee that it is not a competitor of Gaussian, Inc. and that
 it will not use this program in any manner prohibited above.
 ---------------------------------------------------------------
  

 Cite this work as:
 Gaussian 16, Revision A.03,
 M. J. Frisch, G. W. Trucks, H. B. Schlegel, G. E. Scuseria, 
 M. A. Robb, J. R. Cheeseman, G. Scalmani, V. Barone, 
 G. A. Petersson, H. Nakatsuji, X. Li, M. Caricato, A. V. Marenich, 
 J. Bloino, B. G. Janesko, R. Gomperts, B. Mennucci, H. P. Hratchian, 
 J. V. Ortiz, A. F. Izmaylov, J. L. Sonnenberg, D. Williams-Young, 
 F. Ding, F. Lipparini, F. Egidi, J. Goings, B. Peng, A. Petrone, 
 T. Henderson, D. Ranasinghe, V. G. Zakrzewski, J. Gao, N. Rega, 
 G. Zheng, W. Liang, M. Hada, M. Ehara, K. Toyota, R. Fukuda, 
 J. Hasegawa, M. Ishida, T. Nakajima, Y. Honda, O. Kitao, H. Nakai, 
 T. Vreven, K. Throssell, J. A. Montgomery, Jr., J. E. Peralta, 
 F. Ogliaro, M. J. Bearpark, J. J. Heyd, E. N. Brothers, K. N. Kudin, 
 V. N. Staroverov, T. A. Keith, R. Kobayashi, J. Normand, 
 K. Raghavachari, A. P. Rendell, J. C. Burant, S. S. Iyengar, 
 J. Tomasi, M. Cossi, J. M. Millam, M. Klene, C. Adamo, R. Cammi, 
 J. W. Ochterski, R. L. Martin, K. Morokuma, O. Farkas, 
 J. B. Foresman, and D. J. Fox, Gaussian, Inc., Wallingford CT, 2016.
 
 ******************************************
 Gaussian 16:  ES64L-G16RevA.03 25-Dec-2016
                 4-Nov-2018 
 ******************************************
 %mem=6000mb
 %nproc=24
 Will use up to   24 processors via shared memory.
 %chk=2SO_1_e4_D_PHI.inp_extract_19.chk
 ----------------------------------------------------------------------
 #M062X/6-311++G(2d,2p) opt=ModRedundant freq=noraman SCRF=(Solvent=Wat
 er)
 ----------------------------------------------------------------------
 1/18=120,19=15,26=3,38=1/1,3;
 2/9=110,12=2,17=6,18=5,40=1/2;
 3/5=4,6=6,7=1212,11=2,25=1,30=1,70=2201,71=1,72=1,74=-55/1,2,3;
 4//1;
 5/5=2,38=5,53=1/2;
 6/7=2,8=2,9=2,10=2,28=1/1;
 7//1,2,3,16;
 1/18=20,19=15,26=3/3(2);
 2/9=110/2;
 99//99;
 2/9=110/2;
 3/5=4,6=6,7=1212,11=2,25=1,30=1,70=2205,71=1,72=1,74=-55/1,2,3;
 4/5=5,16=3,69=1/1;
 5/5=2,38=5,53=1/2;
 7//1,2,3,16;
 1/18=20,19=15,26=3/3(-5);
 2/9=110/2;
 6/7=2,8=2,9=2,10=2,19=2,28=1/1;
 99/9=1/99;
 -----------------------------
 2SO_1_e4_D_PHI.inp_extract_19
 -----------------------------
 Symbolic Z-matrix:
 Charge =  0 Multiplicity = 1
 C                     1.16984   0.08397   0.09053 
 C                    -4.0743    0.15863  -0.12665 
 C                    -1.18402  -0.32909   0.3132 
 C                    -3.11986  -0.58726  -1.05945 
 C                    -3.29668   0.77931   1.04864 
 C                     1.93367  -1.20759   0.36018 
 C                     1.9656    0.98377  -0.84442 
 C                     4.02824   0.07638  -0.12975 
 O                     3.24676   1.24368  -0.31449 
 C                     3.35188  -0.88278   0.8367 
 O                    -0.07426  -0.16762  -0.5378 
 C                    -1.83967   1.00852   0.64938 
 O                    -2.07608  -1.20232  -0.31789 
 H                     1.00823   0.61699   1.02163 
 H                    -4.83619  -0.51847   0.24572 
 H                    -4.58259   0.92815  -0.70043 
 H                    -0.86533  -0.83557   1.21362 
 H                    -3.61943  -1.38641  -1.58766 
 H                    -2.68972   0.08055  -1.79675 
 H                    -3.32791   0.11273   1.90611 
 H                    -3.75334   1.71199   1.36121 
 H                     1.40983  -1.8126    1.09342 
 H                     1.9787   -1.77941  -0.56402 
 H                     1.47357   1.93892  -0.9654 
 H                     2.05881   0.51325  -1.82058 
 H                     4.1859   -0.40014  -1.09467 
 H                     4.98553   0.40924   0.24725 
 H                     3.94327  -1.79003   0.9159 
 H                     3.31888  -0.42895   1.82409 
 H                    -1.78676   1.66261  -0.2157 
 H                    -1.28101   1.48405   1.4476 
 
 The following ModRedundant input section has been read:
 D      13       3      11       1 F                                           
 

 GradGradGradGradGradGradGradGradGradGradGradGradGradGradGradGradGradGrad
 Berny optimization.
 Initialization pass.
                           ----------------------------
                           !    Initial Parameters    !
                           ! (Angstroms and Degrees)  !
 --------------------------                            --------------------------
 ! Name  Definition              Value          Derivative Info.                !
 --------------------------------------------------------------------------------
 ! R1    R(1,6)                  1.5245         estimate D2E/DX2                !
 ! R2    R(1,7)                  1.5222         estimate D2E/DX2                !
 ! R3    R(1,11)                 1.4163         estimate D2E/DX2                !
 ! R4    R(1,14)                 1.085          estimate D2E/DX2                !
 ! R5    R(2,4)                  1.5289         estimate D2E/DX2                !
 ! R6    R(2,5)                  1.5399         estimate D2E/DX2                !
 ! R7    R(2,15)                 1.0852         estimate D2E/DX2                !
 ! R8    R(2,16)                 1.0862         estimate D2E/DX2                !
 ! R9    R(3,11)                 1.4078         estimate D2E/DX2                !
 ! R10   R(3,12)                 1.5271         estimate D2E/DX2                !
 ! R11   R(3,13)                 1.3988         estimate D2E/DX2                !
 ! R12   R(3,17)                 1.0811         estimate D2E/DX2                !
 ! R13   R(4,13)                 1.4204         estimate D2E/DX2                !
 ! R14   R(4,18)                 1.0804         estimate D2E/DX2                !
 ! R15   R(4,19)                 1.0838         estimate D2E/DX2                !
 ! R16   R(5,12)                 1.528          estimate D2E/DX2                !
 ! R17   R(5,20)                 1.0865         estimate D2E/DX2                !
 ! R18   R(5,21)                 1.0845         estimate D2E/DX2                !
 ! R19   R(6,10)                 1.531          estimate D2E/DX2                !
 ! R20   R(6,22)                 1.0854         estimate D2E/DX2                !
 ! R21   R(6,23)                 1.0877         estimate D2E/DX2                !
 ! R22   R(7,9)                  1.4106         estimate D2E/DX2                !
 ! R23   R(7,24)                 1.0812         estimate D2E/DX2                !
 ! R24   R(7,25)                 1.0876         estimate D2E/DX2                !
 ! R25   R(8,9)                  1.4168         estimate D2E/DX2                !
 ! R26   R(8,10)                 1.5203         estimate D2E/DX2                !
 ! R27   R(8,26)                 1.0877         estimate D2E/DX2                !
 ! R28   R(8,27)                 1.0814         estimate D2E/DX2                !
 ! R29   R(10,28)                1.0859         estimate D2E/DX2                !
 ! R30   R(10,29)                1.0872         estimate D2E/DX2                !
 ! R31   R(12,30)                1.0858         estimate D2E/DX2                !
 ! R32   R(12,31)                1.0842         estimate D2E/DX2                !
 ! A1    A(6,1,7)              110.3351         estimate D2E/DX2                !
 ! A2    A(6,1,11)             111.5973         estimate D2E/DX2                !
 ! A3    A(6,1,14)             109.8181         estimate D2E/DX2                !
 ! A4    A(7,1,11)             106.9616         estimate D2E/DX2                !
 ! A5    A(7,1,14)             108.3348         estimate D2E/DX2                !
 ! A6    A(11,1,14)            109.7033         estimate D2E/DX2                !
 ! A7    A(4,2,5)              110.3081         estimate D2E/DX2                !
 ! A8    A(4,2,15)             110.0747         estimate D2E/DX2                !
 ! A9    A(4,2,16)             108.3903         estimate D2E/DX2                !
 ! A10   A(5,2,15)             110.1297         estimate D2E/DX2                !
 ! A11   A(5,2,16)             110.7287         estimate D2E/DX2                !
 ! A12   A(15,2,16)            107.1433         estimate D2E/DX2                !
 ! A13   A(11,3,12)            111.7813         estimate D2E/DX2                !
 ! A14   A(11,3,13)            107.5545         estimate D2E/DX2                !
 ! A15   A(11,3,17)            108.9541         estimate D2E/DX2                !
 ! A16   A(12,3,13)            111.8588         estimate D2E/DX2                !
 ! A17   A(12,3,17)            110.7047         estimate D2E/DX2                !
 ! A18   A(13,3,17)            105.741          estimate D2E/DX2                !
 ! A19   A(2,4,13)             110.5766         estimate D2E/DX2                !
 ! A20   A(2,4,18)             111.7468         estimate D2E/DX2                !
 ! A21   A(2,4,19)             111.2363         estimate D2E/DX2                !
 ! A22   A(13,4,18)            105.9467         estimate D2E/DX2                !
 ! A23   A(13,4,19)            109.2884         estimate D2E/DX2                !
 ! A24   A(18,4,19)            107.8605         estimate D2E/DX2                !
 ! A25   A(2,5,12)             110.0322         estimate D2E/DX2                !
 ! A26   A(2,5,20)             109.9094         estimate D2E/DX2                !
 ! A27   A(2,5,21)             110.7311         estimate D2E/DX2                !
 ! A28   A(12,5,20)            109.0041         estimate D2E/DX2                !
 ! A29   A(12,5,21)            110.354          estimate D2E/DX2                !
 ! A30   A(20,5,21)            106.742          estimate D2E/DX2                !
 ! A31   A(1,6,10)             109.8424         estimate D2E/DX2                !
 ! A32   A(1,6,22)             110.4821         estimate D2E/DX2                !
 ! A33   A(1,6,23)             108.4105         estimate D2E/DX2                !
 ! A34   A(10,6,22)            110.7975         estimate D2E/DX2                !
 ! A35   A(10,6,23)            109.7327         estimate D2E/DX2                !
 ! A36   A(22,6,23)            107.5136         estimate D2E/DX2                !
 ! A37   A(1,7,9)              110.6698         estimate D2E/DX2                !
 ! A38   A(1,7,24)             110.673          estimate D2E/DX2                !
 ! A39   A(1,7,25)             109.8977         estimate D2E/DX2                !
 ! A40   A(9,7,24)             107.0119         estimate D2E/DX2                !
 ! A41   A(9,7,25)             109.8187         estimate D2E/DX2                !
 ! A42   A(24,7,25)            108.7079         estimate D2E/DX2                !
 ! A43   A(9,8,10)             110.9338         estimate D2E/DX2                !
 ! A44   A(9,8,26)             108.9795         estimate D2E/DX2                !
 ! A45   A(9,8,27)             106.2687         estimate D2E/DX2                !
 ! A46   A(10,8,26)            110.6114         estimate D2E/DX2                !
 ! A47   A(10,8,27)            111.494          estimate D2E/DX2                !
 ! A48   A(26,8,27)            108.4103         estimate D2E/DX2                !
 ! A49   A(7,9,8)              113.4616         estimate D2E/DX2                !
 ! A50   A(6,10,8)             110.3707         estimate D2E/DX2                !
 ! A51   A(6,10,28)            110.4845         estimate D2E/DX2                !
 ! A52   A(6,10,29)            110.0667         estimate D2E/DX2                !
 ! A53   A(8,10,28)            109.3408         estimate D2E/DX2                !
 ! A54   A(8,10,29)            109.1153         estimate D2E/DX2                !
 ! A55   A(28,10,29)           107.4011         estimate D2E/DX2                !
 ! A56   A(1,11,3)             116.4018         estimate D2E/DX2                !
 ! A57   A(3,12,5)             109.6044         estimate D2E/DX2                !
 ! A58   A(3,12,30)            109.3494         estimate D2E/DX2                !
 ! A59   A(3,12,31)            108.9674         estimate D2E/DX2                !
 ! A60   A(5,12,30)            110.1822         estimate D2E/DX2                !
 ! A61   A(5,12,31)            111.3931         estimate D2E/DX2                !
 ! A62   A(30,12,31)           107.2928         estimate D2E/DX2                !
 ! A63   A(3,13,4)             115.7125         estimate D2E/DX2                !
 ! D1    D(7,1,6,10)            52.5384         estimate D2E/DX2                !
 ! D2    D(7,1,6,22)           175.0684         estimate D2E/DX2                !
 ! D3    D(7,1,6,23)           -67.3572         estimate D2E/DX2                !
 ! D4    D(11,1,6,10)          171.3104         estimate D2E/DX2                !
 ! D5    D(11,1,6,22)          -66.1595         estimate D2E/DX2                !
 ! D6    D(11,1,6,23)           51.4149         estimate D2E/DX2                !
 ! D7    D(14,1,6,10)          -66.8125         estimate D2E/DX2                !
 ! D8    D(14,1,6,22)           55.7175         estimate D2E/DX2                !
 ! D9    D(14,1,6,23)          173.292          estimate D2E/DX2                !
 ! D10   D(6,1,7,9)            -56.1991         estimate D2E/DX2                !
 ! D11   D(6,1,7,24)          -174.6609         estimate D2E/DX2                !
 ! D12   D(6,1,7,25)            65.2626         estimate D2E/DX2                !
 ! D13   D(11,1,7,9)          -177.7618         estimate D2E/DX2                !
 ! D14   D(11,1,7,24)           63.7764         estimate D2E/DX2                !
 ! D15   D(11,1,7,25)          -56.3001         estimate D2E/DX2                !
 ! D16   D(14,1,7,9)            64.0475         estimate D2E/DX2                !
 ! D17   D(14,1,7,24)          -54.4143         estimate D2E/DX2                !
 ! D18   D(14,1,7,25)         -174.4908         estimate D2E/DX2                !
 ! D19   D(6,1,11,3)            91.8714         estimate D2E/DX2                !
 ! D20   D(7,1,11,3)          -147.3656         estimate D2E/DX2                !
 ! D21   D(14,1,11,3)          -30.0718         estimate D2E/DX2                !
 ! D22   D(5,2,4,13)            35.2544         estimate D2E/DX2                !
 ! D23   D(5,2,4,18)           153.0099         estimate D2E/DX2                !
 ! D24   D(5,2,4,19)           -86.375          estimate D2E/DX2                !
 ! D25   D(15,2,4,13)          -86.4769         estimate D2E/DX2                !
 ! D26   D(15,2,4,18)           31.2787         estimate D2E/DX2                !
 ! D27   D(15,2,4,19)          151.8938         estimate D2E/DX2                !
 ! D28   D(16,2,4,13)          156.637          estimate D2E/DX2                !
 ! D29   D(16,2,4,18)          -85.6075         estimate D2E/DX2                !
 ! D30   D(16,2,4,19)           35.0076         estimate D2E/DX2                !
 ! D31   D(4,2,5,12)            24.714          estimate D2E/DX2                !
 ! D32   D(4,2,5,20)           -95.3318         estimate D2E/DX2                !
 ! D33   D(4,2,5,21)           146.9796         estimate D2E/DX2                !
 ! D34   D(15,2,5,12)          146.4126         estimate D2E/DX2                !
 ! D35   D(15,2,5,20)           26.3669         estimate D2E/DX2                !
 ! D36   D(15,2,5,21)          -91.3217         estimate D2E/DX2                !
 ! D37   D(16,2,5,12)          -95.2683         estimate D2E/DX2                !
 ! D38   D(16,2,5,20)          144.686          estimate D2E/DX2                !
 ! D39   D(16,2,5,21)           26.9974         estimate D2E/DX2                !
 ! D40   D(12,3,11,1)           87.1665         estimate D2E/DX2                !
 ! D41   D(13,3,11,1)         -149.6763         Frozen                          !
 ! D42   D(17,3,11,1)          -35.5031         estimate D2E/DX2                !
 ! D43   D(11,3,12,5)          156.5182         estimate D2E/DX2                !
 ! D44   D(11,3,12,30)          35.6386         estimate D2E/DX2                !
 ! D45   D(11,3,12,31)         -81.351          estimate D2E/DX2                !
 ! D46   D(13,3,12,5)           35.8367         estimate D2E/DX2                !
 ! D47   D(13,3,12,30)         -85.0428         estimate D2E/DX2                !
 ! D48   D(13,3,12,31)         157.9675         estimate D2E/DX2                !
 ! D49   D(17,3,12,5)          -81.816          estimate D2E/DX2                !
 ! D50   D(17,3,12,30)         157.3044         estimate D2E/DX2                !
 ! D51   D(17,3,12,31)          40.3148         estimate D2E/DX2                !
 ! D52   D(11,3,13,4)          -95.5556         estimate D2E/DX2                !
 ! D53   D(12,3,13,4)           27.5541         estimate D2E/DX2                !
 ! D54   D(17,3,13,4)          148.1416         estimate D2E/DX2                !
 ! D55   D(2,4,13,3)           -66.6593         estimate D2E/DX2                !
 ! D56   D(18,4,13,3)          172.0848         estimate D2E/DX2                !
 ! D57   D(19,4,13,3)           56.112          estimate D2E/DX2                !
 ! D58   D(2,5,12,3)           -61.7289         estimate D2E/DX2                !
 ! D59   D(2,5,12,30)           58.6452         estimate D2E/DX2                !
 ! D60   D(2,5,12,31)          177.601          estimate D2E/DX2                !
 ! D61   D(20,5,12,3)           58.8637         estimate D2E/DX2                !
 ! D62   D(20,5,12,30)         179.2378         estimate D2E/DX2                !
 ! D63   D(20,5,12,31)         -61.8064         estimate D2E/DX2                !
 ! D64   D(21,5,12,3)          175.7825         estimate D2E/DX2                !
 ! D65   D(21,5,12,30)         -63.8434         estimate D2E/DX2                !
 ! D66   D(21,5,12,31)          55.1125         estimate D2E/DX2                !
 ! D67   D(1,6,10,8)           -52.0595         estimate D2E/DX2                !
 ! D68   D(1,6,10,28)         -173.1132         estimate D2E/DX2                !
 ! D69   D(1,6,10,29)           68.44           estimate D2E/DX2                !
 ! D70   D(22,6,10,8)         -174.4025         estimate D2E/DX2                !
 ! D71   D(22,6,10,28)          64.5437         estimate D2E/DX2                !
 ! D72   D(22,6,10,29)         -53.9031         estimate D2E/DX2                !
 ! D73   D(23,6,10,8)           67.0278         estimate D2E/DX2                !
 ! D74   D(23,6,10,28)         -54.0259         estimate D2E/DX2                !
 ! D75   D(23,6,10,29)        -172.4728         estimate D2E/DX2                !
 ! D76   D(1,7,9,8)             60.7556         estimate D2E/DX2                !
 ! D77   D(24,7,9,8)          -178.5796         estimate D2E/DX2                !
 ! D78   D(25,7,9,8)           -60.7527         estimate D2E/DX2                !
 ! D79   D(10,8,9,7)           -60.3588         estimate D2E/DX2                !
 ! D80   D(26,8,9,7)            61.6561         estimate D2E/DX2                !
 ! D81   D(27,8,9,7)           178.2891         estimate D2E/DX2                !
 ! D82   D(9,8,10,6)            55.0888         estimate D2E/DX2                !
 ! D83   D(9,8,10,28)          176.8215         estimate D2E/DX2                !
 ! D84   D(9,8,10,29)          -65.979          estimate D2E/DX2                !
 ! D85   D(26,8,10,6)          -65.9689         estimate D2E/DX2                !
 ! D86   D(26,8,10,28)          55.7638         estimate D2E/DX2                !
 ! D87   D(26,8,10,29)         172.9633         estimate D2E/DX2                !
 ! D88   D(27,8,10,6)          173.3178         estimate D2E/DX2                !
 ! D89   D(27,8,10,28)         -64.9495         estimate D2E/DX2                !
 ! D90   D(27,8,10,29)          52.25           estimate D2E/DX2                !
 --------------------------------------------------------------------------------
 Trust Radius=3.00D-01 FncErr=1.00D-07 GrdErr=1.00D-06 EigMax=2.50D+02 EigMin=1.00D-04
 Number of steps in this run=    186 maximum allowed number of steps=    186.
 GradGradGradGradGradGradGradGradGradGradGradGradGradGradGradGradGradGrad

                          Input orientation:                          
 ---------------------------------------------------------------------
 Center     Atomic      Atomic             Coordinates (Angstroms)
 Number     Number       Type             X           Y           Z
 ---------------------------------------------------------------------
      1          6           0        1.169843    0.083969    0.090527
      2          6           0       -4.074296    0.158632   -0.126650
      3          6           0       -1.184021   -0.329086    0.313196
      4          6           0       -3.119859   -0.587264   -1.059450
      5          6           0       -3.296682    0.779312    1.048643
      6          6           0        1.933665   -1.207586    0.360180
      7          6           0        1.965595    0.983767   -0.844421
      8          6           0        4.028235    0.076382   -0.129747
      9          8           0        3.246765    1.243680   -0.314491
     10          6           0        3.351884   -0.882782    0.836696
     11          8           0       -0.074255   -0.167620   -0.537799
     12          6           0       -1.839672    1.008518    0.649378
     13          8           0       -2.076085   -1.202315   -0.317890
     14          1           0        1.008233    0.616993    1.021625
     15          1           0       -4.836193   -0.518474    0.245717
     16          1           0       -4.582590    0.928146   -0.700426
     17          1           0       -0.865327   -0.835572    1.213624
     18          1           0       -3.619432   -1.386409   -1.587658
     19          1           0       -2.689717    0.080549   -1.796753
     20          1           0       -3.327905    0.112730    1.906107
     21          1           0       -3.753340    1.711989    1.361208
     22          1           0        1.409833   -1.812601    1.093416
     23          1           0        1.978700   -1.779414   -0.564024
     24          1           0        1.473572    1.938919   -0.965397
     25          1           0        2.058806    0.513248   -1.820581
     26          1           0        4.185903   -0.400138   -1.094669
     27          1           0        4.985530    0.409236    0.247251
     28          1           0        3.943270   -1.790026    0.915896
     29          1           0        3.318879   -0.428951    1.824085
     30          1           0       -1.786757    1.662605   -0.215697
     31          1           0       -1.281010    1.484045    1.447599
 ---------------------------------------------------------------------
                    Distance matrix (angstroms):
                    1          2          3          4          5
     1  C    0.000000
     2  C    5.249165   0.000000
     3  C    2.400182   2.963954   0.000000
     4  C    4.491608   1.528865   2.387107   0.000000
     5  C    4.620750   1.539883   2.496551   2.518502   0.000000
     6  C    1.524549   6.180546   3.239434   5.285665   5.637222
     7  C    1.522165   6.138104   3.603296   5.326933   5.596164
     8  C    2.866877   8.102949   5.246734   7.238786   7.452323
     9  O    2.413001   7.403415   4.743358   6.666425   6.700035
    10  C    2.500536   7.560471   4.599464   6.750271   6.856450
    11  O    1.416288   4.034329   1.407780   3.118321   3.714501
    12  C    3.197544   2.513577   1.527115   2.665613   1.528014
    13  O    3.515306   2.425200   1.398777   1.420445   2.698910
    14  H    1.084977   5.230749   2.490565   4.777264   4.308059
    15  H    6.038169   1.085181   3.657702   2.157312   2.167725
    16  H    5.867600   1.086155   3.762756   2.136574   2.175995
    17  H    2.499764   3.616940   1.081140   3.211143   2.923449
    18  H    5.283509   2.174534   3.265334   1.080375   3.427039
    19  H    4.296282   2.170806   2.624272   1.083795   2.992149
    20  H    4.850453   2.165943   2.707177   3.054145   1.086532
    21  H    5.338802   2.174776   3.444665   3.398154   1.084491
    22  H    2.158787   5.953990   3.088307   5.162789   5.373202
    23  H    2.134217   6.370720   3.588282   5.259465   6.080907
    24  H    2.155937   5.886574   3.720410   5.243096   5.306258
    25  H    2.151016   6.372605   3.972211   5.348740   6.081487
    26  H    3.276533   8.335477   5.551866   7.308243   7.872355
    27  H    3.832731   9.071001   6.213922   8.270297   8.329119
    28  H    3.447461   8.316582   5.365324   7.432121   7.683490
    29  H    2.808321   7.668745   4.750670   7.056712   6.769554
    30  H    3.365613   2.739105   2.147056   2.747907   2.158387
    31  H    3.131858   3.469499   2.140963   3.735904   2.172268
                    6          7          8          9         10
     6  C    0.000000
     7  C    2.500822   0.000000
     8  C    2.505160   2.364020   0.000000
     9  O    2.861489   1.410595   1.416831   0.000000
    10  C    1.530983   2.869139   1.520348   2.420356   0.000000
    11  O    2.433031   2.362350   4.129948   3.615357   3.760202
    12  C    4.385524   4.088044   5.992349   5.182295   5.528504
    13  O    4.066682   4.625080   6.239646   5.857955   5.558599
    14  H    2.150121   2.129130   3.276939   2.681225   2.788588
    15  H    6.805803   7.050493   8.892295   8.291757   8.217456
    16  H    6.938863   6.550004   8.671648   7.845209   8.282396
    17  H    2.949766   3.944574   5.155895   4.854660   4.234285
    18  H    5.887524   6.112500   7.921621   7.462103   7.397998
    19  H    5.261874   4.836804   6.921691   6.228306   6.660631
    20  H    5.640678   6.028702   7.632746   7.031102   6.837709
    21  H    6.470549   6.172627   8.090183   7.213096   7.582358
    22  H    1.085393   3.447283   3.452595   3.833716   2.168417
    23  H    1.087735   2.777402   2.798780   3.287758   2.156757
    24  H    3.445190   1.081220   3.270116   2.012772   3.838957
    25  H    2.780764   1.087642   2.632190   2.052580   3.268344
    26  H    2.800202   2.628228   1.087660   2.047632   2.158403
    27  H    3.455538   3.262183   1.081357   2.008769   2.164614
    28  H    2.164848   3.834559   2.141043   3.346990   1.085865
    29  H    2.160581   3.308787   2.139160   2.715953   1.087193
    30  H    4.734044   3.864746   6.028070   5.051891   5.830279
    31  H    4.331454   4.005506   5.714684   4.864513   5.238204
                   11         12         13         14         15
    11  O    0.000000
    12  C    2.430923   0.000000
    13  O    2.264128   2.424723   0.000000
    14  H    2.054069   2.898693   3.823245   0.000000
    15  H    4.838703   3.387298   2.898877   6.004051   0.000000
    16  H    4.642438   3.058109   3.311762   5.858291   1.747058
    17  H    2.034561   2.160646   1.986447   2.378452   4.099411
    18  H    3.893062   3.729283   2.007018   5.677787   2.365393
    19  H    2.913279   2.750865   2.051663   4.680370   3.022891
    20  H    4.078911   2.143978   2.870986   4.454064   2.330289
    21  H    4.546958   2.159560   3.758420   4.897643   2.718797
    22  H    2.751244   4.326103   3.809968   2.463608   6.434765
    23  H    2.610209   4.881073   4.103036   3.032961   6.977709
    24  H    2.648795   3.801412   4.784003   2.431519   6.878860
    25  H    2.580515   4.641564   4.722135   3.031930   7.271523
    26  H    4.302687   6.429119   6.360768   3.951056   9.121889
    27  H    5.152717   6.863252   7.265183   4.057303   9.865439
    28  H    4.570114   6.430031   6.172541   3.797283   8.896345
    29  H    4.142481   5.482418   5.855919   2.660268   8.306892
    30  H    2.527081   1.085811   2.881305   3.230517   3.777442
    31  H    2.850625   1.084152   3.311439   2.484727   4.253696
                   16         17         18         19         20
    16  H    0.000000
    17  H    4.537878   0.000000
    18  H    2.659327   3.966824   0.000000
    19  H    2.345916   3.637313   1.749302   0.000000
    20  H    3.005520   2.728205   3.812978   3.757591   0.000000
    21  H    2.356353   3.853890   4.279464   3.710203   1.742280
    22  H    6.829253   2.478989   5.715182   5.361288   5.178178
    23  H    7.099297   3.484158   5.704504   5.174283   6.151570
    24  H    6.145646   4.232775   6.114222   4.634400   5.885124
    25  H    6.747965   4.424508   5.992106   4.768256   6.562414
    26  H    8.877288   5.570704   7.882831   6.928068   8.107096
    27  H    9.628929   6.059369   8.979789   7.949554   8.482507
    28  H    9.093473   4.911439   7.976538   7.406351   7.580962
    29  H    8.405241   4.248009   7.790820   7.033725   6.669324
    30  H    2.931053   3.022066   3.812802   2.412048   3.046195
    31  H    3.977872   2.368155   4.787537   3.805270   2.506095
                   21         22         23         24         25
    21  H    0.000000
    22  H    6.257220   0.000000
    23  H    6.982313   1.752660   0.000000
    24  H    5.725836   4.279799   3.773891   0.000000
    25  H    6.733632   3.784457   2.615655   1.762492   0.000000
    26  H    8.574613   3.806486   2.656263   3.583942   2.426059
    27  H    8.905387   4.293968   3.806492   4.017996   3.585033
    28  H    8.467598   2.539749   2.459636   4.852185   4.042843
    29  H    7.403659   2.468364   3.053342   4.097948   3.969775
    30  H    2.521213   4.899900   5.113462   3.356806   4.322618
    31  H    2.484318   4.270124   5.032147   3.690147   4.772611
                   26         27         28         29         30
    26  H    0.000000
    27  H    1.759329   0.000000
    28  H    2.456223   2.523915   0.000000
    29  H    3.044944   2.442681   1.751341   0.000000
    30  H    6.379668   6.902835   6.784864   5.882418   0.000000
    31  H    6.316677   6.470361   6.188324   4.996026   1.747632
                   31
    31  H    0.000000
 Stoichiometry    C10H18O3
 Framework group  C1[X(C10H18O3)]
 Deg. of freedom    87
 Full point group                 C1      NOp   1
 Largest Abelian subgroup         C1      NOp   1
 Largest concise Abelian subgroup C1      NOp   1
                         Standard orientation:                         
 ---------------------------------------------------------------------
 Center     Atomic      Atomic             Coordinates (Angstroms)
 Number     Number       Type             X           Y           Z
 ---------------------------------------------------------------------
      1          6           0        1.169843    0.083969    0.090527
      2          6           0       -4.074296    0.158632   -0.126650
      3          6           0       -1.184021   -0.329086    0.313196
      4          6           0       -3.119859   -0.587264   -1.059450
      5          6           0       -3.296682    0.779312    1.048643
      6          6           0        1.933665   -1.207586    0.360180
      7          6           0        1.965595    0.983767   -0.844421
      8          6           0        4.028235    0.076382   -0.129747
      9          8           0        3.246765    1.243680   -0.314491
     10          6           0        3.351884   -0.882782    0.836696
     11          8           0       -0.074255   -0.167620   -0.537799
     12          6           0       -1.839672    1.008518    0.649378
     13          8           0       -2.076085   -1.202315   -0.317890
     14          1           0        1.008233    0.616993    1.021625
     15          1           0       -4.836193   -0.518474    0.245717
     16          1           0       -4.582590    0.928146   -0.700426
     17          1           0       -0.865327   -0.835572    1.213624
     18          1           0       -3.619432   -1.386409   -1.587658
     19          1           0       -2.689717    0.080549   -1.796753
     20          1           0       -3.327905    0.112730    1.906107
     21          1           0       -3.753340    1.711989    1.361208
     22          1           0        1.409833   -1.812601    1.093416
     23          1           0        1.978700   -1.779414   -0.564024
     24          1           0        1.473572    1.938919   -0.965397
     25          1           0        2.058806    0.513248   -1.820581
     26          1           0        4.185903   -0.400138   -1.094669
     27          1           0        4.985530    0.409236    0.247251
     28          1           0        3.943270   -1.790026    0.915896
     29          1           0        3.318879   -0.428951    1.824085
     30          1           0       -1.786757    1.662605   -0.215697
     31          1           0       -1.281010    1.484045    1.447599
 ---------------------------------------------------------------------
 Rotational constants (GHZ):           2.2371451           0.3496031           0.3377301
 Standard basis: 6-311++G(2d,2p) (5D, 7F)
 There are   557 symmetry adapted cartesian basis functions of A   symmetry.
 There are   531 symmetry adapted basis functions of A   symmetry.
   531 basis functions,   762 primitive gaussians,   557 cartesian basis functions
    51 alpha electrons       51 beta electrons
       nuclear repulsion energy       877.2922833898 Hartrees.
 NAtoms=   31 NActive=   31 NUniq=   31 SFac= 1.00D+00 NAtFMM=   60 NAOKFM=F Big=F
 Integral buffers will be    131072 words long.
 Raffenetti 2 integral format.
 Two-electron integral symmetry is turned on.
 ------------------------------------------------------------------------------
 Polarizable Continuum Model (PCM)
 =================================
 Model                : PCM.
 Atomic radii         : UFF (Universal Force Field).
 Polarization charges : Total charges.
 Charge compensation  : None.
 Solution method      : On-the-fly selection.
 Cavity type          : Scaled VdW (van der Waals Surface) (Alpha=1.100).
 Cavity algorithm     : GePol (No added spheres)
                        Default sphere list used, NSphG=   31.
                        Lebedev-Laikov grids with approx.  5.0 points / Ang**2.
                        Smoothing algorithm: York/Karplus (Gamma=1.0000).
                        Polarization charges: spherical gaussians, with
                                              point-specific exponents (IZeta= 3).
                        Self-potential: point-specific (ISelfS= 7).
                        Self-field    : sphere-specific E.n sum rule (ISelfD= 2).
 1st derivatives      : Analytical E(r).r(x)/FMM algorithm (CHGder, D1EAlg=3).
                        Cavity 1st derivative terms included.
 Solvent              : Water, Eps=  78.355300 Eps(inf)=   1.777849
 ------------------------------------------------------------------------------
 One-electron integrals computed using PRISM.
 NBasis=   531 RedAO= T EigKep=  5.54D-06  NBF=   531
 NBsUse=   531 1.00D-06 EigRej= -1.00D+00 NBFU=   531
 ExpMin= 3.60D-02 ExpMax= 8.59D+03 ExpMxC= 1.30D+03 IAcc=3 IRadAn=         5 AccDes= 0.00D+00
 Harris functional with IExCor= 1009 and IRadAn=       5 diagonalized for initial guess.
 HarFok:  IExCor= 1009 AccDes= 0.00D+00 IRadAn=         5 IDoV= 1 UseB2=F ITyADJ=14
 ICtDFT=  3500011 ScaDFX=  1.000000  1.000000  1.000000  1.000000
 FoFCou: FMM=F IPFlag=           0 FMFlag=      100000 FMFlg1=           0
         NFxFlg=           0 DoJE=T BraDBF=F KetDBF=T FulRan=T
         wScrn=  0.000000 ICntrl=       500 IOpCl=  0 I1Cent=   200000004 NGrid=           0
         NMat0=    1 NMatS0=      1 NMatT0=    0 NMatD0=    1 NMtDS0=    0 NMtDT0=    0
 Petite list used in FoFCou.
 Requested convergence on RMS density matrix=1.00D-08 within 128 cycles.
 Requested convergence on MAX density matrix=1.00D-06.
 Requested convergence on             energy=1.00D-06.
 No special actions if energy rises.
 Inv3:  Mode=1 IEnd=    13016667.
 Iteration    1 A*A^-1 deviation from unit magnitude is 3.77D-15 for   2052.
 Iteration    1 A*A^-1 deviation from orthogonality  is 1.92D-15 for   1570    792.
 Iteration    1 A^-1*A deviation from unit magnitude is 3.77D-15 for   2052.
 Iteration    1 A^-1*A deviation from orthogonality  is 1.64D-15 for   1799    630.
 Error on total polarization charges =  0.01505
 SCF Done:  E(RM062X) =  -617.491945208     A.U. after   12 cycles
            NFock= 12  Conv=0.38D-08     -V/T= 2.0035

 **********************************************************************

            Population analysis using the SCF density.

 **********************************************************************

 Orbital symmetries:
       Occupied  (A) (A) (A) (A) (A) (A) (A) (A) (A) (A) (A) (A)
                 (A) (A) (A) (A) (A) (A) (A) (A) (A) (A) (A) (A)
                 (A) (A) (A) (A) (A) (A) (A) (A) (A) (A) (A) (A)
                 (A) (A) (A) (A) (A) (A) (A) (A) (A) (A) (A) (A)
                 (A) (A) (A)
       Virtual   (A) (A) (A) (A) (A) (A) (A) (A) (A) (A) (A) (A)
                 (A) (A) (A) (A) (A) (A) (A) (A) (A) (A) (A) (A)
                 (A) (A) (A) (A) (A) (A) (A) (A) (A) (A) (A) (A)
                 (A) (A) (A) (A) (A) (A) (A) (A) (A) (A) (A) (A)
                 (A) (A) (A) (A) (A) (A) (A) (A) (A) (A) (A) (A)
                 (A) (A) (A) (A) (A) (A) (A) (A) (A) (A) (A) (A)
                 (A) (A) (A) (A) (A) (A) (A) (A) (A) (A) (A) (A)
                 (A) (A) (A) (A) (A) (A) (A) (A) (A) (A) (A) (A)
                 (A) (A) (A) (A) (A) (A) (A) (A) (A) (A) (A) (A)
                 (A) (A) (A) (A) (A) (A) (A) (A) (A) (A) (A) (A)
                 (A) (A) (A) (A) (A) (A) (A) (A) (A) (A) (A) (A)
                 (A) (A) (A) (A) (A) (A) (A) (A) (A) (A) (A) (A)
                 (A) (A) (A) (A) (A) (A) (A) (A) (A) (A) (A) (A)
                 (A) (A) (A) (A) (A) (A) (A) (A) (A) (A) (A) (A)
                 (A) (A) (A) (A) (A) (A) (A) (A) (A) (A) (A) (A)
                 (A) (A) (A) (A) (A) (A) (A) (A) (A) (A) (A) (A)
                 (A) (A) (A) (A) (A) (A) (A) (A) (A) (A) (A) (A)
                 (A) (A) (A) (A) (A) (A) (A) (A) (A) (A) (A) (A)
                 (A) (A) (A) (A) (A) (A) (A) (A) (A) (A) (A) (A)
                 (A) (A) (A) (A) (A) (A) (A) (A) (A) (A) (A) (A)
                 (A) (A) (A) (A) (A) (A) (A) (A) (A) (A) (A) (A)
                 (A) (A) (A) (A) (A) (A) (A) (A) (A) (A) (A) (A)
                 (A) (A) (A) (A) (A) (A) (A) (A) (A) (A) (A) (A)
                 (A) (A) (A) (A) (A) (A) (A) (A) (A) (A) (A) (A)
                 (A) (A) (A) (A) (A) (A) (A) (A) (A) (A) (A) (A)
                 (A) (A) (A) (A) (A) (A) (A) (A) (A) (A) (A) (A)
                 (A) (A) (A) (A) (A) (A) (A) (A) (A) (A) (A) (A)
                 (A) (A) (A) (A) (A) (A) (A) (A) (A) (A) (A) (A)
                 (A) (A) (A) (A) (A) (A) (A) (A) (A) (A) (A) (A)
                 (A) (A) (A) (A) (A) (A) (A) (A) (A) (A) (A) (A)
                 (A) (A) (A) (A) (A) (A) (A) (A) (A) (A) (A) (A)
                 (A) (A) (A) (A) (A) (A) (A) (A) (A) (A) (A) (A)
                 (A) (A) (A) (A) (A) (A) (A) (A) (A) (A) (A) (A)
                 (A) (A) (A) (A) (A) (A) (A) (A) (A) (A) (A) (A)
                 (A) (A) (A) (A) (A) (A) (A) (A) (A) (A) (A) (A)
                 (A) (A) (A) (A) (A) (A) (A) (A) (A) (A) (A) (A)
                 (A) (A) (A) (A) (A) (A) (A) (A) (A) (A) (A) (A)
                 (A) (A) (A) (A) (A) (A) (A) (A) (A) (A) (A) (A)
                 (A) (A) (A) (A) (A) (A) (A) (A) (A) (A) (A) (A)
                 (A) (A) (A) (A) (A) (A) (A) (A) (A) (A) (A) (A)
 The electronic state is 1-A.
 Alpha  occ. eigenvalues --  -19.63062 -19.62949 -19.62792 -10.63666 -10.58849
 Alpha  occ. eigenvalues --  -10.57975 -10.57892 -10.57887 -10.53233 -10.53167
 Alpha  occ. eigenvalues --  -10.53105 -10.53087 -10.52847  -1.20169  -1.16831
 Alpha  occ. eigenvalues --   -1.13974  -0.90503  -0.89993  -0.87587  -0.84562
 Alpha  occ. eigenvalues --   -0.74918  -0.74582  -0.73741  -0.70796  -0.65978
 Alpha  occ. eigenvalues --   -0.62876  -0.60921  -0.58980  -0.57773  -0.57204
 Alpha  occ. eigenvalues --   -0.55307  -0.53338  -0.52017  -0.50892  -0.49539
 Alpha  occ. eigenvalues --   -0.47926  -0.46932  -0.46137  -0.45732  -0.44849
 Alpha  occ. eigenvalues --   -0.43925  -0.43157  -0.41103  -0.40311  -0.40005
 Alpha  occ. eigenvalues --   -0.38661  -0.37833  -0.36724  -0.34527  -0.33734
 Alpha  occ. eigenvalues --   -0.31409
 Alpha virt. eigenvalues --   -0.00085   0.00754   0.00835   0.01114   0.02161
 Alpha virt. eigenvalues --    0.02345   0.02544   0.03575   0.03820   0.04238
 Alpha virt. eigenvalues --    0.04479   0.04557   0.05471   0.05863   0.06744
 Alpha virt. eigenvalues --    0.07377   0.07648   0.08286   0.09016   0.09250
 Alpha virt. eigenvalues --    0.09468   0.10114   0.11038   0.11364   0.11524
 Alpha virt. eigenvalues --    0.12127   0.12700   0.12893   0.13162   0.13333
 Alpha virt. eigenvalues --    0.13594   0.13939   0.14227   0.14399   0.14874
 Alpha virt. eigenvalues --    0.15229   0.15566   0.15654   0.15878   0.16248
 Alpha virt. eigenvalues --    0.16464   0.16640   0.17016   0.17351   0.17436
 Alpha virt. eigenvalues --    0.18142   0.18431   0.18874   0.19021   0.19296
 Alpha virt. eigenvalues --    0.19575   0.20109   0.20555   0.20668   0.21374
 Alpha virt. eigenvalues --    0.21843   0.22373   0.22946   0.23707   0.24158
 Alpha virt. eigenvalues --    0.24952   0.25227   0.25721   0.25989   0.27060
 Alpha virt. eigenvalues --    0.27879   0.28076   0.28205   0.28761   0.29035
 Alpha virt. eigenvalues --    0.29681   0.29963   0.30221   0.31087   0.31783
 Alpha virt. eigenvalues --    0.32060   0.32522   0.33222   0.33702   0.34041
 Alpha virt. eigenvalues --    0.34630   0.34975   0.35229   0.35866   0.36164
 Alpha virt. eigenvalues --    0.36787   0.36959   0.37771   0.38176   0.38622
 Alpha virt. eigenvalues --    0.38867   0.39278   0.39655   0.40021   0.40804
 Alpha virt. eigenvalues --    0.41010   0.41992   0.42857   0.43550   0.44762
 Alpha virt. eigenvalues --    0.46042   0.48197   0.49063   0.49947   0.50794
 Alpha virt. eigenvalues --    0.51665   0.52231   0.53281   0.54100   0.54450
 Alpha virt. eigenvalues --    0.55298   0.56025   0.57189   0.57887   0.58847
 Alpha virt. eigenvalues --    0.59081   0.59370   0.60113   0.60640   0.61171
 Alpha virt. eigenvalues --    0.61839   0.62052   0.62191   0.62914   0.63461
 Alpha virt. eigenvalues --    0.64218   0.64569   0.65267   0.66384   0.66763
 Alpha virt. eigenvalues --    0.67058   0.67935   0.69401   0.69507   0.69937
 Alpha virt. eigenvalues --    0.70154   0.70827   0.71718   0.72169   0.72933
 Alpha virt. eigenvalues --    0.73709   0.73921   0.74486   0.75358   0.75462
 Alpha virt. eigenvalues --    0.76402   0.76513   0.77106   0.77594   0.80054
 Alpha virt. eigenvalues --    0.80378   0.82076   0.82593   0.84151   0.84924
 Alpha virt. eigenvalues --    0.86378   0.87134   0.87553   0.88720   0.89242
 Alpha virt. eigenvalues --    0.89999   0.90951   0.92332   0.93784   0.95950
 Alpha virt. eigenvalues --    0.96465   0.96827   0.99695   1.00388   1.01758
 Alpha virt. eigenvalues --    1.02372   1.03673   1.04005   1.06220   1.06466
 Alpha virt. eigenvalues --    1.06992   1.07588   1.09063   1.10663   1.11350
 Alpha virt. eigenvalues --    1.11769   1.13707   1.14690   1.16471   1.16608
 Alpha virt. eigenvalues --    1.17021   1.17554   1.18992   1.20050   1.20257
 Alpha virt. eigenvalues --    1.21288   1.21505   1.22004   1.23203   1.23970
 Alpha virt. eigenvalues --    1.24720   1.25522   1.26227   1.26828   1.28089
 Alpha virt. eigenvalues --    1.28321   1.29094   1.29614   1.30228   1.30685
 Alpha virt. eigenvalues --    1.30972   1.32545   1.32664   1.32726   1.33452
 Alpha virt. eigenvalues --    1.34147   1.35472   1.36065   1.36294   1.37161
 Alpha virt. eigenvalues --    1.37728   1.38012   1.38917   1.40000   1.40684
 Alpha virt. eigenvalues --    1.42071   1.42301   1.43504   1.44843   1.44940
 Alpha virt. eigenvalues --    1.45711   1.46453   1.46550   1.47115   1.48445
 Alpha virt. eigenvalues --    1.48669   1.49410   1.49673   1.50686   1.51345
 Alpha virt. eigenvalues --    1.51620   1.52526   1.53524   1.54379   1.54791
 Alpha virt. eigenvalues --    1.55555   1.55756   1.57026   1.57506   1.57872
 Alpha virt. eigenvalues --    1.59373   1.59879   1.60618   1.61184   1.62336
 Alpha virt. eigenvalues --    1.62834   1.63331   1.64118   1.64883   1.67256
 Alpha virt. eigenvalues --    1.68254   1.68804   1.69509   1.70448   1.70735
 Alpha virt. eigenvalues --    1.72476   1.74054   1.74547   1.76153   1.76769
 Alpha virt. eigenvalues --    1.77825   1.78853   1.80071   1.80640   1.81832
 Alpha virt. eigenvalues --    1.85937   1.86991   1.91642   1.94150   1.97188
 Alpha virt. eigenvalues --    1.98402   2.05397   2.06814   2.14323   2.18759
 Alpha virt. eigenvalues --    2.23836   2.26237   2.32340   2.34376   2.38548
 Alpha virt. eigenvalues --    2.41316   2.42239   2.43511   2.46122   2.50788
 Alpha virt. eigenvalues --    2.56491   2.75516   2.76100   2.80129   2.80825
 Alpha virt. eigenvalues --    2.85422   2.88510   2.90261   2.92084   2.93310
 Alpha virt. eigenvalues --    2.93749   2.96703   2.99967   3.01196   3.03307
 Alpha virt. eigenvalues --    3.04485   3.07551   3.08096   3.09058   3.09610
 Alpha virt. eigenvalues --    3.11621   3.14903   3.17585   3.18785   3.21319
 Alpha virt. eigenvalues --    3.25262   3.29618   3.30055   3.31130   3.32411
 Alpha virt. eigenvalues --    3.35288   3.36837   3.37843   3.38634   3.40308
 Alpha virt. eigenvalues --    3.42012   3.42936   3.43780   3.44984   3.45336
 Alpha virt. eigenvalues --    3.47006   3.48050   3.49235   3.50012   3.51323
 Alpha virt. eigenvalues --    3.51483   3.52594   3.54231   3.54960   3.55757
 Alpha virt. eigenvalues --    3.56647   3.57622   3.58106   3.59251   3.60704
 Alpha virt. eigenvalues --    3.60840   3.62292   3.62644   3.64087   3.64296
 Alpha virt. eigenvalues --    3.66541   3.66695   3.67474   3.69312   3.69928
 Alpha virt. eigenvalues --    3.70606   3.71518   3.71848   3.72982   3.74544
 Alpha virt. eigenvalues --    3.74765   3.75424   3.76110   3.77397   3.78080
 Alpha virt. eigenvalues --    3.79316   3.79963   3.81849   3.84169   3.85003
 Alpha virt. eigenvalues --    3.86440   3.88278   3.88644   3.90170   3.91305
 Alpha virt. eigenvalues --    3.92239   3.94200   3.94424   3.95422   3.98954
 Alpha virt. eigenvalues --    3.99365   4.01652   4.02612   4.03143   4.04613
 Alpha virt. eigenvalues --    4.05110   4.05741   4.06415   4.07131   4.07632
 Alpha virt. eigenvalues --    4.07715   4.08310   4.09438   4.10034   4.11073
 Alpha virt. eigenvalues --    4.11250   4.13053   4.14809   4.15625   4.16231
 Alpha virt. eigenvalues --    4.17760   4.18073   4.18883   4.20059   4.20724
 Alpha virt. eigenvalues --    4.21875   4.22281   4.23297   4.24564   4.25671
 Alpha virt. eigenvalues --    4.26916   4.28401   4.29236   4.30374   4.31698
 Alpha virt. eigenvalues --    4.33144   4.34542   4.35814   4.37096   4.40193
 Alpha virt. eigenvalues --    4.41850   4.43132   4.44208   4.47740   4.50939
 Alpha virt. eigenvalues --    4.56507   4.58394   4.74664   4.76793   4.82393
 Alpha virt. eigenvalues --    4.83934   4.92597   4.95011   4.99219   5.00587
 Alpha virt. eigenvalues --    5.02566   5.06499   5.08415   5.11664   5.12810
 Alpha virt. eigenvalues --    5.13719   5.14666   5.18214   5.30363   5.35305
 Alpha virt. eigenvalues --    5.39997   5.57774   5.58839   5.63820   5.85818
 Alpha virt. eigenvalues --    5.88760   6.02166   7.02727   7.05177   7.05885
 Alpha virt. eigenvalues --    7.06647   7.09746   7.12598   7.13142   7.17135
 Alpha virt. eigenvalues --    7.23649   7.36503   7.37627   7.45142   7.53704
 Alpha virt. eigenvalues --    7.54537   7.62932  23.94226  24.00688  24.04585
 Alpha virt. eigenvalues --   24.07678  24.11049  24.11561  24.14324  24.14516
 Alpha virt. eigenvalues --   24.17343  24.19874  50.17313  50.19543  50.21605
          Condensed to atoms (all electrons):
               1          2          3          4          5          6
     1  C    7.417728   0.018948  -0.556032   0.021706  -0.085660  -1.451442
     2  C    0.018948   5.960346   0.271568  -0.211373  -0.350668   0.003335
     3  C   -0.556032   0.271568   6.800343  -0.281275  -0.051924   0.133506
     4  C    0.021706  -0.211373  -0.281275   5.660536   0.279195  -0.001994
     5  C   -0.085660  -0.350668  -0.051924   0.279195   6.135285  -0.026514
     6  C   -1.451442   0.003335   0.133506  -0.001994  -0.026514   7.248310
     7  C   -0.225849  -0.000311  -0.053757  -0.008520  -0.001563  -0.014389
     8  C    0.183877   0.000375  -0.011296   0.001737   0.000931  -0.146502
     9  O    0.029756  -0.000153  -0.004583   0.000460  -0.000358  -0.053054
    10  C    0.026057   0.000701  -0.132327   0.006791  -0.006260  -0.213047
    11  O    0.331241   0.018295   0.266118  -0.013880  -0.021860  -0.173334
    12  C    0.071627  -0.031369  -0.690814  -0.115326  -0.154845   0.012462
    13  O   -0.030210   0.005631   0.174473   0.047258  -0.147782   0.021648
    14  H    0.453097   0.009751  -0.008859  -0.000263  -0.022473   0.015173
    15  H   -0.003554   0.461251   0.004938  -0.061339  -0.038220  -0.000356
    16  H   -0.000757   0.468472   0.007372  -0.047007  -0.055079   0.000293
    17  H    0.006489   0.042409   0.516826  -0.042419  -0.024907  -0.027295
    18  H    0.003486  -0.013493   0.012070   0.417163  -0.002376   0.000033
    19  H   -0.002562  -0.091236  -0.013251   0.477272  -0.012866   0.001283
    20  H   -0.002772  -0.080152  -0.029518  -0.002057   0.490256  -0.000185
    21  H   -0.004063  -0.043986  -0.010776   0.011719   0.441719   0.000525
    22  H   -0.030780  -0.001796   0.013196   0.002369   0.001640   0.408598
    23  H   -0.047593   0.000471   0.012866  -0.002928  -0.000568   0.500285
    24  H   -0.089735   0.001118   0.004201  -0.002852  -0.003078   0.073334
    25  H    0.023052  -0.001070  -0.005865   0.003950   0.000924  -0.064140
    26  H    0.055693  -0.000098   0.002370   0.000109   0.000156  -0.049690
    27  H   -0.000301   0.000033  -0.002325   0.000066  -0.000051   0.005203
    28  H   -0.025584   0.000122  -0.002119  -0.000018  -0.000361  -0.000913
    29  H   -0.015702  -0.000394  -0.001990   0.000169   0.000540  -0.042620
    30  H    0.012445   0.035199  -0.041125  -0.035075  -0.057835  -0.011175
    31  H   -0.000085  -0.025588  -0.045400   0.011798   0.028578  -0.007344
               7          8          9         10         11         12
     1  C   -0.225849   0.183877   0.029756   0.026057   0.331241   0.071627
     2  C   -0.000311   0.000375  -0.000153   0.000701   0.018295  -0.031369
     3  C   -0.053757  -0.011296  -0.004583  -0.132327   0.266118  -0.690814
     4  C   -0.008520   0.001737   0.000460   0.006791  -0.013880  -0.115326
     5  C   -0.001563   0.000931  -0.000358  -0.006260  -0.021860  -0.154845
     6  C   -0.014389  -0.146502  -0.053054  -0.213047  -0.173334   0.012462
     7  C    5.933353  -0.213499   0.188768   0.151272  -0.170812   0.023523
     8  C   -0.213499   5.421302   0.106709   0.079835   0.012947  -0.006871
     9  O    0.188768   0.106709   8.315947  -0.013148  -0.001969   0.001836
    10  C    0.151272   0.079835  -0.013148   5.710698  -0.001555  -0.009131
    11  O   -0.170812   0.012947  -0.001969  -0.001555   8.259354  -0.153191
    12  C    0.023523  -0.006871   0.001836  -0.009131  -0.153191   6.358467
    13  O   -0.010967   0.000900   0.000167  -0.001454  -0.000952   0.114004
    14  H   -0.084448   0.017009  -0.026887  -0.000425  -0.007980  -0.029640
    15  H   -0.000385  -0.000016  -0.000007  -0.000276   0.000386   0.022069
    16  H    0.000769   0.000018  -0.000001   0.000183  -0.000221  -0.011996
    17  H    0.003377   0.005662  -0.000316  -0.002983  -0.032666  -0.078747
    18  H    0.000156   0.000133   0.000008   0.000586  -0.001606  -0.011354
    19  H    0.000803  -0.000486   0.000022  -0.000680   0.005384   0.025903
    20  H    0.000846  -0.000154   0.000021   0.000496   0.000654  -0.019584
    21  H   -0.000820  -0.000092  -0.000010  -0.000258  -0.002644  -0.024575
    22  H    0.007194  -0.008639  -0.002213   0.005196  -0.006720   0.004918
    23  H   -0.017456  -0.018600  -0.000389  -0.060059  -0.001054  -0.003528
    24  H    0.405408   0.001918  -0.075521   0.001347   0.009783   0.015137
    25  H    0.399928   0.002959  -0.038176   0.008764   0.000422   0.001845
    26  H   -0.030709   0.451334  -0.044001  -0.029506  -0.000699   0.001777
    27  H    0.013147   0.436884  -0.070588  -0.044372   0.001165  -0.001099
    28  H   -0.003221  -0.035284   0.006450   0.421053  -0.001857  -0.000854
    29  H    0.017215  -0.087259   0.000305   0.507203  -0.000700   0.004474
    30  H    0.003349   0.000645   0.000776   0.000089  -0.004512   0.463623
    31  H    0.012733  -0.002068   0.002018  -0.000030  -0.004886   0.415827
              13         14         15         16         17         18
     1  C   -0.030210   0.453097  -0.003554  -0.000757   0.006489   0.003486
     2  C    0.005631   0.009751   0.461251   0.468472   0.042409  -0.013493
     3  C    0.174473  -0.008859   0.004938   0.007372   0.516826   0.012070
     4  C    0.047258  -0.000263  -0.061339  -0.047007  -0.042419   0.417163
     5  C   -0.147782  -0.022473  -0.038220  -0.055079  -0.024907  -0.002376
     6  C    0.021648   0.015173  -0.000356   0.000293  -0.027295   0.000033
     7  C   -0.010967  -0.084448  -0.000385   0.000769   0.003377   0.000156
     8  C    0.000900   0.017009  -0.000016   0.000018   0.005662   0.000133
     9  O    0.000167  -0.026887  -0.000007  -0.000001  -0.000316   0.000008
    10  C   -0.001454  -0.000425  -0.000276   0.000183  -0.002983   0.000586
    11  O   -0.000952  -0.007980   0.000386  -0.000221  -0.032666  -0.001606
    12  C    0.114004  -0.029640   0.022069  -0.011996  -0.078747  -0.011354
    13  O    8.278180   0.002118  -0.013053   0.012780  -0.102471  -0.061227
    14  H    0.002118   0.484611  -0.000314  -0.000367  -0.017376   0.000293
    15  H   -0.013053  -0.000314   0.507709  -0.020627   0.002244  -0.009867
    16  H    0.012780  -0.000367  -0.020627   0.500390  -0.000338  -0.000936
    17  H   -0.102471  -0.017376   0.002244  -0.000338   0.504705   0.000070
    18  H   -0.061227   0.000293  -0.009867  -0.000936   0.000070   0.468166
    19  H   -0.031111   0.000140   0.003682  -0.000549  -0.003577  -0.004513
    20  H    0.010489  -0.001097  -0.010659   0.005622  -0.007640  -0.001835
    21  H   -0.003828  -0.000300  -0.002357  -0.004064  -0.000735   0.000789
    22  H   -0.000250  -0.001753  -0.000143   0.000038  -0.013957   0.000153
    23  H   -0.000240  -0.001196   0.000082   0.000013   0.001837  -0.000237
    24  H   -0.000306  -0.002012   0.000083   0.000026   0.003150  -0.000162
    25  H    0.001259  -0.008911  -0.000073   0.000090  -0.001622   0.000154
    26  H    0.000022  -0.004810   0.000003  -0.000004  -0.000715  -0.000025
    27  H    0.000024   0.002082  -0.000002   0.000003   0.000168   0.000012
    28  H    0.000199   0.000235  -0.000005   0.000004   0.000601   0.000019
    29  H    0.000023  -0.015410  -0.000001   0.000004  -0.001278  -0.000016
    30  H   -0.001384   0.002187  -0.002897  -0.002714   0.001204  -0.002723
    31  H    0.008438  -0.010136   0.000786   0.000436  -0.015926   0.001110
              19         20         21         22         23         24
     1  C   -0.002562  -0.002772  -0.004063  -0.030780  -0.047593  -0.089735
     2  C   -0.091236  -0.080152  -0.043986  -0.001796   0.000471   0.001118
     3  C   -0.013251  -0.029518  -0.010776   0.013196   0.012866   0.004201
     4  C    0.477272  -0.002057   0.011719   0.002369  -0.002928  -0.002852
     5  C   -0.012866   0.490256   0.441719   0.001640  -0.000568  -0.003078
     6  C    0.001283  -0.000185   0.000525   0.408598   0.500285   0.073334
     7  C    0.000803   0.000846  -0.000820   0.007194  -0.017456   0.405408
     8  C   -0.000486  -0.000154  -0.000092  -0.008639  -0.018600   0.001918
     9  O    0.000022   0.000021  -0.000010  -0.002213  -0.000389  -0.075521
    10  C   -0.000680   0.000496  -0.000258   0.005196  -0.060059   0.001347
    11  O    0.005384   0.000654  -0.002644  -0.006720  -0.001054   0.009783
    12  C    0.025903  -0.019584  -0.024575   0.004918  -0.003528   0.015137
    13  O   -0.031111   0.010489  -0.003828  -0.000250  -0.000240  -0.000306
    14  H    0.000140  -0.001097  -0.000300  -0.001753  -0.001196  -0.002012
    15  H    0.003682  -0.010659  -0.002357  -0.000143   0.000082   0.000083
    16  H   -0.000549   0.005622  -0.004064   0.000038   0.000013   0.000026
    17  H   -0.003577  -0.007640  -0.000735  -0.013957   0.001837   0.003150
    18  H   -0.004513  -0.001835   0.000789   0.000153  -0.000237  -0.000162
    19  H    0.488679   0.001972  -0.001391  -0.000134   0.000383   0.000848
    20  H    0.001972   0.489201  -0.010264   0.001156   0.000042  -0.000281
    21  H   -0.001391  -0.010264   0.494847  -0.000182  -0.000072   0.000785
    22  H   -0.000134   0.001156  -0.000182   0.495348  -0.010018  -0.002496
    23  H    0.000383   0.000042  -0.000072  -0.010018   0.447595   0.000200
    24  H    0.000848  -0.000281   0.000785  -0.002496   0.000200   0.509880
    25  H   -0.001128   0.000184  -0.000190   0.000203  -0.005165  -0.031239
    26  H    0.000018   0.000010   0.000017   0.001676  -0.005637  -0.004900
    27  H   -0.000022   0.000004  -0.000018   0.000157  -0.000458   0.001937
    28  H   -0.000012  -0.000031  -0.000010  -0.014960  -0.002308   0.003460
    29  H    0.000030   0.000123   0.000010   0.001398   0.002023  -0.002756
    30  H   -0.009073   0.002151  -0.005666   0.000590  -0.000548  -0.008419
    31  H    0.000681   0.001389  -0.012476   0.002057   0.000245  -0.003375
              25         26         27         28         29         30
     1  C    0.023052   0.055693  -0.000301  -0.025584  -0.015702   0.012445
     2  C   -0.001070  -0.000098   0.000033   0.000122  -0.000394   0.035199
     3  C   -0.005865   0.002370  -0.002325  -0.002119  -0.001990  -0.041125
     4  C    0.003950   0.000109   0.000066  -0.000018   0.000169  -0.035075
     5  C    0.000924   0.000156  -0.000051  -0.000361   0.000540  -0.057835
     6  C   -0.064140  -0.049690   0.005203  -0.000913  -0.042620  -0.011175
     7  C    0.399928  -0.030709   0.013147  -0.003221   0.017215   0.003349
     8  C    0.002959   0.451334   0.436884  -0.035284  -0.087259   0.000645
     9  O   -0.038176  -0.044001  -0.070588   0.006450   0.000305   0.000776
    10  C    0.008764  -0.029506  -0.044372   0.421053   0.507203   0.000089
    11  O    0.000422  -0.000699   0.001165  -0.001857  -0.000700  -0.004512
    12  C    0.001845   0.001777  -0.001099  -0.000854   0.004474   0.463623
    13  O    0.001259   0.000022   0.000024   0.000199   0.000023  -0.001384
    14  H   -0.008911  -0.004810   0.002082   0.000235  -0.015410   0.002187
    15  H   -0.000073   0.000003  -0.000002  -0.000005  -0.000001  -0.002897
    16  H    0.000090  -0.000004   0.000003   0.000004   0.000004  -0.002714
    17  H   -0.001622  -0.000715   0.000168   0.000601  -0.001278   0.001204
    18  H    0.000154  -0.000025   0.000012   0.000019  -0.000016  -0.002723
    19  H   -0.001128   0.000018  -0.000022  -0.000012   0.000030  -0.009073
    20  H    0.000184   0.000010   0.000004  -0.000031   0.000123   0.002151
    21  H   -0.000190   0.000017  -0.000018  -0.000010   0.000010  -0.005666
    22  H    0.000203   0.001676   0.000157  -0.014960   0.001398   0.000590
    23  H   -0.005165  -0.005637  -0.000458  -0.002308   0.002023  -0.000548
    24  H   -0.031239  -0.004900   0.001937   0.003460  -0.002756  -0.008419
    25  H    0.505029   0.012062  -0.002065  -0.003827   0.003546   0.002891
    26  H    0.012062   0.501999  -0.008261   0.000251   0.004016   0.000006
    27  H   -0.002065  -0.008261   0.475869  -0.007864  -0.004650   0.000098
    28  H   -0.003827   0.000251  -0.007864   0.492815  -0.009728  -0.000110
    29  H    0.003546   0.004016  -0.004650  -0.009728   0.474185   0.000061
    30  H    0.002891   0.000006   0.000098  -0.000110   0.000061   0.449262
    31  H    0.002070   0.000423  -0.000301  -0.000279   0.001848  -0.016246
              31
     1  C   -0.000085
     2  C   -0.025588
     3  C   -0.045400
     4  C    0.011798
     5  C    0.028578
     6  C   -0.007344
     7  C    0.012733
     8  C   -0.002068
     9  O    0.002018
    10  C   -0.000030
    11  O   -0.004886
    12  C    0.415827
    13  O    0.008438
    14  H   -0.010136
    15  H    0.000786
    16  H    0.000436
    17  H   -0.015926
    18  H    0.001110
    19  H    0.000681
    20  H    0.001389
    21  H   -0.012476
    22  H    0.002057
    23  H    0.000245
    24  H   -0.003375
    25  H    0.002070
    26  H    0.000423
    27  H   -0.000301
    28  H   -0.000279
    29  H    0.001848
    30  H   -0.016246
    31  H    0.503080
 Mulliken charges:
               1
     1  C   -0.082519
     2  C   -0.446339
     3  C   -0.276609
     4  C   -0.115970
     5  C   -0.313977
     6  C   -0.139993
     7  C   -0.325133
     8  C   -0.194410
     9  O   -0.321867
    10  C   -0.404761
    11  O   -0.302651
    12  C   -0.194570
    13  O   -0.272377
    14  H    0.257962
    15  H    0.160917
    16  H    0.148147
    17  H    0.286226
    18  H    0.205968
    19  H    0.165492
    20  H    0.161612
    21  H    0.178366
    22  H    0.148156
    23  H    0.212010
    24  H    0.194517
    25  H    0.194142
    26  H    0.147117
    27  H    0.205526
    28  H    0.184136
    29  H    0.165331
    30  H    0.224928
    31  H    0.150623
 Sum of Mulliken charges =  -0.00000
 Mulliken charges with hydrogens summed into heavy atoms:
               1
     1  C    0.175443
     2  C   -0.137275
     3  C    0.009617
     4  C    0.255491
     5  C    0.026001
     6  C    0.220173
     7  C    0.063526
     8  C    0.158232
     9  O   -0.321867
    10  C   -0.055294
    11  O   -0.302651
    12  C    0.180981
    13  O   -0.272377
 Electronic spatial extent (au):  <R**2>=           3413.4575
 Charge=             -0.0000 electrons
 Dipole moment (field-independent basis, Debye):
    X=             -0.9150    Y=              0.3014    Z=              1.5728  Tot=              1.8444
 Quadrupole moment (field-independent basis, Debye-Ang):
   XX=            -72.0541   YY=            -84.6122   ZZ=            -78.2950
   XY=            -11.0274   XZ=              1.5814   YZ=             -0.7521
 Traceless Quadrupole moment (field-independent basis, Debye-Ang):
   XX=              6.2664   YY=             -6.2918   ZZ=              0.0254
   XY=            -11.0274   XZ=              1.5814   YZ=             -0.7521
 Octapole moment (field-independent basis, Debye-Ang**2):
  XXX=            -11.3168  YYY=              1.3043  ZZZ=             -3.1323  XYY=             -6.2376
  XXY=            -22.6343  XXZ=             -4.6215  XZZ=             -1.0708  YZZ=             -0.5174
  YYZ=              0.0491  XYZ=             -0.0415
 Hexadecapole moment (field-independent basis, Debye-Ang**3):
 XXXX=          -3537.7755 YYYY=           -474.4663 ZZZZ=           -352.1317 XXXY=            -70.5202
 XXXZ=             50.0510 YYYX=            -16.1115 YYYZ=             -1.5185 ZZZX=              1.7180
 ZZZY=              0.7615 XXYY=           -733.2055 XXZZ=           -665.6941 YYZZ=           -133.0034
 XXYZ=             14.4857 YYXZ=              4.7514 ZZXY=              8.5281
 N-N= 8.772922833898D+02 E-N=-3.196349256055D+03  KE= 6.153426446804D+02
 D1PCM: PCM CHGder 1st derivatives, ID1Alg=3 FixD1E=F DoIter=F DoCFld=F I1PDM=0.
 Calling FoFJK, ICntrl=      2127 FMM=F ISym2X=0 I1Cent= 0 IOpClX= 0 NMat=1 NMatS=1 NMatT=0.
 ***** Axes restored to original set *****
 -------------------------------------------------------------------
 Center     Atomic                   Forces (Hartrees/Bohr)
 Number     Number              X              Y              Z
 -------------------------------------------------------------------
      1        6          -0.001134535   -0.003903110   -0.003564952
      2        6           0.001779290    0.000399329    0.000387547
      3        6          -0.005637387    0.004368213   -0.004771356
      4        6           0.001297669    0.003258102    0.005150607
      5        6           0.001263556   -0.000417182   -0.002799126
      6        6           0.002700946    0.004058987    0.001018334
      7        6           0.003062524   -0.003506713    0.005847045
      8        6          -0.006456065   -0.001154374    0.002444276
      9        8           0.002841582    0.008249844    0.002130368
     10        6          -0.000663852   -0.000595505   -0.002452397
     11        8           0.001230392    0.001165969   -0.009491836
     12        6          -0.001644522   -0.002603179    0.001417034
     13        8           0.001149699   -0.008214164    0.003045472
     14        1           0.000490659    0.003788945    0.006035405
     15        1          -0.001678533   -0.001788518    0.001015647
     16        1          -0.001306012    0.002430938   -0.001284188
     17        1           0.002091912   -0.003712297    0.007540501
     18        1          -0.002092627   -0.003106947   -0.002166283
     19        1           0.001736286    0.004225218   -0.003831767
     20        1           0.000329009   -0.002286308    0.002074767
     21        1          -0.001169115    0.002136488    0.000698249
     22        1          -0.001911616   -0.001752606    0.002235500
     23        1          -0.000266543   -0.000947091   -0.003622734
     24        1          -0.002944492    0.003896317   -0.000332141
     25        1          -0.001057570   -0.004063111   -0.005164567
     26        1           0.000555832   -0.003733809   -0.004925173
     27        1           0.003811627    0.001320921    0.001664999
     28        1           0.001407011   -0.002619219    0.000498534
     29        1          -0.000215718    0.001911961    0.002569250
     30        1           0.000642743    0.001423934   -0.003864657
     31        1           0.001787851    0.001768967    0.002497641
 -------------------------------------------------------------------
 Cartesian Forces:  Max     0.009491836 RMS     0.003226374

 GradGradGradGradGradGradGradGradGradGradGradGradGradGradGradGradGradGrad
 Berny optimization.
 FormGI is forming the generalized inverse of G from B-inverse, IUseBI=4.
 Internal  Forces:  Max     0.009331371 RMS     0.001916147
 Search for a local minimum.
 Step number   1 out of a maximum of  186
 All quantities printed in internal units (Hartrees-Bohrs-Radians)
 Mixed Optimization -- RFO/linear search
 Second derivative matrix not updated -- first step.
 ITU=  0
     Eigenvalues ---    0.00393   0.00640   0.00684   0.00746   0.01407
     Eigenvalues ---    0.01452   0.01476   0.02690   0.02775   0.03160
     Eigenvalues ---    0.03188   0.04079   0.04356   0.04517   0.04795
     Eigenvalues ---    0.04860   0.04924   0.04963   0.05119   0.05146
     Eigenvalues ---    0.05178   0.05524   0.05751   0.05879   0.06162
     Eigenvalues ---    0.06406   0.06407   0.06832   0.07650   0.07851
     Eigenvalues ---    0.07860   0.07898   0.07921   0.07977   0.08117
     Eigenvalues ---    0.08819   0.09379   0.09440   0.10866   0.11602
     Eigenvalues ---    0.11605   0.11705   0.11708   0.12495   0.12626
     Eigenvalues ---    0.14596   0.15673   0.16555   0.17607   0.18549
     Eigenvalues ---    0.20537   0.21783   0.22389   0.25000   0.27187
     Eigenvalues ---    0.27462   0.28572   0.28618   0.28739   0.29196
     Eigenvalues ---    0.29515   0.30250   0.35076   0.35084   0.35087
     Eigenvalues ---    0.35139   0.35217   0.35261   0.35295   0.35301
     Eigenvalues ---    0.35351   0.35376   0.35400   0.35457   0.35497
     Eigenvalues ---    0.35540   0.35831   0.35847   0.35857   0.35949
     Eigenvalues ---    0.39873   0.41418   0.42383   0.43024   0.43745
     Eigenvalues ---    0.443551000.000001000.000001000.000001000.00000
     Eigenvalues --- 1000.000001000.000001000.000001000.000001000.00000
     Eigenvalues --- 1000.000001000.000001000.000001000.000001000.00000
     Eigenvalues --- 1000.000001000.000001000.000001000.000001000.00000
     Eigenvalues --- 1000.000001000.000001000.000001000.000001000.00000
     Eigenvalues --- 1000.000001000.000001000.000001000.000001000.00000
     Eigenvalues --- 1000.000001000.000001000.000001000.000001000.00000
     Eigenvalues --- 1000.000001000.000001000.000001000.000001000.00000
     Eigenvalues --- 1000.000001000.000001000.000001000.000001000.00000
     Eigenvalues --- 1000.000001000.000001000.000001000.000001000.00000
     Eigenvalues --- 1000.000001000.000001000.000001000.000001000.00000
     Eigenvalues --- 1000.000001000.000001000.000001000.000001000.00000
     Eigenvalues --- 1000.000001000.000001000.000001000.000001000.00000
     Eigenvalues --- 1000.000001000.000001000.000001000.000001000.00000
     Eigenvalues --- 1000.000001000.000001000.000001000.000001000.00000
     Eigenvalues --- 1000.000001000.000001000.000001000.000001000.00000
     Eigenvalues --- 1000.000001000.000001000.000001000.000001000.00000
     Eigenvalues --- 1000.000001000.000001000.000001000.000001000.00000
     Eigenvalues --- 1000.000001000.000001000.000001000.000001000.00000
     Eigenvalues --- 1000.000001000.000001000.000001000.000001000.00000
 RFO step:  Lambda=-2.63703269D-03 EMin= 3.92749867D-03
 Linear search not attempted -- first point.
 Iteration  1 RMS(Cart)=  0.03344235 RMS(Int)=  0.00032677
 Iteration  2 RMS(Cart)=  0.00081857 RMS(Int)=  0.00004284
 Iteration  3 RMS(Cart)=  0.00000011 RMS(Int)=  0.00004284
 Iteration  1 RMS(Cart)=  0.00001529 RMS(Int)=  0.00000348
 Iteration  2 RMS(Cart)=  0.00000813 RMS(Int)=  0.00000389
 Iteration  3 RMS(Cart)=  0.00000432 RMS(Int)=  0.00000439
 Iteration  4 RMS(Cart)=  0.00000230 RMS(Int)=  0.00000470
 Iteration  5 RMS(Cart)=  0.00000122 RMS(Int)=  0.00000488
 Iteration  6 RMS(Cart)=  0.00000065 RMS(Int)=  0.00000498
 Variable       Old X    -DE/DX   Delta X   Delta X   Delta X     New X
                                 (Linear)    (Quad)   (Total)
    R1        2.88098  -0.00122   0.00000  -0.00389  -0.00391   2.87707
    R2        2.87647  -0.00061   0.00000  -0.00157  -0.00156   2.87491
    R3        2.67640   0.00231   0.00000   0.00535   0.00535   2.68174
    R4        2.05031   0.00697   0.00000   0.01954   0.01954   2.06985
    R5        2.88914   0.00101   0.00000   0.00333   0.00336   2.89249
    R6        2.90996  -0.00081   0.00000  -0.00330  -0.00327   2.90668
    R7        2.05069   0.00264   0.00000   0.00742   0.00742   2.05811
    R8        2.05254   0.00301   0.00000   0.00848   0.00848   2.06101
    R9        2.66032   0.00447   0.00000   0.01002   0.01002   2.67034
   R10        2.88583  -0.00028   0.00000  -0.00029  -0.00031   2.88552
   R11        2.64331   0.00084   0.00000   0.00236   0.00235   2.64565
   R12        2.04306   0.00864   0.00000   0.02391   0.02391   2.06697
   R13        2.68425   0.00344   0.00000   0.00789   0.00789   2.69214
   R14        2.04161   0.00433   0.00000   0.01194   0.01194   2.05356
   R15        2.04808   0.00590   0.00000   0.01648   0.01648   2.06456
   R16        2.88753  -0.00053   0.00000  -0.00242  -0.00244   2.88508
   R17        2.05325   0.00303   0.00000   0.00855   0.00855   2.06179
   R18        2.04939   0.00253   0.00000   0.00708   0.00708   2.05647
   R19        2.89314  -0.00067   0.00000  -0.00249  -0.00251   2.89063
   R20        2.05110   0.00341   0.00000   0.00957   0.00957   2.06067
   R21        2.05552   0.00357   0.00000   0.01009   0.01009   2.06561
   R22        2.66564   0.00313   0.00000   0.00724   0.00725   2.67289
   R23        2.04321   0.00482   0.00000   0.01335   0.01335   2.05656
   R24        2.05535   0.00630   0.00000   0.01782   0.01782   2.07316
   R25        2.67742   0.00345   0.00000   0.00791   0.00793   2.68535
   R26        2.87304   0.00024   0.00000   0.00038   0.00037   2.87341
   R27        2.05538   0.00608   0.00000   0.01721   0.01721   2.07259
   R28        2.04347   0.00436   0.00000   0.01209   0.01209   2.05556
   R29        2.05199   0.00299   0.00000   0.00841   0.00841   2.06040
   R30        2.05450   0.00314   0.00000   0.00886   0.00886   2.06336
   R31        2.05188   0.00397   0.00000   0.01115   0.01115   2.06304
   R32        2.04875   0.00354   0.00000   0.00989   0.00989   2.05864
    A1        1.92571  -0.00021   0.00000  -0.00355  -0.00360   1.92211
    A2        1.94774  -0.00062   0.00000  -0.00097  -0.00096   1.94678
    A3        1.91669   0.00027   0.00000  -0.00303  -0.00304   1.91364
    A4        1.86683   0.00048   0.00000   0.00235   0.00236   1.86920
    A5        1.89080  -0.00046   0.00000  -0.00557  -0.00559   1.88521
    A6        1.91468   0.00055   0.00000   0.01083   0.01084   1.92552
    A7        1.92524  -0.00026   0.00000  -0.00857  -0.00871   1.91653
    A8        1.92117  -0.00038   0.00000   0.00072   0.00075   1.92191
    A9        1.89177   0.00071   0.00000   0.00486   0.00489   1.89666
   A10        1.92213   0.00077   0.00000   0.00256   0.00261   1.92473
   A11        1.93258  -0.00091   0.00000  -0.00251  -0.00248   1.93010
   A12        1.87000   0.00007   0.00000   0.00334   0.00331   1.87332
   A13        1.95095  -0.00264   0.00000  -0.01107  -0.01112   1.93983
   A14        1.87718   0.00085   0.00000   0.00871   0.00882   1.88600
   A15        1.90161   0.00118   0.00000   0.00334   0.00324   1.90485
   A16        1.95230   0.00240   0.00000   0.00799   0.00794   1.96024
   A17        1.93216  -0.00076   0.00000  -0.00683  -0.00678   1.92538
   A18        1.84553  -0.00090   0.00000  -0.00121  -0.00123   1.84430
   A19        1.92993   0.00169   0.00000   0.00354   0.00335   1.93328
   A20        1.95035  -0.00053   0.00000  -0.00405  -0.00400   1.94635
   A21        1.94144  -0.00103   0.00000  -0.00430  -0.00428   1.93715
   A22        1.84912  -0.00116   0.00000  -0.00203  -0.00198   1.84714
   A23        1.90744   0.00064   0.00000   0.00701   0.00708   1.91452
   A24        1.88252   0.00038   0.00000   0.00013   0.00010   1.88262
   A25        1.92042  -0.00118   0.00000  -0.00954  -0.00973   1.91069
   A26        1.91828   0.00075   0.00000   0.00198   0.00200   1.92028
   A27        1.93262  -0.00013   0.00000   0.00084   0.00090   1.93352
   A28        1.90248   0.00035   0.00000  -0.00099  -0.00094   1.90154
   A29        1.92604   0.00027   0.00000   0.00344   0.00348   1.92952
   A30        1.86300  -0.00001   0.00000   0.00474   0.00470   1.86770
   A31        1.91711   0.00140   0.00000  -0.00083  -0.00086   1.91625
   A32        1.92828  -0.00040   0.00000  -0.00112  -0.00109   1.92718
   A33        1.89212  -0.00124   0.00000  -0.00893  -0.00894   1.88318
   A34        1.93378  -0.00020   0.00000   0.00332   0.00333   1.93711
   A35        1.91520  -0.00006   0.00000   0.00355   0.00354   1.91874
   A36        1.87647   0.00044   0.00000   0.00386   0.00383   1.88030
   A37        1.93155   0.00179   0.00000   0.00947   0.00951   1.94106
   A38        1.93161  -0.00079   0.00000  -0.00764  -0.00771   1.92390
   A39        1.91808  -0.00252   0.00000  -0.01773  -0.01781   1.90027
   A40        1.86771  -0.00053   0.00000   0.00328   0.00329   1.87100
   A41        1.91670   0.00129   0.00000   0.01195   0.01200   1.92870
   A42        1.89731   0.00083   0.00000   0.00134   0.00117   1.89848
   A43        1.93616   0.00195   0.00000   0.00828   0.00827   1.94443
   A44        1.90205   0.00065   0.00000   0.00722   0.00726   1.90931
   A45        1.85474  -0.00117   0.00000  -0.00352  -0.00350   1.85123
   A46        1.93053  -0.00158   0.00000  -0.00950  -0.00952   1.92101
   A47        1.94594  -0.00041   0.00000  -0.00347  -0.00347   1.94246
   A48        1.89212   0.00060   0.00000   0.00140   0.00136   1.89348
   A49        1.98028  -0.00429   0.00000  -0.02517  -0.02511   1.95517
   A50        1.92633  -0.00106   0.00000  -0.00797  -0.00802   1.91831
   A51        1.92832  -0.00029   0.00000   0.00045   0.00046   1.92878
   A52        1.92103   0.00083   0.00000   0.00195   0.00194   1.92297
   A53        1.90836   0.00077   0.00000   0.00518   0.00521   1.91356
   A54        1.90442  -0.00016   0.00000  -0.00242  -0.00243   1.90199
   A55        1.87450  -0.00006   0.00000   0.00313   0.00313   1.87763
   A56        2.03159  -0.00933   0.00000  -0.03694  -0.03694   1.99466
   A57        1.91296   0.00062   0.00000  -0.00456  -0.00463   1.90832
   A58        1.90851  -0.00067   0.00000  -0.00900  -0.00899   1.89952
   A59        1.90184  -0.00030   0.00000   0.00312   0.00316   1.90500
   A60        1.92304   0.00017   0.00000   0.00429   0.00422   1.92726
   A61        1.94418  -0.00008   0.00000   0.00281   0.00287   1.94704
   A62        1.87261   0.00023   0.00000   0.00326   0.00324   1.87585
   A63        2.01956  -0.00520   0.00000  -0.03328  -0.03337   1.98619
    D1        0.91697  -0.00036   0.00000   0.00374   0.00374   0.92071
    D2        3.05552   0.00007   0.00000   0.00662   0.00662   3.06214
    D3       -1.17560  -0.00037   0.00000   0.00534   0.00534  -1.17026
    D4        2.98993  -0.00030   0.00000   0.00373   0.00373   2.99366
    D5       -1.15470   0.00013   0.00000   0.00661   0.00660  -1.14810
    D6        0.89736  -0.00031   0.00000   0.00533   0.00533   0.90269
    D7       -1.16610   0.00017   0.00000   0.01472   0.01472  -1.15138
    D8        0.97245   0.00060   0.00000   0.01760   0.01759   0.99005
[...]
 ,-0.00002199,-0.00050945,0.00025979,0.00148700,-0.00002098,-0.00004284
 ,-0.00003105,0.00028909,0.00003086,0.00001275,0.00208364,0.00268520,-0
 .00206281,0.00000857,0.00000454,0.00000658,0.00000567,-0.00000543,0.00
 000013,-0.00015119,-0.00008357,0.00009976,0.00001602,-0.00000280,0.000
 01087,-0.00000419,-0.00000655,-0.00000147,0.00000491,0.00000514,-0.000
 00524,0.00000864,-0.00000336,-0.00000473,0.00013489,0.00017477,0.00044
 927,-0.00037951,0.00082510,0.00016458,0.00032269,0.00276197,0.00606889
 ,-0.02271129,0.11645448,0.25524003,-0.00037366,-0.00006904,-0.00020237
 ,-0.00000058,0.00000081,-0.00000015,0.00000524,-0.00001676,-0.00005200
 ,-0.00000010,-0.00000154,0.00000327,0.00000045,-0.00000016,-0.00000004
 ,0.00080266,0.00120211,0.00054059,0.00248365,0.00214807,0.00400588,-0.
 05744335,0.00751632,0.02003736,-0.00782653,0.01976676,0.01257045,-0.00
 130398,0.00573618,0.01474926,-0.00016731,-0.00013324,0.00002357,0.0000
 0171,-0.00000028,0.00000308,-0.00001656,-0.00000990,0.00000645,0.00007
 926,-0.00001145,-0.00014603,0.00000008,0.00000016,0.00000004,0.0000000
 2,-0.00000018,-0.00000011,0.00000261,-0.00000460,0.00001040,0.00000011
 ,-0.00000018,0.00000011,-0.00000026,0.00000070,0.00000029,-0.00000058,
 0.00000004,-0.00000025,0.00000061,-0.00000008,0.00000006,0.00018222,-0
 .00010747,-0.00023389,-0.00013448,-0.00027949,-0.00013958,0.00009077,-
 0.00016357,-0.00024307,0.00030996,-0.00056698,-0.00063133,0.05801792,0
 .00000717,-0.00026003,0.00063762,0.00000125,-0.00000169,0.00000223,-0.
 00022107,-0.00003347,0.00015548,-0.00002895,0.00002422,-0.00002461,-0.
 00000342,-0.00001436,0.00000138,0.00093663,0.00080855,0.00028827,-0.00
 468920,0.00011140,-0.00236341,0.01030378,-0.09997260,-0.09991342,0.017
 50405,-0.03182465,-0.02134420,-0.00357939,0.01017515,0.01785601,0.0005
 4217,0.00026114,-0.00025581,0.00002893,0.00001428,-0.00001330,0.000142
 40,0.00005349,0.00002400,-0.00002393,-0.00009575,-0.00004039,0.0000035
 5,0.00000167,0.00000055,0.00000332,-0.00000299,-0.00000053,0.00001085,
 0.00000110,-0.00001522,0.00000730,-0.00000066,0.00000432,-0.00000144,-
 0.00000428,0.00000032,0.00000028,0.00000228,-0.00000119,0.00000932,-0.
 00000079,-0.00000294,0.00023337,-0.00005480,-0.00013445,0.00014039,-0.
 00019253,-0.00037099,0.00000835,0.00014217,0.00046041,0.00057225,0.000
 83022,0.00094155,-0.02011554,0.12433713,-0.00027376,-0.00002207,-0.000
 09613,0.00000009,-0.00000066,0.00000099,-0.00018375,-0.00006349,0.0001
 0318,-0.00002223,0.00001586,-0.00001580,-0.00000284,-0.00001229,0.0000
 0024,-0.00097352,-0.00081384,0.00098644,0.00021933,0.00173045,0.002235
 39,0.02227730,-0.10224640,-0.23993834,-0.00077688,0.00117421,0.0099700
 3,0.00186479,-0.01053707,-0.02177218,0.00039804,-0.00005203,0.00001682
 ,0.00002488,0.00001105,-0.00001391,0.00008628,0.00003256,0.00002220,-0
 .00008543,0.00001396,-0.00015460,0.00000271,0.00000148,0.00000073,0.00
 000243,-0.00000224,-0.00000011,-0.00000319,0.00000059,-0.00000941,0.00
 000561,0.,0.00000304,-0.00000071,-0.00000323,0.00000012,0.00000024,0.0
 0000161,-0.00000076,0.00000773,-0.00000037,-0.00000226,-0.00014291,0.0
 0032370,0.00027560,0.00075445,0.00026118,0.00050871,0.00020327,0.00009
 153,0.00024947,0.00132871,-0.00031439,-0.00020273,-0.02796991,0.111148
 75,0.25762795,0.00079633,0.00005856,-0.00028546,-0.00000130,0.00000317
 ,-0.00000228,0.00039655,0.00005633,-0.00015595,0.00005117,-0.00003946,
 0.00003693,0.00000856,0.00002537,-0.00000180,0.00016460,-0.00149305,0.
 00256762,0.00151378,0.00386334,0.00130912,-0.25898663,-0.07537501,-0.0
 7873001,-0.02225799,0.00143029,-0.00965885,-0.01136764,-0.00553130,-0.
 00461643,-0.00063917,-0.00020482,0.00015175,-0.00004382,-0.00001782,0.
 00000350,-0.00021089,-0.00007335,-0.00005223,-0.00005465,0.00003617,0.
 00001939,-0.00000629,-0.00000282,-0.00000114,-0.00000555,0.00000490,0.
 00000040,-0.00001200,0.00001725,-0.00000248,-0.00001187,0.00000083,-0.
 00000756,0.00000089,0.00000648,-0.00000102,-0.00000073,-0.00000445,0.0
 0000155,-0.00001684,0.00000162,0.00000471,-0.00079014,-0.00010773,-0.0
 0036915,0.00006041,-0.00001546,-0.00012523,-0.00099847,-0.00021879,-0.
 00032073,0.00002075,-0.00018381,-0.00017334,0.00527851,0.00026934,0.00
 096544,0.28657438,0.00045668,-0.00100120,0.00075780,0.00000130,-0.0000
 0021,0.00000144,0.00003587,0.00005380,0.00007397,0.00000751,-0.0000055
 8,-0.00000267,0.00000118,0.00000283,-0.00000148,-0.00107437,-0.0017128
 3,0.00416082,0.00175676,-0.00473478,-0.00014930,-0.08645962,-0.0785909
 8,-0.03514619,0.03629274,0.00454627,0.01461776,-0.01667899,-0.00480014
 ,-0.00829299,0.00002500,0.00042311,-0.00036063,-0.00000704,0.00000416,
 -0.00001271,0.00001680,0.00002119,-0.00002297,-0.00002031,0.00007358,-
 0.00002106,-0.00000084,-0.00000052,-0.00000036,-0.00000084,0.00000061,
 -0.00000014,0.00005234,0.00000838,-0.00005482,-0.00000272,0.00000033,-
 0.00000139,-0.00000060,0.00000065,0.00000033,0.00000095,-0.00000086,-0
 .00000016,-0.00000236,0.00000035,0.00000099,-0.00155655,-0.00002007,-0
 .00026184,0.00046105,0.00013616,0.00013212,0.00143922,0.00025560,0.000
 48147,0.00003437,0.00016793,0.00031666,-0.01326025,-0.00336037,-0.0040
 8279,0.07723202,0.08743181,-0.00037378,0.00048487,-0.00039814,-0.00000
 052,-0.00000127,0.00000046,-0.00005502,-0.00001194,-0.00003911,-0.0000
 1072,0.00001090,-0.00000488,-0.00000300,-0.00000379,0.00000022,0.00150
 968,0.00245523,-0.00314506,0.00034902,0.00181180,0.00057204,-0.0810531
 7,-0.03061560,-0.08308576,-0.00760514,0.00033930,-0.00241300,0.0220798
 3,0.00735150,0.00849115,0.00008783,-0.00015651,0.00018105,0.00000786,-
 0.00000251,0.00001313,0.00002387,0.00000390,0.00002109,0.00002565,-0.0
 0006928,0.00003053,0.00000119,0.00000041,0.00000021,0.00000116,-0.0000
 0087,-0.00000018,-0.00001785,-0.00001117,0.00003524,0.00000283,-0.0000
 0045,0.00000165,0.00000080,-0.00000224,0.00000053,-0.00000033,0.000000
 93,0.00000012,0.00000300,-0.00000044,-0.00000098,0.00127263,0.00034330
 ,0.00042857,0.00010083,0.00018269,0.00021340,-0.00063650,0.00002085,0.
 00017240,0.00032817,0.00015246,0.00032761,-0.02409609,-0.00902220,-0.0
 0816706,0.08934840,0.02800173,0.08501851,-0.00263802,-0.00517742,-0.00
 074974,0.00000074,0.00000528,-0.00000345,0.00112883,0.00046040,-0.0008
 0119,0.00011932,-0.00007797,0.00007981,0.00001323,0.00007243,0.0000095
 0,-0.01728515,0.02714177,-0.00458591,-0.00109483,-0.00065407,0.0002234
 3,0.00904583,-0.01189104,-0.00025427,0.00044854,-0.00398115,0.00344664
 ,-0.12099740,0.11935646,-0.01767671,-0.00322456,0.00153824,-0.00124444
 ,-0.00013381,-0.00006704,0.00010001,-0.00042207,-0.00015970,-0.0000959
 9,0.00012921,-0.00002117,0.00025709,-0.00001453,-0.00000560,-0.0000017
 1,-0.00001159,0.00001070,0.00000104,0.00004417,-0.00002060,0.00007955,
 -0.00002636,-0.00000174,-0.00001410,0.00000719,0.00001178,0.00000469,-
 0.00000282,-0.00001006,0.00000422,-0.00004328,0.00000218,0.00001218,0.
 00114196,0.00000152,0.00080256,0.00140455,-0.00024426,0.00001940,0.000
 20520,0.00016525,-0.00000370,0.00020377,0.00003682,-0.00003535,0.00048
 112,0.00065859,-0.00027463,0.00013185,0.00055318,-0.00088581,0.1326588
 3,-0.00175600,0.00004443,-0.00043543,0.00000077,-0.00000072,0.00000099
 ,-0.00003856,0.00006017,-0.00009202,-0.00000578,0.00000549,-0.00000403
 ,-0.00000210,-0.00000207,0.00000347,-0.00564898,0.00925707,-0.00185403
 ,-0.00160123,-0.00015491,-0.00085405,0.01171579,-0.01401826,-0.0013905
 6,-0.00098268,-0.00377571,0.00501068,0.11920204,-0.23655508,0.03153256
 ,-0.00065506,0.00033055,-0.00034880,0.00000279,0.00000265,0.00001927,0
 .00002876,0.00000166,0.00001593,-0.00004553,0.00015551,0.00002189,0.00
 000090,0.00000077,0.00000044,0.00000101,-0.00000091,-0.00000017,0.0000
 0239,-0.00000876,0.00001962,0.00000240,-0.00000086,0.00000181,0.000001
 53,-0.00000088,0.00000129,-0.00000022,0.00000083,-0.00000026,0.0000014
 0,-0.00000040,-0.00000058,0.00075315,0.00036024,0.00020676,0.00059302,
 0.00043178,0.00025405,0.00018095,0.00000308,0.00002614,0.00022783,0.00
 006415,0.00010095,-0.00007289,0.00072885,0.00018821,-0.00035627,0.0002
 7083,-0.00042389,-0.12854580,0.25515945,-0.00079318,-0.00172397,0.0004
 8871,0.00000009,0.00000195,-0.00000108,0.00029254,0.00013429,-0.000241
 30,0.00003226,-0.00002371,0.00002384,0.00000350,0.00002084,0.00000456,
 -0.00643401,0.00904831,-0.00294556,0.00129601,-0.00011128,0.00059693,-
 0.01419044,0.01619022,-0.00184516,0.00111359,0.00540133,-0.00340007,-0
 .01672080,0.02951184,-0.05320030,-0.00103448,0.00033638,-0.00000849,-0
 .00004220,-0.00001220,0.00003351,-0.00012994,-0.00004836,-0.00003105,-
 0.00012762,0.00048210,0.00001104,-0.00000409,-0.00000198,-0.00000075,-
 0.00000344,0.00000329,0.00000037,0.00001188,-0.00000912,0.00002121,-0.
 00000779,-0.00000024,-0.00000446,0.00000177,0.00000437,0.00000102,-0.0
 0000082,-0.00000275,0.00000124,-0.00001273,0.00000064,0.00000386,0.000
 38926,-0.00039586,0.00022679,0.00044590,0.00036532,0.00025321,-0.00015
 925,-0.00002872,-0.00004435,-0.00006497,-0.00007344,-0.00007383,-0.000
 35236,-0.00099596,0.00040941,0.00021877,-0.00032019,0.00061260,0.02127
 874,-0.03412059,0.05414626,0.00141592,-0.00107180,-0.00054783,0.000001
 37,0.00000085,-0.00000095,0.00005452,0.00006499,-0.00001371,0.00000673
 ,-0.00000336,0.00000900,0.00000001,0.00001451,0.00000539,0.00077394,-0
 .01608633,-0.02844120,-0.00053741,-0.00013270,-0.00024626,-0.00299053,
 0.00941745,0.01623011,0.00096739,-0.00002976,-0.00173553,-0.04873362,0
 .00704595,0.01114970,-0.00027259,0.00027458,0.00050298,-0.00003831,-0.
 00001499,0.00001702,-0.00001992,-0.00000082,-0.00001681,-0.00021177,0.
 00046393,0.00022162,-0.00000095,-0.00000046,0.00000026,-0.00000116,0.0
 0000088,-0.00000002,-0.00000395,-0.00000982,-0.00000165,-0.00000134,0.
 00000047,-0.00000161,-0.00000158,0.00000102,-0.00000084,0.00000028,-0.
 00000141,0.00000026,-0.00000632,-0.00000049,0.00000161,0.00139813,0.00
 013609,0.00075754,-0.00557483,-0.00073875,-0.00216019,0.00009695,0.000
 05590,-0.00004889,-0.00012355,0.00008700,0.00012262,-0.00047126,-0.002
 71735,0.00256944,0.00040522,0.00070575,-0.00040994,-0.00126912,0.00699
 965,0.01499577,0.05513719,0.00064462,0.00001209,0.00070257,-0.00000104
 ,0.00000132,-0.00000088,0.00018617,0.00004818,-0.00009192,0.00002059,-
 0.00001574,0.00001769,0.00000248,0.00001298,-0.00000214,-0.00053698,-0
 .00477326,-0.00673992,0.00012894,-0.00000981,0.00018815,-0.00167688,0.
 00837524,0.01982832,-0.00060273,0.00227410,-0.00150236,0.00848007,-0.1
 1055838,-0.11161447,-0.00028111,0.00008440,0.00010174,-0.00003051,-0.0
 0001103,0.00001477,-0.00008492,-0.00002592,-0.00002544,0.00000177,0.00
 042182,0.00000772,-0.00000296,-0.00000145,-0.00000066,-0.00000257,0.00
 000219,0.00000041,0.00000759,-0.00000289,0.00000039,-0.00000450,0.0000
 0033,-0.00000363,0.00000034,0.00000229,-0.00000054,-0.00000052,-0.0000
 0266,0.00000078,-0.00000794,0.00000053,0.00000271,0.00013381,0.0000837
 5,0.00008226,-0.00182909,0.00071961,-0.00025594,0.00001933,0.00002654,
 -0.00006389,-0.00002295,-0.00010760,-0.00009951,-0.00155657,-0.0016750
 1,0.00315367,0.00062002,0.00082499,-0.00083121,0.00086056,-0.01235869,
 -0.02362812,-0.00446436,0.11665347,0.00074040,-0.00061069,-0.00019638,
 0.00000096,0.00000155,-0.00000119,0.00009935,0.00002889,-0.00004318,0.
 00001673,-0.00001120,0.00001005,0.00000147,0.00001107,0.00000507,-0.00
 024781,-0.00460413,-0.00855660,0.00003222,0.00014380,-0.00002467,0.003
 14109,-0.01141767,-0.02198861,-0.00118153,-0.00036252,0.00243339,0.010
 67792,-0.10966313,-0.24686845,-0.00033487,0.00021360,0.00026159,-0.000
 02690,-0.00000722,-0.00000217,-0.00005194,-0.00001567,-0.00001830,-0.0
 0031246,0.00047675,-0.00012470,-0.00000152,-0.00000075,0.00000006,-0.0
 0000170,0.00000151,0.00000034,0.00000401,-0.00000814,-0.00001693,-0.00
 000371,0.00000044,-0.00000197,0.00000041,0.00000210,-0.00000057,0.0000
 0007,-0.00000118,0.00000082,-0.00000644,0.00000042,0.00000148,-0.00022
 333,0.00011875,0.00064538,-0.00174531,-0.00023994,0.00050611,-0.000016
 52,0.00004632,-0.00003527,0.00010916,-0.00014377,0.00003035,0.00211568
 ,0.00297305,-0.00203955,-0.00012139,0.00018562,0.00113825,0.00030148,0
 .00211372,0.00495833,-0.01296094,0.12076372,0.26992136,-0.00015448,-0.
 00002120,-0.00019744,0.00185319,0.00010707,0.00067403,-0.00362467,0.01
 065877,-0.01205713,0.00012864,-0.00051386,-0.00061113,-0.00273606,-0.0
 2216503,0.02616318,-0.00005104,0.00001513,-0.00008954,-0.00007125,0.00
 003608,0.00001471,-0.00003221,0.00001362,-0.00001571,0.00003695,-0.000
 00240,0.00000854,0.00000439,-0.00001873,0.00005289,0.00133818,-0.00009
 922,-0.00097311,-0.04630220,-0.00827579,0.00693891,0.00060320,-0.00014
 790,0.00047447,0.00009247,-0.00002127,-0.00005047,0.00024098,0.0003170
 0,0.00001166,-0.00002021,0.00033764,-0.00028082,-0.00092626,0.00265421
 ,0.00148805,0.00002985,0.00008577,0.00004753,-0.00000632,-0.00077907,-
 0.00043247,-0.00631804,-0.00117684,0.00157282,0.00136783,0.00069091,-0
 .00043965,0.00000742,-0.00006690,0.00005829,0.00000841,-0.00000720,0.0
 0002638,0.00005138,-0.00004337,0.00000087,0.00000172,-0.00000339,0.000
 01707,0.00000134,-0.00000102,0.00000035,-0.00000289,-0.00000740,0.0000
 0575,-0.00000097,0.00000120,0.00000034,-0.00000030,-0.00000050,-0.0000
 0233,0.05385201,0.00033419,0.00016205,0.00023937,-0.00030529,0.0003639
 3,0.00017296,0.00121522,-0.02013256,0.02630196,0.00003230,-0.00085277,
 0.00103843,-0.00133389,-0.00256854,0.00277897,-0.00017095,-0.00013983,
 0.00002528,0.00004593,-0.00001355,-0.00002128,0.00003111,-0.00001180,0
 .00002361,-0.00002375,0.00001257,0.00000173,-0.00002498,0.00007296,-0.
 00008818,-0.00285442,0.00345385,0.00013891,-0.00610622,-0.15321826,0.1
 2532891,-0.00039786,-0.00008189,-0.00222410,0.00002561,-0.00016649,-0.
 00003770,0.00009410,0.00006264,-0.00012607,-0.00031245,-0.00024183,-0.
 00008712,0.00192484,-0.00361866,-0.00205928,0.00005233,0.00028928,-0.0
 0022607,-0.00019399,-0.00016348,-0.00102078,-0.00058928,0.00090614,0.0
 0026326,-0.00037387,0.00029616,-0.00023834,0.00001178,0.00008944,-0.00
 009106,0.00002621,-0.00001326,-0.00002288,0.00006245,-0.00001056,-0.00
 001307,0.00000948,0.00000928,0.00000405,-0.00000119,0.00000054,0.00000
 013,0.00000307,0.00000778,-0.00000730,-0.00001515,-0.00000412,-0.00000
 493,-0.00000136,0.00000036,0.00000145,0.00738299,0.16645849,-0.0000320
 5,0.00000738,-0.00001511,0.00006068,-0.00085999,0.00036354,0.00062401,
 -0.00580134,0.00562216,-0.00061311,-0.00066383,-0.00095659,0.00118280,
 0.00490587,-0.00631609,0.00009862,0.00002726,0.00003971,0.00000956,0.0
 0005934,-0.00000184,0.00002308,0.00000041,0.00000339,-0.00002823,-0.00
 003192,-0.00000314,-0.00000548,-0.00000230,-0.00002135,-0.00077974,-0.
 00085690,0.00170602,0.00641085,0.12916929,-0.20598877,-0.00000754,0.00
 059908,-0.00019764,0.00000590,0.00008547,-0.00003446,0.00000808,0.0000
 3649,0.00003276,0.00032478,0.00049058,0.00014319,0.00090300,-0.0009451
 2,0.00033458,-0.00004849,-0.00019198,0.00030131,-0.00090767,-0.0011879
 0,-0.00036109,0.00161735,-0.00034276,0.00081831,0.00004424,-0.00020851
 ,0.00003884,-0.00001405,0.00001043,-0.00001555,-0.00001676,-0.00000045
 ,0.00001109,-0.00008086,0.00002315,0.00001298,-0.00000521,0.00000129,-
 0.00000334,-0.00000024,0.00000126,0.00000064,0.00000166,-0.00000010,-0
 .00000321,0.00000246,0.00000137,0.00000073,-0.00000080,-0.00000007,0.0
 0000160,-0.01007448,-0.13976749,0.22286011,-0.00098255,0.00042261,-0.0
 0005583,-0.00535768,-0.00169631,0.00354958,0.00747241,0.00410387,0.011
 94556,-0.00104499,0.00071882,0.00068362,-0.01521290,-0.01150178,-0.025
 81258,-0.00012674,0.00002535,0.00008191,-0.00006962,-0.00002672,-0.000
 09386,-0.00000384,0.00001520,-0.00000100,0.00002367,-0.00000955,0.0000
 1189,-0.00002117,0.00001377,-0.00000064,-0.00002429,-0.00097889,-0.001
 41733,-0.11582880,-0.05477330,-0.10495949,0.00086533,0.00359029,0.0013
 9163,-0.00114435,0.00060991,0.00052939,-0.00108461,-0.00064624,-0.0015
 6524,-0.00017071,0.00007869,-0.00024842,0.00068547,-0.00044192,-0.0000
 9440,0.00012237,-0.00009136,-0.00005698,0.00024091,0.00016750,0.000023
 16,0.00136538,-0.00009381,0.00026286,0.00135065,0.00074236,-0.00019686
 ,-0.00000251,-0.00002041,0.00000599,-0.00000291,0.00000966,0.00001898,
 0.00002227,-0.00002447,0.00000079,0.00003104,0.00001102,-0.00000956,0.
 00000044,-0.00000201,-0.00000134,0.00000386,-0.00000083,-0.00000064,0.
 00000018,-0.00000447,-0.00000232,0.00000085,-0.00000017,-0.00000223,0.
 00062895,0.00145303,0.00129760,0.12826386,0.00002286,-0.00025591,-0.00
 053145,-0.00023213,0.00094065,0.00030190,-0.01778452,-0.01013799,-0.02
 094315,0.00140993,-0.00057876,0.00163925,-0.00165783,-0.00218191,-0.00
 229936,0.00008238,0.00005145,0.00013251,0.00009725,0.00012304,0.000143
 14,0.00001133,-0.00000636,-0.00000764,0.00000446,0.00001733,-0.0000133
 9,0.00001502,-0.00001082,0.00001449,0.00119653,0.00019031,0.00048817,-
 0.05335919,-0.09051905,-0.08128732,0.00089557,-0.00705184,-0.00348435,
 0.00056113,0.00009289,0.00006551,-0.00000152,0.00011622,-0.00014514,-0
 .00024606,-0.00010487,-0.00006192,-0.00050061,0.00095053,0.00037146,-0
 .00006790,0.00016102,-0.00017086,0.00008695,0.00023454,-0.00022452,0.0
 0012433,0.00000927,-0.00022450,0.00005228,0.00033372,0.00036449,-0.000
 01268,-0.00001744,-0.00000823,-0.00005058,0.00005265,-0.00000236,0.000
 00373,-0.00001778,-0.00000715,-0.00004958,-0.00003667,0.00005249,0.000
 00022,0.00000178,0.00000195,-0.00000464,-0.00000282,0.00000077,-0.0000
 0238,0.00000387,0.00000054,0.00000477,-0.00000175,0.00000326,0.0110507
 3,0.00905215,0.01544197,0.05835014,0.09859254,-0.00047162,-0.00057707,
 -0.00079618,0.00218233,0.00016869,0.00005297,-0.00587120,0.00041319,-0
 .00629323,0.00048952,0.00012028,-0.00009955,0.00567382,0.00466784,0.00
 897463,0.00015667,0.00010014,0.00027806,0.00010734,0.00014002,0.000082
 25,0.00002400,-0.00001933,-0.00000358,-0.00001661,0.00002260,-0.000010
 40,0.00003330,-0.00003056,0.00000613,0.00179445,-0.00008752,0.00018964
 ,-0.10591155,-0.08416182,-0.20779877,0.00014002,-0.00096106,0.00055716
 ,0.00038158,0.00011824,0.00042952,0.00025666,0.00013183,0.00030463,0.0
 0014270,0.00011022,0.00015390,0.00050714,0.00018133,0.00089222,-0.0000
 9716,-0.00018443,0.00011284,-0.00022789,-0.00015009,0.00030904,-0.0007
 8824,-0.00010079,0.00040994,-0.00079173,-0.00006855,0.00038870,-0.0000
 1301,0.00001289,-0.00002448,-0.00005830,0.00008839,-0.00000790,0.00001
 528,-0.00001569,-0.00001508,-0.00004650,-0.00003044,0.00006255,0.00000
 093,0.00000343,0.00000186,-0.00000418,0.00000110,-0.00000138,0.0000042
 2,0.00000525,0.00000277,0.00000383,-0.00000418,0.00000436,-0.01233157,
 -0.01028337,-0.01837278,0.11471575,0.09038946,0.22021014\\0.00006843,-
 0.00034074,0.00000042,-0.00000124,0.00000392,0.00000274,-0.00017531,0.
 00020821,-0.00017637,0.00000495,-0.00000048,-0.00000208,-0.00000122,0.
 00000023,-0.00000305,-0.00000267,-0.00000138,0.00000002,0.00000161,0.0
 0000328,0.00000290,-0.00000182,0.00000214,0.00000116,0.00000108,-0.000
 00424,0.00000183,-0.00000036,-0.00000033,0.00000117,-0.00005311,0.0003
 9383,0.00004409,-0.00000051,0.00000174,0.00000119,0.00016160,-0.000261
 36,0.00012997,-0.00000046,-0.00000141,0.00000173,-0.00000068,0.0000016
 9,-0.00000233,0.00000141,0.00000201,-0.00000036,-0.00000044,-0.0000020
 4,0.00000059,-0.00000113,0.00000392,-0.00000295,-0.00000025,0.00000352
 ,-0.00000063,0.00000041,-0.00000077,-0.00000004,0.00000006,-0.00000045
 ,0.00000119,-0.00000086,-0.00000156,-0.00000206,-0.00000078,-0.0000000
 4,-0.00000219,0.00000092,0.00000017,0.00000161,0.00000139,0.00000080,0
 .00000013,0.00000062,-0.00000127,-0.00000010,0.00000054,-0.00000266,0.
 00000144,-0.00000087,-0.00000221,-0.00000220,-0.00000124,-0.00000386,0
 .00000035,0.00000029,0.00000119,0.00000093,-0.00000038,-0.00000184,0.0
 0000091\\\@


 KINETICS       FACT
 ---------  =  -------
 MECHANISM     FICTION
 Job cpu time:       0 days 14 hours 39 minutes 21.9 seconds.
 Elapsed time:       0 days  0 hours 54 minutes 59.4 seconds.
 File lengths (MBytes):  RWF=    685 Int=      0 D2E=      0 Chk=     33 Scr=      1
 Normal termination of Gaussian 16 at Mon Nov  5 01:18:42 2018.
