 Entering Gaussian System, Link 0=g16
 Initial command:
 /apps/gaussian/g16a03/g16/l1.exe "/jobfs/local/2011828.r-man2/Gau-23053.inp" -scrdir="/jobfs/local/2011828.r-man2/"
 Entering Link 1 = /apps/gaussian/g16a03/g16/l1.exe PID=     23054.
  
 Copyright (c) 1988,1990,1992,1993,1995,1998,2003,2009,2016,
            Gaussian, Inc.  All Rights Reserved.
  
 This is part of the Gaussian(R) 16 program.  It is based on
 the Gaussian(R) 09 system (copyright 2009, Gaussian, Inc.),
 the Gaussian(R) 03 system (copyright 2003, Gaussian, Inc.),
 the Gaussian(R) 98 system (copyright 1998, Gaussian, Inc.),
 the Gaussian(R) 94 system (copyright 1995, Gaussian, Inc.),
 the Gaussian 92(TM) system (copyright 1992, Gaussian, Inc.),
 the Gaussian 90(TM) system (copyright 1990, Gaussian, Inc.),
 the Gaussian 88(TM) system (copyright 1988, Gaussian, Inc.),
 the Gaussian 86(TM) system (copyright 1986, Carnegie Mellon
 University), and the Gaussian 82(TM) system (copyright 1983,
 Carnegie Mellon University). Gaussian is a federally registered
 trademark of Gaussian, Inc.
  
 This software contains proprietary and confidential information,
 including trade secrets, belonging to Gaussian, Inc.
  
 This software is provided under written license and may be
 used, copied, transmitted, or stored only in accord with that
 written license.
  
 The following legend is applicable only to US Government
 contracts under FAR:
  
                    RESTRICTED RIGHTS LEGEND
  
 Use, reproduction and disclosure by the US Government is
 subject to restrictions as set forth in subparagraphs (a)
 and (c) of the Commercial Computer Software - Restricted
 Rights clause in FAR 52.227-19.
  
 Gaussian, Inc.
 340 Quinnipiac St., Bldg. 40, Wallingford CT 06492
  
  
 ---------------------------------------------------------------
 Warning -- This program may not be used in any manner that
 competes with the business of Gaussian, Inc. or will provide
 assistance to any competitor of Gaussian, Inc.  The licensee
 of this program is prohibited from giving any competitor of
 Gaussian, Inc. access to this program.  By using this program,
 the user acknowledges that Gaussian, Inc. is engaged in the
 business of creating and licensing software in the field of
 computational chemistry and represents and warrants to the
 licensee that it is not a competitor of Gaussian, Inc. and that
 it will not use this program in any manner prohibited above.
 ---------------------------------------------------------------
  

 Cite this work as:
 Gaussian 16, Revision A.03,
 M. J. Frisch, G. W. Trucks, H. B. Schlegel, G. E. Scuseria, 
 M. A. Robb, J. R. Cheeseman, G. Scalmani, V. Barone, 
 G. A. Petersson, H. Nakatsuji, X. Li, M. Caricato, A. V. Marenich, 
 J. Bloino, B. G. Janesko, R. Gomperts, B. Mennucci, H. P. Hratchian, 
 J. V. Ortiz, A. F. Izmaylov, J. L. Sonnenberg, D. Williams-Young, 
 F. Ding, F. Lipparini, F. Egidi, J. Goings, B. Peng, A. Petrone, 
 T. Henderson, D. Ranasinghe, V. G. Zakrzewski, J. Gao, N. Rega, 
 G. Zheng, W. Liang, M. Hada, M. Ehara, K. Toyota, R. Fukuda, 
 J. Hasegawa, M. Ishida, T. Nakajima, Y. Honda, O. Kitao, H. Nakai, 
 T. Vreven, K. Throssell, J. A. Montgomery, Jr., J. E. Peralta, 
 F. Ogliaro, M. J. Bearpark, J. J. Heyd, E. N. Brothers, K. N. Kudin, 
 V. N. Staroverov, T. A. Keith, R. Kobayashi, J. Normand, 
 K. Raghavachari, A. P. Rendell, J. C. Burant, S. S. Iyengar, 
 J. Tomasi, M. Cossi, J. M. Millam, M. Klene, C. Adamo, R. Cammi, 
 J. W. Ochterski, R. L. Martin, K. Morokuma, O. Farkas, 
 J. B. Foresman, and D. J. Fox, Gaussian, Inc., Wallingford CT, 2016.
 
 ******************************************
 Gaussian 16:  ES64L-G16RevA.03 25-Dec-2016
                 4-Nov-2018 
 ******************************************
 %mem=6000mb
 %nproc=24
 Will use up to   24 processors via shared memory.
 %chk=2SO_1_e4_D_PHI.inp_extract_18.chk
 ----------------------------------------------------------------------
 #M062X/6-311++G(2d,2p) opt=ModRedundant freq=noraman SCRF=(Solvent=Wat
 er)
 ----------------------------------------------------------------------
 1/18=120,19=15,26=3,38=1/1,3;
 2/9=110,12=2,17=6,18=5,40=1/2;
 3/5=4,6=6,7=1212,11=2,25=1,30=1,70=2201,71=1,72=1,74=-55/1,2,3;
 4//1;
 5/5=2,38=5,53=1/2;
 6/7=2,8=2,9=2,10=2,28=1/1;
 7//1,2,3,16;
 1/18=20,19=15,26=3/3(2);
 2/9=110/2;
 99//99;
 2/9=110/2;
 3/5=4,6=6,7=1212,11=2,25=1,30=1,70=2205,71=1,72=1,74=-55/1,2,3;
 4/5=5,16=3,69=1/1;
 5/5=2,38=5,53=1/2;
 7//1,2,3,16;
 1/18=20,19=15,26=3/3(-5);
 2/9=110/2;
 6/7=2,8=2,9=2,10=2,19=2,28=1/1;
 99/9=1/99;
 -----------------------------
 2SO_1_e4_D_PHI.inp_extract_18
 -----------------------------
 Symbolic Z-matrix:
 Charge =  0 Multiplicity = 1
 C                     1.13966   0.02543   0.07965 
 C                    -4.01481   0.36122   0.03149 
 C                    -1.19524  -0.56749   0.05192 
 C                    -3.1036    0.15693  -1.17889 
 C                    -3.22801   0.12196   1.3318 
 C                     1.95022  -1.26005  -0.05539 
 C                     1.91445   1.20096  -0.50013 
 C                     4.00046   0.18025  -0.05828 
 O                     3.17712   1.31989   0.11682 
 C                     3.34777  -1.05728   0.5359 
 O                    -0.08144  -0.04533  -0.63379 
 C                    -1.74093   0.396     1.10818 
 O                    -2.15561  -0.86833  -0.91817 
 H                     0.94631   0.22744   1.12704 
 H                    -4.86353  -0.31302  -0.02096 
 H                    -4.40723   1.37352   0.00039 
 H                    -0.92429  -1.51303   0.50146 
 H                    -3.6571   -0.16403  -2.0494 
 H                    -2.58042   1.07075  -1.43525 
 H                    -3.35249  -0.90772   1.65521 
 H                    -3.60828   0.74839   2.13127 
 H                     1.44314  -2.08483   0.43457 
 H                     2.03097  -1.50636  -1.11181 
 H                     1.38781   2.12859  -0.32352 
 H                     2.03849   1.06895  -1.57259 
 H                     4.19021   0.0408   -1.12017 
 H                     4.93865   0.40649   0.42958 
 H                     3.97256  -1.92325   0.33876 
 H                     3.28296  -0.94203   1.61503 
 H                    -1.59433   1.41922   0.77481 
 H                    -1.18379   0.27286   2.02913 
 
 The following ModRedundant input section has been read:
 D      13       3      11       1 F                                           
 

 GradGradGradGradGradGradGradGradGradGradGradGradGradGradGradGradGradGrad
 Berny optimization.
 Initialization pass.
                           ----------------------------
                           !    Initial Parameters    !
                           ! (Angstroms and Degrees)  !
 --------------------------                            --------------------------
 ! Name  Definition              Value          Derivative Info.                !
 --------------------------------------------------------------------------------
 ! R1    R(1,6)                  1.5257         estimate D2E/DX2                !
 ! R2    R(1,7)                  1.5226         estimate D2E/DX2                !
 ! R3    R(1,11)                 1.416          estimate D2E/DX2                !
 ! R4    R(1,14)                 1.0841         estimate D2E/DX2                !
 ! R5    R(2,4)                  1.5287         estimate D2E/DX2                !
 ! R6    R(2,5)                  1.5386         estimate D2E/DX2                !
 ! R7    R(2,15)                 1.0852         estimate D2E/DX2                !
 ! R8    R(2,16)                 1.0861         estimate D2E/DX2                !
 ! R9    R(3,11)                 1.4083         estimate D2E/DX2                !
 ! R10   R(3,12)                 1.5303         estimate D2E/DX2                !
 ! R11   R(3,13)                 1.3978         estimate D2E/DX2                !
 ! R12   R(3,17)                 1.0814         estimate D2E/DX2                !
 ! R13   R(4,13)                 1.4205         estimate D2E/DX2                !
 ! R14   R(4,18)                 1.0804         estimate D2E/DX2                !
 ! R15   R(4,19)                 1.0837         estimate D2E/DX2                !
 ! R16   R(5,12)                 1.5286         estimate D2E/DX2                !
 ! R17   R(5,20)                 1.0864         estimate D2E/DX2                !
 ! R18   R(5,21)                 1.0845         estimate D2E/DX2                !
 ! R19   R(6,10)                 1.531          estimate D2E/DX2                !
 ! R20   R(6,22)                 1.0851         estimate D2E/DX2                !
 ! R21   R(6,23)                 1.0878         estimate D2E/DX2                !
 ! R22   R(7,9)                  1.4104         estimate D2E/DX2                !
 ! R23   R(7,24)                 1.0812         estimate D2E/DX2                !
 ! R24   R(7,25)                 1.0877         estimate D2E/DX2                !
 ! R25   R(8,9)                  1.4168         estimate D2E/DX2                !
 ! R26   R(8,10)                 1.52           estimate D2E/DX2                !
 ! R27   R(8,26)                 1.0877         estimate D2E/DX2                !
 ! R28   R(8,27)                 1.0814         estimate D2E/DX2                !
 ! R29   R(10,28)                1.0859         estimate D2E/DX2                !
 ! R30   R(10,29)                1.0872         estimate D2E/DX2                !
 ! R31   R(12,30)                1.0861         estimate D2E/DX2                !
 ! R32   R(12,31)                1.0834         estimate D2E/DX2                !
 ! A1    A(6,1,7)              110.2704         estimate D2E/DX2                !
 ! A2    A(6,1,11)             111.8052         estimate D2E/DX2                !
 ! A3    A(6,1,14)             109.7105         estimate D2E/DX2                !
 ! A4    A(7,1,11)             106.5919         estimate D2E/DX2                !
 ! A5    A(7,1,14)             108.3482         estimate D2E/DX2                !
 ! A6    A(11,1,14)            110.0167         estimate D2E/DX2                !
 ! A7    A(4,2,5)              110.0933         estimate D2E/DX2                !
 ! A8    A(4,2,15)             110.1739         estimate D2E/DX2                !
 ! A9    A(4,2,16)             108.4951         estimate D2E/DX2                !
 ! A10   A(5,2,15)             110.1317         estimate D2E/DX2                !
 ! A11   A(5,2,16)             110.726          estimate D2E/DX2                !
 ! A12   A(15,2,16)            107.1649         estimate D2E/DX2                !
 ! A13   A(11,3,12)            112.622          estimate D2E/DX2                !
 ! A14   A(11,3,13)            106.5741         estimate D2E/DX2                !
 ! A15   A(11,3,17)            109.1729         estimate D2E/DX2                !
 ! A16   A(12,3,13)            111.6867         estimate D2E/DX2                !
 ! A17   A(12,3,17)            110.6655         estimate D2E/DX2                !
 ! A18   A(13,3,17)            105.8098         estimate D2E/DX2                !
 ! A19   A(2,4,13)             110.4209         estimate D2E/DX2                !
 ! A20   A(2,4,18)             111.8568         estimate D2E/DX2                !
 ! A21   A(2,4,19)             111.2453         estimate D2E/DX2                !
 ! A22   A(13,4,18)            105.9843         estimate D2E/DX2                !
 ! A23   A(13,4,19)            109.2589         estimate D2E/DX2                !
 ! A24   A(18,4,19)            107.8921         estimate D2E/DX2                !
 ! A25   A(2,5,12)             110.2423         estimate D2E/DX2                !
 ! A26   A(2,5,20)             109.8997         estimate D2E/DX2                !
 ! A27   A(2,5,21)             110.7247         estimate D2E/DX2                !
 ! A28   A(12,5,20)            108.962          estimate D2E/DX2                !
 ! A29   A(12,5,21)            110.2069         estimate D2E/DX2                !
 ! A30   A(20,5,21)            106.7281         estimate D2E/DX2                !
 ! A31   A(1,6,10)             109.8282         estimate D2E/DX2                !
 ! A32   A(1,6,22)             110.6212         estimate D2E/DX2                !
 ! A33   A(1,6,23)             108.4322         estimate D2E/DX2                !
 ! A34   A(10,6,22)            110.6628         estimate D2E/DX2                !
 ! A35   A(10,6,23)            109.7135         estimate D2E/DX2                !
 ! A36   A(22,6,23)            107.5238         estimate D2E/DX2                !
 ! A37   A(1,7,9)              110.7394         estimate D2E/DX2                !
 ! A38   A(1,7,24)             110.6294         estimate D2E/DX2                !
 ! A39   A(1,7,25)             109.864          estimate D2E/DX2                !
 ! A40   A(9,7,24)             106.994          estimate D2E/DX2                !
 ! A41   A(9,7,25)             109.8445         estimate D2E/DX2                !
 ! A42   A(24,7,25)            108.7076         estimate D2E/DX2                !
 ! A43   A(9,8,10)             110.9185         estimate D2E/DX2                !
 ! A44   A(9,8,26)             108.9752         estimate D2E/DX2                !
 ! A45   A(9,8,27)             106.2678         estimate D2E/DX2                !
 ! A46   A(10,8,26)            110.6197         estimate D2E/DX2                !
 ! A47   A(10,8,27)            111.5005         estimate D2E/DX2                !
 ! A48   A(26,8,27)            108.4157         estimate D2E/DX2                !
 ! A49   A(7,9,8)              113.4764         estimate D2E/DX2                !
 ! A50   A(6,10,8)             110.4156         estimate D2E/DX2                !
 ! A51   A(6,10,28)            110.4565         estimate D2E/DX2                !
 ! A52   A(6,10,29)            110.0586         estimate D2E/DX2                !
 ! A53   A(8,10,28)            109.3436         estimate D2E/DX2                !
 ! A54   A(8,10,29)            109.104          estimate D2E/DX2                !
 ! A55   A(28,10,29)           107.3996         estimate D2E/DX2                !
 ! A56   A(1,11,3)             117.079          estimate D2E/DX2                !
 ! A57   A(3,12,5)             109.5736         estimate D2E/DX2                !
 ! A58   A(3,12,30)            109.4614         estimate D2E/DX2                !
 ! A59   A(3,12,31)            109.3782         estimate D2E/DX2                !
 ! A60   A(5,12,30)            110.1892         estimate D2E/DX2                !
 ! A61   A(5,12,31)            110.8276         estimate D2E/DX2                !
 ! A62   A(30,12,31)           107.3732         estimate D2E/DX2                !
 ! A63   A(3,13,4)             115.5027         estimate D2E/DX2                !
 ! D1    D(7,1,6,10)            52.4983         estimate D2E/DX2                !
 ! D2    D(7,1,6,22)           174.942          estimate D2E/DX2                !
 ! D3    D(7,1,6,23)           -67.3787         estimate D2E/DX2                !
 ! D4    D(11,1,6,10)          170.8981         estimate D2E/DX2                !
 ! D5    D(11,1,6,22)          -66.6583         estimate D2E/DX2                !
 ! D6    D(11,1,6,23)           51.0211         estimate D2E/DX2                !
 ! D7    D(14,1,6,10)          -66.7616         estimate D2E/DX2                !
 ! D8    D(14,1,6,22)           55.6821         estimate D2E/DX2                !
 ! D9    D(14,1,6,23)          173.3614         estimate D2E/DX2                !
 ! D10   D(6,1,7,9)            -56.1583         estimate D2E/DX2                !
 ! D11   D(6,1,7,24)          -174.6143         estimate D2E/DX2                !
 ! D12   D(6,1,7,25)            65.3589         estimate D2E/DX2                !
 ! D13   D(11,1,7,9)          -177.7069         estimate D2E/DX2                !
 ! D14   D(11,1,7,24)           63.837          estimate D2E/DX2                !
 ! D15   D(11,1,7,25)          -56.1897         estimate D2E/DX2                !
 ! D16   D(14,1,7,9)            63.9264         estimate D2E/DX2                !
 ! D17   D(14,1,7,24)          -54.5297         estimate D2E/DX2                !
 ! D18   D(14,1,7,25)         -174.5564         estimate D2E/DX2                !
 ! D19   D(6,1,11,3)            88.7369         estimate D2E/DX2                !
 ! D20   D(7,1,11,3)          -150.6947         estimate D2E/DX2                !
 ! D21   D(14,1,11,3)          -33.4281         estimate D2E/DX2                !
 ! D22   D(5,2,4,13)            34.1311         estimate D2E/DX2                !
 ! D23   D(5,2,4,18)           151.9022         estimate D2E/DX2                !
 ! D24   D(5,2,4,19)           -87.3602         estimate D2E/DX2                !
 ! D25   D(15,2,4,13)          -87.5266         estimate D2E/DX2                !
 ! D26   D(15,2,4,18)           30.2445         estimate D2E/DX2                !
 ! D27   D(15,2,4,19)          150.9821         estimate D2E/DX2                !
 ! D28   D(16,2,4,13)          155.4448         estimate D2E/DX2                !
 ! D29   D(16,2,4,18)          -86.7841         estimate D2E/DX2                !
 ! D30   D(16,2,4,19)           33.9536         estimate D2E/DX2                !
 ! D31   D(4,2,5,12)            26.1981         estimate D2E/DX2                !
 ! D32   D(4,2,5,20)           -93.922          estimate D2E/DX2                !
 ! D33   D(4,2,5,21)           148.4164         estimate D2E/DX2                !
 ! D34   D(15,2,5,12)          147.8809         estimate D2E/DX2                !
 ! D35   D(15,2,5,20)           27.7608         estimate D2E/DX2                !
 ! D36   D(15,2,5,21)          -89.9008         estimate D2E/DX2                !
 ! D37   D(16,2,5,12)          -93.7738         estimate D2E/DX2                !
 ! D38   D(16,2,5,20)          146.1061         estimate D2E/DX2                !
 ! D39   D(16,2,5,21)           28.4445         estimate D2E/DX2                !
 ! D40   D(12,3,11,1)           72.5238         estimate D2E/DX2                !
 ! D41   D(13,3,11,1)         -164.6762         Frozen                          !
 ! D42   D(17,3,11,1)          -50.8206         estimate D2E/DX2                !
 ! D43   D(11,3,12,5)          153.4845         estimate D2E/DX2                !
 ! D44   D(11,3,12,30)          32.5454         estimate D2E/DX2                !
 ! D45   D(11,3,12,31)         -84.8412         estimate D2E/DX2                !
 ! D46   D(13,3,12,5)           33.5977         estimate D2E/DX2                !
 ! D47   D(13,3,12,30)         -87.3414         estimate D2E/DX2                !
 ! D48   D(13,3,12,31)         155.272          estimate D2E/DX2                !
 ! D49   D(17,3,12,5)          -84.0062         estimate D2E/DX2                !
 ! D50   D(17,3,12,30)         155.0547         estimate D2E/DX2                !
 ! D51   D(17,3,12,31)          37.6681         estimate D2E/DX2                !
 ! D52   D(11,3,13,4)          -93.1812         estimate D2E/DX2                !
 ! D53   D(12,3,13,4)           30.2031         estimate D2E/DX2                !
 ! D54   D(17,3,13,4)          150.6893         estimate D2E/DX2                !
 ! D55   D(2,4,13,3)           -67.8478         estimate D2E/DX2                !
 ! D56   D(18,4,13,3)          170.8281         estimate D2E/DX2                !
 ! D57   D(19,4,13,3)           54.813          estimate D2E/DX2                !
 ! D58   D(2,5,12,3)           -61.7078         estimate D2E/DX2                !
 ! D59   D(2,5,12,30)           58.7897         estimate D2E/DX2                !
 ! D60   D(2,5,12,31)          177.4927         estimate D2E/DX2                !
 ! D61   D(20,5,12,3)           58.9759         estimate D2E/DX2                !
 ! D62   D(20,5,12,30)         179.4735         estimate D2E/DX2                !
 ! D63   D(20,5,12,31)         -61.8236         estimate D2E/DX2                !
 ! D64   D(21,5,12,3)          175.769          estimate D2E/DX2                !
 ! D65   D(21,5,12,30)         -63.7334         estimate D2E/DX2                !
 ! D66   D(21,5,12,31)          54.9695         estimate D2E/DX2                !
 ! D67   D(1,6,10,8)           -52.1005         estimate D2E/DX2                !
 ! D68   D(1,6,10,28)         -173.169          estimate D2E/DX2                !
 ! D69   D(1,6,10,29)           68.4085         estimate D2E/DX2                !
 ! D70   D(22,6,10,8)         -174.5195         estimate D2E/DX2                !
 ! D71   D(22,6,10,28)          64.4121         estimate D2E/DX2                !
 ! D72   D(22,6,10,29)         -54.0105         estimate D2E/DX2                !
 ! D73   D(23,6,10,8)           66.993          estimate D2E/DX2                !
 ! D74   D(23,6,10,28)         -54.0755         estimate D2E/DX2                !
 ! D75   D(23,6,10,29)        -172.4981         estimate D2E/DX2                !
 ! D76   D(1,7,9,8)             60.7356         estimate D2E/DX2                !
 ! D77   D(24,7,9,8)          -178.6233         estimate D2E/DX2                !
 ! D78   D(25,7,9,8)           -60.7931         estimate D2E/DX2                !
 ! D79   D(10,8,9,7)           -60.313          estimate D2E/DX2                !
 ! D80   D(26,8,9,7)            61.6995         estimate D2E/DX2                !
 ! D81   D(27,8,9,7)           178.3362         estimate D2E/DX2                !
 ! D82   D(9,8,10,6)            55.109          estimate D2E/DX2                !
 ! D83   D(9,8,10,28)          176.8375         estimate D2E/DX2                !
 ! D84   D(9,8,10,29)          -65.9697         estimate D2E/DX2                !
 ! D85   D(26,8,10,6)          -65.9386         estimate D2E/DX2                !
 ! D86   D(26,8,10,28)          55.7899         estimate D2E/DX2                !
 ! D87   D(26,8,10,29)         172.9827         estimate D2E/DX2                !
 ! D88   D(27,8,10,6)          173.3312         estimate D2E/DX2                !
 ! D89   D(27,8,10,28)         -64.9403         estimate D2E/DX2                !
 ! D90   D(27,8,10,29)          52.2525         estimate D2E/DX2                !
 --------------------------------------------------------------------------------
 Trust Radius=3.00D-01 FncErr=1.00D-07 GrdErr=1.00D-06 EigMax=2.50D+02 EigMin=1.00D-04
 Number of steps in this run=    186 maximum allowed number of steps=    186.
 GradGradGradGradGradGradGradGradGradGradGradGradGradGradGradGradGradGrad

                          Input orientation:                          
 ---------------------------------------------------------------------
 Center     Atomic      Atomic             Coordinates (Angstroms)
 Number     Number       Type             X           Y           Z
 ---------------------------------------------------------------------
      1          6           0        1.139658    0.025431    0.079647
      2          6           0       -4.014814    0.361217    0.031487
      3          6           0       -1.195236   -0.567493    0.051922
      4          6           0       -3.103603    0.156934   -1.178888
      5          6           0       -3.228006    0.121955    1.331804
      6          6           0        1.950223   -1.260054   -0.055386
      7          6           0        1.914453    1.200956   -0.500128
      8          6           0        4.000457    0.180245   -0.058281
      9          8           0        3.177120    1.319894    0.116818
     10          6           0        3.347765   -1.057284    0.535899
     11          8           0       -0.081440   -0.045332   -0.633786
     12          6           0       -1.740928    0.395999    1.108178
     13          8           0       -2.155609   -0.868332   -0.918166
     14          1           0        0.946309    0.227435    1.127037
     15          1           0       -4.863527   -0.313024   -0.020962
     16          1           0       -4.407229    1.373523    0.000389
     17          1           0       -0.924292   -1.513027    0.501459
     18          1           0       -3.657099   -0.164027   -2.049402
     19          1           0       -2.580425    1.070746   -1.435251
     20          1           0       -3.352493   -0.907715    1.655206
     21          1           0       -3.608280    0.748392    2.131273
     22          1           0        1.443142   -2.084830    0.434570
     23          1           0        2.030971   -1.506361   -1.111806
     24          1           0        1.387808    2.128586   -0.323518
     25          1           0        2.038490    1.068946   -1.572591
     26          1           0        4.190211    0.040804   -1.120166
     27          1           0        4.938652    0.406487    0.429582
     28          1           0        3.972557   -1.923251    0.338761
     29          1           0        3.282963   -0.942033    1.615029
     30          1           0       -1.594330    1.419219    0.774810
     31          1           0       -1.183793    0.272857    2.029126
 ---------------------------------------------------------------------
                    Distance matrix (angstroms):
                    1          2          3          4          5
     1  C    0.000000
     2  C    5.165622   0.000000
     3  C    2.409161   2.968660   0.000000
     4  C    4.427919   1.528740   2.383601   0.000000
     5  C    4.544635   1.538550   2.499118   2.514016   0.000000
     6  C    1.525687   6.182049   3.222587   5.367613   5.536091
     7  C    1.522598   6.011987   3.619715   5.170259   5.564630
     8  C    2.868303   8.017816   5.250379   7.191938   7.361142
     9  O    2.414181   7.256050   4.762766   6.517577   6.628491
    10  C    2.501235   7.514928   4.594887   6.784907   6.727915
    11  O    1.416006   4.009900   1.408328   3.077583   3.713813
    12  C    3.081067   2.516154   1.530285   2.672958   1.528565
    13  O    3.557138   2.422865   1.397817   1.420507   2.681990
    14  H    1.084073   5.082408   2.524678   4.660906   4.180665
    15  H    6.013560   1.085203   3.677829   2.158468   2.166590
    16  H    5.708904   1.086149   3.753278   2.137808   2.174777
    17  H    2.608576   3.644858   1.081448   3.218964   2.944442
    18  H    5.251440   2.175762   3.261766   1.080356   3.420301
    19  H    4.150496   2.170766   2.610414   1.083739   2.996024
    20  H    4.851038   2.164560   2.709249   3.037682   1.086419
    21  H    5.222524   2.173540   3.446453   3.400248   1.084519
    22  H    2.161313   5.994573   3.067535   5.319929   5.243525
    23  H    2.135506   6.430123   3.555861   5.397675   6.023245
    24  H    2.155779   5.695432   3.752588   4.979141   5.298339
    25  H    2.150980   6.302098   3.971644   5.237164   6.088373
    26  H    3.278058   8.291647   5.544985   7.294975   7.813366
    27  H    3.834060   8.962426   6.222206   8.205323   8.221269
    28  H    3.448162   8.313321   5.350368   7.530104   7.550967
    29  H    2.808405   7.580476   4.757925   7.057048   6.603409
    30  H    3.146520   2.744201   2.151480   2.772761   2.159174
    31  H    3.043043   3.465985   2.148407   3.740383   2.165141
                    6          7          8          9         10
     6  C    0.000000
     7  C    2.501129   0.000000
     8  C    2.505580   2.363999   0.000000
     9  O    2.862003   1.410353   1.416807   0.000000
    10  C    1.530966   2.868342   1.520044   2.419860   0.000000
    11  O    2.436750   2.356838   4.128435   3.611850   3.761869
    12  C    4.209630   4.073870   5.862651   5.101330   5.323000
    13  O    4.213750   4.584988   6.303655   5.856409   5.695361
    14  H    2.149091   2.129017   3.276435   2.681516   2.786923
    15  H    6.879334   6.961519   8.877777   8.205937   8.263736
    16  H    6.881572   6.343813   8.492146   7.585432   8.144662
    17  H    2.938862   4.053067   5.237712   4.999497   4.296436
    18  H    6.051399   5.941853   7.919675   7.321276   7.519961
    19  H    5.278582   4.592966   6.782112   5.968276   6.599802
    20  H    5.582926   6.068993   7.627947   7.068573   6.794754
    21  H    6.301769   6.134302   7.937872   7.101148   7.361538
    22  H    1.085101   3.448505   3.451569   3.834031   2.166497
    23  H    1.087755   2.778001   2.798827   3.287992   2.156513
    24  H    3.445444   1.081223   3.269911   2.012341   3.837942
    25  H    2.780997   1.087653   2.632914   2.052695   3.268147
    26  H    2.800631   2.628588   1.087681   2.047573   2.158255
    27  H    3.455902   3.262104   1.081391   2.008763   2.164451
    28  H    2.164490   3.834083   2.140821   3.346635   1.085876
    29  H    2.160467   3.307433   2.138755   2.715171   1.087200
    30  H    4.520131   3.739607   5.790573   4.817630   5.533032
    31  H    4.064119   4.105803   5.589481   4.875528   4.953183
                   11         12         13         14         15
    11  O    0.000000
    12  C    2.446040   0.000000
    13  O    2.249528   2.424162   0.000000
    14  H    2.056980   2.692585   3.873688   0.000000
    15  H    4.828620   3.395334   2.906228   5.946780   0.000000
    16  H    4.596496   3.048264   3.307484   5.589564   1.747314
    17  H    2.037967   2.163188   1.986733   2.630533   4.150964
    18  H    3.847518   3.735726   2.007539   5.606636   2.364791
    19  H    2.851824   2.762077   2.051309   4.440084   3.021190
    20  H    4.084480   2.143840   2.838367   4.477413   2.333757
    21  H    4.551280   2.158219   3.744747   4.692991   2.708203
    22  H    2.761392   4.092256   4.032465   2.464330   6.566649
    23  H    2.612545   4.772266   4.239343   3.032319   7.081532
    24  H    2.642135   3.852350   4.678774   2.431750   6.718049
    25  H    2.572367   4.682241   4.666024   3.031335   7.207998
    26  H    4.300115   6.345872   6.413795   3.950652   9.127081
    27  H    5.151331   6.713970   7.332812   4.056760   9.838872
    28  H    4.572452   6.214084   6.344063   3.795393   8.988805
    29  H    4.144931   5.223668   6.000048   2.658147   8.332912
    30  H    2.533355   1.086096   2.900705   2.828296   3.784385
    31  H    2.899574   1.083378   3.306549   2.313690   4.252830
                   16         17         18         19         20
    16  H    0.000000
    17  H    4.551274   0.000000
    18  H    2.669906   3.974283   0.000000
    19  H    2.343064   3.628981   1.749592   0.000000
    20  H    3.009142   2.755666   3.790775   3.749843   0.000000
    21  H    2.360037   3.869638   4.279362   3.725653   1.742055
    22  H    6.809960   2.436427   5.989329   5.444537   5.086616
    23  H    7.140107   3.366934   5.919044   5.292549   6.082468
    24  H    5.852990   4.391781   5.803950   4.254627   5.966986
    25  H    6.641862   4.443686   5.846991   4.620957   6.586999
    26  H    8.771987   5.585893   7.904790   6.855769   8.092883
    27  H    9.405576   6.169588   8.964250   7.775305   8.483653
    28  H    9.011328   4.916694   8.185954   7.419751   7.511371
    29  H    8.191942   4.389427   7.886559   6.909038   6.635666
    30  H    2.917913   3.020222   3.838992   2.445033   3.046450
    31  H    3.964565   2.364421   4.789833   3.819570   2.497364
                   21         22         23         24         25
    21  H    0.000000
    22  H    6.035131   0.000000
    23  H    6.884956   1.752555   0.000000
    24  H    5.735140   4.281429   3.774639   0.000000
    25  H    6.760723   3.785424   2.616216   1.762500   0.000000
    26  H    8.478738   3.805511   2.656333   3.584263   2.427276
    27  H    8.721393   4.292467   3.806504   4.017621   3.585873
    28  H    8.235282   2.536381   2.459207   4.851487   4.043158
    29  H    7.114301   2.466660   3.053126   4.096130   3.969089
    30  H    2.519126   4.649770   5.026047   3.256175   4.339397
    31  H    2.472793   3.873252   4.833816   3.948645   4.897880
                   26         27         28         29         30
    26  H    0.000000
    27  H    1.759434   0.000000
    28  H    2.456289   2.523741   0.000000
    29  H    3.044726   2.442355   1.751339   0.000000
    30  H    6.241144   6.620020   6.507878   5.483563   0.000000
    31  H    6.233122   6.329355   5.853902   4.647509   1.748140
                   31
    31  H    0.000000
 Stoichiometry    C10H18O3
 Framework group  C1[X(C10H18O3)]
 Deg. of freedom    87
 Full point group                 C1      NOp   1
 Largest Abelian subgroup         C1      NOp   1
 Largest concise Abelian subgroup C1      NOp   1
                         Standard orientation:                         
 ---------------------------------------------------------------------
 Center     Atomic      Atomic             Coordinates (Angstroms)
 Number     Number       Type             X           Y           Z
 ---------------------------------------------------------------------
      1          6           0       -1.139658   -0.025431    0.079647
      2          6           0        4.014814   -0.361217    0.031487
      3          6           0        1.195236    0.567493    0.051922
      4          6           0        3.103603   -0.156934   -1.178888
      5          6           0        3.228006   -0.121955    1.331804
      6          6           0       -1.950223    1.260054   -0.055386
      7          6           0       -1.914453   -1.200956   -0.500128
      8          6           0       -4.000457   -0.180245   -0.058281
      9          8           0       -3.177120   -1.319894    0.116818
     10          6           0       -3.347765    1.057284    0.535899
     11          8           0        0.081440    0.045332   -0.633786
     12          6           0        1.740928   -0.395999    1.108178
     13          8           0        2.155609    0.868332   -0.918166
     14          1           0       -0.946309   -0.227435    1.127037
     15          1           0        4.863527    0.313024   -0.020962
     16          1           0        4.407229   -1.373523    0.000389
     17          1           0        0.924292    1.513027    0.501459
     18          1           0        3.657099    0.164027   -2.049402
     19          1           0        2.580425   -1.070746   -1.435251
     20          1           0        3.352493    0.907715    1.655206
     21          1           0        3.608280   -0.748392    2.131273
     22          1           0       -1.443142    2.084830    0.434570
     23          1           0       -2.030971    1.506361   -1.111806
     24          1           0       -1.387808   -2.128586   -0.323518
     25          1           0       -2.038490   -1.068946   -1.572591
     26          1           0       -4.190211   -0.040804   -1.120166
     27          1           0       -4.938652   -0.406487    0.429582
     28          1           0       -3.972557    1.923251    0.338761
     29          1           0       -3.282963    0.942033    1.615029
     30          1           0        1.594330   -1.419219    0.774810
     31          1           0        1.183793   -0.272857    2.029126
 ---------------------------------------------------------------------
 Rotational constants (GHZ):           2.1835621           0.3515719           0.3472759
 Standard basis: 6-311++G(2d,2p) (5D, 7F)
 There are   557 symmetry adapted cartesian basis functions of A   symmetry.
 There are   531 symmetry adapted basis functions of A   symmetry.
   531 basis functions,   762 primitive gaussians,   557 cartesian basis functions
    51 alpha electrons       51 beta electrons
       nuclear repulsion energy       879.2367799510 Hartrees.
 NAtoms=   31 NActive=   31 NUniq=   31 SFac= 1.00D+00 NAtFMM=   60 NAOKFM=F Big=F
 Integral buffers will be    131072 words long.
 Raffenetti 2 integral format.
 Two-electron integral symmetry is turned on.
 ------------------------------------------------------------------------------
 Polarizable Continuum Model (PCM)
 =================================
 Model                : PCM.
 Atomic radii         : UFF (Universal Force Field).
 Polarization charges : Total charges.
 Charge compensation  : None.
 Solution method      : On-the-fly selection.
 Cavity type          : Scaled VdW (van der Waals Surface) (Alpha=1.100).
 Cavity algorithm     : GePol (No added spheres)
                        Default sphere list used, NSphG=   31.
                        Lebedev-Laikov grids with approx.  5.0 points / Ang**2.
                        Smoothing algorithm: York/Karplus (Gamma=1.0000).
                        Polarization charges: spherical gaussians, with
                                              point-specific exponents (IZeta= 3).
                        Self-potential: point-specific (ISelfS= 7).
                        Self-field    : sphere-specific E.n sum rule (ISelfD= 2).
 1st derivatives      : Analytical E(r).r(x)/FMM algorithm (CHGder, D1EAlg=3).
                        Cavity 1st derivative terms included.
 Solvent              : Water, Eps=  78.355300 Eps(inf)=   1.777849
 ------------------------------------------------------------------------------
 One-electron integrals computed using PRISM.
 NBasis=   531 RedAO= T EigKep=  5.50D-06  NBF=   531
 NBsUse=   531 1.00D-06 EigRej= -1.00D+00 NBFU=   531
 ExpMin= 3.60D-02 ExpMax= 8.59D+03 ExpMxC= 1.30D+03 IAcc=3 IRadAn=         5 AccDes= 0.00D+00
 Harris functional with IExCor= 1009 and IRadAn=       5 diagonalized for initial guess.
 HarFok:  IExCor= 1009 AccDes= 0.00D+00 IRadAn=         5 IDoV= 1 UseB2=F ITyADJ=14
 ICtDFT=  3500011 ScaDFX=  1.000000  1.000000  1.000000  1.000000
 FoFCou: FMM=F IPFlag=           0 FMFlag=      100000 FMFlg1=           0
         NFxFlg=           0 DoJE=T BraDBF=F KetDBF=T FulRan=T
         wScrn=  0.000000 ICntrl=       500 IOpCl=  0 I1Cent=   200000004 NGrid=           0
         NMat0=    1 NMatS0=      1 NMatT0=    0 NMatD0=    1 NMtDS0=    0 NMtDT0=    0
 Petite list used in FoFCou.
 Requested convergence on RMS density matrix=1.00D-08 within 128 cycles.
 Requested convergence on MAX density matrix=1.00D-06.
 Requested convergence on             energy=1.00D-06.
 No special actions if energy rises.
 Inv3:  Mode=1 IEnd=    12891987.
 Iteration    1 A*A^-1 deviation from unit magnitude is 3.89D-15 for   2072.
 Iteration    1 A*A^-1 deviation from orthogonality  is 2.53D-15 for   2029   1286.
 Iteration    1 A^-1*A deviation from unit magnitude is 3.89D-15 for   2072.
 Iteration    1 A^-1*A deviation from orthogonality  is 2.56D-15 for   2033    946.
 Error on total polarization charges =  0.01508
 SCF Done:  E(RM062X) =  -617.491997546     A.U. after   12 cycles
            NFock= 12  Conv=0.41D-08     -V/T= 2.0035

 **********************************************************************

            Population analysis using the SCF density.

 **********************************************************************

 Orbital symmetries:
       Occupied  (A) (A) (A) (A) (A) (A) (A) (A) (A) (A) (A) (A)
                 (A) (A) (A) (A) (A) (A) (A) (A) (A) (A) (A) (A)
                 (A) (A) (A) (A) (A) (A) (A) (A) (A) (A) (A) (A)
                 (A) (A) (A) (A) (A) (A) (A) (A) (A) (A) (A) (A)
                 (A) (A) (A)
       Virtual   (A) (A) (A) (A) (A) (A) (A) (A) (A) (A) (A) (A)
                 (A) (A) (A) (A) (A) (A) (A) (A) (A) (A) (A) (A)
                 (A) (A) (A) (A) (A) (A) (A) (A) (A) (A) (A) (A)
                 (A) (A) (A) (A) (A) (A) (A) (A) (A) (A) (A) (A)
                 (A) (A) (A) (A) (A) (A) (A) (A) (A) (A) (A) (A)
                 (A) (A) (A) (A) (A) (A) (A) (A) (A) (A) (A) (A)
                 (A) (A) (A) (A) (A) (A) (A) (A) (A) (A) (A) (A)
                 (A) (A) (A) (A) (A) (A) (A) (A) (A) (A) (A) (A)
                 (A) (A) (A) (A) (A) (A) (A) (A) (A) (A) (A) (A)
                 (A) (A) (A) (A) (A) (A) (A) (A) (A) (A) (A) (A)
                 (A) (A) (A) (A) (A) (A) (A) (A) (A) (A) (A) (A)
                 (A) (A) (A) (A) (A) (A) (A) (A) (A) (A) (A) (A)
                 (A) (A) (A) (A) (A) (A) (A) (A) (A) (A) (A) (A)
                 (A) (A) (A) (A) (A) (A) (A) (A) (A) (A) (A) (A)
                 (A) (A) (A) (A) (A) (A) (A) (A) (A) (A) (A) (A)
                 (A) (A) (A) (A) (A) (A) (A) (A) (A) (A) (A) (A)
                 (A) (A) (A) (A) (A) (A) (A) (A) (A) (A) (A) (A)
                 (A) (A) (A) (A) (A) (A) (A) (A) (A) (A) (A) (A)
                 (A) (A) (A) (A) (A) (A) (A) (A) (A) (A) (A) (A)
                 (A) (A) (A) (A) (A) (A) (A) (A) (A) (A) (A) (A)
                 (A) (A) (A) (A) (A) (A) (A) (A) (A) (A) (A) (A)
                 (A) (A) (A) (A) (A) (A) (A) (A) (A) (A) (A) (A)
                 (A) (A) (A) (A) (A) (A) (A) (A) (A) (A) (A) (A)
                 (A) (A) (A) (A) (A) (A) (A) (A) (A) (A) (A) (A)
                 (A) (A) (A) (A) (A) (A) (A) (A) (A) (A) (A) (A)
                 (A) (A) (A) (A) (A) (A) (A) (A) (A) (A) (A) (A)
                 (A) (A) (A) (A) (A) (A) (A) (A) (A) (A) (A) (A)
                 (A) (A) (A) (A) (A) (A) (A) (A) (A) (A) (A) (A)
                 (A) (A) (A) (A) (A) (A) (A) (A) (A) (A) (A) (A)
                 (A) (A) (A) (A) (A) (A) (A) (A) (A) (A) (A) (A)
                 (A) (A) (A) (A) (A) (A) (A) (A) (A) (A) (A) (A)
                 (A) (A) (A) (A) (A) (A) (A) (A) (A) (A) (A) (A)
                 (A) (A) (A) (A) (A) (A) (A) (A) (A) (A) (A) (A)
                 (A) (A) (A) (A) (A) (A) (A) (A) (A) (A) (A) (A)
                 (A) (A) (A) (A) (A) (A) (A) (A) (A) (A) (A) (A)
                 (A) (A) (A) (A) (A) (A) (A) (A) (A) (A) (A) (A)
                 (A) (A) (A) (A) (A) (A) (A) (A) (A) (A) (A) (A)
                 (A) (A) (A) (A) (A) (A) (A) (A) (A) (A) (A) (A)
                 (A) (A) (A) (A) (A) (A) (A) (A) (A) (A) (A) (A)
                 (A) (A) (A) (A) (A) (A) (A) (A) (A) (A) (A) (A)
 The electronic state is 1-A.
 Alpha  occ. eigenvalues --  -19.63105 -19.62944 -19.62827 -10.63708 -10.58808
 Alpha  occ. eigenvalues --  -10.57972 -10.57883 -10.57877 -10.53260 -10.53171
 Alpha  occ. eigenvalues --  -10.53155 -10.53097 -10.52833  -1.20247  -1.16833
 Alpha  occ. eigenvalues --   -1.13935  -0.90415  -0.90044  -0.87596  -0.84594
 Alpha  occ. eigenvalues --   -0.75046  -0.74547  -0.73769  -0.70686  -0.65901
 Alpha  occ. eigenvalues --   -0.62733  -0.61014  -0.59042  -0.57895  -0.57177
 Alpha  occ. eigenvalues --   -0.55163  -0.53306  -0.52156  -0.50982  -0.49485
 Alpha  occ. eigenvalues --   -0.47983  -0.47045  -0.46181  -0.45621  -0.45003
 Alpha  occ. eigenvalues --   -0.44164  -0.42940  -0.41071  -0.40313  -0.39861
 Alpha  occ. eigenvalues --   -0.38509  -0.37805  -0.36721  -0.34672  -0.33690
 Alpha  occ. eigenvalues --   -0.31449
 Alpha virt. eigenvalues --   -0.00092   0.00762   0.00874   0.01088   0.02158
 Alpha virt. eigenvalues --    0.02355   0.02582   0.03571   0.03975   0.04210
 Alpha virt. eigenvalues --    0.04434   0.04564   0.05370   0.06062   0.06792
 Alpha virt. eigenvalues --    0.07411   0.07667   0.08082   0.08607   0.09063
 Alpha virt. eigenvalues --    0.09990   0.10801   0.10862   0.11207   0.11657
 Alpha virt. eigenvalues --    0.11987   0.12709   0.12975   0.13174   0.13406
 Alpha virt. eigenvalues --    0.13622   0.14113   0.14258   0.14429   0.14749
 Alpha virt. eigenvalues --    0.15193   0.15622   0.15769   0.15875   0.16418
 Alpha virt. eigenvalues --    0.16717   0.16797   0.17043   0.17121   0.17487
 Alpha virt. eigenvalues --    0.17888   0.18014   0.18745   0.19029   0.19413
 Alpha virt. eigenvalues --    0.19805   0.19911   0.20352   0.20959   0.21666
 Alpha virt. eigenvalues --    0.21892   0.22202   0.23633   0.23828   0.24397
 Alpha virt. eigenvalues --    0.24504   0.25261   0.26030   0.26547   0.26758
 Alpha virt. eigenvalues --    0.27588   0.28389   0.28550   0.28847   0.29221
 Alpha virt. eigenvalues --    0.29547   0.30118   0.30170   0.30887   0.31782
 Alpha virt. eigenvalues --    0.32512   0.32783   0.33181   0.33761   0.34020
 Alpha virt. eigenvalues --    0.34304   0.34795   0.35338   0.36153   0.36259
 Alpha virt. eigenvalues --    0.36762   0.37003   0.38086   0.38191   0.38304
 Alpha virt. eigenvalues --    0.38833   0.39346   0.39750   0.40308   0.40763
 Alpha virt. eigenvalues --    0.41052   0.42074   0.43169   0.43392   0.44870
 Alpha virt. eigenvalues --    0.45792   0.47774   0.48904   0.50214   0.50774
 Alpha virt. eigenvalues --    0.51933   0.52499   0.53020   0.53749   0.54245
 Alpha virt. eigenvalues --    0.55676   0.56417   0.57074   0.57753   0.58733
 Alpha virt. eigenvalues --    0.59057   0.59268   0.60347   0.61017   0.61348
 Alpha virt. eigenvalues --    0.61821   0.62261   0.62749   0.63356   0.64014
 Alpha virt. eigenvalues --    0.64265   0.64925   0.65468   0.65831   0.66269
 Alpha virt. eigenvalues --    0.66794   0.67601   0.69023   0.69609   0.70158
 Alpha virt. eigenvalues --    0.70490   0.70986   0.71673   0.72224   0.72581
 Alpha virt. eigenvalues --    0.73577   0.73976   0.74458   0.75194   0.75840
 Alpha virt. eigenvalues --    0.75980   0.76307   0.77443   0.79023   0.79140
 Alpha virt. eigenvalues --    0.80778   0.81451   0.82789   0.83634   0.85022
 Alpha virt. eigenvalues --    0.85614   0.87141   0.87531   0.88545   0.89651
 Alpha virt. eigenvalues --    0.90450   0.91022   0.92093   0.94224   0.95183
 Alpha virt. eigenvalues --    0.96122   0.98475   1.00220   1.00981   1.01437
 Alpha virt. eigenvalues --    1.02574   1.03047   1.04494   1.05786   1.06629
 Alpha virt. eigenvalues --    1.06990   1.07899   1.09290   1.10352   1.11449
 Alpha virt. eigenvalues --    1.11591   1.13049   1.15079   1.15445   1.16992
 Alpha virt. eigenvalues --    1.17288   1.18649   1.18823   1.19472   1.19713
 Alpha virt. eigenvalues --    1.21068   1.21190   1.22209   1.23538   1.24229
 Alpha virt. eigenvalues --    1.25069   1.25927   1.26010   1.26939   1.27472
 Alpha virt. eigenvalues --    1.28200   1.29147   1.29551   1.30535   1.31501
 Alpha virt. eigenvalues --    1.31709   1.32328   1.33061   1.33145   1.33289
 Alpha virt. eigenvalues --    1.33769   1.35697   1.36086   1.36824   1.37117
 Alpha virt. eigenvalues --    1.37900   1.38245   1.39586   1.39757   1.41173
 Alpha virt. eigenvalues --    1.42258   1.43043   1.44013   1.44782   1.45493
 Alpha virt. eigenvalues --    1.45699   1.46164   1.46963   1.47844   1.48217
 Alpha virt. eigenvalues --    1.49026   1.49068   1.49973   1.50540   1.50800
 Alpha virt. eigenvalues --    1.52248   1.52433   1.53558   1.53834   1.54885
 Alpha virt. eigenvalues --    1.55104   1.55636   1.57238   1.57477   1.57990
 Alpha virt. eigenvalues --    1.59164   1.59298   1.61137   1.61308   1.61930
 Alpha virt. eigenvalues --    1.63152   1.63900   1.64328   1.65413   1.67114
 Alpha virt. eigenvalues --    1.67838   1.68100   1.68750   1.70548   1.71229
 Alpha virt. eigenvalues --    1.72436   1.73954   1.75021   1.76013   1.76384
 Alpha virt. eigenvalues --    1.77681   1.78729   1.80551   1.81072   1.82844
 Alpha virt. eigenvalues --    1.84665   1.87490   1.92233   1.93232   1.96673
 Alpha virt. eigenvalues --    1.99947   2.04067   2.07752   2.13023   2.19443
 Alpha virt. eigenvalues --    2.23461   2.26146   2.32835   2.33872   2.36388
 Alpha virt. eigenvalues --    2.41179   2.42858   2.43348   2.45379   2.51173
 Alpha virt. eigenvalues --    2.58414   2.75023   2.76753   2.79583   2.80699
 Alpha virt. eigenvalues --    2.84977   2.88735   2.90507   2.92315   2.93426
 Alpha virt. eigenvalues --    2.94481   2.96525   2.99347   3.01635   3.03890
 Alpha virt. eigenvalues --    3.05915   3.06836   3.07660   3.08973   3.09431
 Alpha virt. eigenvalues --    3.11063   3.14644   3.18270   3.18520   3.21316
 Alpha virt. eigenvalues --    3.21970   3.29974   3.30118   3.31131   3.32907
 Alpha virt. eigenvalues --    3.35283   3.36399   3.37879   3.38672   3.39831
 Alpha virt. eigenvalues --    3.41902   3.42688   3.43275   3.44293   3.45590
 Alpha virt. eigenvalues --    3.47493   3.48660   3.49269   3.49625   3.50994
 Alpha virt. eigenvalues --    3.51543   3.52805   3.54047   3.55080   3.55568
 Alpha virt. eigenvalues --    3.56218   3.57355   3.57937   3.59820   3.60330
 Alpha virt. eigenvalues --    3.61069   3.61872   3.63030   3.64153   3.65120
 Alpha virt. eigenvalues --    3.65646   3.66933   3.67506   3.69187   3.69858
 Alpha virt. eigenvalues --    3.70784   3.71391   3.71846   3.72968   3.74112
 Alpha virt. eigenvalues --    3.74888   3.75909   3.76595   3.77427   3.78582
 Alpha virt. eigenvalues --    3.79772   3.80061   3.81724   3.85066   3.85745
 Alpha virt. eigenvalues --    3.87095   3.88408   3.88617   3.89249   3.91441
 Alpha virt. eigenvalues --    3.92917   3.93930   3.94219   3.95936   3.98517
 Alpha virt. eigenvalues --    3.99081   4.01877   4.03065   4.03378   4.04238
 Alpha virt. eigenvalues --    4.05191   4.05994   4.06329   4.06890   4.07122
 Alpha virt. eigenvalues --    4.07947   4.08648   4.09511   4.09906   4.10856
 Alpha virt. eigenvalues --    4.11648   4.12963   4.14256   4.15326   4.16191
 Alpha virt. eigenvalues --    4.17064   4.17843   4.19061   4.19946   4.20620
 Alpha virt. eigenvalues --    4.21144   4.21807   4.23526   4.24549   4.25635
 Alpha virt. eigenvalues --    4.28503   4.28635   4.29378   4.30389   4.31733
 Alpha virt. eigenvalues --    4.32641   4.34310   4.35767   4.39220   4.40297
 Alpha virt. eigenvalues --    4.41985   4.42763   4.44299   4.47255   4.52141
 Alpha virt. eigenvalues --    4.56768   4.58480   4.74532   4.76726   4.82505
 Alpha virt. eigenvalues --    4.83727   4.92463   4.94905   4.99183   5.00748
 Alpha virt. eigenvalues --    5.02627   5.06497   5.08546   5.11820   5.13028
 Alpha virt. eigenvalues --    5.13629   5.14602   5.18186   5.30294   5.35940
 Alpha virt. eigenvalues --    5.39866   5.57724   5.58678   5.64178   5.85743
 Alpha virt. eigenvalues --    5.89396   6.01363   7.02760   7.04699   7.05726
 Alpha virt. eigenvalues --    7.06427   7.10191   7.12947   7.13294   7.17180
 Alpha virt. eigenvalues --    7.22580   7.36481   7.37730   7.46035   7.53203
 Alpha virt. eigenvalues --    7.54815   7.63583  23.93997  24.00796  24.04775
 Alpha virt. eigenvalues --   24.07996  24.10717  24.11202  24.14451  24.14802
 Alpha virt. eigenvalues --   24.17095  24.19000  50.17364  50.18762  50.22554
          Condensed to atoms (all electrons):
               1          2          3          4          5          6
     1  C    7.381880   0.025299  -0.674964   0.049975  -0.141531  -1.257649
     2  C    0.025299   6.006117   0.252807  -0.257496  -0.457385   0.004745
     3  C   -0.674964   0.252807   6.938153  -0.319396   0.024073   0.062033
     4  C    0.049975  -0.257496  -0.319396   5.669936   0.305596  -0.017139
     5  C   -0.141531  -0.457385   0.024073   0.305596   6.516847  -0.035813
     6  C   -1.257649   0.004745   0.062033  -0.017139  -0.035813   7.076236
     7  C   -0.327951  -0.003182   0.063253  -0.011219   0.023316   0.014375
     8  C    0.124612   0.000758  -0.023057   0.001933  -0.002188  -0.110761
     9  O    0.048860  -0.000104  -0.003806   0.000673  -0.000342  -0.050314
    10  C    0.007574   0.001380  -0.110871   0.003260  -0.002719  -0.222510
    11  O    0.355521   0.019145   0.244483  -0.018345  -0.038609  -0.168396
    12  C    0.191150   0.035707  -0.760936  -0.062166  -0.414421   0.036112
    13  O   -0.021023   0.013977   0.150782   0.054151  -0.165878   0.010619
    14  H    0.476915   0.015937  -0.079524  -0.003017  -0.059036   0.010422
    15  H   -0.005017   0.458984   0.010406  -0.060807  -0.028037  -0.000245
    16  H   -0.000272   0.474395   0.007064  -0.050148  -0.059632   0.000557
    17  H   -0.023027   0.045093   0.576865  -0.044537  -0.018599  -0.017436
    18  H    0.003888  -0.014609   0.005876   0.416008  -0.002504  -0.000233
    19  H   -0.001928  -0.087376  -0.009170   0.473590  -0.010982  -0.000776
    20  H   -0.003572  -0.073954  -0.036252  -0.003533   0.485238  -0.000061
    21  H   -0.000862  -0.044586  -0.016654   0.013523   0.436798   0.000879
    22  H   -0.030052  -0.002453   0.013070   0.002968   0.003761   0.409661
    23  H   -0.060997   0.000388   0.023182  -0.002065   0.000193   0.502090
    24  H   -0.088439   0.001789   0.003079  -0.002493  -0.005762   0.076683
    25  H    0.016195  -0.001963  -0.001901   0.004133   0.003294  -0.068442
    26  H    0.066177  -0.000148   0.004490   0.000099   0.000376  -0.052073
    27  H   -0.006498   0.000051  -0.003094   0.000072  -0.000156   0.008255
    28  H   -0.023278   0.000159  -0.002846  -0.000094  -0.000578  -0.003772
    29  H   -0.006190  -0.000470   0.003593   0.000084   0.002422  -0.047859
    30  H    0.023433   0.043748  -0.045946  -0.038704  -0.071739  -0.011614
    31  H   -0.020643  -0.028643  -0.031660   0.015628   0.065201  -0.009167
               7          8          9         10         11         12
     1  C   -0.327951   0.124612   0.048860   0.007574   0.355521   0.191150
     2  C   -0.003182   0.000758  -0.000104   0.001380   0.019145   0.035707
     3  C    0.063253  -0.023057  -0.003806  -0.110871   0.244483  -0.760936
     4  C   -0.011219   0.001933   0.000673   0.003260  -0.018345  -0.062166
     5  C    0.023316  -0.002188  -0.000342  -0.002719  -0.038609  -0.414421
     6  C    0.014375  -0.110761  -0.050314  -0.222510  -0.168396   0.036112
     7  C    5.956097  -0.211344   0.181289   0.168216  -0.186363  -0.049640
     8  C   -0.211344   5.455918   0.103985   0.079314   0.015915  -0.009809
     9  O    0.181289   0.103985   8.302401  -0.013858  -0.001973   0.003093
    10  C    0.168216   0.079314  -0.013858   5.709511  -0.005013  -0.012603
    11  O   -0.186363   0.015915  -0.001973  -0.005013   8.269577  -0.145654
    12  C   -0.049640  -0.009809   0.003093  -0.012603  -0.145654   6.496222
    13  O   -0.006330   0.001437   0.000173   0.000520   0.022125   0.129473
    14  H   -0.112685   0.031935  -0.030390  -0.005563  -0.002177   0.027710
    15  H   -0.000085  -0.000034  -0.000009  -0.000181   0.000215   0.009240
    16  H    0.000680   0.000031  -0.000002   0.000164   0.000129  -0.007534
    17  H    0.004005   0.008262  -0.001089  -0.004846  -0.044932  -0.125874
    18  H    0.000560   0.000138   0.000027   0.000363  -0.001880  -0.005401
    19  H    0.002635  -0.000821   0.000053  -0.000476   0.005953   0.019011
    20  H   -0.000360  -0.000110   0.000030   0.000303   0.001072  -0.011450
    21  H   -0.001789  -0.000056  -0.000005  -0.000406  -0.002675  -0.019769
    22  H    0.006357  -0.013153  -0.002277   0.009486  -0.007372   0.010934
    23  H   -0.015214  -0.021970   0.000225  -0.059217  -0.000477  -0.005350
    24  H    0.414443   0.004119  -0.073193  -0.002611   0.007840   0.005262
    25  H    0.409508  -0.003087  -0.040559   0.011699   0.004370   0.006822
    26  H   -0.032032   0.442881  -0.044929  -0.029238  -0.001021   0.002076
    27  H    0.012612   0.437596  -0.070677  -0.043327   0.001391  -0.000868
    28  H   -0.002171  -0.031277   0.006578   0.419685  -0.001450  -0.000978
    29  H    0.016518  -0.093775   0.000861   0.505733  -0.000730   0.003870
    30  H   -0.014133   0.001840   0.000671  -0.000719  -0.001134   0.476339
    31  H    0.024943  -0.003235   0.002096   0.000845  -0.000166   0.390012
              13         14         15         16         17         18
     1  C   -0.021023   0.476915  -0.005017  -0.000272  -0.023027   0.003888
     2  C    0.013977   0.015937   0.458984   0.474395   0.045093  -0.014609
     3  C    0.150782  -0.079524   0.010406   0.007064   0.576865   0.005876
     4  C    0.054151  -0.003017  -0.060807  -0.050148  -0.044537   0.416008
     5  C   -0.165878  -0.059036  -0.028037  -0.059632  -0.018599  -0.002504
     6  C    0.010619   0.010422  -0.000245   0.000557  -0.017436  -0.000233
     7  C   -0.006330  -0.112685  -0.000085   0.000680   0.004005   0.000560
     8  C    0.001437   0.031935  -0.000034   0.000031   0.008262   0.000138
     9  O    0.000173  -0.030390  -0.000009  -0.000002  -0.001089   0.000027
    10  C    0.000520  -0.005563  -0.000181   0.000164  -0.004846   0.000363
    11  O    0.022125  -0.002177   0.000215   0.000129  -0.044932  -0.001880
    12  C    0.129473   0.027710   0.009240  -0.007534  -0.125874  -0.005401
    13  O    8.271097  -0.000016  -0.014888   0.013248  -0.112128  -0.057378
    14  H   -0.000016   0.519703  -0.000736  -0.000160  -0.000551   0.000516
    15  H   -0.014888  -0.000736   0.508477  -0.020188   0.002780  -0.008701
    16  H    0.013248  -0.000160  -0.020188   0.499519  -0.000772  -0.001477
    17  H   -0.112128  -0.000551   0.002780  -0.000772   0.510368  -0.000180
    18  H   -0.057378   0.000516  -0.008701  -0.001477  -0.000180   0.465543
    19  H   -0.032835  -0.000155   0.003158  -0.000594  -0.003277  -0.003991
    20  H    0.013677  -0.000022  -0.010499   0.005239  -0.009188  -0.001997
    21  H   -0.003186   0.000291  -0.003361  -0.003680  -0.000564   0.001317
    22  H    0.001732  -0.006317  -0.000120   0.000006  -0.016628   0.000031
    23  H   -0.000058  -0.001899   0.000068   0.000023   0.001810  -0.000100
    24  H   -0.000673  -0.001134   0.000028   0.000296   0.001289   0.000021
    25  H    0.001609  -0.013379  -0.000035   0.000003  -0.002274   0.000016
    26  H   -0.000012  -0.006938   0.000005  -0.000009  -0.001022  -0.000033
    27  H    0.000051   0.003986  -0.000003   0.000005   0.000162   0.000012
    28  H    0.000090   0.000970  -0.000006   0.000008   0.000701   0.000022
    29  H    0.000041  -0.020489   0.000020  -0.000015  -0.001160  -0.000027
    30  H   -0.000817   0.003384  -0.002717  -0.003889   0.004356  -0.003261
    31  H    0.008168  -0.018287   0.001196   0.000018  -0.019150   0.000868
              19         20         21         22         23         24
     1  C   -0.001928  -0.003572  -0.000862  -0.030052  -0.060997  -0.088439
     2  C   -0.087376  -0.073954  -0.044586  -0.002453   0.000388   0.001789
     3  C   -0.009170  -0.036252  -0.016654   0.013070   0.023182   0.003079
     4  C    0.473590  -0.003533   0.013523   0.002968  -0.002065  -0.002493
     5  C   -0.010982   0.485238   0.436798   0.003761   0.000193  -0.005762
     6  C   -0.000776  -0.000061   0.000879   0.409661   0.502090   0.076683
     7  C    0.002635  -0.000360  -0.001789   0.006357  -0.015214   0.414443
     8  C   -0.000821  -0.000110  -0.000056  -0.013153  -0.021970   0.004119
     9  O    0.000053   0.000030  -0.000005  -0.002277   0.000225  -0.073193
    10  C   -0.000476   0.000303  -0.000406   0.009486  -0.059217  -0.002611
    11  O    0.005953   0.001072  -0.002675  -0.007372  -0.000477   0.007840
    12  C    0.019011  -0.011450  -0.019769   0.010934  -0.005350   0.005262
    13  O   -0.032835   0.013677  -0.003186   0.001732  -0.000058  -0.000673
    14  H   -0.000155  -0.000022   0.000291  -0.006317  -0.001899  -0.001134
    15  H    0.003158  -0.010499  -0.003361  -0.000120   0.000068   0.000028
    16  H   -0.000594   0.005239  -0.003680   0.000006   0.000023   0.000296
    17  H   -0.003277  -0.009188  -0.000564  -0.016628   0.001810   0.001289
    18  H   -0.003991  -0.001997   0.001317   0.000031  -0.000100   0.000021
    19  H    0.490196   0.002131  -0.001940   0.000140   0.000227  -0.000599
    20  H    0.002131   0.487684  -0.008594   0.001167   0.000032  -0.000048
    21  H   -0.001940  -0.008594   0.493861  -0.000199  -0.000080   0.000409
    22  H    0.000140   0.001167  -0.000199   0.497864  -0.010070  -0.001370
    23  H    0.000227   0.000032  -0.000080  -0.010070   0.446938  -0.000359
    24  H   -0.000599  -0.000048   0.000409  -0.001370  -0.000359   0.508635
    25  H   -0.000460   0.000130  -0.000103  -0.000228  -0.002571  -0.030363
    26  H    0.000046  -0.000003   0.000018   0.001553  -0.003749  -0.005179
    27  H   -0.000030   0.000011  -0.000020   0.000304  -0.000874   0.001924
    28  H   -0.000047  -0.000016  -0.000010  -0.014949  -0.002896   0.003487
    29  H    0.000077   0.000023   0.000016   0.000479   0.002984  -0.002923
    30  H   -0.008421   0.001419  -0.004182  -0.000072  -0.000545  -0.006226
    31  H    0.001104  -0.002240  -0.011993   0.002526  -0.000023  -0.001893
              25         26         27         28         29         30
     1  C    0.016195   0.066177  -0.006498  -0.023278  -0.006190   0.023433
     2  C   -0.001963  -0.000148   0.000051   0.000159  -0.000470   0.043748
     3  C   -0.001901   0.004490  -0.003094  -0.002846   0.003593  -0.045946
     4  C    0.004133   0.000099   0.000072  -0.000094   0.000084  -0.038704
     5  C    0.003294   0.000376  -0.000156  -0.000578   0.002422  -0.071739
     6  C   -0.068442  -0.052073   0.008255  -0.003772  -0.047859  -0.011614
     7  C    0.409508  -0.032032   0.012612  -0.002171   0.016518  -0.014133
     8  C   -0.003087   0.442881   0.437596  -0.031277  -0.093775   0.001840
     9  O   -0.040559  -0.044929  -0.070677   0.006578   0.000861   0.000671
    10  C    0.011699  -0.029238  -0.043327   0.419685   0.505733  -0.000719
    11  O    0.004370  -0.001021   0.001391  -0.001450  -0.000730  -0.001134
    12  C    0.006822   0.002076  -0.000868  -0.000978   0.003870   0.476339
    13  O    0.001609  -0.000012   0.000051   0.000090   0.000041  -0.000817
    14  H   -0.013379  -0.006938   0.003986   0.000970  -0.020489   0.003384
    15  H   -0.000035   0.000005  -0.000003  -0.000006   0.000020  -0.002717
    16  H    0.000003  -0.000009   0.000005   0.000008  -0.000015  -0.003889
    17  H   -0.002274  -0.001022   0.000162   0.000701  -0.001160   0.004356
    18  H    0.000016  -0.000033   0.000012   0.000022  -0.000027  -0.003261
    19  H   -0.000460   0.000046  -0.000030  -0.000047   0.000077  -0.008421
    20  H    0.000130  -0.000003   0.000011  -0.000016   0.000023   0.001419
    21  H   -0.000103   0.000018  -0.000020  -0.000010   0.000016  -0.004182
    22  H   -0.000228   0.001553   0.000304  -0.014949   0.000479  -0.000072
    23  H   -0.002571  -0.003749  -0.000874  -0.002896   0.002984  -0.000545
    24  H   -0.030363  -0.005179   0.001924   0.003487  -0.002923  -0.006226
    25  H    0.499935   0.012439  -0.002263  -0.003898   0.003941   0.001625
    26  H    0.012439   0.502297  -0.008757  -0.000168   0.005183  -0.000024
    27  H   -0.002263  -0.008757   0.476027  -0.007399  -0.005482   0.000151
    28  H   -0.003898  -0.000168  -0.007399   0.491760  -0.010695  -0.000105
    29  H    0.003941   0.005183  -0.005482  -0.010695   0.477453  -0.000031
    30  H    0.001625  -0.000024   0.000151  -0.000105  -0.000031   0.448413
    31  H    0.002105   0.000517  -0.000427  -0.000356   0.002002  -0.021450
              31
     1  C   -0.020643
     2  C   -0.028643
     3  C   -0.031660
     4  C    0.015628
     5  C    0.065201
     6  C   -0.009167
     7  C    0.024943
     8  C   -0.003235
     9  O    0.002096
    10  C    0.000845
    11  O   -0.000166
    12  C    0.390012
    13  O    0.008168
    14  H   -0.018287
    15  H    0.001196
    16  H    0.000018
    17  H   -0.019150
    18  H    0.000868
    19  H    0.001104
    20  H   -0.002240
    21  H   -0.011993
    22  H    0.002526
    23  H   -0.000023
    24  H   -0.001893
    25  H    0.002105
    26  H    0.000517
    27  H   -0.000427
    28  H   -0.000356
    29  H    0.002002
    30  H   -0.021450
    31  H    0.491703
 Mulliken charges:
               1
     1  C   -0.077588
     2  C   -0.428109
     3  C   -0.263133
     4  C   -0.120469
     5  C   -0.351204
     6  C   -0.138407
     7  C   -0.324309
     8  C   -0.185998
     9  O   -0.317488
    10  C   -0.403896
    11  O   -0.319369
    12  C   -0.210580
    13  O   -0.277748
    14  H    0.270706
    15  H    0.161093
    16  H    0.146986
    17  H    0.291543
    18  H    0.206566
    19  H    0.165557
    20  H    0.163743
    21  H    0.177600
    22  H    0.143219
    23  H    0.210353
    24  H    0.193963
    25  H    0.193703
    26  H    0.147177
    27  H    0.207266
    28  H    0.183527
    29  H    0.164545
    30  H    0.230352
    31  H    0.160399
 Sum of Mulliken charges =  -0.00000
 Mulliken charges with hydrogens summed into heavy atoms:
               1
     1  C    0.193118
     2  C   -0.120030
     3  C    0.028409
     4  C    0.251654
     5  C   -0.009861
     6  C    0.215165
     7  C    0.063357
     8  C    0.168445
     9  O   -0.317488
    10  C   -0.055824
    11  O   -0.319369
    12  C    0.180171
    13  O   -0.277748
 Electronic spatial extent (au):  <R**2>=           3368.3576
 Charge=             -0.0000 electrons
 Dipole moment (field-independent basis, Debye):
    X=              0.6728    Y=              0.4613    Z=              2.0379  Tot=              2.1951
 Quadrupole moment (field-independent basis, Debye-Ang):
   XX=            -72.4244   YY=            -82.7879   ZZ=            -80.5289
   XY=            -11.0457   XZ=              3.1294   YZ=              3.3805
 Traceless Quadrupole moment (field-independent basis, Debye-Ang):
   XX=              6.1560   YY=             -4.2075   ZZ=             -1.9485
   XY=            -11.0457   XZ=              3.1294   YZ=              3.3805
 Octapole moment (field-independent basis, Debye-Ang**2):
  XXX=              6.1530  YYY=              1.0834  ZZZ=             -2.2051  XYY=              6.8400
  XXY=             15.9811  XXZ=             -8.6543  XZZ=              0.3966  YZZ=             -2.4801
  YYZ=              0.4417  XYZ=              0.4681
 Hexadecapole moment (field-independent basis, Debye-Ang**3):
 XXXX=          -3457.7392 YYYY=           -431.1093 ZZZZ=           -395.5135 XXXY=            -83.7194
 XXXZ=            -25.1556 YYYX=            -15.5030 YYYZ=              5.0704 ZZZX=             -9.7528
 ZZZY=             -1.4279 XXYY=           -722.6185 XXZZ=           -657.3062 YYZZ=           -142.5108
 XXYZ=              9.2303 YYXZ=              8.7415 ZZXY=              0.8005
 N-N= 8.792367799510D+02 E-N=-3.200197030209D+03  KE= 6.153391149220D+02
 D1PCM: PCM CHGder 1st derivatives, ID1Alg=3 FixD1E=F DoIter=F DoCFld=F I1PDM=0.
 Calling FoFJK, ICntrl=      2127 FMM=F ISym2X=0 I1Cent= 0 IOpClX= 0 NMat=1 NMatS=1 NMatT=0.
 ***** Axes restored to original set *****
 -------------------------------------------------------------------
 Center     Atomic                   Forces (Hartrees/Bohr)
 Number     Number              X              Y              Z
 -------------------------------------------------------------------
      1        6          -0.001004713   -0.003380546   -0.004699039
      2        6           0.001754282   -0.000124863    0.000458198
      3        6          -0.005452760    0.007302263   -0.000710371
      4        6           0.001509699   -0.000189635    0.005982394
      5        6           0.001275400    0.001247811   -0.002596991
      6        6           0.002346222    0.003600722    0.002159092
      7        6           0.003107210   -0.005168663    0.004558237
      8        6          -0.006372194   -0.001989286    0.001710498
      9        8           0.002396631    0.007238157    0.004769564
     10        6          -0.000602888    0.000195969   -0.002471146
     11        8           0.001303716    0.005521315   -0.008360219
     12        6          -0.001581430   -0.002874477   -0.000181223
     13        8           0.000757501   -0.009281558   -0.001909006
     14        1           0.000075482    0.001792424    0.007034315
     15        1          -0.001914414   -0.001823537   -0.000085730
     16        1          -0.000945417    0.002873298    0.000340965
     17        1           0.001528230   -0.007266178    0.004039424
     18        1          -0.002282601   -0.001183227   -0.003449704
     19        1           0.002432651    0.005392266   -0.000916510
     20        1           0.000096719   -0.003123540    0.000359003
     21        1          -0.000989716    0.001445413    0.001840311
     22        1          -0.001802376   -0.002498358    0.001527384
     23        1          -0.000147155    0.000234952   -0.003735105
     24        1          -0.003059713    0.003680963    0.000844156
     25        1          -0.000814534   -0.002258507   -0.006239615
     26        1           0.000767214   -0.001973131   -0.005828731
     27        1           0.003710963    0.000832869    0.002077748
     28        1           0.001491906   -0.002587602   -0.000308509
     29        1          -0.000333700    0.000985470    0.003036895
     30        1           0.000973469    0.003535679   -0.002407801
     31        1           0.001776316   -0.000156461    0.003161515
 -------------------------------------------------------------------
 Cartesian Forces:  Max     0.009281558 RMS     0.003282528

 GradGradGradGradGradGradGradGradGradGradGradGradGradGradGradGradGradGrad
 Berny optimization.
 FormGI is forming the generalized inverse of G from B-inverse, IUseBI=4.
 Internal  Forces:  Max     0.010560754 RMS     0.001965897
 Search for a local minimum.
 Step number   1 out of a maximum of  186
 All quantities printed in internal units (Hartrees-Bohrs-Radians)
 Mixed Optimization -- RFO/linear search
 Second derivative matrix not updated -- first step.
 ITU=  0
     Eigenvalues ---    0.00401   0.00636   0.00652   0.00742   0.01420
     Eigenvalues ---    0.01451   0.01480   0.02707   0.02771   0.03160
     Eigenvalues ---    0.03198   0.04088   0.04356   0.04499   0.04792
     Eigenvalues ---    0.04865   0.04902   0.04967   0.05116   0.05146
     Eigenvalues ---    0.05180   0.05507   0.05750   0.05855   0.06161
     Eigenvalues ---    0.06385   0.06404   0.06819   0.07671   0.07826
     Eigenvalues ---    0.07853   0.07890   0.07934   0.07985   0.08120
     Eigenvalues ---    0.08884   0.09368   0.09414   0.10870   0.11601
     Eigenvalues ---    0.11609   0.11701   0.11707   0.12494   0.12622
     Eigenvalues ---    0.14579   0.15657   0.16547   0.17601   0.18448
     Eigenvalues ---    0.20529   0.21782   0.22410   0.25000   0.27155
     Eigenvalues ---    0.27445   0.28462   0.28609   0.28734   0.29105
     Eigenvalues ---    0.29470   0.30248   0.35073   0.35082   0.35085
     Eigenvalues ---    0.35138   0.35230   0.35261   0.35268   0.35294
     Eigenvalues ---    0.35373   0.35385   0.35454   0.35507   0.35546
     Eigenvalues ---    0.35589   0.35820   0.35827   0.35847   0.35951
     Eigenvalues ---    0.39849   0.41422   0.42419   0.43067   0.43851
     Eigenvalues ---    0.442681000.000001000.000001000.000001000.00000
     Eigenvalues --- 1000.000001000.000001000.000001000.000001000.00000
     Eigenvalues --- 1000.000001000.000001000.000001000.000001000.00000
     Eigenvalues --- 1000.000001000.000001000.000001000.000001000.00000
     Eigenvalues --- 1000.000001000.000001000.000001000.000001000.00000
     Eigenvalues --- 1000.000001000.000001000.000001000.000001000.00000
     Eigenvalues --- 1000.000001000.000001000.000001000.000001000.00000
     Eigenvalues --- 1000.000001000.000001000.000001000.000001000.00000
     Eigenvalues --- 1000.000001000.000001000.000001000.000001000.00000
     Eigenvalues --- 1000.000001000.000001000.000001000.000001000.00000
     Eigenvalues --- 1000.000001000.000001000.000001000.000001000.00000
     Eigenvalues --- 1000.000001000.000001000.000001000.000001000.00000
     Eigenvalues --- 1000.000001000.000001000.000001000.000001000.00000
     Eigenvalues --- 1000.000001000.000001000.000001000.000001000.00000
     Eigenvalues --- 1000.000001000.000001000.000001000.000001000.00000
     Eigenvalues --- 1000.000001000.000001000.000001000.000001000.00000
     Eigenvalues --- 1000.000001000.000001000.000001000.000001000.00000
     Eigenvalues --- 1000.000001000.000001000.000001000.000001000.00000
     Eigenvalues --- 1000.000001000.000001000.000001000.000001000.00000
     Eigenvalues --- 1000.000001000.000001000.000001000.000001000.00000
 RFO step:  Lambda=-2.79688097D-03 EMin= 4.01312752D-03
 Linear search not attempted -- first point.
 Iteration  1 RMS(Cart)=  0.03663026 RMS(Int)=  0.00035404
 Iteration  2 RMS(Cart)=  0.00094878 RMS(Int)=  0.00004545
 Iteration  3 RMS(Cart)=  0.00000018 RMS(Int)=  0.00004545
 Iteration  1 RMS(Cart)=  0.00001720 RMS(Int)=  0.00000391
 Iteration  2 RMS(Cart)=  0.00000917 RMS(Int)=  0.00000436
 Iteration  3 RMS(Cart)=  0.00000490 RMS(Int)=  0.00000492
 Iteration  4 RMS(Cart)=  0.00000261 RMS(Int)=  0.00000527
 Iteration  5 RMS(Cart)=  0.00000139 RMS(Int)=  0.00000548
 Iteration  6 RMS(Cart)=  0.00000074 RMS(Int)=  0.00000559
 Variable       Old X    -DE/DX   Delta X   Delta X   Delta X     New X
                                 (Linear)    (Quad)   (Total)
    R1        2.88313  -0.00118   0.00000  -0.00381  -0.00383   2.87930
    R2        2.87729  -0.00071   0.00000  -0.00195  -0.00194   2.87535
    R3        2.67586   0.00195   0.00000   0.00450   0.00450   2.68036
    R4        2.04860   0.00712   0.00000   0.01989   0.01989   2.06849
    R5        2.88890   0.00118   0.00000   0.00366   0.00369   2.89259
    R6        2.90744  -0.00073   0.00000  -0.00313  -0.00309   2.90435
    R7        2.05074   0.00263   0.00000   0.00739   0.00739   2.05812
    R8        2.05252   0.00301   0.00000   0.00847   0.00847   2.06100
    R9        2.66136   0.00432   0.00000   0.00970   0.00970   2.67106
   R10        2.89182  -0.00034   0.00000  -0.00010  -0.00012   2.89170
   R11        2.64149   0.00032   0.00000   0.00139   0.00137   2.64286
   R12        2.04364   0.00841   0.00000   0.02331   0.02331   2.06695
   R13        2.68437   0.00338   0.00000   0.00760   0.00759   2.69196
   R14        2.04158   0.00430   0.00000   0.01187   0.01187   2.05344
   R15        2.04797   0.00594   0.00000   0.01658   0.01658   2.06455
   R16        2.88857  -0.00059   0.00000  -0.00269  -0.00270   2.88587
   R17        2.05303   0.00306   0.00000   0.00861   0.00861   2.06164
   R18        2.04944   0.00254   0.00000   0.00711   0.00711   2.05655
   R19        2.89311  -0.00063   0.00000  -0.00232  -0.00233   2.89077
   R20        2.05054   0.00343   0.00000   0.00962   0.00962   2.06016
   R21        2.05556   0.00356   0.00000   0.01008   0.01008   2.06564
   R22        2.66518   0.00305   0.00000   0.00702   0.00704   2.67222
   R23        2.04322   0.00479   0.00000   0.01325   0.01325   2.05646
   R24        2.05537   0.00633   0.00000   0.01791   0.01791   2.07328
   R25        2.67738   0.00344   0.00000   0.00789   0.00791   2.68528
   R26        2.87247   0.00029   0.00000   0.00057   0.00056   2.87303
   R27        2.05542   0.00608   0.00000   0.01719   0.01719   2.07261
   R28        2.04353   0.00433   0.00000   0.01199   0.01199   2.05552
   R29        2.05201   0.00298   0.00000   0.00838   0.00838   2.06038
   R30        2.05451   0.00314   0.00000   0.00886   0.00886   2.06337
   R31        2.05242   0.00420   0.00000   0.01182   0.01182   2.06424
   R32        2.04729   0.00362   0.00000   0.01009   0.01009   2.05738
    A1        1.92458  -0.00022   0.00000  -0.00371  -0.00376   1.92083
    A2        1.95137  -0.00063   0.00000  -0.00098  -0.00097   1.95040
    A3        1.91481   0.00036   0.00000  -0.00169  -0.00170   1.91311
    A4        1.86038   0.00048   0.00000   0.00217   0.00218   1.86256
    A5        1.89103  -0.00047   0.00000  -0.00536  -0.00537   1.88566
    A6        1.92015   0.00047   0.00000   0.00953   0.00953   1.92969
    A7        1.92149  -0.00021   0.00000  -0.00813  -0.00827   1.91322
    A8        1.92290  -0.00044   0.00000   0.00075   0.00078   1.92367
    A9        1.89360   0.00077   0.00000   0.00497   0.00501   1.89860
   A10        1.92216   0.00081   0.00000   0.00214   0.00219   1.92435
   A11        1.93253  -0.00100   0.00000  -0.00266  -0.00263   1.92990
   A12        1.87038   0.00008   0.00000   0.00330   0.00327   1.87365
   A13        1.96562  -0.00298   0.00000  -0.01381  -0.01386   1.95177
   A14        1.86007   0.00066   0.00000   0.00678   0.00692   1.86698
   A15        1.90543   0.00152   0.00000   0.00641   0.00630   1.91173
   A16        1.94930   0.00297   0.00000   0.01033   0.01027   1.95957
   A17        1.93148  -0.00078   0.00000  -0.00682  -0.00677   1.92471
   A18        1.84673  -0.00122   0.00000  -0.00161  -0.00164   1.84509
   A19        1.92721   0.00175   0.00000   0.00376   0.00356   1.93077
   A20        1.95227  -0.00050   0.00000  -0.00395  -0.00390   1.94837
   A21        1.94160  -0.00100   0.00000  -0.00374  -0.00373   1.93787
   A22        1.84977  -0.00124   0.00000  -0.00196  -0.00190   1.84787
   A23        1.90693   0.00059   0.00000   0.00572   0.00581   1.91273
   A24        1.88307   0.00039   0.00000   0.00043   0.00040   1.88347
   A25        1.92409  -0.00138   0.00000  -0.00946  -0.00967   1.91442
   A26        1.91811   0.00078   0.00000   0.00179   0.00181   1.91992
   A27        1.93251  -0.00002   0.00000   0.00129   0.00136   1.93387
   A28        1.90175   0.00044   0.00000  -0.00151  -0.00146   1.90029
   A29        1.92347   0.00027   0.00000   0.00346   0.00351   1.92698
   A30        1.86276  -0.00003   0.00000   0.00490   0.00486   1.86762
   A31        1.91686   0.00135   0.00000  -0.00127  -0.00131   1.91556
   A32        1.93070  -0.00034   0.00000  -0.00041  -0.00038   1.93032
   A33        1.89250  -0.00120   0.00000  -0.00858  -0.00858   1.88391
   A34        1.93143  -0.00023   0.00000   0.00291   0.00291   1.93435
   A35        1.91486  -0.00006   0.00000   0.00340   0.00338   1.91825
   A36        1.87664   0.00043   0.00000   0.00386   0.00384   1.88048
   A37        1.93277   0.00184   0.00000   0.00940   0.00944   1.94221
   A38        1.93085  -0.00080   0.00000  -0.00755  -0.00762   1.92323
   A39        1.91749  -0.00252   0.00000  -0.01770  -0.01777   1.89972
   A40        1.86740  -0.00056   0.00000   0.00318   0.00319   1.87059
   A41        1.91715   0.00128   0.00000   0.01188   0.01193   1.92908
   A42        1.89731   0.00084   0.00000   0.00144   0.00127   1.89858
   A43        1.93589   0.00193   0.00000   0.00805   0.00804   1.94393
   A44        1.90198   0.00068   0.00000   0.00745   0.00749   1.90947
   A45        1.85472  -0.00116   0.00000  -0.00343  -0.00342   1.85130
   A46        1.93068  -0.00160   0.00000  -0.00961  -0.00963   1.92105
   A47        1.94605  -0.00041   0.00000  -0.00344  -0.00344   1.94261
   A48        1.89221   0.00060   0.00000   0.00142   0.00138   1.89359
   A49        1.98054  -0.00431   0.00000  -0.02552  -0.02546   1.95508
   A50        1.92712  -0.00105   0.00000  -0.00789  -0.00794   1.91918
   A51        1.92783  -0.00030   0.00000   0.00035   0.00036   1.92819
   A52        1.92088   0.00083   0.00000   0.00196   0.00196   1.92284
   A53        1.90841   0.00077   0.00000   0.00514   0.00516   1.91357
   A54        1.90422  -0.00015   0.00000  -0.00232  -0.00233   1.90190
   A55        1.87448  -0.00006   0.00000   0.00307   0.00306   1.87754
   A56        2.04341  -0.01056   0.00000  -0.04178  -0.04178   2.00164
   A57        1.91242   0.00040   0.00000  -0.00501  -0.00510   1.90732
   A58        1.91046  -0.00064   0.00000  -0.00917  -0.00915   1.90131
   A59        1.90901  -0.00015   0.00000   0.00420   0.00424   1.91325
   A60        1.92316   0.00017   0.00000   0.00376   0.00369   1.92685
   A61        1.93431   0.00000   0.00000   0.00299   0.00307   1.93737
   A62        1.87402   0.00020   0.00000   0.00325   0.00323   1.87725
   A63        2.01590  -0.00568   0.00000  -0.03559  -0.03568   1.98023
    D1        0.91627  -0.00034   0.00000   0.00422   0.00422   0.92048
    D2        3.05331   0.00006   0.00000   0.00675   0.00675   3.06006
    D3       -1.17598  -0.00034   0.00000   0.00605   0.00605  -1.16993
    D4        2.98273  -0.00029   0.00000   0.00388   0.00388   2.98661
    D5       -1.16341   0.00012   0.00000   0.00641   0.00641  -1.15699
    D6        0.89049  -0.00028   0.00000   0.00571   0.00571   0.89620
    D7       -1.16521   0.00014   0.00000   0.01417   0.01417  -1.15104
    D8        0.97184   0.00054   0.00000   0.01670   0.01670   0.98853
[...]
 ,-0.00036217,0.00026658,0.00006295,-0.00010135,-0.00018741,0.00142724,
 -0.00007269,-0.00002847,-0.00008158,0.00025808,0.00005841,0.00001871,0
 .00141047,0.00253585,-0.00066446,0.00000981,-0.00000207,0.00000997,0.0
 0000441,-0.00000504,-0.00000228,-0.00006757,-0.00002942,-0.00001549,0.
 00001095,-0.00000488,0.00000567,-0.00000503,-0.00000374,-0.00000667,0.
 00001372,0.00000855,-0.00000276,0.00000082,-0.00000293,-0.00000543,0.0
 0010236,0.00008372,0.00039923,-0.00039104,0.00074294,0.00027254,0.0013
 1462,-0.00033255,-0.00023809,-0.03129803,0.06471781,0.30443390,-0.0003
 5062,-0.00000956,-0.00021884,-0.00000042,0.00000080,-0.00000016,0.0000
 1907,0.00001891,-0.00005455,0.00000194,-0.00000356,0.00000243,0.000000
 39,0.00000058,0.00000016,0.00079301,0.00106534,0.00075667,0.00241581,0
 .00099170,0.00445340,-0.05839502,0.00276789,0.02636187,-0.00839453,0.0
 1582332,0.01735979,-0.00171783,0.00150054,0.01607205,-0.00018896,-0.00
 014545,-0.00001135,0.00000270,-0.00000178,0.00000054,-0.00002204,-0.00
 001380,-0.00000281,0.00007975,0.00002617,-0.00013431,-0.00000010,-0.00
 000008,0.00000028,-0.00000014,0.00000004,0.00000006,-0.00000024,-0.000
 01130,0.00000861,-0.00000059,-0.00000010,-0.00000004,0.00000030,0.0000
 0031,0.00000077,-0.00000011,-0.00000013,0.,0.00000010,0.00000011,0.000
 00015,0.00019061,-0.00004453,-0.00024659,-0.00006408,-0.00020490,-0.00
 020430,0.00009055,-0.00008769,-0.00026996,0.00027003,-0.00037260,-0.00
 073941,0.05947328,0.00008601,-0.00040579,0.00054860,0.00000134,-0.0000
 0214,0.00000058,-0.00015683,-0.00006422,0.00009735,-0.00001987,0.00002
 566,-0.00000381,-0.00000453,-0.00000676,-0.00000488,0.00114606,0.00096
 532,0.00025649,-0.00452923,0.00037887,-0.00297674,0.00480642,-0.057612
 49,-0.04833054,0.01779869,-0.02326210,-0.03035536,-0.00455191,0.005902
 02,0.02569631,0.00040552,0.00036054,-0.00015584,0.00002413,0.00001300,
 -0.00000379,0.00010982,0.00001419,0.00003357,0.00000182,-0.00008720,-0
 .00002056,0.00000296,0.00000038,0.00000107,0.00000209,-0.00000177,-0.0
 0000172,0.00001213,0.00001357,-0.00001339,0.00000543,-0.00000272,0.000
 00204,-0.00000109,-0.00000175,-0.00000206,0.00000103,0.00000222,0.0000
 0021,0.00000668,-0.00000009,-0.00000248,0.00027716,-0.00007737,-0.0002
 2301,-0.00004602,-0.00011803,-0.00052983,-0.00006320,0.00000648,0.0003
 8508,0.00019817,0.00052260,0.00117001,-0.01304393,0.07615027,-0.000252
 12,-0.00010309,0.00002857,0.00000095,-0.00000096,0.00000008,-0.0002288
 8,-0.00011926,0.00008080,-0.00002733,0.00003013,-0.00000315,-0.0000070
 5,-0.00001101,-0.00000601,-0.00061178,-0.00077832,0.00082718,-0.001103
 76,0.00125311,0.00197653,0.02931404,-0.05071430,-0.28115966,0.00383112
 ,-0.00794557,0.00204311,0.00119461,-0.00270240,-0.01718270,0.00050417,
 0.00004929,-0.00001562,0.00003520,0.00001857,-0.00000799,0.00012101,0.
 00001428,0.00004274,-0.00009056,0.00003103,-0.00015435,0.00000418,0.00
 000052,0.00000191,0.00000268,-0.00000251,-0.00000192,0.00000085,0.0000
 0845,-0.00001560,0.00000710,-0.00000265,0.00000288,-0.00000130,-0.0000
 0183,-0.00000293,0.00000179,0.00000284,0.00000031,0.00000974,0.0000001
 7,-0.00000302,-0.00009376,0.00021604,0.00029779,0.00074690,0.00009729,
 0.00042240,0.00018596,0.00002753,0.00040790,0.00143570,-0.00006939,0.0
 0007672,-0.03798768,0.05960943,0.30421886,0.00079332,0.00012447,-0.000
 23996,-0.00000130,0.00000213,0.00000009,0.00039123,0.00007505,-0.00009
 621,0.00004942,-0.00005653,0.00000163,0.00001495,0.00001842,0.00001002
 ,0.00011127,-0.00216627,0.00209884,0.00140891,0.00340858,0.00234811,-0
 .25428508,-0.05140938,-0.09944128,-0.02222449,0.00383754,-0.00952845,-
 0.01146475,-0.00416822,-0.00628680,-0.00062637,-0.00027117,0.00006006,
 -0.00004617,-0.00001559,-0.00000258,-0.00021998,-0.00000701,-0.0000818
 1,-0.00005083,0.00002998,0.00002311,-0.00000738,-0.00000088,-0.0000025
 3,-0.00000506,0.00000452,0.00000338,-0.00002798,0.00002567,0.00001490,
 -0.00001264,0.00000636,-0.00000544,0.00000097,0.00000422,0.00000398,-0
 .00000276,-0.00000514,-0.00000117,-0.00001699,0.00000009,0.00000562,-0
 .00079268,-0.00001929,-0.00041029,0.00005598,0.00001350,-0.00012877,-0
 .00099010,-0.00013715,-0.00040052,0.00003022,-0.00013126,-0.00022186,0
 .00584334,0.00017081,0.00135823,0.28152172,0.00056227,-0.00126928,0.00
 050985,0.00000160,-0.00000092,0.00000097,0.00003956,-0.00004856,0.0000
 8468,0.00000957,-0.00001329,-0.00001220,0.00000442,0.00000289,-0.00000
 102,-0.00153517,-0.00355997,0.00405753,0.00168616,-0.00480201,-0.00162
 027,-0.06140385,-0.06224673,-0.03077162,0.03654115,0.00039163,0.016115
 97,-0.02182006,-0.00363730,-0.01222230,0.00002263,0.00054865,-0.000246
 20,0.00000102,0.00001228,-0.00001745,-0.00001960,0.00004760,-0.0000219
 7,-0.00002755,0.00009849,-0.00000370,-0.00000170,-0.00000026,-0.000000
 75,-0.00000137,0.00000109,0.00000058,0.00005913,0.00007898,-0.00003490
 ,-0.00000518,0.00000340,-0.00000179,-0.00000107,0.00000111,0.00000129,
 0.00000026,-0.00000090,-0.00000084,-0.00000327,0.00000012,0.00000142,-
 0.00184266,-0.00004138,-0.00042842,0.00041532,0.00006778,0.00009495,0.
 00154403,0.00012999,0.00050913,-0.00006982,0.00005759,0.00023610,-0.00
 613374,-0.00029198,-0.00200014,0.05040592,0.07294045,-0.00024018,0.000
 24781,-0.00012926,-0.00000064,-0.00000129,0.,-0.00003065,0.00004402,-0
 .00002137,-0.00000731,0.00001083,0.00000392,-0.00000433,-0.00000065,-0
 .00000051,0.00123250,0.00233360,-0.00125611,0.00078145,0.00039836,0.00
 066018,-0.10467507,-0.02601649,-0.10436107,0.00198901,0.00109481,0.001
 83155,0.01634269,0.00387737,0.00757040,0.00007241,-0.00005969,0.000065
 26,0.00000172,-0.00000970,0.00000951,0.00003227,-0.00000959,0.00001964
 ,0.00001945,-0.00005185,0.00000947,0.00000095,0.00000009,0.00000015,0.
 00000102,-0.00000059,-0.00000062,-0.00000234,-0.00003209,0.00000728,0.
 00000255,-0.00000178,0.00000110,0.00000058,-0.00000204,-0.00000052,0.0
 0000014,0.00000055,0.00000049,0.00000239,-0.00000020,-0.00000066,0.000
 77898,0.00023132,0.00041911,0.00020905,0.00014413,0.00027623,-0.000253
 36,0.00000352,0.00030263,0.00029834,0.00008204,0.00044730,-0.02640922,
 -0.00689175,-0.01175061,0.11079066,0.02595043,0.10455761,-0.00269145,-
 0.00474570,-0.00221128,-0.00000154,0.00000310,-0.00000074,0.00116323,0
 .00072867,-0.00049509,0.00011359,-0.00012042,0.00001092,0.00002420,0.0
 0004519,0.00003555,-0.01740203,0.02688111,0.00240511,-0.00110245,-0.00
 069326,-0.00000622,0.00937230,-0.01157707,-0.00324739,0.00036147,-0.00
 490945,0.00228025,-0.12248321,0.12054204,0.01372845,-0.00302031,0.0018
 2325,-0.00081951,-0.00012075,-0.00010057,0.00003113,-0.00045750,-0.000
 06517,-0.00013646,0.00014377,-0.00008274,0.00024142,-0.00001621,-0.000
 00197,-0.00000360,-0.00001022,0.00000937,0.00000758,0.00003051,-0.0000
 6633,0.00007653,-0.00002776,0.00000776,-0.00001096,0.00000894,-0.00000
 179,0.00001296,-0.00000601,-0.00001101,-0.00000198,-0.00003924,-0.0000
 0120,0.00001240,0.00112323,-0.00017203,0.00079082,0.00138859,-0.000228
 90,-0.00002776,0.00020488,0.00015920,0.00005003,0.00020282,0.00004503,
 -0.00001786,0.00048989,0.00073904,-0.00007927,0.00013994,0.00078012,-0
 .00071786,0.13426300,-0.00150506,0.00060395,-0.00044822,0.00000096,-0.
 00000051,-0.00000018,-0.00009461,0.00004105,-0.00002067,-0.00001505,0.
 00001464,0.00000048,-0.00000497,-0.00000552,-0.00000138,-0.00385698,0.
 00659479,0.00067632,-0.00190811,0.00012539,-0.00103548,0.01529001,-0.0
 1688440,-0.00531003,-0.00130862,-0.00654704,0.00418245,0.12014280,-0.2
 3864708,-0.01739681,-0.00036040,0.00035964,-0.00026700,0.00001700,-0.0
 0000227,0.00000538,0.00005844,-0.00001245,0.00002734,-0.00001061,0.000
 01822,0.00002965,0.00000255,0.00000026,0.00000149,0.00000148,-0.000001
 46,-0.00000112,-0.00000532,-0.00001921,0.00000391,0.00000454,-0.000002
 88,0.00000190,0.00000128,-0.00000212,-0.00000103,0.00000118,0.00000172
 ,0.00000009,0.00000498,-0.00000020,-0.00000188,0.00061130,0.00042245,0
 .00026718,0.00044321,0.00027402,0.00026906,0.00021608,0.00000300,0.000
 04455,0.00023604,0.00004945,0.00014033,0.00001962,0.00092927,0.0003266
 3,-0.00039537,0.00048903,-0.00047134,-0.13035908,0.25774302,-0.0013236
 2,-0.00179466,-0.00018866,-0.00000040,0.00000090,-0.00000075,0.0003083
 1,0.00024214,-0.00016881,0.00003032,-0.00003452,0.00000245,0.00000680,
 0.00001210,0.00001222,-0.00824328,0.01214551,-0.00033758,0.00079499,-0
 .00024271,0.00030622,-0.01037655,0.01166390,0.00083591,0.00081099,0.00
 449060,-0.00066682,0.01464895,-0.01937711,-0.04988627,-0.00121139,0.00
 048798,-0.00003546,-0.00003554,-0.00002605,0.00001422,-0.00013311,-0.0
 0002263,-0.00004236,-0.00014860,0.00048959,0.00015637,-0.00000446,-0.0
 0000045,-0.00000075,-0.00000262,0.00000264,0.00000241,0.00001086,-0.00
 002320,0.00002416,-0.00000771,0.00000155,-0.00000305,0.00000236,-0.000
 00100,0.00000458,-0.00000149,-0.00000292,-0.00000050,-0.00001141,-0.00
 000086,0.00000361,0.00061109,-0.00033391,0.00020643,0.00060947,0.00037
 282,0.00044106,-0.00009582,-0.00001475,-0.00003893,0.00000253,-0.00003
 745,-0.00005596,-0.00036477,-0.00086928,0.00021567,0.00010704,-0.00034
 740,0.00039478,-0.01241016,0.01975615,0.05032202,0.00141517,-0.0008785
 5,-0.00078808,0.00000151,0.00000114,-0.00000118,0.00007811,0.00001481,
 0.00000417,0.00000453,-0.00000690,0.00000079,0.00000130,0.00000205,0.0
 0001061,0.00138444,-0.00793149,-0.03138978,-0.00054044,-0.00006175,-0.
 00029239,-0.00340682,0.00475448,0.01840304,0.00103799,0.00045578,-0.00
 169603,-0.04951957,0.00506463,0.01819474,-0.00031251,0.00019932,0.0005
 1709,-0.00002379,0.00000015,0.00000129,-0.00001142,0.00001747,-0.00001
 261,-0.00028875,0.00037534,0.00034003,-0.00000034,-0.00000040,0.000000
 63,-0.00000053,0.00000072,0.00000112,0.00002058,-0.00000868,-0.0000244
 9,-0.00000197,0.00000149,-0.00000072,-0.00000155,0.00000076,0.00000086
 ,0.00000044,-0.00000086,-0.00000101,-0.00000416,-0.00000044,0.00000090
 ,0.00144575,-0.00002726,0.00075910,-0.00548581,-0.00019029,-0.00238174
 ,0.00009603,0.00006333,-0.00003048,-0.00012984,0.00004747,0.00014267,-
 0.00053646,-0.00337494,0.00173359,0.00040739,0.00079340,-0.00021661,-0
 .00167093,0.00277429,0.01642323,0.05604585,0.00040357,-0.00002843,0.00
 075603,-0.00000158,0.00000102,0.00000023,0.00016215,0.00006276,-0.0000
 5469,0.00001475,-0.00001980,0.00000334,0.00000555,0.00000606,0.0000020
 8,-0.00039874,-0.00210893,-0.00506871,0.00012390,-0.00009671,0.0001809
 1,-0.00313024,0.00395214,0.02719783,-0.00023533,0.00269035,-0.00148638
 ,0.00658417,-0.06306512,-0.05999383,-0.00018950,-0.00000208,0.00002999
 ,-0.00002441,-0.00001086,0.00000272,-0.00007517,-0.00000036,-0.0000288
 1,0.00010402,0.00028128,0.00009055,-0.00000294,-0.00000033,-0.00000119
 ,-0.00000193,0.00000128,0.00000149,0.00001123,-0.00000165,0.00000339,-
 0.00000426,0.00000206,-0.00000231,0.00000079,0.00000057,0.00000154,-0.
 00000218,-0.00000258,-0.00000068,-0.00000655,-0.00000015,0.00000246,0.
 00019227,0.00007672,-0.00008552,-0.00132069,0.00081990,-0.00021151,0.0
 0002318,0.00002785,-0.00004537,-0.00004676,-0.00003405,-0.00012042,-0.
 00214209,-0.00334963,0.00276678,0.00065367,0.00103736,-0.00086852,0.00
 138237,-0.00554212,-0.02653224,-0.00208291,0.06530311,0.00091964,-0.00
 059769,-0.00018449,0.00000162,0.00000143,-0.00000042,0.00016205,0.0000
 2458,-0.00005621,0.00002065,-0.00002436,-0.00000274,0.00000416,0.00000
 688,0.00001103,-0.00015225,-0.00299074,-0.01177943,0.00004638,0.000123
 47,0.00005192,0.00294846,-0.00397545,-0.01720949,-0.00131610,-0.000328
 66,0.00186596,0.01812210,-0.05810845,-0.29342610,-0.00043186,0.0001525
 0,0.00033958,-0.00002262,-0.00000265,-0.00000776,-0.00008409,0.0000121
 7,-0.00003500,-0.00032191,0.00057024,0.00009364,-0.00000256,-0.0000004
 4,-0.00000024,-0.00000206,0.00000188,0.00000167,0.00002779,0.00001220,
 -0.00001146,-0.00000591,0.00000296,-0.00000190,0.00000022,0.00000142,0
 .00000177,-0.00000032,-0.00000202,-0.00000062,-0.00000777,-0.00000012,
 0.00000260,-0.00015098,-0.00003425,0.00068200,-0.00228718,-0.00017598,
 0.00031108,-0.00000717,0.00006547,-0.00003744,0.00009674,-0.00016017,-
 0.00003734,0.00162636,0.00258175,-0.00034557,0.00002487,0.00016155,0.0
 0095169,0.00051442,-0.00078057,-0.00151633,-0.01971473,0.06346312,0.32
 033272,-0.00000614,0.00024258,0.00019469,0.00182257,-0.00042830,0.0005
 5199,-0.00215257,0.01353533,-0.00216205,0.00013325,-0.00018334,-0.0006
 7273,-0.00559023,-0.03371615,0.00721636,0.00000273,0.00005962,-0.00013
 575,-0.00010676,-0.00003363,-0.00006035,-0.00004309,0.00003222,0.00000
 090,0.00007551,-0.00000567,0.00001066,-0.00000028,-0.00005357,0.000015
 30,0.00103241,0.00037415,-0.00078209,-0.04956898,-0.03089449,0.0048737
 5,0.00049897,-0.00029555,0.00009287,-0.00005972,0.00001014,-0.00030513
 ,0.00027007,0.00023042,0.00018807,-0.00002865,0.00044204,-0.00005968,-
 0.00063114,0.00111325,0.00250505,0.00003877,0.00007629,0.00007179,0.00
 008172,-0.00020953,-0.00068597,-0.00656644,-0.00124656,0.00077094,0.00
 143530,0.00073071,0.00003023,0.00004507,-0.00003984,0.00002416,0.00003
 146,-0.00003180,-0.00002564,0.00005110,-0.00004812,-0.00001392,0.00003
 063,0.00001066,-0.00001312,0.00000060,-0.00000403,-0.00000272,0.000002
 86,-0.00000713,0.00000373,0.00001190,-0.00000045,0.00000552,-0.0000035
 7,0.00000253,-0.00000324,0.05719798,0.00048288,-0.00003007,0.00011252,
 -0.00033187,0.00079625,0.00034616,-0.00078006,-0.02119915,0.00636091,0
 .00031928,-0.00104179,0.00090190,-0.00188892,-0.00458707,0.00114254,-0
 .00009536,-0.00008483,0.00015433,0.00006643,0.00005335,-0.00002677,0.0
 0002777,-0.00002096,0.00001112,-0.00001544,0.00002111,0.00001052,0.000
 01009,0.00006649,-0.00005110,-0.00177880,0.00324642,0.00136658,-0.0292
 0445,-0.29190845,0.05397252,-0.00044396,0.00052416,-0.00178434,0.00030
 167,-0.00027687,-0.00001394,0.00004301,0.00006703,-0.00009061,-0.00049
 649,-0.00028504,-0.00040802,0.00080364,-0.00085980,-0.00309187,0.00008
 642,0.00042153,-0.00009693,0.00038447,0.00067893,-0.00011570,-0.000803
 81,0.00113429,0.00030537,-0.00038926,0.00039547,0.00006950,0.00000330,
 0.00008860,-0.00005764,-0.00002618,0.00002874,-0.00003502,0.00010477,-
 0.00003593,-0.00004879,-0.00001068,-0.00002124,0.00002227,-0.00000070,
 0.00000164,0.00000118,0.00000036,0.00000792,-0.00000240,-0.00001139,-0
 .00000104,-0.00000247,0.00000034,-0.00000216,0.00000129,0.03390322,0.3
 1821366,0.00040002,0.00005647,0.00038358,-0.00030104,-0.00064413,0.000
 02592,-0.00095038,-0.02616912,0.00596624,-0.00044370,-0.00077711,-0.00
 042040,0.00063605,0.00466721,-0.00136076,-0.00001316,-0.00010277,-0.00
 002412,0.00003637,-0.00001165,0.00003176,0.00003496,-0.00001298,0.0000
 1988,-0.00003605,-0.00000607,-0.00002000,-0.00002613,0.00007623,-0.000
 05028,-0.00238621,0.00057731,0.00215096,0.00583599,0.05738930,-0.06216
 878,-0.00020798,0.00096901,-0.00134848,0.00004548,-0.00001586,-0.00016
 543,0.00005218,0.00006749,-0.00000595,0.00009376,0.00014683,0.00019936
 ,0.00162061,-0.00186110,-0.00264909,-0.00001160,-0.00000396,0.00008340
 ,-0.00057887,-0.00002446,-0.00089381,0.00110218,-0.00031736,0.00077540
 ,-0.00023928,0.00008583,-0.00006681,0.00000670,0.00005427,-0.00006680,
 -0.00000368,-0.00003209,0.00000291,-0.00003546,0.00002868,0.00001175,0
 .00000158,0.00001181,-0.00001003,-0.00000050,0.,-0.00000010,0.00000457
 ,0.00000779,-0.00000629,-0.00000759,-0.00000306,-0.00000379,0.00000181
 ,0.00000227,0.00000255,-0.00869709,-0.06027676,0.06498829,-0.00127793,
 -0.00030894,-0.00024631,-0.00568295,-0.00295742,0.00202394,0.00623877,
 -0.00433738,0.00998181,-0.00086442,0.00011850,0.00109585,-0.01604987,0
 .00819843,-0.02763543,-0.00005739,-0.00006743,0.00004147,-0.00009165,0
 .00008520,0.00002797,0.00001548,-0.00000789,0.00000838,-0.00000056,-0.
 00000506,0.00000084,-0.00000935,0.00000972,-0.00002803,-0.00026068,0.0
 0040600,-0.00083216,-0.11602361,0.02822152,-0.11584816,0.00107708,0.00
 148504,0.00238296,-0.00140643,-0.00019793,0.00138173,-0.00110651,0.000
 54182,-0.00162341,-0.00015061,0.00022631,-0.00012516,0.00067434,-0.000
 30507,-0.00020225,0.00010777,-0.00002968,-0.00010181,0.00024594,0.0001
 1370,0.00008892,0.00140893,-0.00033030,0.00007449,0.00141282,0.0005931
 5,0.00028427,0.00003341,0.00006268,-0.00007300,0.00004055,0.00000297,0
 .00000397,0.00000573,0.00000922,-0.00000415,0.00001417,0.00000228,0.00
 003086,-0.00000024,0.00000027,-0.00000162,0.00000305,0.00000561,-0.000
 00231,0.00000732,-0.00000111,-0.00000154,-0.00000062,0.00000111,-0.000
 00472,0.00199465,-0.00026027,0.00406646,0.12970281,0.00050916,0.000270
 48,0.00049225,-0.00097354,0.00078057,0.00039012,-0.01142525,0.00276767
 ,-0.01537855,0.00079699,-0.00126335,0.00058581,-0.00362246,0.00068241,
 -0.00615471,-0.00002650,0.00005610,-0.00014179,-0.00001508,-0.00009788
 ,0.00002039,-0.00002608,0.00001626,-0.00000004,0.00003965,0.00000958,-
 0.00000747,-0.00002033,-0.00000293,0.00002254,-0.00004985,0.00015964,0
 .00011062,0.02951656,-0.05991232,0.04854115,0.00003773,-0.00231393,-0.
 00561593,0.00002579,0.00011812,-0.00020456,-0.00006321,0.00016810,-0.0
 0008665,-0.00028679,-0.00001361,-0.00018662,-0.00065197,0.00070591,0.0
 0017654,0.00000886,0.00029334,-0.00001485,0.00017869,0.00037302,-0.000
 14992,0.00047745,0.00032268,-0.00033956,0.00042841,0.00010855,0.000191
 71,-0.00001411,-0.00007141,0.00004280,0.00000026,-0.00004678,0.0000026
 3,-0.00000695,0.00000947,-0.00000026,0.00000072,0.00001270,-0.00002878
 ,0.00000061,-0.00000200,-0.00000187,0.00000197,-0.00000377,0.00000109,
 0.00000180,-0.00000158,-0.00000229,-0.00000250,0.00000249,-0.00000135,
 0.01643500,-0.00539120,0.02611799,-0.03127506,0.06226366,-0.00067773,-
 0.00051211,-0.00103982,0.00174467,0.00034754,0.00051078,-0.01546020,0.
 00790818,-0.01663417,0.00118925,-0.00082782,0.00051417,0.00386062,-0.0
 0214511,0.00644931,0.00025515,-0.00008231,0.00017860,0.00013466,0.0001
 9343,0.00040682,0.00003158,-0.00001870,-0.00001606,-0.00000814,0.00004
 213,-0.00002439,0.00002940,-0.00002637,0.00001578,0.00253308,-0.000547
 91,-0.00056755,-0.11570309,0.04566660,-0.23872807,0.00025954,-0.002957
 88,-0.00436221,0.00068190,0.00033839,0.00047622,0.00024932,0.00002096,
 0.00025485,-0.00003457,-0.00003520,0.00008213,0.00013251,0.00003434,0.
 00122199,-0.00012521,-0.00001218,-0.00002969,-0.00012792,-0.00003126,0
 .00009987,-0.00057303,-0.00011372,0.00012676,-0.00059145,-0.00015531,0
 .00052984,0.00006936,-0.00000221,-0.00008391,-0.00005431,0.00009292,0.
 00002734,-0.00000399,-0.00001366,-0.00000865,-0.00011531,-0.00010853,0
 .00008749,0.00000136,0.00000256,0.00000578,-0.00000747,-0.00000125,-0.
 00000128,-0.00000383,0.00000585,0.00000389,0.00001420,-0.00000456,0.00
 000436,-0.00293652,0.00132365,-0.00538110,0.12523616,-0.04838043,0.255
 88092\\0.00017361,-0.00053273,-0.00024632,-0.00000341,0.00000136,-0.00
 000043,-0.00024446,0.00044733,0.00002641,0.00000138,0.00000120,-0.0000
 0316,0.00000157,-0.00000312,0.00000460,-0.00000515,0.00000039,-0.00000
 331,0.00000309,-0.00000035,0.00000091,0.00000026,-0.00000032,0.0000005
 8,-0.00000098,0.00000062,0.00000040,0.00000203,-0.00000213,-0.00000101
 ,-0.00017744,0.00060458,0.00031992,-0.00000026,-0.00000300,-0.00000265
 ,0.00025131,-0.00051906,-0.00010468,-0.00000068,-0.00000319,0.00000201
 ,-0.00000057,0.00000134,0.00000083,0.00000086,0.00000075,0.00000264,0.
 00000138,-0.00000202,0.00000068,-0.00000009,0.00000203,0.00000052,-0.0
 0000025,0.00000433,0.00000243,0.00000005,0.00000051,-0.00000146,-0.000
 00024,-0.00000033,0.00000097,-0.00000158,0.00000008,-0.00000040,0.0000
 0091,0.00000098,-0.00000172,-0.00000101,0.00000159,0.00000254,-0.00000
 055,0.00000096,0.00000118,-0.00000023,0.00000183,-0.00000193,0.0000013
 5,-0.00000001,-0.00000034,-0.00000208,-0.00000175,-0.00000137,0.000000
 10,-0.00000065,-0.00000064,-0.00000080,0.00000035,0.00000192,0.0000018
 7,-0.00000157,0.00000087\\\@


 COMMON SENSE IS NOT SO COMMON.   -- VOLTAIRE
 Job cpu time:       0 days 13 hours 51 minutes 16.1 seconds.
 Elapsed time:       0 days  0 hours 51 minutes 58.9 seconds.
 File lengths (MBytes):  RWF=    686 Int=      0 D2E=      0 Chk=     33 Scr=      1
 Normal termination of Gaussian 16 at Mon Nov  5 01:29:59 2018.
