 Entering Gaussian System, Link 0=g16
 Initial command:
 /apps/gaussian/g16a03/g16/l1.exe "/jobfs/local/2011840.r-man2/Gau-2240.inp" -scrdir="/jobfs/local/2011840.r-man2/"
 Entering Link 1 = /apps/gaussian/g16a03/g16/l1.exe PID=      2241.
  
 Copyright (c) 1988,1990,1992,1993,1995,1998,2003,2009,2016,
            Gaussian, Inc.  All Rights Reserved.
  
 This is part of the Gaussian(R) 16 program.  It is based on
 the Gaussian(R) 09 system (copyright 2009, Gaussian, Inc.),
 the Gaussian(R) 03 system (copyright 2003, Gaussian, Inc.),
 the Gaussian(R) 98 system (copyright 1998, Gaussian, Inc.),
 the Gaussian(R) 94 system (copyright 1995, Gaussian, Inc.),
 the Gaussian 92(TM) system (copyright 1992, Gaussian, Inc.),
 the Gaussian 90(TM) system (copyright 1990, Gaussian, Inc.),
 the Gaussian 88(TM) system (copyright 1988, Gaussian, Inc.),
 the Gaussian 86(TM) system (copyright 1986, Carnegie Mellon
 University), and the Gaussian 82(TM) system (copyright 1983,
 Carnegie Mellon University). Gaussian is a federally registered
 trademark of Gaussian, Inc.
  
 This software contains proprietary and confidential information,
 including trade secrets, belonging to Gaussian, Inc.
  
 This software is provided under written license and may be
 used, copied, transmitted, or stored only in accord with that
 written license.
  
 The following legend is applicable only to US Government
 contracts under FAR:
  
                    RESTRICTED RIGHTS LEGEND
  
 Use, reproduction and disclosure by the US Government is
 subject to restrictions as set forth in subparagraphs (a)
 and (c) of the Commercial Computer Software - Restricted
 Rights clause in FAR 52.227-19.
  
 Gaussian, Inc.
 340 Quinnipiac St., Bldg. 40, Wallingford CT 06492
  
  
 ---------------------------------------------------------------
 Warning -- This program may not be used in any manner that
 competes with the business of Gaussian, Inc. or will provide
 assistance to any competitor of Gaussian, Inc.  The licensee
 of this program is prohibited from giving any competitor of
 Gaussian, Inc. access to this program.  By using this program,
 the user acknowledges that Gaussian, Inc. is engaged in the
 business of creating and licensing software in the field of
 computational chemistry and represents and warrants to the
 licensee that it is not a competitor of Gaussian, Inc. and that
 it will not use this program in any manner prohibited above.
 ---------------------------------------------------------------
  

 Cite this work as:
 Gaussian 16, Revision A.03,
 M. J. Frisch, G. W. Trucks, H. B. Schlegel, G. E. Scuseria, 
 M. A. Robb, J. R. Cheeseman, G. Scalmani, V. Barone, 
 G. A. Petersson, H. Nakatsuji, X. Li, M. Caricato, A. V. Marenich, 
 J. Bloino, B. G. Janesko, R. Gomperts, B. Mennucci, H. P. Hratchian, 
 J. V. Ortiz, A. F. Izmaylov, J. L. Sonnenberg, D. Williams-Young, 
 F. Ding, F. Lipparini, F. Egidi, J. Goings, B. Peng, A. Petrone, 
 T. Henderson, D. Ranasinghe, V. G. Zakrzewski, J. Gao, N. Rega, 
 G. Zheng, W. Liang, M. Hada, M. Ehara, K. Toyota, R. Fukuda, 
 J. Hasegawa, M. Ishida, T. Nakajima, Y. Honda, O. Kitao, H. Nakai, 
 T. Vreven, K. Throssell, J. A. Montgomery, Jr., J. E. Peralta, 
 F. Ogliaro, M. J. Bearpark, J. J. Heyd, E. N. Brothers, K. N. Kudin, 
 V. N. Staroverov, T. A. Keith, R. Kobayashi, J. Normand, 
 K. Raghavachari, A. P. Rendell, J. C. Burant, S. S. Iyengar, 
 J. Tomasi, M. Cossi, J. M. Millam, M. Klene, C. Adamo, R. Cammi, 
 J. W. Ochterski, R. L. Martin, K. Morokuma, O. Farkas, 
 J. B. Foresman, and D. J. Fox, Gaussian, Inc., Wallingford CT, 2016.
 
 ******************************************
 Gaussian 16:  ES64L-G16RevA.03 25-Dec-2016
                 4-Nov-2018 
 ******************************************
 %mem=6000mb
 %nproc=24
 Will use up to   24 processors via shared memory.
 %chk=2SO_1_e4_D_PHI.inp_extract_5.chk
 ----------------------------------------------------------------------
 #M062X/6-311++G(2d,2p) opt=ModRedundant freq=noraman SCRF=(Solvent=Wat
 er)
 ----------------------------------------------------------------------
 1/18=120,19=15,26=3,38=1/1,3;
 2/9=110,12=2,17=6,18=5,40=1/2;
 3/5=4,6=6,7=1212,11=2,25=1,30=1,70=2201,71=1,72=1,74=-55/1,2,3;
 4//1;
 5/5=2,38=5,53=1/2;
 6/7=2,8=2,9=2,10=2,28=1/1;
 7//1,2,3,16;
 1/18=20,19=15,26=3/3(2);
 2/9=110/2;
 99//99;
 2/9=110/2;
 3/5=4,6=6,7=1212,11=2,25=1,30=1,70=2205,71=1,72=1,74=-55/1,2,3;
 4/5=5,16=3,69=1/1;
 5/5=2,38=5,53=1/2;
 7//1,2,3,16;
 1/18=20,19=15,26=3/3(-5);
 2/9=110/2;
 6/7=2,8=2,9=2,10=2,19=2,28=1/1;
 99/9=1/99;
 ----------------------------
 2SO_1_e4_D_PHI.inp_extract_5
 ----------------------------
 Symbolic Z-matrix:
 Charge =  0 Multiplicity = 1
 C                     1.00104  -0.22665  -0.00652 
 C                    -3.54697   0.75839   0.78188 
 C                    -1.33226  -0.34254  -0.83375 
 C                    -2.07356   1.14667   0.88714 
 C                    -3.7174   -0.47181  -0.13157 
 C                     1.94555  -1.2533    0.60381 
 C                     1.74789   0.62152  -1.03159 
 C                     3.81692   0.32782   0.06991 
 O                     2.86724   1.2464   -0.43996 
 C                     3.19785  -0.55599   1.14092 
 O                    -0.058    -0.92492  -0.63263 
 C                    -2.40209  -1.24297  -0.23101 
 O                    -1.41719   0.9689   -0.36127 
 H                     0.61993   0.41631   0.77411 
 H                    -4.12294   1.59289   0.39549 
 H                    -3.91594   0.55124   1.78211 
 H                    -1.46725  -0.27084  -1.90426 
 H                    -1.95145   2.19052   1.13788 
 H                    -1.56994   0.56041   1.64642 
 H                    -4.01475  -0.15379  -1.12704 
 H                    -4.50577  -1.11844   0.23754 
 H                     1.43808  -1.79816   1.39366 
 H                     2.22601  -1.97225  -0.16265 
 H                     1.1201    1.40969  -1.42189 
 H                     2.07193  -0.00646  -1.85893 
 H                     4.2004   -0.27566  -0.74983 
 H                     4.63009   0.91977   0.46727 
 H                     3.92899  -1.28865   1.46945 
 H                     2.94154   0.05605   2.00208 
 H                    -2.08373  -1.57968   0.75087 
 H                    -2.50347  -2.12287  -0.85667 
 
 The following ModRedundant input section has been read:
 D      13       3      11       1 F                                           
 

 GradGradGradGradGradGradGradGradGradGradGradGradGradGradGradGradGradGrad
 Berny optimization.
 Initialization pass.
                           ----------------------------
                           !    Initial Parameters    !
                           ! (Angstroms and Degrees)  !
 --------------------------                            --------------------------
 ! Name  Definition              Value          Derivative Info.                !
 --------------------------------------------------------------------------------
 ! R1    R(1,6)                  1.5227         estimate D2E/DX2                !
 ! R2    R(1,7)                  1.5258         estimate D2E/DX2                !
 ! R3    R(1,11)                 1.4146         estimate D2E/DX2                !
 ! R4    R(1,14)                 1.0808         estimate D2E/DX2                !
 ! R5    R(2,4)                  1.5273         estimate D2E/DX2                !
 ! R6    R(2,5)                  1.5417         estimate D2E/DX2                !
 ! R7    R(2,15)                 1.0851         estimate D2E/DX2                !
 ! R8    R(2,16)                 1.086          estimate D2E/DX2                !
 ! R9    R(3,11)                 1.4154         estimate D2E/DX2                !
 ! R10   R(3,12)                 1.5227         estimate D2E/DX2                !
 ! R11   R(3,13)                 1.3965         estimate D2E/DX2                !
 ! R12   R(3,17)                 1.0814         estimate D2E/DX2                !
 ! R13   R(4,13)                 1.4216         estimate D2E/DX2                !
 ! R14   R(4,18)                 1.0805         estimate D2E/DX2                !
 ! R15   R(4,19)                 1.0834         estimate D2E/DX2                !
 ! R16   R(5,12)                 1.5279         estimate D2E/DX2                !
 ! R17   R(5,20)                 1.0865         estimate D2E/DX2                !
 ! R18   R(5,21)                 1.0844         estimate D2E/DX2                !
 ! R19   R(6,10)                 1.5307         estimate D2E/DX2                !
 ! R20   R(6,22)                 1.0855         estimate D2E/DX2                !
 ! R21   R(6,23)                 1.0877         estimate D2E/DX2                !
 ! R22   R(7,9)                  1.4119         estimate D2E/DX2                !
 ! R23   R(7,24)                 1.0806         estimate D2E/DX2                !
 ! R24   R(7,25)                 1.088          estimate D2E/DX2                !
 ! R25   R(8,9)                  1.4162         estimate D2E/DX2                !
 ! R26   R(8,10)                 1.5203         estimate D2E/DX2                !
 ! R27   R(8,26)                 1.0878         estimate D2E/DX2                !
 ! R28   R(8,27)                 1.0815         estimate D2E/DX2                !
 ! R29   R(10,28)                1.0859         estimate D2E/DX2                !
 ! R30   R(10,29)                1.0872         estimate D2E/DX2                !
 ! R31   R(12,30)                1.0857         estimate D2E/DX2                !
 ! R32   R(12,31)                1.0844         estimate D2E/DX2                !
 ! A1    A(6,1,7)              109.9052         estimate D2E/DX2                !
 ! A2    A(6,1,11)             107.9971         estimate D2E/DX2                !
 ! A3    A(6,1,14)             109.2892         estimate D2E/DX2                !
 ! A4    A(7,1,11)             110.0894         estimate D2E/DX2                !
 ! A5    A(7,1,14)             109.0972         estimate D2E/DX2                !
 ! A6    A(11,1,14)            110.4478         estimate D2E/DX2                !
 ! A7    A(4,2,5)              110.5071         estimate D2E/DX2                !
 ! A8    A(4,2,15)             109.9436         estimate D2E/DX2                !
 ! A9    A(4,2,16)             108.2255         estimate D2E/DX2                !
 ! A10   A(5,2,15)             110.1212         estimate D2E/DX2                !
 ! A11   A(5,2,16)             110.8497         estimate D2E/DX2                !
 ! A12   A(15,2,16)            107.1164         estimate D2E/DX2                !
 ! A13   A(11,3,12)            109.4493         estimate D2E/DX2                !
 ! A14   A(11,3,13)            113.1453         estimate D2E/DX2                !
 ! A15   A(11,3,17)            106.2799         estimate D2E/DX2                !
 ! A16   A(12,3,13)            112.2506         estimate D2E/DX2                !
 ! A17   A(12,3,17)            110.0824         estimate D2E/DX2                !
 ! A18   A(13,3,17)            105.3708         estimate D2E/DX2                !
 ! A19   A(2,4,13)             110.6773         estimate D2E/DX2                !
 ! A20   A(2,4,18)             111.754          estimate D2E/DX2                !
 ! A21   A(2,4,19)             111.0487         estimate D2E/DX2                !
 ! A22   A(13,4,18)            105.8084         estimate D2E/DX2                !
 ! A23   A(13,4,19)            109.46           estimate D2E/DX2                !
 ! A24   A(18,4,19)            107.9142         estimate D2E/DX2                !
 ! A25   A(2,5,12)             110.2509         estimate D2E/DX2                !
 ! A26   A(2,5,20)             109.8492         estimate D2E/DX2                !
 ! A27   A(2,5,21)             110.764          estimate D2E/DX2                !
 ! A28   A(12,5,20)            108.886          estimate D2E/DX2                !
 ! A29   A(12,5,21)            110.3057         estimate D2E/DX2                !
 ! A30   A(20,5,21)            106.7044         estimate D2E/DX2                !
 ! A31   A(1,6,10)             109.9361         estimate D2E/DX2                !
 ! A32   A(1,6,22)             109.883          estimate D2E/DX2                !
 ! A33   A(1,6,23)             108.8546         estimate D2E/DX2                !
 ! A34   A(10,6,22)            110.8436         estimate D2E/DX2                !
 ! A35   A(10,6,23)            109.721          estimate D2E/DX2                !
 ! A36   A(22,6,23)            107.5488         estimate D2E/DX2                !
 ! A37   A(1,7,9)              110.645          estimate D2E/DX2                !
 ! A38   A(1,7,24)             111.331          estimate D2E/DX2                !
 ! A39   A(1,7,25)             109.6216         estimate D2E/DX2                !
 ! A40   A(9,7,24)             106.8056         estimate D2E/DX2                !
 ! A41   A(9,7,25)             109.7521         estimate D2E/DX2                !
 ! A42   A(24,7,25)            108.6237         estimate D2E/DX2                !
 ! A43   A(9,8,10)             110.9544         estimate D2E/DX2                !
 ! A44   A(9,8,26)             108.9618         estimate D2E/DX2                !
 ! A45   A(9,8,27)             106.3486         estimate D2E/DX2                !
 ! A46   A(10,8,26)            110.6048         estimate D2E/DX2                !
 ! A47   A(10,8,27)            111.4404         estimate D2E/DX2                !
 ! A48   A(26,8,27)            108.39           estimate D2E/DX2                !
 ! A49   A(7,9,8)              113.2928         estimate D2E/DX2                !
 ! A50   A(6,10,8)             110.5346         estimate D2E/DX2                !
 ! A51   A(6,10,28)            110.4651         estimate D2E/DX2                !
 ! A52   A(6,10,29)            109.9707         estimate D2E/DX2                !
 ! A53   A(8,10,28)            109.3395         estimate D2E/DX2                !
 ! A54   A(8,10,29)            109.0714         estimate D2E/DX2                !
 ! A55   A(28,10,29)           107.3925         estimate D2E/DX2                !
 ! A56   A(1,11,3)             122.2611         estimate D2E/DX2                !
 ! A57   A(3,12,5)             109.3973         estimate D2E/DX2                !
 ! A58   A(3,12,30)            109.5936         estimate D2E/DX2                !
 ! A59   A(3,12,31)            108.4885         estimate D2E/DX2                !
 ! A60   A(5,12,30)            110.4924         estimate D2E/DX2                !
 ! A61   A(5,12,31)            111.5057         estimate D2E/DX2                !
 ! A62   A(30,12,31)           107.3108         estimate D2E/DX2                !
 ! A63   A(3,13,4)             116.2703         estimate D2E/DX2                !
 ! D1    D(7,1,6,10)            52.8293         estimate D2E/DX2                !
 ! D2    D(7,1,6,22)           175.083          estimate D2E/DX2                !
 ! D3    D(7,1,6,23)           -67.3804         estimate D2E/DX2                !
 ! D4    D(11,1,6,10)          172.9442         estimate D2E/DX2                !
 ! D5    D(11,1,6,22)          -64.802          estimate D2E/DX2                !
 ! D6    D(11,1,6,23)           52.7345         estimate D2E/DX2                !
 ! D7    D(14,1,6,10)          -66.8658         estimate D2E/DX2                !
 ! D8    D(14,1,6,22)           55.388          estimate D2E/DX2                !
 ! D9    D(14,1,6,23)          172.9246         estimate D2E/DX2                !
 ! D10   D(6,1,7,9)            -56.8336         estimate D2E/DX2                !
 ! D11   D(6,1,7,24)          -175.4421         estimate D2E/DX2                !
 ! D12   D(6,1,7,25)            64.3465         estimate D2E/DX2                !
 ! D13   D(11,1,7,9)          -175.6707         estimate D2E/DX2                !
 ! D14   D(11,1,7,24)           65.7208         estimate D2E/DX2                !
 ! D15   D(11,1,7,25)          -54.4906         estimate D2E/DX2                !
 ! D16   D(14,1,7,9)            62.9784         estimate D2E/DX2                !
 ! D17   D(14,1,7,24)          -55.6301         estimate D2E/DX2                !
 ! D18   D(14,1,7,25)         -175.8415         estimate D2E/DX2                !
 ! D19   D(6,1,11,3)           154.8298         estimate D2E/DX2                !
 ! D20   D(7,1,11,3)           -85.1711         estimate D2E/DX2                !
 ! D21   D(14,1,11,3)           35.3701         estimate D2E/DX2                !
 ! D22   D(5,2,4,13)            37.7632         estimate D2E/DX2                !
 ! D23   D(5,2,4,18)           155.4158         estimate D2E/DX2                !
 ! D24   D(5,2,4,19)           -84.0255         estimate D2E/DX2                !
 ! D25   D(15,2,4,13)          -84.0015         estimate D2E/DX2                !
 ! D26   D(15,2,4,18)           33.6511         estimate D2E/DX2                !
 ! D27   D(15,2,4,19)          154.2098         estimate D2E/DX2                !
 ! D28   D(16,2,4,13)          159.3122         estimate D2E/DX2                !
 ! D29   D(16,2,4,18)          -83.0353         estimate D2E/DX2                !
 ! D30   D(16,2,4,19)           37.5234         estimate D2E/DX2                !
 ! D31   D(4,2,5,12)            21.2643         estimate D2E/DX2                !
 ! D32   D(4,2,5,20)           -98.735          estimate D2E/DX2                !
 ! D33   D(4,2,5,21)           143.6399         estimate D2E/DX2                !
 ! D34   D(15,2,5,12)          142.9241         estimate D2E/DX2                !
 ! D35   D(15,2,5,20)           22.9249         estimate D2E/DX2                !
 ! D36   D(15,2,5,21)          -94.7003         estimate D2E/DX2                !
 ! D37   D(16,2,5,12)          -98.7204         estimate D2E/DX2                !
 ! D38   D(16,2,5,20)          141.2804         estimate D2E/DX2                !
 ! D39   D(16,2,5,21)           23.6553         estimate D2E/DX2                !
 ! D40   D(12,3,11,1)         -125.6682         estimate D2E/DX2                !
 ! D41   D(13,3,11,1)            0.3239         Frozen                          !
 ! D42   D(17,3,11,1)          115.4838         estimate D2E/DX2                !
 ! D43   D(11,3,12,5)          165.9558         estimate D2E/DX2                !
 ! D44   D(11,3,12,30)          44.6708         estimate D2E/DX2                !
 ! D45   D(11,3,12,31)         -72.2048         estimate D2E/DX2                !
 ! D46   D(13,3,12,5)           39.4533         estimate D2E/DX2                !
 ! D47   D(13,3,12,30)         -81.8317         estimate D2E/DX2                !
 ! D48   D(13,3,12,31)         161.2927         estimate D2E/DX2                !
 ! D49   D(17,3,12,5)          -77.5798         estimate D2E/DX2                !
 ! D50   D(17,3,12,30)         161.1352         estimate D2E/DX2                !
 ! D51   D(17,3,12,31)          44.2596         estimate D2E/DX2                !
 ! D52   D(11,3,13,4)         -101.7826         estimate D2E/DX2                !
 ! D53   D(12,3,13,4)           22.6989         estimate D2E/DX2                !
 ! D54   D(17,3,13,4)          142.5155         estimate D2E/DX2                !
 ! D55   D(2,4,13,3)           -64.6151         estimate D2E/DX2                !
 ! D56   D(18,4,13,3)          174.1486         estimate D2E/DX2                !
 ! D57   D(19,4,13,3)           58.1027         estimate D2E/DX2                !
 ! D58   D(2,5,12,3)           -60.9313         estimate D2E/DX2                !
 ! D59   D(2,5,12,30)           59.8083         estimate D2E/DX2                !
 ! D60   D(2,5,12,31)          179.0626         estimate D2E/DX2                !
 ! D61   D(20,5,12,3)           59.6476         estimate D2E/DX2                !
 ! D62   D(20,5,12,30)        -179.6128         estimate D2E/DX2                !
 ! D63   D(20,5,12,31)         -60.3585         estimate D2E/DX2                !
 ! D64   D(21,5,12,3)          176.4237         estimate D2E/DX2                !
 ! D65   D(21,5,12,30)         -62.8367         estimate D2E/DX2                !
 ! D66   D(21,5,12,31)          56.4176         estimate D2E/DX2                !
 ! D67   D(1,6,10,8)           -52.0545         estimate D2E/DX2                !
 ! D68   D(1,6,10,28)         -173.2021         estimate D2E/DX2                !
 ! D69   D(1,6,10,29)           68.4334         estimate D2E/DX2                !
 ! D70   D(22,6,10,8)         -173.7369         estimate D2E/DX2                !
 ! D71   D(22,6,10,28)          65.1154         estimate D2E/DX2                !
 ! D72   D(22,6,10,29)         -53.2491         estimate D2E/DX2                !
 ! D73   D(23,6,10,8)           67.6289         estimate D2E/DX2                !
 ! D74   D(23,6,10,28)         -53.5187         estimate D2E/DX2                !
 ! D75   D(23,6,10,29)        -171.8832         estimate D2E/DX2                !
 ! D76   D(1,7,9,8)             61.2342         estimate D2E/DX2                !
 ! D77   D(24,7,9,8)          -177.4433         estimate D2E/DX2                !
 ! D78   D(25,7,9,8)           -59.8687         estimate D2E/DX2                !
 ! D79   D(10,8,9,7)           -60.1956         estimate D2E/DX2                !
 ! D80   D(26,8,9,7)            61.8125         estimate D2E/DX2                !
 ! D81   D(27,8,9,7)           178.4554         estimate D2E/DX2                !
 ! D82   D(9,8,10,6)            54.7349         estimate D2E/DX2                !
 ! D83   D(9,8,10,28)          176.5481         estimate D2E/DX2                !
 ! D84   D(9,8,10,29)          -66.2887         estimate D2E/DX2                !
 ! D85   D(26,8,10,6)          -66.3098         estimate D2E/DX2                !
 ! D86   D(26,8,10,28)          55.5034         estimate D2E/DX2                !
 ! D87   D(26,8,10,29)         172.6666         estimate D2E/DX2                !
 ! D88   D(27,8,10,6)          173.0431         estimate D2E/DX2                !
 ! D89   D(27,8,10,28)         -65.1437         estimate D2E/DX2                !
 ! D90   D(27,8,10,29)          52.0195         estimate D2E/DX2                !
 --------------------------------------------------------------------------------
 Trust Radius=3.00D-01 FncErr=1.00D-07 GrdErr=1.00D-06 EigMax=2.50D+02 EigMin=1.00D-04
 Number of steps in this run=    186 maximum allowed number of steps=    186.
 GradGradGradGradGradGradGradGradGradGradGradGradGradGradGradGradGradGrad

                          Input orientation:                          
 ---------------------------------------------------------------------
 Center     Atomic      Atomic             Coordinates (Angstroms)
 Number     Number       Type             X           Y           Z
 ---------------------------------------------------------------------
      1          6           0        1.001041   -0.226649   -0.006518
      2          6           0       -3.546974    0.758393    0.781883
      3          6           0       -1.332262   -0.342538   -0.833750
      4          6           0       -2.073564    1.146666    0.887137
      5          6           0       -3.717401   -0.471807   -0.131568
      6          6           0        1.945553   -1.253302    0.603807
      7          6           0        1.747888    0.621516   -1.031591
      8          6           0        3.816921    0.327821    0.069909
      9          8           0        2.867243    1.246398   -0.439963
     10          6           0        3.197849   -0.555992    1.140918
     11          8           0       -0.057999   -0.924915   -0.632634
     12          6           0       -2.402094   -1.242974   -0.231006
     13          8           0       -1.417193    0.968904   -0.361271
     14          1           0        0.619932    0.416312    0.774111
     15          1           0       -4.122943    1.592887    0.395491
     16          1           0       -3.915940    0.551237    1.782110
     17          1           0       -1.467248   -0.270835   -1.904258
     18          1           0       -1.951449    2.190523    1.137884
     19          1           0       -1.569941    0.560411    1.646424
     20          1           0       -4.014751   -0.153789   -1.127039
     21          1           0       -4.505766   -1.118437    0.237539
     22          1           0        1.438083   -1.798162    1.393661
     23          1           0        2.226009   -1.972253   -0.162645
     24          1           0        1.120102    1.409689   -1.421892
     25          1           0        2.071934   -0.006457   -1.858933
     26          1           0        4.200404   -0.275656   -0.749831
     27          1           0        4.630091    0.919766    0.467270
     28          1           0        3.928993   -1.288645    1.469449
     29          1           0        2.941538    0.056051    2.002082
     30          1           0       -2.083733   -1.579678    0.750867
     31          1           0       -2.503471   -2.122866   -0.856668
 ---------------------------------------------------------------------
                    Distance matrix (angstroms):
                    1          2          3          4          5
     1  C    0.000000
     2  C    4.719780   0.000000
     3  C    2.478315   2.954195   0.000000
     4  C    3.483936   1.527341   2.393472   0.000000
     5  C    4.726461   1.541697   2.489710   2.521788   0.000000
     6  C    1.522700   5.852049   3.693255   4.689715   5.763728
     7  C    1.525758   5.598481   3.233553   4.308224   5.645775
     8  C    2.870968   7.410752   5.270680   6.003014   7.579314
     9  O    2.416703   6.547766   4.507286   5.116905   6.812112
    10  C    2.500208   6.881072   4.946391   5.545380   7.031855
    11  O    1.414624   4.123995   1.415400   3.265525   3.721236
    12  C    3.558741   2.518365   1.522703   2.658675   1.527946
    13  O    2.720855   2.426331   1.396542   1.421599   2.723852
    14  H    1.080752   4.180931   2.640479   2.793047   4.519012
    15  H    5.452296   1.085090   3.611759   2.154248   2.169151
    16  H    5.289707   1.086050   3.783774   2.133040   2.179037
    17  H    3.113811   3.549637   1.081365   3.188858   2.871586
    18  H    3.983663   2.173346   3.269118   1.080474   3.437746
    19  H    3.156205   2.166861   2.650108   1.083443   2.972930
    20  H    5.139946   2.166766   2.705068   3.084849   1.086515
    21  H    5.583885   2.176714   3.438140   3.386484   1.084384
    22  H    2.149688   5.635693   3.841225   4.610883   5.537559
    23  H    2.138237   6.455687   3.970849   5.414428   6.129961
    24  H    2.166809   5.202154   3.070879   3.949721   5.348495
    25  H    2.150985   6.255480   3.571064   5.104483   6.059434
    26  H    3.284941   7.964752   5.533707   6.638173   7.944329
    27  H    3.835198   8.184706   6.231831   6.720622   8.483850
    28  H    3.446624   7.781593   5.820709   6.503885   7.854796
    29  H    2.807120   6.639500   5.144529   5.252027   7.012315
    30  H    3.452557   2.758371   2.146214   2.729766   2.162161
    31  H    4.074310   3.474968   2.131155   3.730351   2.173797
                    6          7          8          9         10
     6  C    0.000000
     7  C    2.495704   0.000000
     8  C    2.507392   2.362299   0.000000
     9  O    2.861375   1.411898   1.416207   0.000000
    10  C    1.530678   2.865084   1.520341   2.420144   0.000000
    11  O    2.377151   2.410777   4.132544   3.648118   3.725874
    12  C    4.427082   4.619482   6.421378   5.831513   5.806331
    13  O    4.144591   3.253882   5.290827   4.294134   5.087287
    14  H    2.138664   2.138914   3.274824   2.685782   2.779492
    15  H    6.706029   6.119378   8.046604   7.048456   7.665986
    16  H    6.245147   6.324619   7.923300   7.171641   7.227937
    17  H    4.347740   3.448904   5.672580   4.820163   5.578310
    18  H    5.227982   4.566563   6.155024   5.157593   5.835977
    19  H    4.090880   4.264210   5.617631   4.950979   4.922775
    20  H    6.303172   5.815343   7.937236   7.056517   7.571459
    21  H    6.463115   6.614100   8.449076   7.772562   7.776768
    22  H    1.085480   3.439865   3.454127   3.830668   2.168788
    23  H    1.087656   2.776924   2.806318   3.293600   2.156280
    24  H    3.446208   1.080586   3.266304   2.010808   3.840434
    25  H    2.763274   1.088049   2.622433   2.053202   3.250966
    26  H    2.805794   2.626622   1.087758   2.046945   2.158387
    27  H    3.456532   3.262305   1.081453   2.009327   2.164020
    28  H    2.164398   3.828986   2.141083   3.346582   1.085949
    29  H    2.159066   3.308734   2.138562   2.717725   1.087150
    30  H    4.045157   4.764843   6.238587   5.823826   5.393995
    31  H    4.762661   5.063229   6.841913   6.353751   6.241033
                   11         12         13         14         15
    11  O    0.000000
    12  C    2.399427   0.000000
    13  O    2.346827   2.424748   0.000000
    14  H    2.058497   3.591118   2.396733   0.000000
    15  H    4.890822   3.375785   2.878042   4.901280   0.000000
    16  H    4.784738   3.092500   3.318473   4.648484   1.746596
    17  H    2.007693   2.149131   1.979966   3.464412   3.976810
    18  H    4.052881   3.723687   2.006302   3.145180   2.371435
    19  H    3.112277   2.733024   2.054516   2.361618   3.024675
    20  H    4.061399   2.142396   2.931578   5.041793   2.319629
    21  H    4.536219   2.158814   3.775559   5.377373   2.742769
    22  H    2.665838   4.206511   4.346153   2.440719   6.589428
    23  H    2.556267   4.685708   4.686446   3.026919   7.302803
    24  H    2.731524   4.567351   2.785152   2.461584   5.552113
    25  H    2.623736   4.918948   3.920246   3.036439   6.783571
    26  H    4.309207   6.693121   5.766915   3.952341   8.607051
    27  H    5.156629   7.390308   6.103977   4.053269   8.779171
    28  H    4.521853   6.555631   6.085209   3.786853   8.619181
    29  H    4.111112   5.935364   5.041555   2.650954   7.406071
    30  H    2.538974   1.085725   2.859440   3.360702   3.788118
    31  H    2.732327   1.084408   3.314281   4.343099   4.242336
                   16         17         18         19         20
    16  H    0.000000
    17  H    4.501245   0.000000
    18  H    2.638467   3.943014   0.000000
    19  H    2.349937   3.648131   1.749693   0.000000
    20  H    2.994991   2.665997   3.857835   3.765538   0.000000
    21  H    2.349767   3.812914   4.276023   3.663681   1.741756
    22  H    5.859704   4.652950   5.240607   3.830792   6.228265
    23  H    6.919076   4.423594   6.039142   4.908804   6.571450
    24  H    6.030281   3.122694   4.073890   4.167993   5.375697
    25  H    7.030139   3.549332   5.476791   5.086464   6.132301
    26  H    8.542220   5.784030   6.891357   6.303803   8.224713
    27  H    8.654436   6.649753   6.736558   6.321387   8.855938
    28  H    8.063864   6.444940   6.840624   5.804188   8.434021
    29  H    6.878852   5.899470   5.407784   4.553495   7.630556
    30  H    2.993534   3.023708   3.792321   2.376128   3.047707
    31  H    4.013607   2.366690   4.784171   3.786413   2.496864
                   21         22         23         24         25
    21  H    0.000000
    22  H    6.093274   0.000000
    23  H    6.797495   1.753061   0.000000
    24  H    6.387137   4.280042   3.774422   0.000000
    25  H    6.992698   3.767140   2.601055   1.761380   0.000000
    26  H    8.802419   3.813529   2.668607   3.574957   2.415152
    27  H    9.363276   4.293512   3.813158   4.016090   3.579564
    28  H    8.525945   2.543616   2.455851   4.850848   4.021293
    29  H    7.743085   2.463465   3.051564   4.107744   3.958226
    30  H    2.518431   3.586657   4.422951   4.890987   5.153217
    31  H    2.493061   4.550303   4.782503   5.092024   5.139850
                   26         27         28         29         30
    26  H    0.000000
    27  H    1.759261   0.000000
    28  H    2.454590   2.524476   0.000000
    29  H    3.044306   2.439849   1.751277   0.000000
    30  H    6.591126   7.169594   6.062502   5.430884   0.000000
    31  H    6.954534   7.867536   6.890815   6.524435   1.747971
                   31
    31  H    0.000000
 Stoichiometry    C10H18O3
 Framework group  C1[X(C10H18O3)]
 Deg. of freedom    87
 Full point group                 C1      NOp   1
 Largest Abelian subgroup         C1      NOp   1
 Largest concise Abelian subgroup C1      NOp   1
                         Standard orientation:                         
 ---------------------------------------------------------------------
 Center     Atomic      Atomic             Coordinates (Angstroms)
 Number     Number       Type             X           Y           Z
 ---------------------------------------------------------------------
      1          6           0       -1.001041    0.226649   -0.006518
      2          6           0        3.546974   -0.758393    0.781883
      3          6           0        1.332262    0.342538   -0.833750
      4          6           0        2.073564   -1.146666    0.887137
      5          6           0        3.717401    0.471807   -0.131568
      6          6           0       -1.945553    1.253302    0.603807
      7          6           0       -1.747888   -0.621516   -1.031591
      8          6           0       -3.816921   -0.327821    0.069909
      9          8           0       -2.867243   -1.246398   -0.439963
     10          6           0       -3.197849    0.555992    1.140918
     11          8           0        0.057999    0.924915   -0.632634
     12          6           0        2.402094    1.242974   -0.231006
     13          8           0        1.417193   -0.968904   -0.361271
     14          1           0       -0.619932   -0.416312    0.774111
     15          1           0        4.122943   -1.592887    0.395491
     16          1           0        3.915940   -0.551237    1.782110
     17          1           0        1.467248    0.270835   -1.904258
     18          1           0        1.951449   -2.190523    1.137884
     19          1           0        1.569941   -0.560411    1.646424
     20          1           0        4.014751    0.153789   -1.127039
     21          1           0        4.505766    1.118437    0.237539
     22          1           0       -1.438083    1.798162    1.393661
     23          1           0       -2.226009    1.972253   -0.162645
     24          1           0       -1.120102   -1.409689   -1.421892
     25          1           0       -2.071934    0.006457   -1.858933
     26          1           0       -4.200404    0.275656   -0.749831
     27          1           0       -4.630091   -0.919766    0.467270
     28          1           0       -3.928993    1.288645    1.469449
     29          1           0       -2.941538   -0.056051    2.002082
     30          1           0        2.083733    1.579678    0.750867
     31          1           0        2.503471    2.122866   -0.856668
 ---------------------------------------------------------------------
 Rotational constants (GHZ):           1.9790738           0.3952807           0.3783554
 Standard basis: 6-311++G(2d,2p) (5D, 7F)
 There are   557 symmetry adapted cartesian basis functions of A   symmetry.
 There are   531 symmetry adapted basis functions of A   symmetry.
   531 basis functions,   762 primitive gaussians,   557 cartesian basis functions
    51 alpha electrons       51 beta electrons
       nuclear repulsion energy       890.4788667971 Hartrees.
 NAtoms=   31 NActive=   31 NUniq=   31 SFac= 1.00D+00 NAtFMM=   60 NAOKFM=F Big=F
 Integral buffers will be    131072 words long.
 Raffenetti 2 integral format.
 Two-electron integral symmetry is turned on.
 ------------------------------------------------------------------------------
 Polarizable Continuum Model (PCM)
 =================================
 Model                : PCM.
 Atomic radii         : UFF (Universal Force Field).
 Polarization charges : Total charges.
 Charge compensation  : None.
 Solution method      : On-the-fly selection.
 Cavity type          : Scaled VdW (van der Waals Surface) (Alpha=1.100).
 Cavity algorithm     : GePol (No added spheres)
                        Default sphere list used, NSphG=   31.
                        Lebedev-Laikov grids with approx.  5.0 points / Ang**2.
                        Smoothing algorithm: York/Karplus (Gamma=1.0000).
                        Polarization charges: spherical gaussians, with
                                              point-specific exponents (IZeta= 3).
                        Self-potential: point-specific (ISelfS= 7).
                        Self-field    : sphere-specific E.n sum rule (ISelfD= 2).
 1st derivatives      : Analytical E(r).r(x)/FMM algorithm (CHGder, D1EAlg=3).
                        Cavity 1st derivative terms included.
 Solvent              : Water, Eps=  78.355300 Eps(inf)=   1.777849
 ------------------------------------------------------------------------------
 One-electron integrals computed using PRISM.
 NBasis=   531 RedAO= T EigKep=  5.45D-06  NBF=   531
 NBsUse=   531 1.00D-06 EigRej= -1.00D+00 NBFU=   531
 ExpMin= 3.60D-02 ExpMax= 8.59D+03 ExpMxC= 1.30D+03 IAcc=3 IRadAn=         5 AccDes= 0.00D+00
 Harris functional with IExCor= 1009 and IRadAn=       5 diagonalized for initial guess.
 HarFok:  IExCor= 1009 AccDes= 0.00D+00 IRadAn=         5 IDoV= 1 UseB2=F ITyADJ=14
 ICtDFT=  3500011 ScaDFX=  1.000000  1.000000  1.000000  1.000000
 FoFCou: FMM=F IPFlag=           0 FMFlag=      100000 FMFlg1=           0
         NFxFlg=           0 DoJE=T BraDBF=F KetDBF=T FulRan=T
         wScrn=  0.000000 ICntrl=       500 IOpCl=  0 I1Cent=   200000004 NGrid=           0
         NMat0=    1 NMatS0=      1 NMatT0=    0 NMatD0=    1 NMtDS0=    0 NMtDT0=    0
 Petite list used in FoFCou.
 Requested convergence on RMS density matrix=1.00D-08 within 128 cycles.
 Requested convergence on MAX density matrix=1.00D-06.
 Requested convergence on             energy=1.00D-06.
 No special actions if energy rises.
 Inv3:  Mode=1 IEnd=    13179648.
 Iteration    1 A*A^-1 deviation from unit magnitude is 4.00D-15 for   2091.
 Iteration    1 A*A^-1 deviation from orthogonality  is 2.25D-15 for   2094    879.
 Iteration    1 A^-1*A deviation from unit magnitude is 3.77D-15 for   2091.
 Iteration    1 A^-1*A deviation from orthogonality  is 1.71D-15 for   1827    492.
 Error on total polarization charges =  0.01503
 SCF Done:  E(RM062X) =  -617.488297685     A.U. after   12 cycles
            NFock= 12  Conv=0.54D-08     -V/T= 2.0035

 **********************************************************************

            Population analysis using the SCF density.

 **********************************************************************

 Orbital symmetries:
       Occupied  (A) (A) (A) (A) (A) (A) (A) (A) (A) (A) (A) (A)
                 (A) (A) (A) (A) (A) (A) (A) (A) (A) (A) (A) (A)
                 (A) (A) (A) (A) (A) (A) (A) (A) (A) (A) (A) (A)
                 (A) (A) (A) (A) (A) (A) (A) (A) (A) (A) (A) (A)
                 (A) (A) (A)
       Virtual   (A) (A) (A) (A) (A) (A) (A) (A) (A) (A) (A) (A)
                 (A) (A) (A) (A) (A) (A) (A) (A) (A) (A) (A) (A)
                 (A) (A) (A) (A) (A) (A) (A) (A) (A) (A) (A) (A)
                 (A) (A) (A) (A) (A) (A) (A) (A) (A) (A) (A) (A)
                 (A) (A) (A) (A) (A) (A) (A) (A) (A) (A) (A) (A)
                 (A) (A) (A) (A) (A) (A) (A) (A) (A) (A) (A) (A)
                 (A) (A) (A) (A) (A) (A) (A) (A) (A) (A) (A) (A)
                 (A) (A) (A) (A) (A) (A) (A) (A) (A) (A) (A) (A)
                 (A) (A) (A) (A) (A) (A) (A) (A) (A) (A) (A) (A)
                 (A) (A) (A) (A) (A) (A) (A) (A) (A) (A) (A) (A)
                 (A) (A) (A) (A) (A) (A) (A) (A) (A) (A) (A) (A)
                 (A) (A) (A) (A) (A) (A) (A) (A) (A) (A) (A) (A)
                 (A) (A) (A) (A) (A) (A) (A) (A) (A) (A) (A) (A)
                 (A) (A) (A) (A) (A) (A) (A) (A) (A) (A) (A) (A)
                 (A) (A) (A) (A) (A) (A) (A) (A) (A) (A) (A) (A)
                 (A) (A) (A) (A) (A) (A) (A) (A) (A) (A) (A) (A)
                 (A) (A) (A) (A) (A) (A) (A) (A) (A) (A) (A) (A)
                 (A) (A) (A) (A) (A) (A) (A) (A) (A) (A) (A) (A)
                 (A) (A) (A) (A) (A) (A) (A) (A) (A) (A) (A) (A)
                 (A) (A) (A) (A) (A) (A) (A) (A) (A) (A) (A) (A)
                 (A) (A) (A) (A) (A) (A) (A) (A) (A) (A) (A) (A)
                 (A) (A) (A) (A) (A) (A) (A) (A) (A) (A) (A) (A)
                 (A) (A) (A) (A) (A) (A) (A) (A) (A) (A) (A) (A)
                 (A) (A) (A) (A) (A) (A) (A) (A) (A) (A) (A) (A)
                 (A) (A) (A) (A) (A) (A) (A) (A) (A) (A) (A) (A)
                 (A) (A) (A) (A) (A) (A) (A) (A) (A) (A) (A) (A)
                 (A) (A) (A) (A) (A) (A) (A) (A) (A) (A) (A) (A)
                 (A) (A) (A) (A) (A) (A) (A) (A) (A) (A) (A) (A)
                 (A) (A) (A) (A) (A) (A) (A) (A) (A) (A) (A) (A)
                 (A) (A) (A) (A) (A) (A) (A) (A) (A) (A) (A) (A)
                 (A) (A) (A) (A) (A) (A) (A) (A) (A) (A) (A) (A)
                 (A) (A) (A) (A) (A) (A) (A) (A) (A) (A) (A) (A)
                 (A) (A) (A) (A) (A) (A) (A) (A) (A) (A) (A) (A)
                 (A) (A) (A) (A) (A) (A) (A) (A) (A) (A) (A) (A)
                 (A) (A) (A) (A) (A) (A) (A) (A) (A) (A) (A) (A)
                 (A) (A) (A) (A) (A) (A) (A) (A) (A) (A) (A) (A)
                 (A) (A) (A) (A) (A) (A) (A) (A) (A) (A) (A) (A)
                 (A) (A) (A) (A) (A) (A) (A) (A) (A) (A) (A) (A)
                 (A) (A) (A) (A) (A) (A) (A) (A) (A) (A) (A) (A)
                 (A) (A) (A) (A) (A) (A) (A) (A) (A) (A) (A) (A)
 The electronic state is 1-A.
 Alpha  occ. eigenvalues --  -19.63404 -19.62730 -19.62315 -10.63605 -10.58470
 Alpha  occ. eigenvalues --  -10.58137 -10.57761 -10.57415 -10.53245 -10.53054
 Alpha  occ. eigenvalues --  -10.53052 -10.52992 -10.52960  -1.20021  -1.16566
 Alpha  occ. eigenvalues --   -1.13589  -0.90944  -0.89901  -0.87359  -0.84424
 Alpha  occ. eigenvalues --   -0.75322  -0.74641  -0.73635  -0.69927  -0.65687
 Alpha  occ. eigenvalues --   -0.62905  -0.60319  -0.59397  -0.57993  -0.57065
 Alpha  occ. eigenvalues --   -0.55302  -0.53039  -0.51743  -0.50824  -0.49755
 Alpha  occ. eigenvalues --   -0.47570  -0.46658  -0.45568  -0.45354  -0.44586
 Alpha  occ. eigenvalues --   -0.44295  -0.43841  -0.40849  -0.40315  -0.39297
 Alpha  occ. eigenvalues --   -0.38999  -0.37157  -0.36613  -0.34536  -0.34137
 Alpha  occ. eigenvalues --   -0.30777
 Alpha virt. eigenvalues --   -0.00169   0.00720   0.00890   0.01110   0.02149
 Alpha virt. eigenvalues --    0.02412   0.02603   0.03518   0.03546   0.04313
 Alpha virt. eigenvalues --    0.04492   0.04649   0.05541   0.05836   0.06863
 Alpha virt. eigenvalues --    0.07195   0.07711   0.08112   0.08720   0.09060
 Alpha virt. eigenvalues --    0.09987   0.10243   0.11142   0.11580   0.12037
 Alpha virt. eigenvalues --    0.12237   0.12591   0.12695   0.13101   0.13224
 Alpha virt. eigenvalues --    0.13477   0.13689   0.14324   0.14512   0.15062
 Alpha virt. eigenvalues --    0.15336   0.15443   0.15770   0.16036   0.16320
 Alpha virt. eigenvalues --    0.16474   0.16888   0.17252   0.17390   0.18084
 Alpha virt. eigenvalues --    0.18253   0.18693   0.18993   0.19153   0.19394
 Alpha virt. eigenvalues --    0.19738   0.19970   0.20405   0.21120   0.21492
 Alpha virt. eigenvalues --    0.21843   0.22697   0.22950   0.23982   0.24549
 Alpha virt. eigenvalues --    0.24751   0.25460   0.25619   0.26453   0.26900
 Alpha virt. eigenvalues --    0.27019   0.27873   0.28723   0.29129   0.29357
 Alpha virt. eigenvalues --    0.29491   0.30231   0.30539   0.30865   0.31593
 Alpha virt. eigenvalues --    0.31661   0.33425   0.33508   0.34089   0.34313
 Alpha virt. eigenvalues --    0.34448   0.34952   0.35215   0.35792   0.36456
 Alpha virt. eigenvalues --    0.36528   0.37292   0.37544   0.38182   0.38354
 Alpha virt. eigenvalues --    0.38738   0.39040   0.39533   0.40951   0.41699
 Alpha virt. eigenvalues --    0.42160   0.42543   0.43192   0.43982   0.44646
 Alpha virt. eigenvalues --    0.47052   0.48540   0.49406   0.50161   0.51328
 Alpha virt. eigenvalues --    0.51751   0.51943   0.53628   0.53886   0.55064
 Alpha virt. eigenvalues --    0.55877   0.56869   0.57795   0.58920   0.59441
 Alpha virt. eigenvalues --    0.59700   0.60265   0.60538   0.60935   0.61364
 Alpha virt. eigenvalues --    0.61796   0.61975   0.62720   0.63008   0.64235
 Alpha virt. eigenvalues --    0.64879   0.65354   0.65828   0.66869   0.67243
 Alpha virt. eigenvalues --    0.67985   0.68427   0.69356   0.69515   0.70149
 Alpha virt. eigenvalues --    0.70571   0.70787   0.71456   0.72677   0.73017
 Alpha virt. eigenvalues --    0.73681   0.74249   0.74495   0.75375   0.75886
 Alpha virt. eigenvalues --    0.76225   0.76730   0.77219   0.77966   0.79240
 Alpha virt. eigenvalues --    0.80840   0.82554   0.82813   0.84374   0.85097
 Alpha virt. eigenvalues --    0.85685   0.87305   0.88163   0.89183   0.89824
 Alpha virt. eigenvalues --    0.90437   0.91582   0.92781   0.93827   0.95571
 Alpha virt. eigenvalues --    0.96318   0.98947   1.00039   1.00759   1.01162
 Alpha virt. eigenvalues --    1.02657   1.04482   1.05310   1.06487   1.07117
 Alpha virt. eigenvalues --    1.07282   1.08037   1.09752   1.10041   1.12552
 Alpha virt. eigenvalues --    1.12823   1.12916   1.15179   1.15391   1.16055
 Alpha virt. eigenvalues --    1.17462   1.18163   1.18480   1.19155   1.20052
 Alpha virt. eigenvalues --    1.21226   1.21850   1.23328   1.23540   1.24264
 Alpha virt. eigenvalues --    1.25516   1.25732   1.26280   1.27409   1.28431
 Alpha virt. eigenvalues --    1.28827   1.29444   1.30225   1.30902   1.31589
 Alpha virt. eigenvalues --    1.32251   1.32261   1.32470   1.33462   1.33559
 Alpha virt. eigenvalues --    1.35414   1.35902   1.36439   1.37239   1.37715
 Alpha virt. eigenvalues --    1.38343   1.38959   1.39449   1.41290   1.41701
 Alpha virt. eigenvalues --    1.42139   1.42855   1.43989   1.44972   1.45785
 Alpha virt. eigenvalues --    1.46310   1.46535   1.47394   1.48107   1.48702
 Alpha virt. eigenvalues --    1.48882   1.49657   1.50381   1.50855   1.51175
 Alpha virt. eigenvalues --    1.52712   1.53869   1.53994   1.54757   1.55257
 Alpha virt. eigenvalues --    1.55878   1.56886   1.57856   1.58048   1.59247
 Alpha virt. eigenvalues --    1.60113   1.60487   1.61079   1.61749   1.62518
 Alpha virt. eigenvalues --    1.62806   1.63848   1.64404   1.65591   1.66052
 Alpha virt. eigenvalues --    1.68168   1.68425   1.69506   1.70838   1.71248
 Alpha virt. eigenvalues --    1.72830   1.73394   1.75098   1.75800   1.77329
 Alpha virt. eigenvalues --    1.78345   1.79051   1.80138   1.82125   1.85159
 Alpha virt. eigenvalues --    1.87155   1.88216   1.89529   1.91530   1.97897
 Alpha virt. eigenvalues --    1.99182   2.06350   2.07311   2.11736   2.20457
 Alpha virt. eigenvalues --    2.23804   2.25901   2.27622   2.33765   2.39332
 Alpha virt. eigenvalues --    2.41028   2.45592   2.46205   2.50190   2.52929
 Alpha virt. eigenvalues --    2.55564   2.75381   2.76304   2.80599   2.82299
 Alpha virt. eigenvalues --    2.86275   2.88767   2.90009   2.92865   2.94111
 Alpha virt. eigenvalues --    2.95606   2.98313   3.00865   3.02131   3.03471
 Alpha virt. eigenvalues --    3.05359   3.06412   3.08039   3.08791   3.12163
 Alpha virt. eigenvalues --    3.13658   3.16286   3.17496   3.17714   3.20699
 Alpha virt. eigenvalues --    3.22291   3.28597   3.30685   3.31573   3.32686
 Alpha virt. eigenvalues --    3.35720   3.36200   3.38210   3.39813   3.40552
 Alpha virt. eigenvalues --    3.42687   3.43003   3.44614   3.45467   3.45803
 Alpha virt. eigenvalues --    3.47138   3.48327   3.49012   3.49991   3.50449
 Alpha virt. eigenvalues --    3.51362   3.53688   3.53953   3.55551   3.56268
 Alpha virt. eigenvalues --    3.56641   3.58033   3.58330   3.59227   3.59474
 Alpha virt. eigenvalues --    3.59631   3.60381   3.62571   3.62836   3.64218
 Alpha virt. eigenvalues --    3.66559   3.67140   3.68484   3.69506   3.69963
 Alpha virt. eigenvalues --    3.71254   3.71504   3.72498   3.73093   3.74245
 Alpha virt. eigenvalues --    3.74978   3.76483   3.76688   3.77715   3.79387
 Alpha virt. eigenvalues --    3.79691   3.80180   3.81627   3.84354   3.85439
 Alpha virt. eigenvalues --    3.87203   3.87779   3.87986   3.89609   3.91602
 Alpha virt. eigenvalues --    3.92429   3.92780   3.95587   3.96881   3.98157
 Alpha virt. eigenvalues --    3.98967   4.01138   4.02660   4.03081   4.03932
 Alpha virt. eigenvalues --    4.04498   4.05888   4.06120   4.06847   4.07798
 Alpha virt. eigenvalues --    4.08817   4.09101   4.09659   4.09952   4.11037
 Alpha virt. eigenvalues --    4.12073   4.14442   4.15258   4.15570   4.16607
 Alpha virt. eigenvalues --    4.17331   4.18637   4.19249   4.20344   4.21095
 Alpha virt. eigenvalues --    4.22409   4.23582   4.24865   4.25540   4.26100
 Alpha virt. eigenvalues --    4.27855   4.29141   4.29794   4.30335   4.31705
 Alpha virt. eigenvalues --    4.32867   4.33483   4.35502   4.37136   4.39505
 Alpha virt. eigenvalues --    4.40004   4.42688   4.45199   4.47121   4.51322
 Alpha virt. eigenvalues --    4.57522   4.59195   4.75015   4.77338   4.82813
 Alpha virt. eigenvalues --    4.83060   4.92706   4.94471   4.99747   5.01453
 Alpha virt. eigenvalues --    5.02871   5.06950   5.08587   5.12029   5.12728
 Alpha virt. eigenvalues --    5.14229   5.15190   5.18686   5.31016   5.40541
 Alpha virt. eigenvalues --    5.40683   5.56726   5.59039   5.64061   5.85254
 Alpha virt. eigenvalues --    5.87682   6.04315   7.00407   7.04640   7.06075
 Alpha virt. eigenvalues --    7.09212   7.10165   7.12935   7.14935   7.21360
 Alpha virt. eigenvalues --    7.25558   7.37029   7.39997   7.45818   7.53603
 Alpha virt. eigenvalues --    7.54934   7.58027  23.95182  23.99904  24.04036
 Alpha virt. eigenvalues --   24.07322  24.10902  24.11367  24.13631  24.16094
 Alpha virt. eigenvalues --   24.16685  24.21200  50.17750  50.18074  50.22264
          Condensed to atoms (all electrons):
               1          2          3          4          5          6
     1  C    7.325831   0.034384  -0.717437   0.077784  -0.007550  -1.019311
     2  C    0.034384   6.154228   0.168541  -0.239023  -0.208910  -0.039172
     3  C   -0.717437   0.168541   6.849119  -0.370861  -0.088633   0.191161
     4  C    0.077784  -0.239023  -0.370861   5.647347   0.230641  -0.049557
     5  C   -0.007550  -0.208910  -0.088633   0.230641   5.632946   0.008195
     6  C   -1.019311  -0.039172   0.191161  -0.049557   0.008195   6.962819
     7  C   -0.285384   0.038995   0.004449   0.019571  -0.004963  -0.414426
     8  C    0.023166   0.001207  -0.030306  -0.006563  -0.002244   0.021979
     9  O    0.028257   0.000036  -0.006621  -0.001636  -0.000195  -0.012702
    10  C   -0.012960   0.005366  -0.023639  -0.006287  -0.003054   0.069397
    11  O    0.264680   0.036512   0.293653   0.020194  -0.009334  -0.301242
    12  C    0.088631  -0.149745  -0.554456  -0.049554   0.071662  -0.015021
    13  O   -0.036428  -0.039867   0.294416   0.042954  -0.040119   0.028011
    14  H    0.332398  -0.041602  -0.078094   0.004452  -0.002956   0.137794
    15  H    0.001633   0.446158   0.012192  -0.070771  -0.059182   0.001656
    16  H   -0.000626   0.483915  -0.008300  -0.042805  -0.069228  -0.002223
    17  H   -0.022543   0.010694   0.554720  -0.054392  -0.034570   0.017778
    18  H    0.004492  -0.005346  -0.003820   0.433658  -0.003360  -0.006619
    19  H   -0.003624  -0.082358   0.039797   0.468577   0.002761   0.009469
    20  H   -0.005134  -0.085717  -0.016544   0.007792   0.480252  -0.000587
    21  H    0.001326  -0.053243  -0.009617   0.015583   0.439780   0.000489
    22  H   -0.028948   0.000339   0.002591  -0.000919  -0.000053   0.411629
    23  H    0.001811   0.001105  -0.008195   0.001962  -0.000661   0.442859
    24  H   -0.095442  -0.001533   0.002716  -0.001236  -0.001061   0.037256
    25  H   -0.005883   0.000924   0.007507  -0.000075  -0.000165  -0.031899
    26  H    0.063977  -0.000089   0.001907  -0.000125   0.000092  -0.051293
    27  H   -0.013242   0.000148  -0.001494  -0.000140  -0.000139   0.024753
    28  H    0.001875  -0.000083   0.000277  -0.000683  -0.000058  -0.025148
    29  H    0.021791   0.001419  -0.001595   0.002885   0.000248  -0.086185
    30  H   -0.013793  -0.010677   0.017396  -0.013431  -0.048875  -0.001754
    31  H   -0.003740   0.006024  -0.061656   0.005049  -0.010993  -0.004463
               7          8          9         10         11         12
     1  C   -0.285384   0.023166   0.028257  -0.012960   0.264680   0.088631
     2  C    0.038995   0.001207   0.000036   0.005366   0.036512  -0.149745
     3  C    0.004449  -0.030306  -0.006621  -0.023639   0.293653  -0.554456
     4  C    0.019571  -0.006563  -0.001636  -0.006287   0.020194  -0.049554
     5  C   -0.004963  -0.002244  -0.000195  -0.003054  -0.009334   0.071662
     6  C   -0.414426   0.021979  -0.012702   0.069397  -0.301242  -0.015021
     7  C    6.353083  -0.237056   0.167818   0.047639  -0.077435   0.004877
     8  C   -0.237056   5.412119   0.100586   0.074674   0.014770  -0.005565
     9  O    0.167818   0.100586   8.298681  -0.018969   0.006144   0.001531
    10  C    0.047639   0.074674  -0.018969   5.441827  -0.009341  -0.000182
    11  O   -0.077435   0.014770   0.006144  -0.009341   8.388036  -0.230286
    12  C    0.004877  -0.005565   0.001531  -0.000182  -0.230286   6.204619
    13  O   -0.025569  -0.001405  -0.000253   0.004218  -0.028297  -0.038930
    14  H   -0.142342   0.053295  -0.031323  -0.037606  -0.018099   0.031579
    15  H   -0.001908   0.000069  -0.000023  -0.000011  -0.001269   0.034583
    16  H    0.002663  -0.000010   0.000011  -0.000054   0.002123  -0.000950
    17  H    0.010690  -0.000548   0.000544   0.001029  -0.096906  -0.084001
    18  H    0.005263   0.000292   0.000537  -0.000359   0.003038  -0.007690
    19  H   -0.010108  -0.000350   0.001935   0.001946  -0.000638  -0.007588
    20  H    0.000139   0.000015  -0.000012   0.000009   0.001492  -0.015632
    21  H   -0.000102  -0.000079  -0.000000  -0.000082  -0.003459  -0.032155
    22  H    0.015895   0.004201  -0.002093  -0.003670   0.003530  -0.003227
    23  H   -0.006688  -0.025062   0.000655  -0.047476  -0.002094   0.004749
    24  H    0.434178   0.015213  -0.067320   0.001401  -0.000642  -0.001447
    25  H    0.420440  -0.008491  -0.041563   0.009756   0.007241  -0.000778
    26  H   -0.032596   0.457290  -0.048676  -0.025263  -0.000516  -0.000359
    27  H    0.008626   0.439017  -0.072765  -0.052866   0.000974   0.000006
    28  H   -0.016878  -0.027592   0.008282   0.425256  -0.003182  -0.000157
    29  H    0.034175  -0.103486  -0.001828   0.528956  -0.000387   0.001227
    30  H   -0.004285  -0.000502  -0.000199  -0.002181  -0.015708   0.466876
    31  H    0.003383  -0.000024   0.000003   0.000222   0.001433   0.439126
              13         14         15         16         17         18
     1  C   -0.036428   0.332398   0.001633  -0.000626  -0.022543   0.004492
     2  C   -0.039867  -0.041602   0.446158   0.483915   0.010694  -0.005346
     3  C    0.294416  -0.078094   0.012192  -0.008300   0.554720  -0.003820
     4  C    0.042954   0.004452  -0.070771  -0.042805  -0.054392   0.433658
     5  C   -0.040119  -0.002956  -0.059182  -0.069228  -0.034570  -0.003360
     6  C    0.028011   0.137794   0.001656  -0.002223   0.017778  -0.006619
     7  C   -0.025569  -0.142342  -0.001908   0.002663   0.010690   0.005263
     8  C   -0.001405   0.053295   0.000069  -0.000010  -0.000548   0.000292
     9  O   -0.000253  -0.031323  -0.000023   0.000011   0.000544   0.000537
    10  C    0.004218  -0.037606  -0.000011  -0.000054   0.001029  -0.000359
    11  O   -0.028297  -0.018099  -0.001269   0.002123  -0.096906   0.003038
    12  C   -0.038930   0.031579   0.034583  -0.000950  -0.084001  -0.007690
    13  O    8.228220   0.030901  -0.008599   0.011065  -0.066000  -0.060954
    14  H    0.030901   0.577547   0.003068  -0.000989  -0.001437  -0.005100
    15  H   -0.008599   0.003068   0.515759  -0.021569   0.006430  -0.011445
    16  H    0.011065  -0.000989  -0.021569   0.499724  -0.002204  -0.000745
    17  H   -0.066000  -0.001437   0.006430  -0.002204   0.532250  -0.003971
    18  H   -0.060954  -0.005100  -0.011445  -0.000745  -0.003971   0.460262
    19  H   -0.029132  -0.013672   0.006436  -0.004993   0.003433  -0.005729
    20  H    0.002848  -0.000140  -0.009888   0.005277  -0.001929  -0.001670
    21  H   -0.001869   0.000700  -0.002762  -0.003504  -0.002344   0.000903
    22  H   -0.000655  -0.008292   0.000060   0.000177   0.001711   0.000119
    23  H    0.000575  -0.002754  -0.000057   0.000007  -0.001478   0.000114
    24  H    0.002575   0.016955   0.000061   0.000101  -0.003980  -0.000895
    25  H   -0.001510  -0.023132  -0.000180   0.000076  -0.000828   0.000372
    26  H   -0.000277  -0.010989   0.000004  -0.000013   0.000215   0.000012
    27  H   -0.000009   0.004638  -0.000001   0.000005  -0.000100   0.000010
    28  H    0.000278   0.003562   0.000008  -0.000024   0.000033  -0.000062
    29  H   -0.000059  -0.036509  -0.000081   0.000011   0.000033   0.000187
    30  H   -0.001334   0.003289  -0.002090  -0.000897   0.005570  -0.003173
    31  H    0.006815   0.000059   0.000150  -0.000297  -0.013880   0.001275
              19         20         21         22         23         24
     1  C   -0.003624  -0.005134   0.001326  -0.028948   0.001811  -0.095442
     2  C   -0.082358  -0.085717  -0.053243   0.000339   0.001105  -0.001533
     3  C    0.039797  -0.016544  -0.009617   0.002591  -0.008195   0.002716
     4  C    0.468577   0.007792   0.015583  -0.000919   0.001962  -0.001236
     5  C    0.002761   0.480252   0.439780  -0.000053  -0.000661  -0.001061
     6  C    0.009469  -0.000587   0.000489   0.411629   0.442859   0.037256
     7  C   -0.010108   0.000139  -0.000102   0.015895  -0.006688   0.434178
     8  C   -0.000350   0.000015  -0.000079   0.004201  -0.025062   0.015213
     9  O    0.001935  -0.000012  -0.000000  -0.002093   0.000655  -0.067320
    10  C    0.001946   0.000009  -0.000082  -0.003670  -0.047476   0.001401
    11  O   -0.000638   0.001492  -0.003459   0.003530  -0.002094  -0.000642
    12  C   -0.007588  -0.015632  -0.032155  -0.003227   0.004749  -0.001447
    13  O   -0.029132   0.002848  -0.001869  -0.000655   0.000575   0.002575
    14  H   -0.013672  -0.000140   0.000700  -0.008292  -0.002754   0.016955
    15  H    0.006436  -0.009888  -0.002762   0.000060  -0.000057   0.000061
    16  H   -0.004993   0.005277  -0.003504   0.000177   0.000007   0.000101
    17  H    0.003433  -0.001929  -0.002344   0.001711  -0.001478  -0.003980
    18  H   -0.005729  -0.001670   0.000903   0.000119   0.000114  -0.000895
    19  H    0.492231   0.001158  -0.003062  -0.000602  -0.000859  -0.002036
    20  H    0.001158   0.487212  -0.008648   0.000053   0.000029   0.000074
    21  H   -0.003062  -0.008648   0.489476  -0.000020   0.000016   0.000084
    22  H   -0.000602   0.000053  -0.000020   0.484728  -0.015649  -0.000592
    23  H   -0.000859   0.000029   0.000016  -0.015649   0.458716  -0.002729
    24  H   -0.002036   0.000074   0.000084  -0.000592  -0.002729   0.478183
    25  H    0.001981   0.000195  -0.000131  -0.001694  -0.000314  -0.020830
    26  H    0.000465  -0.000000   0.000004  -0.000374  -0.003181  -0.004603
    27  H   -0.000244   0.000004  -0.000004   0.000865  -0.001083   0.003595
    28  H    0.000148  -0.000005   0.000000  -0.012560  -0.006089   0.002304
    29  H    0.001061  -0.000001  -0.000004  -0.002946   0.005535  -0.003667
    30  H   -0.008999   0.002108  -0.002755  -0.003339   0.001207  -0.000145
    31  H   -0.001303  -0.002579  -0.008096   0.000326  -0.000322  -0.000240
              25         26         27         28         29         30
     1  C   -0.005883   0.063977  -0.013242   0.001875   0.021791  -0.013793
     2  C    0.000924  -0.000089   0.000148  -0.000083   0.001419  -0.010677
     3  C    0.007507   0.001907  -0.001494   0.000277  -0.001595   0.017396
     4  C   -0.000075  -0.000125  -0.000140  -0.000683   0.002885  -0.013431
     5  C   -0.000165   0.000092  -0.000139  -0.000058   0.000248  -0.048875
     6  C   -0.031899  -0.051293   0.024753  -0.025148  -0.086185  -0.001754
     7  C    0.420440  -0.032596   0.008626  -0.016878   0.034175  -0.004285
     8  C   -0.008491   0.457290   0.439017  -0.027592  -0.103486  -0.000502
     9  O   -0.041563  -0.048676  -0.072765   0.008282  -0.001828  -0.000199
    10  C    0.009756  -0.025263  -0.052866   0.425256   0.528956  -0.002181
    11  O    0.007241  -0.000516   0.000974  -0.003182  -0.000387  -0.015708
    12  C   -0.000778  -0.000359   0.000006  -0.000157   0.001227   0.466876
    13  O   -0.001510  -0.000277  -0.000009   0.000278  -0.000059  -0.001334
    14  H   -0.023132  -0.010989   0.004638   0.003562  -0.036509   0.003289
    15  H   -0.000180   0.000004  -0.000001   0.000008  -0.000081  -0.002090
    16  H    0.000076  -0.000013   0.000005  -0.000024   0.000011  -0.000897
    17  H   -0.000828   0.000215  -0.000100   0.000033   0.000033   0.005570
    18  H    0.000372   0.000012   0.000010  -0.000062   0.000187  -0.003173
    19  H    0.001981   0.000465  -0.000244   0.000148   0.001061  -0.008999
    20  H    0.000195  -0.000000   0.000004  -0.000005  -0.000001   0.002108
    21  H   -0.000131   0.000004  -0.000004   0.000000  -0.000004  -0.002755
    22  H   -0.001694  -0.000374   0.000865  -0.012560  -0.002946  -0.003339
    23  H   -0.000314  -0.003181  -0.001083  -0.006089   0.005535   0.001207
    24  H   -0.020830  -0.004603   0.003595   0.002304  -0.003667  -0.000145
    25  H    0.488725   0.009995  -0.002825  -0.001916   0.004254  -0.000612
    26  H    0.009995   0.498980  -0.007503   0.003037   0.004674  -0.000094
    27  H   -0.002825  -0.007503   0.474548  -0.007254  -0.005424   0.000007
    28  H   -0.001916   0.003037  -0.007254   0.482308  -0.010756   0.000020
    29  H    0.004254   0.004674  -0.005424  -0.010756   0.483867  -0.000014
    30  H   -0.000612  -0.000094   0.000007   0.000020  -0.000014   0.460925
    31  H    0.000348   0.000010  -0.000000  -0.000020  -0.000033  -0.011886
              31
     1  C   -0.003740
     2  C    0.006024
     3  C   -0.061656
     4  C    0.005049
     5  C   -0.010993
     6  C   -0.004463
     7  C    0.003383
     8  C   -0.000024
     9  O    0.000003
    10  C    0.000222
    11  O    0.001433
    12  C    0.439126
    13  O    0.006815
    14  H    0.000059
    15  H    0.000150
    16  H   -0.000297
    17  H   -0.013880
    18  H    0.001275
    19  H   -0.001303
    20  H   -0.002579
    21  H   -0.008096
    22  H    0.000326
    23  H   -0.000322
    24  H   -0.000240
    25  H    0.000348
    26  H    0.000010
    27  H   -0.000000
    28  H   -0.000020
    29  H   -0.000033
    30  H   -0.011886
    31  H    0.467644
 Mulliken charges:
               1
     1  C    0.000006
     2  C   -0.432629
     3  C   -0.459173
     4  C   -0.070392
     5  C   -0.270274
     6  C   -0.303642
     7  C   -0.312145
     8  C   -0.168609
     9  O   -0.308842
    10  C   -0.367697
    11  O   -0.244983
    12  C   -0.151747
    13  O   -0.271608
    14  H    0.254801
    15  H    0.161567
    16  H    0.154275
    17  H    0.245981
    18  H    0.210404
    19  H    0.143899
    20  H    0.159829
    21  H    0.183573
    22  H    0.159410
    23  H    0.205351
    24  H    0.213703
    25  H    0.191012
    26  H    0.145289
    27  H    0.207897
    28  H    0.185082
    29  H    0.162651
    30  H    0.189347
    31  H    0.187663
 Sum of Mulliken charges =  -0.00000
 Mulliken charges with hydrogens summed into heavy atoms:
               1
     1  C    0.254807
     2  C   -0.116787
     3  C   -0.213192
     4  C    0.283911
     5  C    0.073127
     6  C    0.061119
     7  C    0.092570
     8  C    0.184577
     9  O   -0.308842
    10  C   -0.019963
    11  O   -0.244983
    12  C    0.225264
    13  O   -0.271608
 Electronic spatial extent (au):  <R**2>=           3126.4982
 Charge=             -0.0000 electrons
 Dipole moment (field-independent basis, Debye):
    X=              1.7482    Y=              1.5945    Z=              2.0277  Tot=              3.1161
 Quadrupole moment (field-independent basis, Debye-Ang):
   XX=            -70.1969   YY=            -85.3033   ZZ=            -77.5019
   XY=             -4.9914   XZ=             -0.5518   YZ=             -1.4635
 Traceless Quadrupole moment (field-independent basis, Debye-Ang):
   XX=              7.4705   YY=             -7.6359   ZZ=              0.1654
   XY=             -4.9914   XZ=             -0.5518   YZ=             -1.4635
 Octapole moment (field-independent basis, Debye-Ang**2):
  XXX=             -4.2475  YYY=             -2.2772  ZZZ=             -4.4788  XYY=             11.3693
  XXY=             18.6248  XXZ=             11.1568  XZZ=              1.7275  YZZ=             -1.4375
  YYZ=              4.5911  XYZ=             -0.9392
 Hexadecapole moment (field-independent basis, Debye-Ang**3):
 XXXX=          -3126.5361 YYYY=           -517.2963 ZZZZ=           -376.3330 XXXY=            -33.5276
 XXXZ=            -21.6814 YYYX=            -16.7162 YYYZ=             -5.9790 ZZZX=              3.1440
 ZZZY=              0.8295 XXYY=           -647.4400 XXZZ=           -601.0175 YYZZ=           -148.3779
 XXYZ=            -17.3897 YYXZ=             -3.0488 ZZXY=              1.1884
 N-N= 8.904788667971D+02 E-N=-3.222842860243D+03  KE= 6.153426962930D+02
 D1PCM: PCM CHGder 1st derivatives, ID1Alg=3 FixD1E=F DoIter=F DoCFld=F I1PDM=0.
 Calling FoFJK, ICntrl=      2127 FMM=F ISym2X=0 I1Cent= 0 IOpClX= 0 NMat=1 NMatS=1 NMatT=0.
 ***** Axes restored to original set *****
 -------------------------------------------------------------------
 Center     Atomic                   Forces (Hartrees/Bohr)
 Number     Number              X              Y              Z
 -------------------------------------------------------------------
      1        6          -0.000259993   -0.002036418   -0.006247994
      2        6           0.001219531   -0.001469439   -0.000568825
      3        6          -0.001879269    0.002316741    0.005642143
      4        6          -0.002892552   -0.004024934   -0.003358540
      5        6           0.003057230    0.000657268    0.001561034
      6        6           0.001172607    0.004487260    0.000291671
      7        6           0.002861628   -0.001620445    0.006868733
      8        6          -0.006486515   -0.001723906    0.001805865
      9        8           0.001576011    0.009321354    0.000724937
     10        6          -0.000337007   -0.001047008   -0.002671355
     11        8           0.003197246   -0.012368533    0.001860377
     12        6          -0.001937257    0.002478718   -0.001582906
     13        8           0.002984906    0.007465303   -0.003955041
     14        1          -0.001691037    0.005562861    0.005153414
     15        1          -0.001125156    0.002123363   -0.001111084
     16        1          -0.001165572   -0.000907817    0.002610380
     17        1          -0.001745904    0.000678620   -0.007460530
     18        1           0.000485677    0.004175428    0.001226601
     19        1           0.002225630   -0.003717362    0.004932439
     20        1          -0.000254571    0.001179793   -0.002916807
     21        1          -0.001838795   -0.001411387    0.000886359
     22        1          -0.001896477   -0.001407379    0.001915209
     23        1           0.000553182   -0.001799124   -0.003375725
     24        1          -0.004393255    0.003303989   -0.001203228
     25        1           0.000605800   -0.005253744   -0.004048673
     26        1           0.001940309   -0.004415846   -0.003957838
     27        1           0.003227752    0.002412411    0.001726727
     28        1           0.001751114   -0.002179666    0.001122553
     29        1          -0.000950365    0.002281782    0.002087641
     30        1           0.002093811   -0.000527053    0.003524980
     31        1          -0.000098710   -0.002534832   -0.001482519
 -------------------------------------------------------------------
 Cartesian Forces:  Max     0.012368533 RMS     0.003342568

 GradGradGradGradGradGradGradGradGradGradGradGradGradGradGradGradGradGrad
 Berny optimization.
 FormGI is forming the generalized inverse of G from B-inverse, IUseBI=4.
 Internal  Forces:  Max     0.015851483 RMS     0.002155595
 Search for a local minimum.
 Step number   1 out of a maximum of  186
 All quantities printed in internal units (Hartrees-Bohrs-Radians)
 Mixed Optimization -- RFO/linear search
 Second derivative matrix not updated -- first step.
 ITU=  0
     Eigenvalues ---    0.00394   0.00648   0.00733   0.00734   0.01389
     Eigenvalues ---    0.01439   0.01498   0.02677   0.02793   0.03166
     Eigenvalues ---    0.03172   0.04063   0.04374   0.04425   0.04802
     Eigenvalues ---    0.04848   0.04956   0.04991   0.05139   0.05151
     Eigenvalues ---    0.05182   0.05545   0.05736   0.05957   0.06155
     Eigenvalues ---    0.06387   0.06512   0.06782   0.07599   0.07838
     Eigenvalues ---    0.07885   0.07932   0.07958   0.08001   0.08081
     Eigenvalues ---    0.08518   0.09345   0.09452   0.10867   0.11615
     Eigenvalues ---    0.11618   0.11708   0.11713   0.12488   0.12635
     Eigenvalues ---    0.14553   0.15753   0.16629   0.17447   0.19074
     Eigenvalues ---    0.20602   0.21765   0.22336   0.25000   0.27134
     Eigenvalues ---    0.27637   0.28502   0.28706   0.28769   0.29341
     Eigenvalues ---    0.29656   0.30117   0.35039   0.35073   0.35085
     Eigenvalues ---    0.35144   0.35218   0.35273   0.35285   0.35311
     Eigenvalues ---    0.35340   0.35386   0.35467   0.35470   0.35582
     Eigenvalues ---    0.35819   0.35830   0.35904   0.35924   0.35937
     Eigenvalues ---    0.39761   0.41513   0.42183   0.43161   0.43280
     Eigenvalues ---    0.441651000.000001000.000001000.000001000.00000
     Eigenvalues --- 1000.000001000.000001000.000001000.000001000.00000
     Eigenvalues --- 1000.000001000.000001000.000001000.000001000.00000
     Eigenvalues --- 1000.000001000.000001000.000001000.000001000.00000
     Eigenvalues --- 1000.000001000.000001000.000001000.000001000.00000
     Eigenvalues --- 1000.000001000.000001000.000001000.000001000.00000
     Eigenvalues --- 1000.000001000.000001000.000001000.000001000.00000
     Eigenvalues --- 1000.000001000.000001000.000001000.000001000.00000
     Eigenvalues --- 1000.000001000.000001000.000001000.000001000.00000
     Eigenvalues --- 1000.000001000.000001000.000001000.000001000.00000
     Eigenvalues --- 1000.000001000.000001000.000001000.000001000.00000
     Eigenvalues --- 1000.000001000.000001000.000001000.000001000.00000
     Eigenvalues --- 1000.000001000.000001000.000001000.000001000.00000
     Eigenvalues --- 1000.000001000.000001000.000001000.000001000.00000
     Eigenvalues --- 1000.000001000.000001000.000001000.000001000.00000
     Eigenvalues --- 1000.000001000.000001000.000001000.000001000.00000
     Eigenvalues --- 1000.000001000.000001000.000001000.000001000.00000
     Eigenvalues --- 1000.000001000.000001000.000001000.000001000.00000
     Eigenvalues --- 1000.000001000.000001000.000001000.000001000.00000
     Eigenvalues --- 1000.000001000.000001000.000001000.000001000.00000
 RFO step:  Lambda=-3.52086909D-03 EMin= 3.94480622D-03
 Linear search not attempted -- first point.
 Iteration  1 RMS(Cart)=  0.06862625 RMS(Int)=  0.00097400
 Iteration  2 RMS(Cart)=  0.00257442 RMS(Int)=  0.00005080
 Iteration  3 RMS(Cart)=  0.00000270 RMS(Int)=  0.00005078
 Iteration  4 RMS(Cart)=  0.00000000 RMS(Int)=  0.00005078
 Iteration  1 RMS(Cart)=  0.00002246 RMS(Int)=  0.00000518
 Iteration  2 RMS(Cart)=  0.00001179 RMS(Int)=  0.00000579
 Iteration  3 RMS(Cart)=  0.00000619 RMS(Int)=  0.00000651
 Iteration  4 RMS(Cart)=  0.00000325 RMS(Int)=  0.00000696
 Iteration  5 RMS(Cart)=  0.00000170 RMS(Int)=  0.00000722
 Iteration  6 RMS(Cart)=  0.00000089 RMS(Int)=  0.00000736
 Variable       Old X    -DE/DX   Delta X   Delta X   Delta X     New X
                                 (Linear)    (Quad)   (Total)
    R1        2.87749  -0.00207   0.00000  -0.00663  -0.00666   2.87083
    R2        2.88327  -0.00087   0.00000  -0.00261  -0.00261   2.88066
    R3        2.67325   0.00124   0.00000   0.00284   0.00284   2.67610
    R4        2.04232   0.00763   0.00000   0.02104   0.02104   2.06336
    R5        2.88626   0.00089   0.00000   0.00210   0.00212   2.88837
    R6        2.91339  -0.00019   0.00000  -0.00259  -0.00258   2.91081
    R7        2.05052   0.00263   0.00000   0.00735   0.00735   2.05787
    R8        2.05234   0.00297   0.00000   0.00835   0.00835   2.06069
    R9        2.67472   0.00374   0.00000   0.00860   0.00860   2.68331
   R10        2.87749  -0.00046   0.00000  -0.00030  -0.00028   2.87721
   R11        2.63908   0.00344   0.00000   0.00864   0.00865   2.64773
   R12        2.04348   0.00765   0.00000   0.02114   0.02114   2.06462
   R13        2.68643   0.00340   0.00000   0.00831   0.00827   2.69471
   R14        2.04180   0.00437   0.00000   0.01205   0.01205   2.05385
   R15        2.04741   0.00650   0.00000   0.01810   0.01810   2.06551
   R16        2.88740  -0.00067   0.00000  -0.00293  -0.00295   2.88445
   R17        2.05322   0.00309   0.00000   0.00868   0.00868   2.06189
   R18        2.04919   0.00248   0.00000   0.00693   0.00693   2.05612
   R19        2.89256  -0.00056   0.00000  -0.00203  -0.00205   2.89051
   R20        2.05126   0.00299   0.00000   0.00837   0.00837   2.05963
   R21        2.05537   0.00371   0.00000   0.01047   0.01047   2.06584
   R22        2.66810   0.00352   0.00000   0.00808   0.00810   2.67620
   R23        2.04201   0.00540   0.00000   0.01488   0.01488   2.05689
   R24        2.05611   0.00629   0.00000   0.01778   0.01778   2.07389
   R25        2.67624   0.00316   0.00000   0.00718   0.00721   2.68345
   R26        2.87303   0.00054   0.00000   0.00148   0.00147   2.87450
   R27        2.05556   0.00612   0.00000   0.01727   0.01727   2.07283
   R28        2.04365   0.00438   0.00000   0.01211   0.01211   2.05576
   R29        2.05215   0.00299   0.00000   0.00839   0.00839   2.06053
   R30        2.05442   0.00316   0.00000   0.00891   0.00891   2.06332
   R31        2.05172   0.00397   0.00000   0.01112   0.01112   2.06284
   R32        2.04923   0.00292   0.00000   0.00815   0.00815   2.05739
    A1        1.91821  -0.00005   0.00000  -0.00090  -0.00095   1.91726
    A2        1.88490  -0.00060   0.00000   0.00088   0.00089   1.88579
    A3        1.90746   0.00095   0.00000   0.00492   0.00490   1.91235
    A4        1.92142   0.00042   0.00000   0.00098   0.00100   1.92242
    A5        1.90411  -0.00110   0.00000  -0.01268  -0.01266   1.89145
    A6        1.92768   0.00040   0.00000   0.00702   0.00700   1.93467
    A7        1.92871   0.00016   0.00000  -0.00850  -0.00866   1.92005
    A8        1.91888  -0.00065   0.00000  -0.00124  -0.00119   1.91768
    A9        1.88889   0.00060   0.00000   0.00528   0.00531   1.89421
   A10        1.92198   0.00081   0.00000   0.00320   0.00324   1.92522
   A11        1.93469  -0.00108   0.00000  -0.00169  -0.00164   1.93305
   A12        1.86953   0.00014   0.00000   0.00335   0.00332   1.87285
   A13        1.91025  -0.00140   0.00000  -0.00857  -0.00867   1.90158
   A14        1.97476  -0.00160   0.00000  -0.01590  -0.01584   1.95892
   A15        1.85493   0.00181   0.00000   0.01602   0.01607   1.87100
   A16        1.95914   0.00220   0.00000   0.00433   0.00413   1.96327
   A17        1.92130  -0.00077   0.00000   0.00133   0.00137   1.92267
   A18        1.83907  -0.00021   0.00000   0.00444   0.00447   1.84354
   A19        1.93168   0.00105   0.00000   0.00151   0.00132   1.93300
   A20        1.95047  -0.00028   0.00000  -0.00337  -0.00332   1.94715
   A21        1.93816  -0.00097   0.00000  -0.00394  -0.00392   1.93425
   A22        1.84671  -0.00101   0.00000  -0.00130  -0.00124   1.84547
   A23        1.91044   0.00097   0.00000   0.00777   0.00784   1.91828
   A24        1.88346   0.00026   0.00000  -0.00033  -0.00037   1.88309
   A25        1.92424  -0.00090   0.00000  -0.00875  -0.00897   1.91527
   A26        1.91723   0.00082   0.00000   0.00285   0.00292   1.92015
   A27        1.93320  -0.00036   0.00000  -0.00041  -0.00036   1.93284
   A28        1.90042   0.00031   0.00000   0.00023   0.00029   1.90071
   A29        1.92520   0.00016   0.00000   0.00202   0.00208   1.92727
   A30        1.86234   0.00003   0.00000   0.00455   0.00451   1.86686
   A31        1.91875   0.00116   0.00000  -0.00235  -0.00239   1.91636
   A32        1.91782  -0.00044   0.00000  -0.00209  -0.00206   1.91576
   A33        1.89987  -0.00114   0.00000  -0.00813  -0.00813   1.89174
   A34        1.93459   0.00013   0.00000   0.00585   0.00585   1.94044
   A35        1.91499  -0.00014   0.00000   0.00277   0.00276   1.91775
   A36        1.87708   0.00038   0.00000   0.00382   0.00378   1.88087
   A37        1.93112   0.00211   0.00000   0.01118   0.01124   1.94236
   A38        1.94309  -0.00161   0.00000  -0.01433  -0.01443   1.92867
   A39        1.91326  -0.00253   0.00000  -0.01736  -0.01747   1.89579
   A40        1.86411  -0.00030   0.00000   0.00520   0.00525   1.86936
   A41        1.91554   0.00121   0.00000   0.01184   0.01190   1.92744
   A42        1.89584   0.00122   0.00000   0.00436   0.00410   1.89994
   A43        1.93652   0.00175   0.00000   0.00835   0.00835   1.94487
   A44        1.90174   0.00081   0.00000   0.00714   0.00718   1.90892
   A45        1.85613  -0.00120   0.00000  -0.00377  -0.00377   1.85237
   A46        1.93042  -0.00161   0.00000  -0.00968  -0.00972   1.92070
   A47        1.94500  -0.00029   0.00000  -0.00315  -0.00316   1.94185
   A48        1.89176   0.00058   0.00000   0.00152   0.00148   1.89325
   A49        1.97733  -0.00473   0.00000  -0.02791  -0.02784   1.94949
   A50        1.92919  -0.00068   0.00000  -0.00504  -0.00509   1.92410
   A51        1.92798  -0.00054   0.00000  -0.00095  -0.00094   1.92704
   A52        1.91935   0.00082   0.00000   0.00155   0.00156   1.92091
   A53        1.90833   0.00076   0.00000   0.00466   0.00469   1.91302
   A54        1.90365  -0.00036   0.00000  -0.00300  -0.00301   1.90065
   A55        1.87435   0.00002   0.00000   0.00301   0.00301   1.87736
   A56        2.13386  -0.01585   0.00000  -0.06253  -0.06253   2.07133
   A57        1.90934   0.00024   0.00000  -0.00522  -0.00526   1.90408
   A58        1.91277  -0.00028   0.00000  -0.00783  -0.00780   1.90496
   A59        1.89348  -0.00051   0.00000   0.00183   0.00184   1.89533
   A60        1.92846  -0.00009   0.00000   0.00287   0.00277   1.93122
   A61        1.94614   0.00049   0.00000   0.00570   0.00576   1.95190
   A62        1.87293   0.00013   0.00000   0.00255   0.00253   1.87546
   A63        2.02930  -0.00497   0.00000  -0.03022  -0.03027   1.99903
    D1        0.92204  -0.00063   0.00000  -0.00102  -0.00102   0.92103
    D2        3.05578   0.00000   0.00000   0.00338   0.00338   3.05915
    D3       -1.17601  -0.00046   0.00000   0.00204   0.00204  -1.17397
    D4        3.01845  -0.00051   0.00000   0.00018   0.00018   3.01862
    D5       -1.13101   0.00012   0.00000   0.00458   0.00457  -1.12644
    D6        0.92039  -0.00034   0.00000   0.00324   0.00323   0.92362
    D7       -1.16703   0.00016   0.00000   0.01204   0.01206  -1.15497
[...]
 4420,0.00025813,-0.00012967,-0.00097900,0.00057898,0.00271005,-0.00005
 446,0.00000659,-0.00000748,0.00000176,-0.00008035,0.00006300,0.0016011
 9,0.00290446,-0.00259828,0.00003082,0.00000541,0.00000636,0.00000226,0
 .00000279,-0.00000354,0.00011315,-0.00000891,-0.00005921,0.00000602,-0
 .00001472,0.00000104,-0.00001343,-0.00006277,0.00010229,-0.00000192,0.
 00000155,0.00000321,0.00000581,0.00000612,0.00000191,-0.00003230,0.000
 22684,0.00046120,-0.00051127,0.00073949,0.00001403,-0.00247168,0.00627
 683,0.00980732,-0.06627861,0.11625719,0.20925817,-0.00024123,-0.000137
 59,-0.00036857,0.00000043,-0.00000034,0.00000167,0.00010898,-0.0000586
 3,0.00001913,0.00001095,-0.00000559,-0.00001779,-0.00000333,-0.0000065
 1,0.00000294,0.00034283,0.00125687,0.00018252,0.00242264,0.00329636,0.
 00412122,-0.07748546,0.03466368,0.06001237,-0.02013979,0.02449389,0.01
 121588,-0.00301778,0.00530543,0.01141070,-0.00028535,-0.00029762,-0.00
 000537,-0.00001446,0.00001403,-0.00000287,-0.00002255,0.00003145,0.000
 01121,0.00009752,0.00002238,-0.00009308,-0.00000114,0.00000112,0.00000
 003,-0.00000228,-0.00000016,0.00000091,-0.00001294,0.00000398,-0.00000
 727,-0.00000062,0.00000113,0.00000213,0.00000193,-0.00000071,0.0000003
 2,0.00000004,0.00000060,-0.00000103,-0.00000426,0.00000129,0.00000045,
 0.00018006,-0.00011740,-0.00018400,-0.00014928,-0.00037648,-0.00007476
 ,0.00014875,-0.00022209,-0.00032202,0.00028848,-0.00069291,-0.00071312
 ,0.08740169,-0.00016082,-0.00028794,0.00057465,0.00000120,0.00000087,-
 0.00000592,-0.00027690,0.00011045,-0.00006972,-0.00002615,0.00002315,0
 .00005853,0.00000728,0.00001683,-0.00000820,0.00069064,0.00130314,0.00
 040203,-0.00377283,-0.00031011,-0.00141602,0.03756019,-0.11566566,-0.1
 0169086,0.02238929,-0.02207060,-0.01084274,-0.00802367,0.01082723,0.01
 648253,0.00050276,0.00030905,-0.00003377,0.00003325,-0.00003233,0.0000
 0953,0.00011292,-0.00006339,-0.00004760,0.00000646,-0.00009773,-0.0001
 0039,0.00000415,-0.00000268,0.00000047,0.00000686,0.00000103,-0.000002
 90,0.00002543,-0.00000867,0.00001684,0.00000112,-0.00000521,-0.0000050
 7,-0.00000184,-0.00000128,0.00000181,-0.00000046,-0.00000144,0.0000024
 0,0.00001121,-0.00000327,-0.00000115,0.00026832,0.,-0.00013417,0.00028
 321,-0.00025948,-0.00029629,-0.00004285,0.00018869,0.00040995,0.000527
 57,0.00094191,0.00069844,-0.05383432,0.13449175,-0.00028558,-0.0001241
 3,-0.00022247,0.00000042,-0.00000185,-0.00000149,-0.00012285,0.0000776
 1,0.00000158,-0.00001588,0.00001394,0.00002764,0.00000355,0.00001063,-
 0.00000531,-0.00089449,-0.00091536,0.00100757,0.00015476,0.00246966,0.
 00262848,0.06234996,-0.10354462,-0.20373397,-0.00709854,0.00741392,0.0
 1238597,0.00768029,-0.01299019,-0.02074500,0.00031584,-0.00008521,0.00
 013683,0.00001532,-0.00001864,0.00000634,0.00005579,-0.00004180,-0.000
 02434,-0.00006893,-0.00000160,-0.00017075,0.00000313,-0.00000143,0.000
 00041,0.00000273,0.00000080,-0.00000147,0.00002594,-0.00000937,0.00001
 115,0.00000139,-0.00000279,-0.00000322,-0.00000268,-0.00000218,0.00000
 260,-0.00000024,-0.00000074,0.00000153,0.00000645,-0.00000201,-0.00000
 092,-0.00024497,0.00029846,0.00020258,0.00052346,0.00048372,0.00053759
 ,0.00016179,0.00014890,0.00019099,0.00137096,-0.00012684,-0.00020611,-
 0.06922260,0.10841988,0.21784849,0.00067088,0.00043290,-0.00044003,-0.
 00000359,0.00000182,0.00001646,0.00040526,-0.00011705,0.00005592,0.000
 04121,-0.00005053,-0.00011184,-0.00000712,-0.00002303,0.00001179,0.000
 47854,-0.00093228,0.00202912,-0.00048442,0.00493941,0.00055688,-0.1895
 3132,-0.11078856,-0.06695861,-0.02707294,-0.00928159,-0.01492347,-0.00
 734777,-0.00768291,-0.00329941,-0.00054550,-0.00033820,-0.00000686,-0.
 00004211,0.00004105,-0.00001060,-0.00021940,0.00008723,0.00011537,-0.0
 0004159,-0.00001508,0.00002829,-0.00000706,0.00000427,-0.00000095,-0.0
 0001305,-0.00000223,0.00000461,-0.00004507,0.00001445,-0.00002118,-0.0
 0000386,0.00001104,0.00000918,0.00000471,-0.00000059,0.00000014,0.0000
 0060,0.00000204,-0.00000362,-0.00001608,0.00000422,0.00000189,-0.00042
 662,-0.00030913,-0.00034823,-0.00003394,-0.00012120,-0.00016776,-0.001
 03702,-0.00071232,-0.00053567,0.00009523,-0.00028216,-0.00024035,0.009
 84876,0.00536105,0.00345178,0.21500350,0.00065326,-0.00060771,0.000726
 51,0.00000129,0.00000126,-0.00000858,0.00004645,-0.00009236,-0.0000390
 8,0.00001554,0.00000428,0.00000808,-0.00000265,-0.00000778,0.00000246,
 -0.00069846,-0.00135934,0.00452182,0.00278932,-0.00258211,0.00089645,-
 0.12165894,-0.14450680,-0.06200260,0.02429162,0.01335315,0.01253626,-0
 .01354850,-0.01031145,-0.00866595,-0.00018042,0.00039549,-0.00031883,-
 0.00000162,0.00001217,-0.00000173,0.00001161,0.00004413,-0.00003513,-0
 .00003619,0.00004106,-0.00003513,-0.00000159,0.00000075,0.00000008,0.0
 0000166,0.00000021,0.00000067,-0.00003724,0.00001123,-0.00001532,-0.00
 000134,0.00000097,0.00000149,0.00000539,0.00000076,-0.00000747,-0.0000
 0003,0.00000099,-0.00000020,-0.00000334,0.00000161,0.00000092,-0.00142
 949,-0.00044195,-0.00043806,0.00039816,0.00026637,0.00012366,0.0008718
 0,0.00054934,0.00047277,-0.00000740,0.00019101,0.00029006,-0.01192532,
 -0.00831365,-0.00511809,0.11953515,0.15205491,-0.00038158,0.00046022,-
 0.00060789,-0.00000185,-0.00000058,0.00000928,0.00004691,0.00005151,0.
 00005699,-0.00000200,-0.00001560,-0.00002935,0.00000108,0.00000057,0.0
 0000100,0.00123783,0.00251718,-0.00378063,-0.00060937,0.00283055,0.000
 27925,-0.06908030,-0.05700439,-0.08585111,-0.01331241,-0.00476029,-0.0
 0635444,0.01947476,0.01446230,0.00987025,0.00001629,-0.00027356,0.0002
 0654,-0.00000338,-0.00000102,-0.00000382,-0.00005857,-0.00003621,0.000
 04849,0.00003059,-0.00005030,0.00005812,-0.00000088,0.00000055,-0.0000
 0041,-0.00000423,-0.00000042,0.00000050,0.00002237,-0.00000732,0.00000
 450,0.00000067,0.00000117,0.00000137,-0.00000332,0.00000130,0.00000453
 ,-0.00000021,0.00000001,-0.00000016,-0.00000092,-0.00000032,-0.0000001
 4,0.00121503,0.00073037,0.00049259,-0.00002236,0.00018775,0.00015319,-
 0.00085078,-0.00029828,-0.00000731,0.00024321,0.00022902,0.00028294,-0
 .01759483,-0.01458687,-0.00786429,0.08086909,0.05707413,0.09117629,-0.
 00076312,-0.00506943,-0.00023108,0.00000386,0.00000292,0.00000547,0.00
 076083,-0.00074457,-0.00034579,0.00009502,-0.00004733,-0.00014921,-0.0
 0002622,-0.00007309,0.00003177,-0.01888608,0.01773849,-0.00805447,-0.0
 0068175,-0.00066619,0.00034303,0.00948751,-0.00736356,0.00229455,0.001
 14649,-0.00285822,0.00292991,-0.17973111,0.12281984,-0.05408616,-0.002
 82217,0.00101004,-0.00136097,-0.00009231,0.00012856,-0.00005339,-0.000
 19925,0.00030239,0.00015472,0.00017099,-0.00020510,0.00021883,-0.00001
 246,0.00000915,-0.00000033,-0.00001566,-0.00000206,0.00000919,-0.00025
 609,0.00009259,-0.00008534,-0.00000871,0.00001777,0.00002050,0.0000127
 9,-0.00000161,-0.00000925,0.00000434,0.00000357,-0.00000644,-0.0000391
 8,0.00001532,0.00000742,0.00069178,0.00022877,0.00078089,0.00124640,-0
 .00005990,0.00008045,0.00013263,0.00019424,-0.00001269,0.00013869,0.00
 004800,-0.00003792,0.00040926,0.00061536,-0.00040145,0.00016093,0.0004
 5323,-0.00087917,0.19516006,-0.00214606,-0.00223531,-0.00070276,0.0000
 0250,-0.00000181,-0.00000134,0.00002117,-0.00029728,-0.00022406,0.0000
 1870,-0.00000116,-0.00002753,-0.00001274,-0.00002770,0.00001159,-0.014
 01909,0.01309467,-0.00667056,-0.00137701,-0.00079560,-0.00079592,0.015
 41786,-0.01110827,0.00144377,-0.00031199,-0.00342172,0.00577107,0.1228
 1307,-0.15974062,0.05245923,-0.00134398,0.00063800,-0.00059694,-0.0000
 3296,0.00005232,-0.00002442,0.00001385,0.00008400,0.00003758,-0.000078
 37,0.00015226,0.00008138,-0.00000167,0.00000294,0.00000077,-0.00000215
 ,0.00000029,0.00000223,-0.00009406,0.00003644,-0.00003514,-0.00000228,
 0.00000418,0.00000619,0.00000032,-0.00000237,0.00000092,0.00000250,0.0
 0000047,-0.00000100,-0.00001298,0.00000620,0.00000379,0.00087112,0.000
 57066,0.00050517,0.00082944,0.00072452,0.00031370,0.00018052,0.0001124
 2,0.00004265,0.00021755,0.00013638,0.00009816,-0.00020119,0.00073351,0
 .00006320,-0.00028606,0.00023012,-0.00065854,-0.13159119,0.17241017,-0
 .00036421,-0.00217768,0.00051865,0.00000071,-0.00000003,0.00000645,0.0
 0025643,-0.00023775,-0.00009939,0.00003509,-0.00002411,-0.00007649,-0.
 00001186,-0.00003190,0.00001305,-0.00851319,0.00721795,-0.00490307,0.0
 0125710,0.00030580,0.00086681,-0.01853032,0.01223264,-0.00527624,0.000
 33450,0.00523188,-0.00439127,-0.05261330,0.05062525,-0.07130541,-0.001
 07386,0.00038342,-0.00014127,-0.00004400,0.00005740,-0.00002174,-0.000
 09349,0.00009139,0.00007254,-0.00021145,0.00036711,0.00003460,-0.00000
 455,0.00000414,-0.00000009,-0.00000763,-0.00000109,0.00000389,-0.00008
 705,0.00002589,-0.00003031,-0.00000311,0.00000842,0.00000813,0.0000015
 7,-0.00000220,0.00000052,0.00000168,0.00000168,-0.00000262,-0.00001696
 ,0.00000682,0.00000363,0.00036228,-0.00030138,0.00033439,0.00036644,0.
 00042269,0.00021706,-0.00012296,-0.00007775,-0.00005740,-0.00004282,-0
 .00011910,-0.00007708,-0.00008442,-0.00101564,0.00047258,0.00026288,-0
 .00018054,0.00067806,0.06093215,-0.05643158,0.07448464,0.00138687,-0.0
 0072754,-0.00044988,0.00000005,-0.00000181,0.00000085,-0.00001271,0.00
 002841,0.00013068,-0.00000648,0.00001161,-0.00000891,-0.00000401,-0.00
 000439,0.00000029,0.00691759,-0.01591323,-0.02232552,-0.00049182,-0.00
 033198,-0.00029472,-0.00625077,0.00866061,0.01156312,0.00147430,-0.000
 39087,-0.00136385,-0.06721968,0.03949440,0.05492343,-0.00017535,0.0001
 3974,0.00020227,-0.00001283,0.00000828,-0.00000460,0.00000046,0.000035
 02,0.00001899,-0.00027352,0.00022728,0.00019915,0.00000153,0.00000033,
 0.00000062,0.00000048,0.00000035,0.00000013,0.00002079,-0.00000978,-0.
 00000197,-0.00000034,-0.00000096,0.00000138,-0.00000011,-0.00000424,0.
 00000984,0.,0.00000001,-0.00000016,-0.00000153,0.00000165,0.00000075,0
 .00116112,0.00052540,0.00073525,-0.00400596,-0.00235049,-0.00228161,0.
 00007641,0.00006143,-0.00002157,-0.00016462,0.00010540,0.00010793,0.00
 011720,-0.00227018,0.00223467,0.00017189,0.00045548,-0.00034905,-0.006
 08716,0.01112376,0.01801470,0.07337759,0.00098500,-0.00004712,0.000512
 73,0.00000003,-0.00000057,0.00000275,0.00014065,-0.00007292,0.00004085
 ,0.00002109,-0.00001347,-0.00005085,-0.00000668,-0.00001579,0.00000686
 ,0.00374145,-0.01088588,-0.01353930,-0.00001070,0.00000022,0.00012511,
 -0.00665367,0.01059865,0.01900097,-0.00080311,0.00167684,-0.00192649,0
 .04085141,-0.12800203,-0.11453296,-0.00034025,0.00021388,0.00019842,-0
 .00002784,0.00002929,-0.00001369,-0.00009826,0.00007656,0.00001512,-0.
 00024392,0.00054671,0.00000352,-0.00000217,0.00000236,-0.00000001,-0.0
 0000461,-0.00000074,0.00000237,-0.00002462,0.00000287,-0.00002008,-0.0
 0000167,0.00000452,0.00000471,-0.00000045,-0.00000057,-0.00000074,0.00
 000042,0.00000085,-0.00000108,-0.00000892,0.00000349,0.00000131,0.0003
 6774,0.00029208,0.00039004,-0.00334807,-0.00054275,-0.00111587,0.00003
 537,0.00004595,-0.00007546,-0.00000333,-0.00011642,-0.00004004,-0.0012
 1605,-0.00182505,0.00358406,0.00051188,0.00106380,-0.00085224,0.005011
 62,-0.01135301,-0.01637649,-0.03887279,0.13832096,0.00085329,-0.000572
 68,-0.00023914,-0.00000080,-0.00000141,0.00000603,0.00003963,-0.000041
 76,-0.00000385,0.00000068,-0.00000588,-0.00002405,-0.00000325,-0.00000
 874,0.00000236,0.00245310,-0.00610548,-0.00881194,-0.00005742,0.000127
 67,-0.00008299,0.00860714,-0.01311180,-0.02106811,-0.00110768,-0.00056
 914,0.00246139,0.05367913,-0.11297613,-0.21030289,-0.00029743,0.000222
 21,0.00022185,-0.00001409,0.00001710,-0.00000414,-0.00002693,0.0000459
 9,0.00002257,-0.00041730,0.00033633,-0.00009800,0.00000039,0.00000135,
 0.00000040,-0.00000216,-0.00000045,0.00000099,-0.00001156,0.00000170,-
 0.00000933,-0.00000147,0.00000299,0.00000204,-0.00000572,-0.00000372,0
 .00000340,0.00000011,0.00000057,-0.00000034,-0.00000427,0.00000231,0.0
 0000115,-0.00024503,0.00016074,0.00068286,-0.00177794,-0.00084462,0.00
 026945,-0.00001151,0.00003799,-0.00003604,0.00012235,-0.00008542,0.000
 09349,0.00171104,0.00317862,-0.00248347,-0.00034290,0.00021152,0.00117
 387,-0.00209560,0.00532577,0.00866535,-0.06104321,0.12465657,0.2295559
 0,-0.00008069,-0.00014165,-0.00019895,0.00087241,-0.00113213,-0.000472
 92,0.00377338,-0.00579747,0.02626042,0.00021865,-0.00037664,-0.0000589
 2,-0.00870827,0.00929738,-0.02707019,-0.00001941,0.00000338,0.00000359
 ,0.00006152,-0.00003460,0.00008909,-0.00001676,-0.00000426,0.00000509,
 0.00004239,0.00005684,-0.00001927,0.00000141,-0.00001115,0.00000437,0.
 00315657,0.00016413,-0.00000077,-0.06669555,0.02104795,-0.06874594,0.0
 0019468,0.00027102,-0.00147816,0.00003675,-0.00000628,-0.00005860,0.00
 004444,-0.00020093,0.00004169,0.00005303,0.00006971,0.00025184,-0.0033
 8443,-0.00266801,0.00164974,0.00004052,-0.00008010,0.00012675,0.000505
 64,-0.00063010,-0.00024634,-0.00451203,0.00353078,0.00086679,0.0008923
 5,-0.00094744,0.00013827,0.00004427,0.00000919,-0.00001671,0.00000462,
 0.00000309,0.00000003,0.00002145,0.00003311,-0.00000983,0.00000929,0.0
 0000499,-0.00000952,0.00000121,-0.00000027,-0.00000187,0.00000149,0.00
 000261,-0.00000177,0.00000813,0.00000295,0.00000378,0.00000097,0.00000
 222,0.00000021,0.07518284,-0.00025784,0.00004379,-0.00016547,-0.000208
 25,0.00062103,0.00059924,0.00603649,-0.00558523,0.01956916,-0.00014848
 ,-0.00111714,0.00059568,0.00541444,-0.00618518,0.01572613,-0.00003296,
 -0.00003479,-0.00003191,0.00007533,-0.00002598,0.00005555,-0.00001337,
 0.00001043,-0.00000549,0.00004350,0.00003898,-0.00000910,-0.00001434,0
 .00000538,-0.00000480,0.00218604,0.00080127,-0.00208942,0.01866375,-0.
 07158336,0.06919036,-0.00047621,0.00012441,-0.00132936,-0.00007168,-0.
 00004517,0.00000167,-0.00016244,0.00022112,-0.00010824,0.00007002,-0.0
 0004892,-0.00019279,-0.00215857,-0.00112428,0.00106227,-0.00002446,0.0
 0020092,-0.00014271,-0.00052877,-0.00143764,-0.00082383,0.00311345,-0.
 00118229,-0.00007948,-0.00037542,0.00050279,-0.00044074,-0.00001510,-0
 .00000718,0.00000654,0.00000898,-0.00001038,0.00000411,0.00000617,0.00
 000600,0.00000023,0.00000769,0.00000360,-0.00000394,0.00000121,-0.0000
 0261,-0.00000052,0.00000262,-0.00000061,0.00000084,0.00000097,-0.00000
 228,-0.00000029,-0.00000110,-0.00000003,-0.00000155,-0.02380306,0.0769
 7888,0.00032258,-0.00006415,0.00010229,-0.00078380,0.00002696,0.000819
 31,-0.00426694,0.00328866,-0.01654120,-0.00066521,-0.00103324,-0.00141
 220,0.00035216,-0.00093583,0.00399053,0.00004958,0.00005245,-0.0000021
 9,-0.00010523,-0.00000752,-0.00006678,-0.00000183,0.00000066,0.0000014
 2,-0.00001077,-0.00004212,0.00001586,0.00000969,-0.00002017,0.00001536
 ,-0.00110514,-0.00086051,0.00280407,-0.06559244,0.07055065,-0.26827088
 ,0.00045024,0.00067990,0.00090775,0.00010004,0.00004873,-0.00009758,0.
 00005216,0.00016623,0.00000971,-0.00005755,0.00066371,-0.00014240,0.00
 224670,0.00204927,0.00015407,0.00017457,-0.00017782,0.00047250,0.00025
 562,-0.00167442,0.00057330,0.00075625,-0.00091279,0.00118524,-0.000602
 64,0.00032701,0.00030536,0.00004102,0.00000341,0.00000235,-0.00000048,
 0.00000507,-0.00000127,-0.00000378,-0.00002075,0.00000979,0.00000529,0
 .00000060,-0.00001224,0.00000006,0.00000047,-0.00000029,-0.00000054,0.
 00000017,0.00000146,0.00000489,0.00000431,0.00000343,0.00000043,0.0000
 0007,0.00000058,0.07286446,-0.07738605,0.29133457,0.00035996,0.0002943
 7,-0.00017319,-0.00504764,0.00310960,-0.00112253,-0.00211180,-0.018204
 51,-0.01647571,-0.00144108,0.00021097,0.00075483,0.00509952,0.02371301
 ,0.01825449,-0.00002723,-0.00002418,0.00000353,0.00008570,0.00001312,0
 .00006389,0.00000718,-0.00000974,-0.00000352,-0.00001819,0.00002174,-0
 .00002469,-0.00000685,0.00001408,-0.00000544,-0.00026816,0.00084033,0.
 00152366,-0.05184283,-0.02979268,-0.02055652,-0.00249334,-0.00506696,0
 .00118754,0.00006009,-0.00001386,0.00001060,0.00014132,0.00136928,0.00
 101927,0.00002816,0.00021690,0.00031881,0.00096091,0.00064654,-0.00002
 611,0.00017571,-0.00006871,-0.00002199,0.00021767,-0.00027473,0.000062
 42,0.00109854,-0.00073376,-0.00052395,0.00125092,-0.00104983,0.0001134
 2,0.00000308,-0.00000156,-0.00000672,-0.00000876,0.00000321,-0.0000013
 6,0.00002117,0.00003118,-0.00002983,-0.00001419,0.00000664,-0.00000024
 ,-0.00000026,0.00000204,0.00000186,-0.00000454,-0.00000005,-0.00000084
 ,-0.00000843,-0.00000152,-0.00000412,-0.00000035,-0.00000177,-0.000000
 79,-0.00175086,-0.00733860,-0.00448943,0.05553456,-0.00006920,0.000167
 11,-0.00005530,0.00275506,-0.00041743,0.00080963,0.00023788,-0.0155782
 6,-0.01159790,0.00026466,0.00079391,0.00167915,-0.00266435,-0.01227943
 ,-0.00850223,-0.00003995,-0.00002716,0.00000586,0.00005452,0.00000183,
 0.00002180,0.00001395,-0.00001612,-0.00000308,-0.00004772,0.00000231,-
 0.00001298,-0.00000331,0.00002242,-0.00000370,-0.00043157,0.00040518,0
 .00073741,-0.03018891,-0.22659927,-0.12451530,-0.00329322,-0.00311871,
 0.00106450,0.00004839,-0.00000697,0.00005579,-0.00010943,-0.00063169,-
 0.00064544,0.00010531,-0.00022970,-0.00018579,0.00047711,0.00081013,0.
 00016354,-0.00004410,-0.00001981,-0.00013803,-0.00008888,0.00027923,-0
 .00013949,-0.00035619,0.00022666,0.00026689,-0.00001697,0.00080717,0.0
 0010523,-0.00000642,0.00000369,-0.00000338,-0.00001029,0.00000657,-0.0
 0000306,0.00002561,0.00003206,-0.00003642,-0.00001907,0.00001107,0.000
 00162,-0.00000051,0.00000349,0.00000260,-0.00000621,0.00000012,-0.0000
 0153,-0.00001058,-0.00000244,-0.00000494,0.00000020,-0.00000270,-0.000
 00063,0.00133473,0.00883447,0.00526703,0.03208945,0.24652225,0.0000677
 0,0.00005957,0.00008986,0.00021788,-0.00035375,0.00134038,0.00226584,0
 .01271818,0.00665301,0.00032334,-0.00010053,-0.00120987,-0.00021143,0.
 00047663,-0.00103262,-0.00000541,-0.00002312,0.00000723,-0.00001992,0.
 00001605,-0.00003661,0.00001032,-0.00000531,-0.00000001,-0.00002637,-0
 .00002298,0.00000580,-0.00000034,0.00001200,0.00000040,-0.00062085,-0.
 00002633,-0.00012056,-0.02140414,-0.12818872,-0.13638070,0.00296849,0.
 00405107,0.00014993,0.00001900,0.00003376,-0.00002056,-0.00002109,-0.0
 0027020,-0.00015466,-0.00002807,0.00021431,-0.00001136,-0.00063386,0.0
 0020168,0.00108632,0.00000460,-0.00018688,0.00027514,0.00027284,-0.000
 16725,0.00039111,0.00041430,-0.00003119,0.00040274,0.00018032,-0.00005
 991,-0.00004578,0.00000858,-0.00000044,-0.00000254,-0.00000365,0.00000
 421,0.00000297,-0.00000958,-0.00001363,0.00001522,0.00000134,-0.000008
 28,0.00000468,-0.00000085,0.00000116,0.00000076,-0.00000138,-0.0000003
 4,0.00000035,-0.00000449,-0.00000169,-0.00000139,0.00000056,-0.0000001
 6,0.00000063,-0.00391634,-0.02399607,-0.01616190,0.02015265,0.13566815
 ,0.14475202\\-0.00080951,-0.00072732,0.00215477,0.00000956,0.00000849,
 0.00000882,-0.00143158,-0.00127121,0.00395387,-0.00000839,0.00000722,0
 .00002635,-0.00000102,0.00000041,-0.00000591,0.00002224,-0.00000318,0.
 00000317,-0.00000265,-0.00001147,0.00000682,-0.00000116,-0.00000339,-0
 .00001139,-0.00000126,-0.00000209,0.00000943,0.00000456,-0.00000600,-0
 .00000096,0.00148008,0.00134681,-0.00401785,0.00000604,-0.00000433,0.0
 0000171,0.00074377,0.00066670,-0.00212066,0.00000916,-0.00000239,-0.00
 000610,0.00000106,0.00000099,0.00000011,-0.00000165,0.00000322,0.00000
 221,0.00000421,-0.00000208,0.00000406,0.00000526,-0.00000125,0.0000010
 6,-0.00000549,-0.00000347,-0.00000266,-0.00000067,0.00000112,0.0000025
 4,0.00000162,-0.00000036,0.00000435,-0.00000404,0.00000205,-0.00000193
 ,-0.00000252,0.00000064,-0.00000280,0.00000154,0.00000530,-0.00000302,
 -0.00000439,-0.00000167,-0.00000001,0.00000003,-0.00000096,-0.00000067
 ,-0.00000243,0.00000066,-0.00000294,-0.00000310,-0.00000385,0.00000087
 ,0.00000121,0.00000051,-0.00000007,0.00000004,-0.00000108,-0.00000241,
 -0.00001053,0.00000198,-0.00000076\\\@


 IT IS BETTER TO THINK YOU ARE HALF DRY THAN TO KNOW YOU
 ARE ALL WET.  -- SNOOPY
 Job cpu time:       0 days 14 hours 12 minutes 33.7 seconds.
 Elapsed time:       0 days  0 hours 53 minutes 18.8 seconds.
 File lengths (MBytes):  RWF=    687 Int=      0 D2E=      0 Chk=     33 Scr=      1
 Normal termination of Gaussian 16 at Mon Nov  5 01:09:25 2018.
