 Entering Gaussian System, Link 0=g16
 Initial command:
 /apps/gaussian/g16a03/g16/l1.exe "/jobfs/local/2011818.r-man2/Gau-31643.inp" -scrdir="/jobfs/local/2011818.r-man2/"
 Entering Link 1 = /apps/gaussian/g16a03/g16/l1.exe PID=     31644.
  
 Copyright (c) 1988,1990,1992,1993,1995,1998,2003,2009,2016,
            Gaussian, Inc.  All Rights Reserved.
  
 This is part of the Gaussian(R) 16 program.  It is based on
 the Gaussian(R) 09 system (copyright 2009, Gaussian, Inc.),
 the Gaussian(R) 03 system (copyright 2003, Gaussian, Inc.),
 the Gaussian(R) 98 system (copyright 1998, Gaussian, Inc.),
 the Gaussian(R) 94 system (copyright 1995, Gaussian, Inc.),
 the Gaussian 92(TM) system (copyright 1992, Gaussian, Inc.),
 the Gaussian 90(TM) system (copyright 1990, Gaussian, Inc.),
 the Gaussian 88(TM) system (copyright 1988, Gaussian, Inc.),
 the Gaussian 86(TM) system (copyright 1986, Carnegie Mellon
 University), and the Gaussian 82(TM) system (copyright 1983,
 Carnegie Mellon University). Gaussian is a federally registered
 trademark of Gaussian, Inc.
  
 This software contains proprietary and confidential information,
 including trade secrets, belonging to Gaussian, Inc.
  
 This software is provided under written license and may be
 used, copied, transmitted, or stored only in accord with that
 written license.
  
 The following legend is applicable only to US Government
 contracts under FAR:
  
                    RESTRICTED RIGHTS LEGEND
  
 Use, reproduction and disclosure by the US Government is
 subject to restrictions as set forth in subparagraphs (a)
 and (c) of the Commercial Computer Software - Restricted
 Rights clause in FAR 52.227-19.
  
 Gaussian, Inc.
 340 Quinnipiac St., Bldg. 40, Wallingford CT 06492
  
  
 ---------------------------------------------------------------
 Warning -- This program may not be used in any manner that
 competes with the business of Gaussian, Inc. or will provide
 assistance to any competitor of Gaussian, Inc.  The licensee
 of this program is prohibited from giving any competitor of
 Gaussian, Inc. access to this program.  By using this program,
 the user acknowledges that Gaussian, Inc. is engaged in the
 business of creating and licensing software in the field of
 computational chemistry and represents and warrants to the
 licensee that it is not a competitor of Gaussian, Inc. and that
 it will not use this program in any manner prohibited above.
 ---------------------------------------------------------------
  

 Cite this work as:
 Gaussian 16, Revision A.03,
 M. J. Frisch, G. W. Trucks, H. B. Schlegel, G. E. Scuseria, 
 M. A. Robb, J. R. Cheeseman, G. Scalmani, V. Barone, 
 G. A. Petersson, H. Nakatsuji, X. Li, M. Caricato, A. V. Marenich, 
 J. Bloino, B. G. Janesko, R. Gomperts, B. Mennucci, H. P. Hratchian, 
 J. V. Ortiz, A. F. Izmaylov, J. L. Sonnenberg, D. Williams-Young, 
 F. Ding, F. Lipparini, F. Egidi, J. Goings, B. Peng, A. Petrone, 
 T. Henderson, D. Ranasinghe, V. G. Zakrzewski, J. Gao, N. Rega, 
 G. Zheng, W. Liang, M. Hada, M. Ehara, K. Toyota, R. Fukuda, 
 J. Hasegawa, M. Ishida, T. Nakajima, Y. Honda, O. Kitao, H. Nakai, 
 T. Vreven, K. Throssell, J. A. Montgomery, Jr., J. E. Peralta, 
 F. Ogliaro, M. J. Bearpark, J. J. Heyd, E. N. Brothers, K. N. Kudin, 
 V. N. Staroverov, T. A. Keith, R. Kobayashi, J. Normand, 
 K. Raghavachari, A. P. Rendell, J. C. Burant, S. S. Iyengar, 
 J. Tomasi, M. Cossi, J. M. Millam, M. Klene, C. Adamo, R. Cammi, 
 J. W. Ochterski, R. L. Martin, K. Morokuma, O. Farkas, 
 J. B. Foresman, and D. J. Fox, Gaussian, Inc., Wallingford CT, 2016.
 
 ******************************************
 Gaussian 16:  ES64L-G16RevA.03 25-Dec-2016
                 4-Nov-2018 
 ******************************************
 %mem=6000mb
 %nproc=24
 Will use up to   24 processors via shared memory.
 %chk=2SO_1_e4_D_PHI.inp_extract_0.chk
 ----------------------------------------------------------------------
 #M062X/6-311++G(2d,2p) opt=ModRedundant freq=noraman SCRF=(Solvent=Wat
 er)
 ----------------------------------------------------------------------
 1/18=120,19=15,26=3,38=1/1,3;
 2/9=110,12=2,17=6,18=5,40=1/2;
 3/5=4,6=6,7=1212,11=2,25=1,30=1,70=2201,71=1,72=1,74=-55/1,2,3;
 4//1;
 5/5=2,38=5,53=1/2;
 6/7=2,8=2,9=2,10=2,28=1/1;
 7//1,2,3,16;
 1/18=20,19=15,26=3/3(2);
 2/9=110/2;
 99//99;
 2/9=110/2;
 3/5=4,6=6,7=1212,11=2,25=1,30=1,70=2205,71=1,72=1,74=-55/1,2,3;
 4/5=5,16=3,69=1/1;
 5/5=2,38=5,53=1/2;
 7//1,2,3,16;
 1/18=20,19=15,26=3/3(-5);
 2/9=110/2;
 6/7=2,8=2,9=2,10=2,19=2,28=1/1;
 99/9=1/99;
 ----------------------------
 2SO_1_e4_D_PHI.inp_extract_0
 ----------------------------
 Symbolic Z-matrix:
 Charge =  0 Multiplicity = 1
 C                     1.13906   0.04086  -0.07128 
 C                    -3.95574   0.57258  -0.08011 
 C                    -1.193    -0.49148  -0.20852 
 C                    -2.66102   1.38411  -0.15597 
 C                    -3.63889  -0.93041   0.02453 
 C                     1.90887   1.13597   0.65144 
 C                     1.94907  -1.25107  -0.08654 
 C                     4.00232  -0.09038   0.01538 
 O                     3.21239  -1.03965  -0.67858 
 C                     3.31368   1.26462   0.05693 
 O                    -0.08936  -0.19047   0.59657 
 C                    -2.26591  -1.1342    0.66184 
 O                    -1.66388   0.66043  -0.86029 
 H                     0.94471   0.35034  -1.09192 
 H                    -4.56839   0.76395  -0.95516 
 H                    -4.52096   0.906     0.78545 
 H                    -0.88859  -1.15786  -1.00349 
 H                    -2.7996    2.31016  -0.69531 
 H                    -2.29359   1.62879   0.83429 
 H                    -3.63991  -1.37806  -0.96533 
 H                    -4.4013   -1.44339   0.60052 
 H                     1.37038   2.07574   0.58049 
 H                     1.97788   0.87611   1.70548 
 H                     1.45288  -2.01611  -0.6679 
 H                     2.07509  -1.6152    0.93064 
 H                     4.1899   -0.45567   1.02258 
 H                     4.9459   -0.03785  -0.51021 
 H                     3.91266   1.95422   0.64408 
 H                     3.25402   1.66373  -0.9525 
 H                    -2.24325  -0.685     1.65019 
 H                    -2.03167  -2.18618   0.78032 
 
 The following ModRedundant input section has been read:
 D      13       3      11       1 F                                           
 

 GradGradGradGradGradGradGradGradGradGradGradGradGradGradGradGradGradGrad
 Berny optimization.
 Initialization pass.
                           ----------------------------
                           !    Initial Parameters    !
                           ! (Angstroms and Degrees)  !
 --------------------------                            --------------------------
 ! Name  Definition              Value          Derivative Info.                !
 --------------------------------------------------------------------------------
 ! R1    R(1,6)                  1.5212         estimate D2E/DX2                !
 ! R2    R(1,7)                  1.5249         estimate D2E/DX2                !
 ! R3    R(1,11)                 1.4172         estimate D2E/DX2                !
 ! R4    R(1,14)                 1.0841         estimate D2E/DX2                !
 ! R5    R(2,4)                  1.5299         estimate D2E/DX2                !
 ! R6    R(2,5)                  1.5396         estimate D2E/DX2                !
 ! R7    R(2,15)                 1.0852         estimate D2E/DX2                !
 ! R8    R(2,16)                 1.0862         estimate D2E/DX2                !
 ! R9    R(3,11)                 1.3988         estimate D2E/DX2                !
 ! R10   R(3,12)                 1.5237         estimate D2E/DX2                !
 ! R11   R(3,13)                 1.4048         estimate D2E/DX2                !
 ! R12   R(3,17)                 1.0811         estimate D2E/DX2                !
 ! R13   R(4,13)                 1.4192         estimate D2E/DX2                !
 ! R14   R(4,18)                 1.0806         estimate D2E/DX2                !
 ! R15   R(4,19)                 1.0842         estimate D2E/DX2                !
 ! R16   R(5,12)                 1.5273         estimate D2E/DX2                !
 ! R17   R(5,20)                 1.0864         estimate D2E/DX2                !
 ! R18   R(5,21)                 1.0845         estimate D2E/DX2                !
 ! R19   R(6,10)                 1.5308         estimate D2E/DX2                !
 ! R20   R(6,22)                 1.0854         estimate D2E/DX2                !
 ! R21   R(6,23)                 1.0878         estimate D2E/DX2                !
 ! R22   R(7,9)                  1.4111         estimate D2E/DX2                !
 ! R23   R(7,24)                 1.0814         estimate D2E/DX2                !
 ! R24   R(7,25)                 1.0877         estimate D2E/DX2                !
 ! R25   R(8,9)                  1.4166         estimate D2E/DX2                !
 ! R26   R(8,10)                 1.5205         estimate D2E/DX2                !
 ! R27   R(8,26)                 1.0877         estimate D2E/DX2                !
 ! R28   R(8,27)                 1.0814         estimate D2E/DX2                !
 ! R29   R(10,28)                1.0858         estimate D2E/DX2                !
 ! R30   R(10,29)                1.0871         estimate D2E/DX2                !
 ! R31   R(12,30)                1.0859         estimate D2E/DX2                !
 ! R32   R(12,31)                1.0842         estimate D2E/DX2                !
 ! A1    A(6,1,7)              110.2335         estimate D2E/DX2                !
 ! A2    A(6,1,11)             109.405          estimate D2E/DX2                !
 ! A3    A(6,1,14)             109.4207         estimate D2E/DX2                !
 ! A4    A(7,1,11)             109.0769         estimate D2E/DX2                !
 ! A5    A(7,1,14)             109.1265         estimate D2E/DX2                !
 ! A6    A(11,1,14)            109.5634         estimate D2E/DX2                !
 ! A7    A(4,2,5)              110.3061         estimate D2E/DX2                !
 ! A8    A(4,2,15)             110.1348         estimate D2E/DX2                !
 ! A9    A(4,2,16)             108.4851         estimate D2E/DX2                !
 ! A10   A(5,2,15)             110.0688         estimate D2E/DX2                !
 ! A11   A(5,2,16)             110.6462         estimate D2E/DX2                !
 ! A12   A(15,2,16)            107.1365         estimate D2E/DX2                !
 ! A13   A(11,3,12)            108.5149         estimate D2E/DX2                !
 ! A14   A(11,3,13)            110.7958         estimate D2E/DX2                !
 ! A15   A(11,3,17)            109.4941         estimate D2E/DX2                !
 ! A16   A(12,3,13)            112.0163         estimate D2E/DX2                !
 ! A17   A(12,3,17)            110.9957         estimate D2E/DX2                !
 ! A18   A(13,3,17)            104.9905         estimate D2E/DX2                !
 ! A19   A(2,4,13)             110.4093         estimate D2E/DX2                !
 ! A20   A(2,4,18)             111.7648         estimate D2E/DX2                !
 ! A21   A(2,4,19)             111.1751         estimate D2E/DX2                !
 ! A22   A(13,4,18)            106.2245         estimate D2E/DX2                !
 ! A23   A(13,4,19)            109.2844         estimate D2E/DX2                !
 ! A24   A(18,4,19)            107.8145         estimate D2E/DX2                !
 ! A25   A(2,5,12)             110.0978         estimate D2E/DX2                !
 ! A26   A(2,5,20)             109.8854         estimate D2E/DX2                !
 ! A27   A(2,5,21)             110.6817         estimate D2E/DX2                !
 ! A28   A(12,5,20)            109.0297         estimate D2E/DX2                !
 ! A29   A(12,5,21)            110.3181         estimate D2E/DX2                !
 ! A30   A(20,5,21)            106.759          estimate D2E/DX2                !
 ! A31   A(1,6,10)             109.8991         estimate D2E/DX2                !
 ! A32   A(1,6,22)             109.9483         estimate D2E/DX2                !
 ! A33   A(1,6,23)             108.6919         estimate D2E/DX2                !
 ! A34   A(10,6,22)            110.923          estimate D2E/DX2                !
 ! A35   A(10,6,23)            109.7649         estimate D2E/DX2                !
 ! A36   A(22,6,23)            107.5563         estimate D2E/DX2                !
 ! A37   A(1,7,9)              110.6595         estimate D2E/DX2                !
 ! A38   A(1,7,24)             111.1626         estimate D2E/DX2                !
 ! A39   A(1,7,25)             109.6211         estimate D2E/DX2                !
 ! A40   A(9,7,24)             106.931          estimate D2E/DX2                !
 ! A41   A(9,7,25)             109.8024         estimate D2E/DX2                !
 ! A42   A(24,7,25)            108.606          estimate D2E/DX2                !
 ! A43   A(9,8,10)             110.9778         estimate D2E/DX2                !
 ! A44   A(9,8,26)             108.9507         estimate D2E/DX2                !
 ! A45   A(9,8,27)             106.321          estimate D2E/DX2                !
 ! A46   A(10,8,26)            110.6149         estimate D2E/DX2                !
 ! A47   A(10,8,27)            111.4187         estimate D2E/DX2                !
 ! A48   A(26,8,27)            108.4158         estimate D2E/DX2                !
 ! A49   A(7,9,8)              113.2095         estimate D2E/DX2                !
 ! A50   A(6,10,8)             110.569          estimate D2E/DX2                !
 ! A51   A(6,10,28)            110.4621         estimate D2E/DX2                !
 ! A52   A(6,10,29)            109.944          estimate D2E/DX2                !
 ! A53   A(8,10,28)            109.3228         estimate D2E/DX2                !
 ! A54   A(8,10,29)            109.0654         estimate D2E/DX2                !
 ! A55   A(28,10,29)           107.4096         estimate D2E/DX2                !
 ! A56   A(1,11,3)             116.6002         estimate D2E/DX2                !
 ! A57   A(3,12,5)             109.7764         estimate D2E/DX2                !
 ! A58   A(3,12,30)            109.3127         estimate D2E/DX2                !
 ! A59   A(3,12,31)            108.6363         estimate D2E/DX2                !
 ! A60   A(5,12,30)            110.0808         estimate D2E/DX2                !
 ! A61   A(5,12,31)            111.67           estimate D2E/DX2                !
 ! A62   A(30,12,31)           107.3012         estimate D2E/DX2                !
 ! A63   A(3,13,4)             115.0486         estimate D2E/DX2                !
 ! D1    D(7,1,6,10)            52.4382         estimate D2E/DX2                !
 ! D2    D(7,1,6,22)           174.8099         estimate D2E/DX2                !
 ! D3    D(7,1,6,23)           -67.7024         estimate D2E/DX2                !
 ! D4    D(11,1,6,10)          172.382          estimate D2E/DX2                !
 ! D5    D(11,1,6,22)          -65.2463         estimate D2E/DX2                !
 ! D6    D(11,1,6,23)           52.2414         estimate D2E/DX2                !
 ! D7    D(14,1,6,10)          -67.5766         estimate D2E/DX2                !
 ! D8    D(14,1,6,22)           54.7951         estimate D2E/DX2                !
 ! D9    D(14,1,6,23)          172.2828         estimate D2E/DX2                !
 ! D10   D(6,1,7,9)            -56.5771         estimate D2E/DX2                !
 ! D11   D(6,1,7,24)          -175.2437         estimate D2E/DX2                !
 ! D12   D(6,1,7,25)            64.6747         estimate D2E/DX2                !
 ! D13   D(11,1,7,9)          -176.719          estimate D2E/DX2                !
 ! D14   D(11,1,7,24)           64.6145         estimate D2E/DX2                !
 ! D15   D(11,1,7,25)          -55.4671         estimate D2E/DX2                !
 ! D16   D(14,1,7,9)            63.6151         estimate D2E/DX2                !
 ! D17   D(14,1,7,24)          -55.0515         estimate D2E/DX2                !
 ! D18   D(14,1,7,25)         -175.133          estimate D2E/DX2                !
 ! D19   D(6,1,11,3)           143.5992         estimate D2E/DX2                !
 ! D20   D(7,1,11,3)           -95.7499         estimate D2E/DX2                !
 ! D21   D(14,1,11,3)           23.6453         estimate D2E/DX2                !
 ! D22   D(5,2,4,13)            33.8844         estimate D2E/DX2                !
 ! D23   D(5,2,4,18)           151.8898         estimate D2E/DX2                !
 ! D24   D(5,2,4,19)           -87.5839         estimate D2E/DX2                !
 ! D25   D(15,2,4,13)          -87.8089         estimate D2E/DX2                !
 ! D26   D(15,2,4,18)           30.1965         estimate D2E/DX2                !
 ! D27   D(15,2,4,19)          150.7228         estimate D2E/DX2                !
 ! D28   D(16,2,4,13)          155.2246         estimate D2E/DX2                !
 ! D29   D(16,2,4,18)          -86.77           estimate D2E/DX2                !
 ! D30   D(16,2,4,19)           33.7563         estimate D2E/DX2                !
 ! D31   D(4,2,5,12)            26.4534         estimate D2E/DX2                !
 ! D32   D(4,2,5,20)           -93.6502         estimate D2E/DX2                !
 ! D33   D(4,2,5,21)           148.6851         estimate D2E/DX2                !
 ! D34   D(15,2,5,12)          148.1857         estimate D2E/DX2                !
 ! D35   D(15,2,5,20)           28.0822         estimate D2E/DX2                !
 ! D36   D(15,2,5,21)          -89.5825         estimate D2E/DX2                !
 ! D37   D(16,2,5,12)          -93.5927         estimate D2E/DX2                !
 ! D38   D(16,2,5,20)          146.3037         estimate D2E/DX2                !
 ! D39   D(16,2,5,21)           28.6391         estimate D2E/DX2                !
 ! D40   D(12,3,11,1)          161.9525         estimate D2E/DX2                !
 ! D41   D(13,3,11,1)          -74.6761         Frozen                          !
 ! D42   D(17,3,11,1)           40.6616         estimate D2E/DX2                !
 ! D43   D(11,3,12,5)          155.6939         estimate D2E/DX2                !
 ! D44   D(11,3,12,30)          34.8551         estimate D2E/DX2                !
 ! D45   D(11,3,12,31)         -81.9367         estimate D2E/DX2                !
 ! D46   D(13,3,12,5)           33.0592         estimate D2E/DX2                !
 ! D47   D(13,3,12,30)         -87.7796         estimate D2E/DX2                !
 ! D48   D(13,3,12,31)         155.4286         estimate D2E/DX2                !
 ! D49   D(17,3,12,5)          -83.9433         estimate D2E/DX2                !
 ! D50   D(17,3,12,30)         155.2178         estimate D2E/DX2                !
 ! D51   D(17,3,12,31)          38.426          estimate D2E/DX2                !
 ! D52   D(11,3,13,4)          -90.5855         estimate D2E/DX2                !
 ! D53   D(12,3,13,4)           30.7444         estimate D2E/DX2                !
 ! D54   D(17,3,13,4)          151.3            estimate D2E/DX2                !
 ! D55   D(2,4,13,3)           -67.7182         estimate D2E/DX2                !
 ! D56   D(18,4,13,3)          170.9285         estimate D2E/DX2                !
 ! D57   D(19,4,13,3)           54.8642         estimate D2E/DX2                !
 ! D58   D(2,5,12,3)           -61.4794         estimate D2E/DX2                !
 ! D59   D(2,5,12,30)           58.8946         estimate D2E/DX2                !
 ! D60   D(2,5,12,31)          177.9713         estimate D2E/DX2                !
 ! D61   D(20,5,12,3)           59.1402         estimate D2E/DX2                !
 ! D62   D(20,5,12,30)         179.5142         estimate D2E/DX2                !
 ! D63   D(20,5,12,31)         -61.4091         estimate D2E/DX2                !
 ! D64   D(21,5,12,3)          176.074          estimate D2E/DX2                !
 ! D65   D(21,5,12,30)         -63.5519         estimate D2E/DX2                !
 ! D66   D(21,5,12,31)          55.5247         estimate D2E/DX2                !
 ! D67   D(1,6,10,8)           -51.7603         estimate D2E/DX2                !
 ! D68   D(1,6,10,28)         -172.9078         estimate D2E/DX2                !
 ! D69   D(1,6,10,29)           68.7249         estimate D2E/DX2                !
 ! D70   D(22,6,10,8)         -173.5526         estimate D2E/DX2                !
 ! D71   D(22,6,10,28)          65.2999         estimate D2E/DX2                !
 ! D72   D(22,6,10,29)         -53.0674         estimate D2E/DX2                !
 ! D73   D(23,6,10,8)           67.7272         estimate D2E/DX2                !
 ! D74   D(23,6,10,28)         -53.4203         estimate D2E/DX2                !
 ! D75   D(23,6,10,29)        -171.7876         estimate D2E/DX2                !
 ! D76   D(1,7,9,8)             61.1101         estimate D2E/DX2                !
 ! D77   D(24,7,9,8)          -177.6856         estimate D2E/DX2                !
 ! D78   D(25,7,9,8)           -60.0345         estimate D2E/DX2                !
 ! D79   D(10,8,9,7)           -60.3516         estimate D2E/DX2                !
 ! D80   D(26,8,9,7)            61.6768         estimate D2E/DX2                !
 ! D81   D(27,8,9,7)           178.3297         estimate D2E/DX2                !
 ! D82   D(9,8,10,6)            54.8283         estimate D2E/DX2                !
 ! D83   D(9,8,10,28)          176.6489         estimate D2E/DX2                !
 ! D84   D(9,8,10,29)          -66.1801         estimate D2E/DX2                !
 ! D85   D(26,8,10,6)          -66.2249         estimate D2E/DX2                !
 ! D86   D(26,8,10,28)          55.5958         estimate D2E/DX2                !
 ! D87   D(26,8,10,29)         172.7667         estimate D2E/DX2                !
 ! D88   D(27,8,10,6)          173.103          estimate D2E/DX2                !
 ! D89   D(27,8,10,28)         -65.0764         estimate D2E/DX2                !
 ! D90   D(27,8,10,29)          52.0946         estimate D2E/DX2                !
 --------------------------------------------------------------------------------
 Trust Radius=3.00D-01 FncErr=1.00D-07 GrdErr=1.00D-06 EigMax=2.50D+02 EigMin=1.00D-04
 Number of steps in this run=    186 maximum allowed number of steps=    186.
 GradGradGradGradGradGradGradGradGradGradGradGradGradGradGradGradGradGrad

                          Input orientation:                          
 ---------------------------------------------------------------------
 Center     Atomic      Atomic             Coordinates (Angstroms)
 Number     Number       Type             X           Y           Z
 ---------------------------------------------------------------------
      1          6           0        1.139065    0.040864   -0.071281
      2          6           0       -3.955742    0.572576   -0.080106
      3          6           0       -1.192998   -0.491475   -0.208522
      4          6           0       -2.661018    1.384110   -0.155966
      5          6           0       -3.638885   -0.930407    0.024534
      6          6           0        1.908866    1.135973    0.651443
      7          6           0        1.949066   -1.251066   -0.086543
      8          6           0        4.002316   -0.090379    0.015384
      9          8           0        3.212394   -1.039648   -0.678583
     10          6           0        3.313677    1.264619    0.056931
     11          8           0       -0.089364   -0.190466    0.596566
     12          6           0       -2.265905   -1.134195    0.661835
     13          8           0       -1.663881    0.660434   -0.860293
     14          1           0        0.944709    0.350335   -1.091917
     15          1           0       -4.568392    0.763953   -0.955164
     16          1           0       -4.520963    0.905995    0.785451
     17          1           0       -0.888590   -1.157862   -1.003492
     18          1           0       -2.799604    2.310160   -0.695311
     19          1           0       -2.293589    1.628789    0.834287
     20          1           0       -3.639906   -1.378057   -0.965331
     21          1           0       -4.401302   -1.443393    0.600520
     22          1           0        1.370384    2.075740    0.580493
     23          1           0        1.977879    0.876110    1.705483
     24          1           0        1.452883   -2.016110   -0.667900
     25          1           0        2.075093   -1.615197    0.930639
     26          1           0        4.189897   -0.455668    1.022583
     27          1           0        4.945895   -0.037847   -0.510213
     28          1           0        3.912661    1.954219    0.644075
     29          1           0        3.254022    1.663730   -0.952501
     30          1           0       -2.243253   -0.684997    1.650194
     31          1           0       -2.031667   -2.186182    0.780318
 ---------------------------------------------------------------------
                    Distance matrix (angstroms):
                    1          2          3          4          5
     1  C    0.000000
     2  C    5.122485   0.000000
     3  C    2.395984   2.963351   0.000000
     4  C    4.031391   1.529919   2.382365   0.000000
     5  C    4.876613   1.539580   2.495865   2.519086   0.000000
     6  C    1.521245   5.936852   3.606894   4.647292   5.953191
     7  C    1.524932   6.180006   3.234876   5.310541   5.598246
     8  C    2.867567   7.986195   5.215582   6.826676   7.687242
     9  O    2.415578   7.371541   4.464183   6.375320   6.888130
    10  C    2.498590   7.303571   4.844012   5.979681   7.290906
    11  O    1.417241   3.998624   1.398850   3.107893   3.670672
    12  C    3.675873   2.513781   1.523726   2.677083   1.527336
    13  O    2.977065   2.422610   1.404788   1.419178   2.685951
    14  H    1.084087   5.008750   2.461467   3.866001   4.888363
    15  H    5.820582   1.085215   3.677888   2.159025   2.166713
    16  H    5.789504   1.086201   3.743829   2.138751   2.174725
    17  H    2.533248   3.640670   1.081070   3.212697   2.944944
    18  H    4.588271   2.175852   3.266084   1.080587   3.424010
    19  H    3.889045   2.171279   2.606582   1.084192   3.002500
    20  H    5.064704   2.165259   2.710378   3.040207   1.086381
    21  H    5.774946   2.173915   3.442951   3.405236   1.084525
    22  H    2.149195   5.573465   3.712690   4.156071   5.868457
    23  H    2.134979   6.203895   3.948185   5.024184   6.134911
    24  H    2.164620   6.024950   3.088078   5.361693   5.252077
    25  H    2.150007   6.494531   3.638799   5.710280   5.825762
    26  H    3.278820   8.283999   5.521998   7.190883   7.906409
    27  H    3.832859   8.932903   6.163019   7.746779   8.647605
    28  H    3.444633   8.021542   5.725041   6.646679   8.107450
    29  H    2.807719   7.343867   4.997439   5.974977   7.429422
    30  H    3.863991   2.740081   2.143668   2.778119   2.156568
    31  H    3.967177   3.471763   2.133823   3.744288   2.175162
                    6          7          8          9         10
     6  C    0.000000
     7  C    2.498839   0.000000
     8  C    2.508195   2.360809   0.000000
     9  O    2.863823   1.411101   1.416573   0.000000
    10  C    1.530846   2.865557   1.520516   2.420927   0.000000
    11  O    2.399036   2.397229   4.133961   3.639879   3.740209
    12  C    4.752103   4.282489   6.387335   5.640693   6.103438
    13  O    3.908453   4.160037   5.782415   5.167335   5.097296
    14  H    2.141525   2.141027   3.281662   2.691708   2.787073
    15  H    6.683895   6.876922   8.667692   7.991877   7.962538
    16  H    6.435336   6.875650   8.615802   8.107634   7.876607
    17  H    3.978222   2.983584   5.108678   4.115533   4.965074
    18  H    5.036085   5.966808   7.248020   6.882268   6.247498
    19  H    4.235201   5.209761   6.577580   6.302791   5.672595
    20  H    6.302632   5.659064   7.811752   6.866641   7.508733
    21  H    6.817180   6.390322   8.531930   7.730943   8.194493
    22  H    1.085430   3.442012   3.455211   3.831960   2.169890
    23  H    1.087792   2.781558   2.808715   3.298170   2.157086
    24  H    3.447349   1.081418   3.267250   2.012330   3.840718
    25  H    2.770292   1.087719   2.622394   2.052877   3.254350
    26  H    2.806095   2.623765   1.087691   2.047074   2.158618
    27  H    3.456999   3.260733   1.081366   2.009224   2.163840
    28  H    2.164434   3.829277   2.140951   3.347094   1.085849
    29  H    2.158844   3.308902   2.138608   2.717539   1.087107
    30  H    4.642578   4.572989   6.483310   5.942480   6.100734
    31  H    5.155688   4.179967   6.433231   5.562653   6.403438
                   11         12         13         14         15
    11  O    0.000000
    12  C    2.373229   0.000000
    13  O    2.307720   2.428992   0.000000
    14  H    2.052498   3.948103   2.637149   0.000000
    15  H    4.835336   3.393980   2.907903   5.530286   0.000000
    16  H    4.569133   3.043508   3.306311   5.805759   1.747045
    17  H    2.033421   2.161220   1.981863   2.375597   4.151705
    18  H    3.907362   3.740356   2.009647   4.244772   2.363660
    19  H    2.867893   2.768499   2.050816   3.978854   3.020729
    20  H    4.056630   2.143599   2.840978   4.901230   2.334608
    21  H    4.490284   2.158537   3.748805   5.887413   2.705633
    22  H    2.695703   4.851072   3.644958   2.440323   6.272805
    23  H    2.576970   4.810429   4.460060   3.028090   7.067198
    24  H    2.703771   4.046647   4.112800   2.457253   6.638300
    25  H    2.612726   4.375829   4.729256   3.038390   7.304280
    26  H    4.308584   6.501378   6.249610   3.956260   9.061268
    27  H    5.157721   7.388216   6.655771   4.061841   9.558374
    28  H    4.540720   6.907481   5.919022   3.794055   8.712207
    29  H    4.125031   6.395628   5.020047   2.660333   7.873993
    30  H    2.448251   1.085885   2.906613   4.330610   3.780690
    31  H    2.790912   1.084243   3.306069   4.335666   4.260301
                   16         17         18         19         20
    16  H    0.000000
    17  H    4.544662   0.000000
    18  H    2.669721   3.971665   0.000000
    19  H    2.342224   3.621723   1.749282   0.000000
    20  H    3.009716   2.760377   3.792356   3.753974   0.000000
    21  H    2.359691   3.872148   4.281796   3.733015   1.742378
    22  H    6.009849   4.250665   4.367085   3.699848   6.278638
    23  H    6.563711   4.437593   5.535761   4.423906   6.616194
    24  H    6.807185   2.516288   6.066384   5.438557   5.141214
    25  H    7.062963   3.568394   6.466437   5.442252   6.025956
    26  H    8.819832   5.512630   7.710648   6.812929   8.130708
    27  H    9.601614   5.961457   8.095687   7.549535   8.701682
    28  H    8.499693   5.954119   6.853842   6.217686   8.410441
    29  H    8.002814   5.012506   6.093472   5.828363   7.535176
    30  H    2.909811   3.016747   3.844722   2.453944   3.044987
    31  H    3.969657   2.355004   4.794194   3.824333   2.507347
                   21         22         23         24         25
    21  H    0.000000
    22  H    6.759960   0.000000
    23  H    6.877135   1.753216   0.000000
    24  H    6.017340   4.278847   3.778029   0.000000
    25  H    6.487078   3.773888   2.610832   1.761591   0.000000
    26  H    8.658085   3.814856   2.670769   3.575466   2.413578
    27  H    9.517320   4.294318   3.814937   4.017402   3.578490
    28  H    8.981517   2.545974   2.456072   4.851319   4.024861
    29  H    8.406549   2.463314   3.051846   4.106863   3.960739
    30  H    2.516775   4.671649   4.500896   4.561452   4.475617
    31  H    2.489826   5.456909   5.129330   3.777347   4.148988
                   26         27         28         29         30
    26  H    0.000000
    27  H    1.759423   0.000000
    28  H    2.455134   2.523545   0.000000
    29  H    3.044449   2.439963   1.751355   0.000000
    30  H    6.467759   7.534588   6.772962   6.520013   0.000000
    31  H    6.462293   7.413986   7.245448   6.764835   1.747858
                   31
    31  H    0.000000
 Stoichiometry    C10H18O3
 Framework group  C1[X(C10H18O3)]
 Deg. of freedom    87
 Full point group                 C1      NOp   1
 Largest Abelian subgroup         C1      NOp   1
 Largest concise Abelian subgroup C1      NOp   1
                         Standard orientation:                         
 ---------------------------------------------------------------------
 Center     Atomic      Atomic             Coordinates (Angstroms)
 Number     Number       Type             X           Y           Z
 ---------------------------------------------------------------------
      1          6           0        1.139065    0.040864   -0.071281
      2          6           0       -3.955742    0.572576   -0.080106
      3          6           0       -1.192998   -0.491475   -0.208522
      4          6           0       -2.661018    1.384110   -0.155966
      5          6           0       -3.638885   -0.930407    0.024534
      6          6           0        1.908866    1.135973    0.651443
      7          6           0        1.949066   -1.251066   -0.086543
      8          6           0        4.002316   -0.090379    0.015384
      9          8           0        3.212394   -1.039648   -0.678583
     10          6           0        3.313677    1.264619    0.056931
     11          8           0       -0.089364   -0.190466    0.596566
     12          6           0       -2.265905   -1.134195    0.661835
     13          8           0       -1.663881    0.660434   -0.860293
     14          1           0        0.944709    0.350335   -1.091917
     15          1           0       -4.568392    0.763953   -0.955164
     16          1           0       -4.520963    0.905995    0.785451
     17          1           0       -0.888590   -1.157862   -1.003492
     18          1           0       -2.799604    2.310160   -0.695311
     19          1           0       -2.293589    1.628789    0.834287
     20          1           0       -3.639906   -1.378057   -0.965331
     21          1           0       -4.401302   -1.443393    0.600520
     22          1           0        1.370384    2.075740    0.580493
     23          1           0        1.977879    0.876110    1.705483
     24          1           0        1.452883   -2.016110   -0.667900
     25          1           0        2.075093   -1.615197    0.930639
     26          1           0        4.189897   -0.455668    1.022583
     27          1           0        4.945895   -0.037847   -0.510213
     28          1           0        3.912661    1.954219    0.644075
     29          1           0        3.254022    1.663730   -0.952501
     30          1           0       -2.243253   -0.684997    1.650194
     31          1           0       -2.031667   -2.186182    0.780318
 ---------------------------------------------------------------------
 Rotational constants (GHZ):           2.2357373           0.3658892           0.3366951
 Standard basis: 6-311++G(2d,2p) (5D, 7F)
 There are   557 symmetry adapted cartesian basis functions of A   symmetry.
 There are   531 symmetry adapted basis functions of A   symmetry.
   531 basis functions,   762 primitive gaussians,   557 cartesian basis functions
    51 alpha electrons       51 beta electrons
       nuclear repulsion energy       880.3532687270 Hartrees.
 NAtoms=   31 NActive=   31 NUniq=   31 SFac= 1.00D+00 NAtFMM=   60 NAOKFM=F Big=F
 Integral buffers will be    131072 words long.
 Raffenetti 2 integral format.
 Two-electron integral symmetry is turned on.
 ------------------------------------------------------------------------------
 Polarizable Continuum Model (PCM)
 =================================
 Model                : PCM.
 Atomic radii         : UFF (Universal Force Field).
 Polarization charges : Total charges.
 Charge compensation  : None.
 Solution method      : On-the-fly selection.
 Cavity type          : Scaled VdW (van der Waals Surface) (Alpha=1.100).
 Cavity algorithm     : GePol (No added spheres)
                        Default sphere list used, NSphG=   31.
                        Lebedev-Laikov grids with approx.  5.0 points / Ang**2.
                        Smoothing algorithm: York/Karplus (Gamma=1.0000).
                        Polarization charges: spherical gaussians, with
                                              point-specific exponents (IZeta= 3).
                        Self-potential: point-specific (ISelfS= 7).
                        Self-field    : sphere-specific E.n sum rule (ISelfD= 2).
 1st derivatives      : Analytical E(r).r(x)/FMM algorithm (CHGder, D1EAlg=3).
                        Cavity 1st derivative terms included.
 Solvent              : Water, Eps=  78.355300 Eps(inf)=   1.777849
 ------------------------------------------------------------------------------
 One-electron integrals computed using PRISM.
 NBasis=   531 RedAO= T EigKep=  5.45D-06  NBF=   531
 NBsUse=   531 1.00D-06 EigRej= -1.00D+00 NBFU=   531
 ExpMin= 3.60D-02 ExpMax= 8.59D+03 ExpMxC= 1.30D+03 IAcc=3 IRadAn=         5 AccDes= 0.00D+00
 Harris functional with IExCor= 1009 and IRadAn=       5 diagonalized for initial guess.
 HarFok:  IExCor= 1009 AccDes= 0.00D+00 IRadAn=         5 IDoV= 1 UseB2=F ITyADJ=14
 ICtDFT=  3500011 ScaDFX=  1.000000  1.000000  1.000000  1.000000
 FoFCou: FMM=F IPFlag=           0 FMFlag=      100000 FMFlg1=           0
         NFxFlg=           0 DoJE=T BraDBF=F KetDBF=T FulRan=T
         wScrn=  0.000000 ICntrl=       500 IOpCl=  0 I1Cent=   200000004 NGrid=           0
         NMat0=    1 NMatS0=      1 NMatT0=    0 NMatD0=    1 NMtDS0=    0 NMtDT0=    0
 Petite list used in FoFCou.
 Requested convergence on RMS density matrix=1.00D-08 within 128 cycles.
 Requested convergence on MAX density matrix=1.00D-06.
 Requested convergence on             energy=1.00D-06.
 No special actions if energy rises.
 Inv3:  Mode=1 IEnd=    13280448.
 Iteration    1 A*A^-1 deviation from unit magnitude is 6.00D-15 for   2090.
 Iteration    1 A*A^-1 deviation from orthogonality  is 2.17D-15 for   1625    535.
 Iteration    1 A^-1*A deviation from unit magnitude is 6.00D-15 for   2090.
 Iteration    1 A^-1*A deviation from orthogonality  is 2.06D-15 for   1944    592.
 Error on total polarization charges =  0.01504
 SCF Done:  E(RM062X) =  -617.496806556     A.U. after   12 cycles
            NFock= 12  Conv=0.49D-08     -V/T= 2.0035

 **********************************************************************

            Population analysis using the SCF density.

 **********************************************************************

 Orbital symmetries:
       Occupied  (A) (A) (A) (A) (A) (A) (A) (A) (A) (A) (A) (A)
                 (A) (A) (A) (A) (A) (A) (A) (A) (A) (A) (A) (A)
                 (A) (A) (A) (A) (A) (A) (A) (A) (A) (A) (A) (A)
                 (A) (A) (A) (A) (A) (A) (A) (A) (A) (A) (A) (A)
                 (A) (A) (A)
       Virtual   (A) (A) (A) (A) (A) (A) (A) (A) (A) (A) (A) (A)
                 (A) (A) (A) (A) (A) (A) (A) (A) (A) (A) (A) (A)
                 (A) (A) (A) (A) (A) (A) (A) (A) (A) (A) (A) (A)
                 (A) (A) (A) (A) (A) (A) (A) (A) (A) (A) (A) (A)
                 (A) (A) (A) (A) (A) (A) (A) (A) (A) (A) (A) (A)
                 (A) (A) (A) (A) (A) (A) (A) (A) (A) (A) (A) (A)
                 (A) (A) (A) (A) (A) (A) (A) (A) (A) (A) (A) (A)
                 (A) (A) (A) (A) (A) (A) (A) (A) (A) (A) (A) (A)
                 (A) (A) (A) (A) (A) (A) (A) (A) (A) (A) (A) (A)
                 (A) (A) (A) (A) (A) (A) (A) (A) (A) (A) (A) (A)
                 (A) (A) (A) (A) (A) (A) (A) (A) (A) (A) (A) (A)
                 (A) (A) (A) (A) (A) (A) (A) (A) (A) (A) (A) (A)
                 (A) (A) (A) (A) (A) (A) (A) (A) (A) (A) (A) (A)
                 (A) (A) (A) (A) (A) (A) (A) (A) (A) (A) (A) (A)
                 (A) (A) (A) (A) (A) (A) (A) (A) (A) (A) (A) (A)
                 (A) (A) (A) (A) (A) (A) (A) (A) (A) (A) (A) (A)
                 (A) (A) (A) (A) (A) (A) (A) (A) (A) (A) (A) (A)
                 (A) (A) (A) (A) (A) (A) (A) (A) (A) (A) (A) (A)
                 (A) (A) (A) (A) (A) (A) (A) (A) (A) (A) (A) (A)
                 (A) (A) (A) (A) (A) (A) (A) (A) (A) (A) (A) (A)
                 (A) (A) (A) (A) (A) (A) (A) (A) (A) (A) (A) (A)
                 (A) (A) (A) (A) (A) (A) (A) (A) (A) (A) (A) (A)
                 (A) (A) (A) (A) (A) (A) (A) (A) (A) (A) (A) (A)
                 (A) (A) (A) (A) (A) (A) (A) (A) (A) (A) (A) (A)
                 (A) (A) (A) (A) (A) (A) (A) (A) (A) (A) (A) (A)
                 (A) (A) (A) (A) (A) (A) (A) (A) (A) (A) (A) (A)
                 (A) (A) (A) (A) (A) (A) (A) (A) (A) (A) (A) (A)
                 (A) (A) (A) (A) (A) (A) (A) (A) (A) (A) (A) (A)
                 (A) (A) (A) (A) (A) (A) (A) (A) (A) (A) (A) (A)
                 (A) (A) (A) (A) (A) (A) (A) (A) (A) (A) (A) (A)
                 (A) (A) (A) (A) (A) (A) (A) (A) (A) (A) (A) (A)
                 (A) (A) (A) (A) (A) (A) (A) (A) (A) (A) (A) (A)
                 (A) (A) (A) (A) (A) (A) (A) (A) (A) (A) (A) (A)
                 (A) (A) (A) (A) (A) (A) (A) (A) (A) (A) (A) (A)
                 (A) (A) (A) (A) (A) (A) (A) (A) (A) (A) (A) (A)
                 (A) (A) (A) (A) (A) (A) (A) (A) (A) (A) (A) (A)
                 (A) (A) (A) (A) (A) (A) (A) (A) (A) (A) (A) (A)
                 (A) (A) (A) (A) (A) (A) (A) (A) (A) (A) (A) (A)
                 (A) (A) (A) (A) (A) (A) (A) (A) (A) (A) (A) (A)
                 (A) (A) (A) (A) (A) (A) (A) (A) (A) (A) (A) (A)
 The electronic state is 1-A.
 Alpha  occ. eigenvalues --  -19.63187 -19.62922 -19.62798 -10.63538 -10.58592
 Alpha  occ. eigenvalues --  -10.57872 -10.57821 -10.57765 -10.53206 -10.53176
 Alpha  occ. eigenvalues --  -10.53163 -10.53136 -10.52804  -1.20280  -1.16771
 Alpha  occ. eigenvalues --   -1.13892  -0.90956  -0.89806  -0.87354  -0.84497
 Alpha  occ. eigenvalues --   -0.75389  -0.74292  -0.73653  -0.70468  -0.65844
 Alpha  occ. eigenvalues --   -0.62748  -0.60744  -0.59165  -0.58402  -0.56888
 Alpha  occ. eigenvalues --   -0.55547  -0.53046  -0.52656  -0.49866  -0.49489
 Alpha  occ. eigenvalues --   -0.47881  -0.46899  -0.46028  -0.45700  -0.44564
 Alpha  occ. eigenvalues --   -0.44523  -0.43008  -0.40699  -0.40397  -0.39033
 Alpha  occ. eigenvalues --   -0.38625  -0.38194  -0.36088  -0.35290  -0.34035
 Alpha  occ. eigenvalues --   -0.31757
 Alpha virt. eigenvalues --   -0.00104   0.00755   0.00884   0.01022   0.02107
 Alpha virt. eigenvalues --    0.02405   0.02548   0.03629   0.03708   0.04146
 Alpha virt. eigenvalues --    0.04246   0.04650   0.05590   0.05858   0.06778
 Alpha virt. eigenvalues --    0.07156   0.07583   0.07873   0.08458   0.09086
 Alpha virt. eigenvalues --    0.10037   0.10585   0.10977   0.11527   0.11912
 Alpha virt. eigenvalues --    0.12274   0.12408   0.12684   0.13128   0.13270
 Alpha virt. eigenvalues --    0.13460   0.14007   0.14205   0.14545   0.14897
 Alpha virt. eigenvalues --    0.15043   0.15233   0.15462   0.15891   0.16214
 Alpha virt. eigenvalues --    0.16390   0.16731   0.16967   0.17274   0.17792
 Alpha virt. eigenvalues --    0.17897   0.18146   0.18826   0.19068   0.19472
 Alpha virt. eigenvalues --    0.19918   0.19989   0.20631   0.20980   0.21372
 Alpha virt. eigenvalues --    0.22154   0.22391   0.22522   0.23846   0.24390
 Alpha virt. eigenvalues --    0.24538   0.25236   0.26159   0.26761   0.26989
 Alpha virt. eigenvalues --    0.27177   0.27615   0.28261   0.28526   0.28962
 Alpha virt. eigenvalues --    0.29444   0.30120   0.30748   0.31076   0.31577
 Alpha virt. eigenvalues --    0.32236   0.32672   0.33593   0.33742   0.34270
 Alpha virt. eigenvalues --    0.34502   0.35047   0.35516   0.36278   0.36480
 Alpha virt. eigenvalues --    0.36657   0.36764   0.37328   0.37442   0.37893
 Alpha virt. eigenvalues --    0.38997   0.39273   0.39788   0.40407   0.40780
 Alpha virt. eigenvalues --    0.41712   0.42405   0.43393   0.43617   0.44248
 Alpha virt. eigenvalues --    0.45625   0.48148   0.48913   0.49982   0.50321
 Alpha virt. eigenvalues --    0.51595   0.52180   0.52522   0.53762   0.54358
 Alpha virt. eigenvalues --    0.55218   0.55969   0.56771   0.57499   0.58867
 Alpha virt. eigenvalues --    0.59521   0.59812   0.60524   0.60950   0.61519
 Alpha virt. eigenvalues --    0.61894   0.62079   0.62854   0.62961   0.63674
 Alpha virt. eigenvalues --    0.64054   0.64720   0.65565   0.66170   0.67173
 Alpha virt. eigenvalues --    0.67282   0.68503   0.68983   0.69895   0.70210
 Alpha virt. eigenvalues --    0.70544   0.71306   0.71450   0.72147   0.73007
 Alpha virt. eigenvalues --    0.73305   0.74399   0.74601   0.75057   0.75524
 Alpha virt. eigenvalues --    0.75943   0.76618   0.76839   0.77798   0.77973
 Alpha virt. eigenvalues --    0.81192   0.82189   0.83607   0.84602   0.85402
 Alpha virt. eigenvalues --    0.86419   0.86942   0.88427   0.88924   0.89367
 Alpha virt. eigenvalues --    0.90261   0.91155   0.91957   0.92549   0.95004
 Alpha virt. eigenvalues --    0.96102   0.96955   0.98700   0.99809   1.01828
 Alpha virt. eigenvalues --    1.02653   1.04590   1.05688   1.06104   1.06891
 Alpha virt. eigenvalues --    1.07531   1.08363   1.08904   1.10301   1.11277
 Alpha virt. eigenvalues --    1.12708   1.13637   1.14210   1.16088   1.16771
 Alpha virt. eigenvalues --    1.17126   1.17723   1.18008   1.18501   1.19908
 Alpha virt. eigenvalues --    1.20724   1.21403   1.22832   1.23198   1.24754
 Alpha virt. eigenvalues --    1.24958   1.26023   1.26211   1.26745   1.27920
 Alpha virt. eigenvalues --    1.28351   1.29453   1.29582   1.30091   1.30930
 Alpha virt. eigenvalues --    1.31869   1.32403   1.32618   1.33221   1.33514
 Alpha virt. eigenvalues --    1.33909   1.34961   1.35884   1.37064   1.37523
 Alpha virt. eigenvalues --    1.38112   1.38433   1.38685   1.40403   1.41202
 Alpha virt. eigenvalues --    1.41561   1.41807   1.42926   1.43362   1.45152
 Alpha virt. eigenvalues --    1.45314   1.45736   1.47335   1.48089   1.48309
 Alpha virt. eigenvalues --    1.48993   1.49259   1.50271   1.51252   1.51752
 Alpha virt. eigenvalues --    1.52453   1.53039   1.53387   1.53979   1.54480
 Alpha virt. eigenvalues --    1.55439   1.56256   1.56962   1.57697   1.58696
 Alpha virt. eigenvalues --    1.58780   1.59082   1.60350   1.60925   1.61728
 Alpha virt. eigenvalues --    1.62721   1.63418   1.64608   1.65376   1.66181
 Alpha virt. eigenvalues --    1.66988   1.67770   1.69163   1.69540   1.70979
 Alpha virt. eigenvalues --    1.71332   1.74759   1.75597   1.75795   1.76257
 Alpha virt. eigenvalues --    1.78290   1.78714   1.79652   1.81757   1.82997
 Alpha virt. eigenvalues --    1.87571   1.88382   1.90289   1.94901   1.96681
 Alpha virt. eigenvalues --    2.01259   2.02719   2.09471   2.09748   2.18284
 Alpha virt. eigenvalues --    2.24340   2.25300   2.32652   2.35150   2.38655
 Alpha virt. eigenvalues --    2.41044   2.43186   2.45630   2.45991   2.51580
 Alpha virt. eigenvalues --    2.56380   2.75846   2.76277   2.79910   2.80432
 Alpha virt. eigenvalues --    2.87444   2.88803   2.89963   2.92083   2.93137
 Alpha virt. eigenvalues --    2.93528   2.96391   3.00136   3.01145   3.02436
 Alpha virt. eigenvalues --    3.05745   3.07211   3.07442   3.09074   3.09974
 Alpha virt. eigenvalues --    3.12548   3.14327   3.16828   3.18481   3.22768
 Alpha virt. eigenvalues --    3.26137   3.28222   3.30556   3.31275   3.33327
 Alpha virt. eigenvalues --    3.35114   3.36538   3.36924   3.39455   3.40458
 Alpha virt. eigenvalues --    3.41970   3.42113   3.43937   3.44655   3.45519
 Alpha virt. eigenvalues --    3.47843   3.48461   3.48744   3.49417   3.50249
 Alpha virt. eigenvalues --    3.51363   3.54076   3.54293   3.55012   3.55907
 Alpha virt. eigenvalues --    3.56959   3.57396   3.58676   3.59253   3.60054
 Alpha virt. eigenvalues --    3.60964   3.61421   3.63041   3.63834   3.64410
 Alpha virt. eigenvalues --    3.65726   3.66193   3.67961   3.68480   3.69614
 Alpha virt. eigenvalues --    3.70420   3.71197   3.71690   3.72870   3.73490
 Alpha virt. eigenvalues --    3.73778   3.75313   3.75878   3.77332   3.78282
 Alpha virt. eigenvalues --    3.79681   3.80526   3.82259   3.84065   3.85789
 Alpha virt. eigenvalues --    3.85794   3.87102   3.88870   3.90144   3.91420
 Alpha virt. eigenvalues --    3.93250   3.93749   3.95483   3.97982   3.99076
 Alpha virt. eigenvalues --    3.99773   4.00966   4.02475   4.03179   4.03281
 Alpha virt. eigenvalues --    4.04530   4.05064   4.06188   4.06452   4.07776
 Alpha virt. eigenvalues --    4.07919   4.08653   4.09376   4.10158   4.11319
 Alpha virt. eigenvalues --    4.12433   4.13554   4.14015   4.15315   4.16453
 Alpha virt. eigenvalues --    4.16816   4.17643   4.18584   4.19421   4.20082
 Alpha virt. eigenvalues --    4.20611   4.21741   4.25010   4.25315   4.25768
 Alpha virt. eigenvalues --    4.27336   4.27379   4.28925   4.30426   4.31665
 Alpha virt. eigenvalues --    4.32499   4.33229   4.35163   4.36608   4.38464
 Alpha virt. eigenvalues --    4.41970   4.42096   4.45012   4.47892   4.52051
 Alpha virt. eigenvalues --    4.57133   4.59020   4.75094   4.76440   4.82514
 Alpha virt. eigenvalues --    4.84720   4.92479   4.95508   4.99556   5.00548
 Alpha virt. eigenvalues --    5.02879   5.06751   5.08398   5.11903   5.12618
 Alpha virt. eigenvalues --    5.13614   5.14979   5.18158   5.30350   5.37723
 Alpha virt. eigenvalues --    5.40551   5.57368   5.58732   5.64381   5.85882
 Alpha virt. eigenvalues --    5.87963   6.05916   7.03859   7.04823   7.05899
 Alpha virt. eigenvalues --    7.06326   7.09848   7.11322   7.13266   7.19668
 Alpha virt. eigenvalues --    7.26576   7.35595   7.37716   7.42489   7.52780
 Alpha virt. eigenvalues --    7.55735   7.64182  23.95962  23.98829  24.04666
 Alpha virt. eigenvalues --   24.07039  24.10748  24.12223  24.13111  24.15496
 Alpha virt. eigenvalues --   24.16197  24.20716  50.17504  50.18049  50.23325
          Condensed to atoms (all electrons):
               1          2          3          4          5          6
     1  C    8.359699   0.051499  -0.394385   0.023860  -0.090280  -1.707130
     2  C    0.051499   6.122513   0.503734  -0.328209  -0.368373  -0.020937
     3  C   -0.394385   0.503734   6.739812  -0.510256  -0.288958  -0.022850
     4  C    0.023860  -0.328209  -0.510256   5.795194   0.344736   0.036203
     5  C   -0.090280  -0.368373  -0.288958   0.344736   5.892159  -0.006310
     6  C   -1.707130  -0.020937  -0.022850   0.036203  -0.006310   7.340892
     7  C   -0.679594  -0.026046  -0.027560   0.037568   0.031383   0.042056
     8  C    0.249224   0.002588  -0.008552  -0.002254  -0.002995  -0.163897
     9  O    0.010800   0.000044  -0.004729   0.000016  -0.000599  -0.008572
    10  C   -0.266281  -0.004853  -0.097300   0.012588  -0.000458   0.155523
    11  O    0.226954   0.022545   0.365530  -0.002078  -0.015568  -0.141854
    12  C   -0.022191  -0.205781  -0.592285  -0.134597   0.137310  -0.128668
    13  O    0.030593  -0.012242   0.276243   0.051823  -0.105031  -0.077051
    14  H    0.408619   0.005264  -0.018722  -0.004604  -0.007698   0.076112
    15  H    0.002535   0.481642  -0.007944  -0.087963  -0.052111  -0.004008
    16  H   -0.002015   0.470878   0.014565  -0.044967  -0.066604   0.004558
    17  H    0.120326   0.034148   0.495528  -0.054506  -0.039228  -0.027747
    18  H   -0.007169  -0.010785   0.022516   0.424770  -0.007563   0.010567
    19  H    0.003889  -0.092538  -0.044450   0.480425   0.002917  -0.011293
    20  H    0.000913  -0.075789  -0.033223   0.005345   0.463514   0.004774
    21  H   -0.000633  -0.050424   0.014794   0.005846   0.447538  -0.002463
    22  H   -0.045462  -0.005093   0.003281   0.005548   0.000437   0.393154
    23  H    0.005122   0.000839   0.008953  -0.001776   0.001053   0.484977
    24  H   -0.147081  -0.002619   0.022352   0.004793   0.002986   0.054805
    25  H    0.028942   0.001818   0.000105  -0.003858  -0.005275  -0.025284
    26  H    0.048721   0.000024   0.003644  -0.000269  -0.000041  -0.030431
    27  H    0.004405   0.000091  -0.002425  -0.000012  -0.000118   0.010713
    28  H   -0.021461  -0.000191  -0.003246   0.000606  -0.000004  -0.014922
    29  H   -0.018808  -0.000161   0.004981  -0.000389   0.000219  -0.024189
    30  H   -0.006643   0.009104  -0.062931  -0.029609  -0.069807   0.006449
    31  H   -0.018983  -0.004172  -0.024193   0.015390   0.005580   0.004675
               7          8          9         10         11         12
     1  C   -0.679594   0.249224   0.010800  -0.266281   0.226954  -0.022191
     2  C   -0.026046   0.002588   0.000044  -0.004853   0.022545  -0.205781
     3  C   -0.027560  -0.008552  -0.004729  -0.097300   0.365530  -0.592285
     4  C    0.037568  -0.002254   0.000016   0.012588  -0.002078  -0.134597
     5  C    0.031383  -0.002995  -0.000599  -0.000458  -0.015568   0.137310
     6  C    0.042056  -0.163897  -0.008572   0.155523  -0.141854  -0.128668
     7  C    6.203062  -0.250776   0.168994   0.180893  -0.179709   0.112767
     8  C   -0.250776   5.385248   0.102179   0.068815   0.017304  -0.008550
     9  O    0.168994   0.102179   8.324604  -0.038215   0.004679   0.001028
    10  C    0.180893   0.068815  -0.038215   5.604207   0.002083   0.009441
    11  O   -0.179709   0.017304   0.004679   0.002083   8.260519  -0.247712
    12  C    0.112767  -0.008550   0.001028   0.009441  -0.247712   6.445213
    13  O    0.025507   0.000526   0.000081  -0.003723  -0.022341   0.002452
    14  H   -0.079026   0.005645  -0.010737  -0.011611  -0.013876  -0.020468
    15  H   -0.000681   0.000061  -0.000008  -0.000303   0.000137   0.048270
    16  H    0.000481  -0.000034   0.000007   0.000344   0.000752  -0.018557
    17  H   -0.067240   0.006428   0.000409  -0.015009  -0.037097  -0.020157
    18  H    0.001218  -0.000157   0.000022   0.001531  -0.001045  -0.024090
    19  H    0.003004  -0.000467  -0.000111  -0.001788   0.010950   0.045553
    20  H    0.000250  -0.000142   0.000028   0.000336   0.000144  -0.011084
    21  H    0.000597  -0.000016  -0.000013  -0.000125  -0.003149  -0.045765
    22  H    0.024175  -0.003074  -0.001534   0.016594   0.005061   0.006158
    23  H   -0.037827  -0.011594   0.000289  -0.083262  -0.005183   0.001664
    24  H    0.465663  -0.001533  -0.075991   0.022336  -0.005595  -0.001787
    25  H    0.358458   0.014560  -0.037679  -0.015656   0.009031   0.003800
    26  H   -0.040944   0.467785  -0.043142  -0.045123  -0.000333   0.000817
    27  H    0.010260   0.434304  -0.072279  -0.048775   0.001115  -0.000311
    28  H   -0.002156  -0.039290   0.007277   0.437154  -0.001610  -0.000870
    29  H    0.005945  -0.081580  -0.001656   0.487871  -0.000528   0.002340
    30  H   -0.003112   0.000165  -0.000015  -0.000216  -0.014573   0.534543
    31  H    0.008897  -0.000835   0.000411   0.000514   0.001677   0.388378
              13         14         15         16         17         18
     1  C    0.030593   0.408619   0.002535  -0.002015   0.120326  -0.007169
     2  C   -0.012242   0.005264   0.481642   0.470878   0.034148  -0.010785
     3  C    0.276243  -0.018722  -0.007944   0.014565   0.495528   0.022516
     4  C    0.051823  -0.004604  -0.087963  -0.044967  -0.054506   0.424770
     5  C   -0.105031  -0.007698  -0.052111  -0.066604  -0.039228  -0.007563
     6  C   -0.077051   0.076112  -0.004008   0.004558  -0.027747   0.010567
     7  C    0.025507  -0.079026  -0.000681   0.000481  -0.067240   0.001218
     8  C    0.000526   0.005645   0.000061  -0.000034   0.006428  -0.000157
     9  O    0.000081  -0.010737  -0.000008   0.000007   0.000409   0.000022
    10  C   -0.003723  -0.011611  -0.000303   0.000344  -0.015009   0.001531
    11  O   -0.022341  -0.013876   0.000137   0.000752  -0.037097  -0.001045
    12  C    0.002452  -0.020468   0.048270  -0.018557  -0.020157  -0.024090
    13  O    8.288645  -0.001747  -0.010532   0.012862  -0.113476  -0.067052
    14  H   -0.001747   0.434522  -0.000151   0.000230  -0.011657   0.000478
    15  H   -0.010532  -0.000151   0.511671  -0.022636   0.003971  -0.011765
    16  H    0.012862   0.000230  -0.022636   0.504472  -0.001102   0.000429
    17  H   -0.113476  -0.011657   0.003971  -0.001102   0.499314  -0.001830
    18  H   -0.067052   0.000478  -0.011765   0.000429  -0.001830   0.473669
    19  H   -0.023316  -0.000204   0.006288  -0.002038  -0.001132  -0.007332
    20  H    0.013024   0.001005  -0.014591   0.007238  -0.007080  -0.000066
    21  H   -0.005218  -0.000344   0.000365  -0.006401   0.000685  -0.000385
    22  H    0.000831  -0.009510  -0.000042   0.000288  -0.000026  -0.000043
    23  H    0.000412   0.005108   0.000032  -0.000156  -0.000348  -0.000116
    24  H    0.002582   0.000874  -0.000263   0.000085  -0.015434   0.000371
    25  H   -0.001130  -0.004795   0.000069  -0.000010   0.008315  -0.000169
    26  H    0.000019  -0.002180   0.000002  -0.000005   0.000472  -0.000029
    27  H    0.000008  -0.000406   0.000001   0.000001   0.000245   0.000008
    28  H   -0.000425   0.001214  -0.000021   0.000024  -0.000375   0.000133
    29  H    0.000277  -0.007625   0.000007  -0.000019   0.000572  -0.000101
    30  H    0.001301  -0.000817  -0.003612   0.001337   0.001761  -0.001267
    31  H    0.009097   0.000834   0.000184  -0.000039  -0.015907   0.001286
              19         20         21         22         23         24
     1  C    0.003889   0.000913  -0.000633  -0.045462   0.005122  -0.147081
     2  C   -0.092538  -0.075789  -0.050424  -0.005093   0.000839  -0.002619
     3  C   -0.044450  -0.033223   0.014794   0.003281   0.008953   0.022352
     4  C    0.480425   0.005345   0.005846   0.005548  -0.001776   0.004793
     5  C    0.002917   0.463514   0.447538   0.000437   0.001053   0.002986
     6  C   -0.011293   0.004774  -0.002463   0.393154   0.484977   0.054805
     7  C    0.003004   0.000250   0.000597   0.024175  -0.037827   0.465663
     8  C   -0.000467  -0.000142  -0.000016  -0.003074  -0.011594  -0.001533
     9  O   -0.000111   0.000028  -0.000013  -0.001534   0.000289  -0.075991
    10  C   -0.001788   0.000336  -0.000125   0.016594  -0.083262   0.022336
    11  O    0.010950   0.000144  -0.003149   0.005061  -0.005183  -0.005595
    12  C    0.045553  -0.011084  -0.045765   0.006158   0.001664  -0.001787
    13  O   -0.023316   0.013024  -0.005218   0.000831   0.000412   0.002582
    14  H   -0.000204   0.001005  -0.000344  -0.009510   0.005108   0.000874
    15  H    0.006288  -0.014591   0.000365  -0.000042   0.000032  -0.000263
    16  H   -0.002038   0.007238  -0.006401   0.000288  -0.000156   0.000085
    17  H   -0.001132  -0.007080   0.000685  -0.000026  -0.000348  -0.015434
    18  H   -0.007332  -0.000066  -0.000385  -0.000043  -0.000116   0.000371
    19  H    0.493713   0.000413  -0.000777  -0.000327   0.000411  -0.000436
    20  H    0.000413   0.492706  -0.011780   0.000064   0.000013   0.001010
    21  H   -0.000777  -0.011780   0.478410   0.000036   0.000026  -0.000101
    22  H   -0.000327   0.000064   0.000036   0.492486  -0.017090  -0.000477
    23  H    0.000411   0.000013   0.000026  -0.017090   0.457935  -0.001861
    24  H   -0.000436   0.001010  -0.000101  -0.000477  -0.001861   0.507942
    25  H    0.000071  -0.000151   0.000013  -0.000853  -0.003667  -0.025332
    26  H    0.000096  -0.000016   0.000007   0.000403  -0.005343  -0.005582
    27  H   -0.000062  -0.000002  -0.000002   0.000725  -0.000746   0.002334
    28  H   -0.000151   0.000023  -0.000006  -0.013080  -0.004896   0.002946
    29  H    0.000165  -0.000013   0.000007  -0.002037   0.003121  -0.002408
    30  H   -0.009009   0.005792  -0.004177   0.000684  -0.000517   0.001171
    31  H    0.000442   0.000091  -0.009383  -0.000111   0.000212  -0.000504
              25         26         27         28         29         30
     1  C    0.028942   0.048721   0.004405  -0.021461  -0.018808  -0.006643
     2  C    0.001818   0.000024   0.000091  -0.000191  -0.000161   0.009104
     3  C    0.000105   0.003644  -0.002425  -0.003246   0.004981  -0.062931
     4  C   -0.003858  -0.000269  -0.000012   0.000606  -0.000389  -0.029609
     5  C   -0.005275  -0.000041  -0.000118  -0.000004   0.000219  -0.069807
     6  C   -0.025284  -0.030431   0.010713  -0.014922  -0.024189   0.006449
     7  C    0.358458  -0.040944   0.010260  -0.002156   0.005945  -0.003112
     8  C    0.014560   0.467785   0.434304  -0.039290  -0.081580   0.000165
     9  O   -0.037679  -0.043142  -0.072279   0.007277  -0.001656  -0.000015
    10  C   -0.015656  -0.045123  -0.048775   0.437154   0.487871  -0.000216
    11  O    0.009031  -0.000333   0.001115  -0.001610  -0.000528  -0.014573
    12  C    0.003800   0.000817  -0.000311  -0.000870   0.002340   0.534543
    13  O   -0.001130   0.000019   0.000008  -0.000425   0.000277   0.001301
    14  H   -0.004795  -0.002180  -0.000406   0.001214  -0.007625  -0.000817
    15  H    0.000069   0.000002   0.000001  -0.000021   0.000007  -0.003612
    16  H   -0.000010  -0.000005   0.000001   0.000024  -0.000019   0.001337
    17  H    0.008315   0.000472   0.000245  -0.000375   0.000572   0.001761
    18  H   -0.000169  -0.000029   0.000008   0.000133  -0.000101  -0.001267
    19  H    0.000071   0.000096  -0.000062  -0.000151   0.000165  -0.009009
    20  H   -0.000151  -0.000016  -0.000002   0.000023  -0.000013   0.005792
    21  H    0.000013   0.000007  -0.000002  -0.000006   0.000007  -0.004177
    22  H   -0.000853   0.000403   0.000725  -0.013080  -0.002037   0.000684
    23  H   -0.003667  -0.005343  -0.000746  -0.004896   0.003121  -0.000517
    24  H   -0.025332  -0.005582   0.002334   0.002946  -0.002408   0.001171
    25  H    0.493595   0.010488  -0.001740  -0.002307   0.002261   0.001130
    26  H    0.010488   0.495752  -0.005550   0.002871   0.002551   0.000057
    27  H   -0.001740  -0.005550   0.471644  -0.008897  -0.003613   0.000005
    28  H   -0.002307   0.002871  -0.008897   0.485434  -0.008004  -0.000029
    29  H    0.002261   0.002551  -0.003613  -0.008004   0.475395   0.000128
    30  H    0.001130   0.000057   0.000005  -0.000029   0.000128   0.453284
    31  H   -0.001662  -0.000035  -0.000036   0.000011   0.000008  -0.012611
              31
     1  C   -0.018983
     2  C   -0.004172
     3  C   -0.024193
     4  C    0.015390
     5  C    0.005580
     6  C    0.004675
     7  C    0.008897
     8  C   -0.000835
     9  O    0.000411
    10  C    0.000514
    11  O    0.001677
    12  C    0.388378
    13  O    0.009097
    14  H    0.000834
    15  H    0.000184
    16  H   -0.000039
    17  H   -0.015907
    18  H    0.001286
    19  H    0.000442
    20  H    0.000091
    21  H   -0.009383
    22  H   -0.000111
    23  H    0.000212
    24  H   -0.000504
    25  H   -0.001662
    26  H   -0.000035
    27  H   -0.000036
    28  H    0.000011
    29  H    0.000008
    30  H   -0.012611
    31  H    0.480158
 Mulliken charges:
               1
     1  C   -0.147987
     2  C   -0.498515
     3  C   -0.332030
     4  C   -0.039365
     5  C   -0.202812
     6  C   -0.207852
     7  C   -0.286507
     8  C   -0.179086
     9  O   -0.325588
    10  C   -0.367529
    11  O   -0.236229
    12  C   -0.256862
    13  O   -0.273000
    14  H    0.266272
    15  H    0.161395
    16  H    0.146035
    17  H    0.257178
    18  H    0.203966
    19  H    0.147094
    20  H    0.157253
    21  H    0.192839
    22  H    0.148836
    23  H    0.204215
    24  H    0.194753
    25  H    0.196909
    26  H    0.145312
    27  H    0.209114
    28  H    0.184250
    29  H    0.165282
    30  H    0.202037
    31  H    0.170625
 Sum of Mulliken charges =  -0.00000
 Mulliken charges with hydrogens summed into heavy atoms:
               1
     1  C    0.118284
     2  C   -0.191085
     3  C   -0.074852
     4  C    0.311695
     5  C    0.147279
     6  C    0.145198
     7  C    0.105155
     8  C    0.175341
     9  O   -0.325588
    10  C   -0.017998
    11  O   -0.236229
    12  C    0.115800
    13  O   -0.273000
 Electronic spatial extent (au):  <R**2>=           3361.8802
 Charge=             -0.0000 electrons
 Dipole moment (field-independent basis, Debye):
    X=             -1.3534    Y=              0.5969    Z=              1.4827  Tot=              2.0944
 Quadrupole moment (field-independent basis, Debye-Ang):
   XX=            -71.4395   YY=            -77.9969   ZZ=            -83.5116
   XY=              5.7040   XZ=              2.6477   YZ=             -0.0831
 Traceless Quadrupole moment (field-independent basis, Debye-Ang):
   XX=              6.2098   YY=             -0.3476   ZZ=             -5.8623
   XY=              5.7040   XZ=              2.6477   YZ=             -0.0831
 Octapole moment (field-independent basis, Debye-Ang**2):
  XXX=             -6.9894  YYY=              1.3745  ZZZ=              0.5089  XYY=             -9.1865
  XXY=             24.6845  XXZ=             20.6402  XZZ=             -0.5866  YZZ=             -0.0548
  YYZ=             -0.0503  XYZ=             -5.9564
 Hexadecapole moment (field-independent basis, Debye-Ang**3):
 XXXX=          -3502.9274 YYYY=           -570.1292 ZZZZ=           -246.3991 XXXY=             52.4882
 XXXZ=             32.2884 YYYX=             -9.8989 YYYZ=             -3.5167 ZZZX=              0.7556
 ZZZY=              0.8351 XXYY=           -715.3344 XXZZ=           -656.9215 YYZZ=           -136.5433
 XXYZ=            -23.6647 YYXZ=              9.9728 ZZXY=              2.1917
 N-N= 8.803532687270D+02 E-N=-3.202574810511D+03  KE= 6.153478035857D+02
 D1PCM: PCM CHGder 1st derivatives, ID1Alg=3 FixD1E=F DoIter=F DoCFld=F I1PDM=0.
 Calling FoFJK, ICntrl=      2127 FMM=F ISym2X=0 I1Cent= 0 IOpClX= 0 NMat=1 NMatS=1 NMatT=0.
 ***** Axes restored to original set *****
 -------------------------------------------------------------------
 Center     Atomic                   Forces (Hartrees/Bohr)
 Number     Number              X              Y              Z
 -------------------------------------------------------------------
      1        6          -0.000128286   -0.001173782    0.003528469
      2        6           0.001465985   -0.000985210    0.000232059
      3        6          -0.003501529    0.003754993    0.005117391
      4        6          -0.000737576   -0.005687475    0.000719937
      5        6           0.002112440    0.002590925    0.001149006
      6        6           0.002036586   -0.002252081   -0.003774657
      7        6           0.003205453    0.006943843   -0.000865904
      8        6          -0.006469093    0.002502232   -0.000701968
      9        8           0.002720699   -0.004438920   -0.007964470
     10        6          -0.000679696   -0.001715864    0.002233444
     11        8          -0.000765299   -0.000052735    0.011599382
     12        6          -0.000669367    0.000131320   -0.003127087
     13        8           0.002260726    0.001777991   -0.010435394
     14        1          -0.000292016    0.002246553   -0.006453336
     15        1          -0.001349818    0.000385804   -0.002259749
     16        1          -0.001573853    0.000512995    0.002559047
     17        1           0.001551834   -0.004977908   -0.006581851
     18        1          -0.000637845    0.003699219   -0.002015611
     19        1           0.001463053    0.001050704    0.005752617
     20        1           0.000575493   -0.000882487   -0.002957290
     21        1          -0.001751945   -0.001138687    0.001370973
     22        1          -0.002065809    0.002331709   -0.000278427
     23        1          -0.000086702   -0.001887389    0.003395262
     24        1          -0.002879542   -0.003441452   -0.002685278
     25        1          -0.000846986   -0.000915535    0.006424898
     26        1           0.000722023   -0.000987151    0.006071897
     27        1           0.003738720    0.000280257   -0.002207063
     28        1           0.001395041    0.002158217    0.001540234
     29        1          -0.000320106    0.000543711   -0.003168538
     30        1           0.000872416    0.002474789    0.003212556
     31        1           0.000634999   -0.002848585    0.000569451
 -------------------------------------------------------------------
 Cartesian Forces:  Max     0.011599382 RMS     0.003296012

 GradGradGradGradGradGradGradGradGradGradGradGradGradGradGradGradGradGrad
 Berny optimization.
 FormGI is forming the generalized inverse of G from B-inverse, IUseBI=4.
 Internal  Forces:  Max     0.010429115 RMS     0.001949524
 Search for a local minimum.
 Step number   1 out of a maximum of  186
 All quantities printed in internal units (Hartrees-Bohrs-Radians)
 Mixed Optimization -- RFO/linear search
 Second derivative matrix not updated -- first step.
 ITU=  0
     Eigenvalues ---    0.00392   0.00649   0.00692   0.00740   0.01424
     Eigenvalues ---    0.01444   0.01464   0.02696   0.02786   0.03174
     Eigenvalues ---    0.03205   0.04086   0.04356   0.04529   0.04805
     Eigenvalues ---    0.04868   0.04968   0.04996   0.05120   0.05150
     Eigenvalues ---    0.05171   0.05566   0.05741   0.05924   0.06157
     Eigenvalues ---    0.06399   0.06599   0.06816   0.07661   0.07884
     Eigenvalues ---    0.07895   0.07909   0.07918   0.08005   0.08103
     Eigenvalues ---    0.08505   0.09379   0.09396   0.10869   0.11592
     Eigenvalues ---    0.11610   0.11694   0.11709   0.12501   0.12613
     Eigenvalues ---    0.14603   0.15427   0.16618   0.17532   0.18708
     Eigenvalues ---    0.20437   0.21769   0.22414   0.25000   0.27235
     Eigenvalues ---    0.27488   0.28535   0.28703   0.28727   0.29470
     Eigenvalues ---    0.29556   0.30135   0.35069   0.35078   0.35081
     Eigenvalues ---    0.35149   0.35234   0.35255   0.35293   0.35297
     Eigenvalues ---    0.35346   0.35372   0.35453   0.35487   0.35493
     Eigenvalues ---    0.35505   0.35823   0.35830   0.35865   0.35924
     Eigenvalues ---    0.40018   0.41462   0.42298   0.42823   0.42879
     Eigenvalues ---    0.458121000.000001000.000001000.000001000.00000
     Eigenvalues --- 1000.000001000.000001000.000001000.000001000.00000
     Eigenvalues --- 1000.000001000.000001000.000001000.000001000.00000
     Eigenvalues --- 1000.000001000.000001000.000001000.000001000.00000
     Eigenvalues --- 1000.000001000.000001000.000001000.000001000.00000
     Eigenvalues --- 1000.000001000.000001000.000001000.000001000.00000
     Eigenvalues --- 1000.000001000.000001000.000001000.000001000.00000
     Eigenvalues --- 1000.000001000.000001000.000001000.000001000.00000
     Eigenvalues --- 1000.000001000.000001000.000001000.000001000.00000
     Eigenvalues --- 1000.000001000.000001000.000001000.000001000.00000
     Eigenvalues --- 1000.000001000.000001000.000001000.000001000.00000
     Eigenvalues --- 1000.000001000.000001000.000001000.000001000.00000
     Eigenvalues --- 1000.000001000.000001000.000001000.000001000.00000
     Eigenvalues --- 1000.000001000.000001000.000001000.000001000.00000
     Eigenvalues --- 1000.000001000.000001000.000001000.000001000.00000
     Eigenvalues --- 1000.000001000.000001000.000001000.000001000.00000
     Eigenvalues --- 1000.000001000.000001000.000001000.000001000.00000
     Eigenvalues --- 1000.000001000.000001000.000001000.000001000.00000
     Eigenvalues --- 1000.000001000.000001000.000001000.000001000.00000
     Eigenvalues --- 1000.000001000.000001000.000001000.000001000.00000
 RFO step:  Lambda=-2.75339966D-03 EMin= 3.91782467D-03
 Linear search not attempted -- first point.
 Iteration  1 RMS(Cart)=  0.02433908 RMS(Int)=  0.00024109
 Iteration  2 RMS(Cart)=  0.00053193 RMS(Int)=  0.00005131
 Iteration  3 RMS(Cart)=  0.00000011 RMS(Int)=  0.00005131
 Iteration  1 RMS(Cart)=  0.00001504 RMS(Int)=  0.00000339
 Iteration  2 RMS(Cart)=  0.00000789 RMS(Int)=  0.00000378
 Iteration  3 RMS(Cart)=  0.00000414 RMS(Int)=  0.00000426
 Iteration  4 RMS(Cart)=  0.00000217 RMS(Int)=  0.00000455
 Iteration  5 RMS(Cart)=  0.00000114 RMS(Int)=  0.00000472
 Iteration  6 RMS(Cart)=  0.00000060 RMS(Int)=  0.00000481
 Variable       Old X    -DE/DX   Delta X   Delta X   Delta X     New X
                                 (Linear)    (Quad)   (Total)
    R1        2.87474  -0.00215   0.00000  -0.00717  -0.00719   2.86755
    R2        2.88170   0.00001   0.00000   0.00007   0.00007   2.88178
    R3        2.67820   0.00239   0.00000   0.00555   0.00555   2.68374
    R4        2.04863   0.00677   0.00000   0.01892   0.01892   2.06755
    R5        2.89113   0.00098   0.00000   0.00250   0.00254   2.89366
    R6        2.90938  -0.00045   0.00000  -0.00303  -0.00297   2.90641
    R7        2.05076   0.00265   0.00000   0.00744   0.00744   2.05820
    R8        2.05262   0.00302   0.00000   0.00849   0.00849   2.06111
    R9        2.64344   0.00331   0.00000   0.00718   0.00718   2.65062
   R10        2.87942  -0.00113   0.00000  -0.00213  -0.00215   2.87728
   R11        2.65467   0.00311   0.00000   0.00818   0.00814   2.66281
   R12        2.04293   0.00835   0.00000   0.02309   0.02309   2.06602
   R13        2.68186   0.00324   0.00000   0.00738   0.00734   2.68919
   R14        2.04201   0.00426   0.00000   0.01176   0.01176   2.05377
   R15        2.04883   0.00599   0.00000   0.01674   0.01674   2.06557
   R16        2.88625  -0.00047   0.00000  -0.00251  -0.00252   2.88372
   R17        2.05296   0.00306   0.00000   0.00861   0.00861   2.06157
   R18        2.04945   0.00250   0.00000   0.00699   0.00699   2.05645
   R19        2.89288  -0.00065   0.00000  -0.00223  -0.00225   2.89063
   R20        2.05117   0.00306   0.00000   0.00859   0.00859   2.05976
   R21        2.05563   0.00374   0.00000   0.01057   0.01057   2.06620
   R22        2.66659   0.00313   0.00000   0.00711   0.00714   2.67373
   R23        2.04358   0.00520   0.00000   0.01441   0.01441   2.05799
   R24        2.05549   0.00621   0.00000   0.01758   0.01758   2.07307
   R25        2.67693   0.00333   0.00000   0.00779   0.00781   2.68475
   R26        2.87336   0.00031   0.00000   0.00098   0.00098   2.87434
   R27        2.05544   0.00608   0.00000   0.01719   0.01719   2.07263
   R28        2.04349   0.00435   0.00000   0.01205   0.01205   2.05553
   R29        2.05196   0.00297   0.00000   0.00836   0.00836   2.06031
   R30        2.05433   0.00316   0.00000   0.00892   0.00892   2.06325
   R31        2.05202   0.00397   0.00000   0.01115   0.01115   2.06317
   R32        2.04892   0.00296   0.00000   0.00829   0.00829   2.05721
    A1        1.92394  -0.00027   0.00000  -0.00433  -0.00438   1.91956
    A2        1.90948  -0.00080   0.00000  -0.00239  -0.00238   1.90710
    A3        1.90975   0.00040   0.00000  -0.00197  -0.00196   1.90779
    A4        1.90375   0.00066   0.00000   0.00345   0.00346   1.90721
    A5        1.90462  -0.00025   0.00000  -0.00099  -0.00101   1.90361
    A6        1.91224   0.00027   0.00000   0.00634   0.00633   1.91857
    A7        1.92520  -0.00010   0.00000  -0.00942  -0.00958   1.91563
    A8        1.92221  -0.00051   0.00000   0.00076   0.00080   1.92302
    A9        1.89342   0.00074   0.00000   0.00513   0.00516   1.89858
   A10        1.92106   0.00083   0.00000   0.00251   0.00256   1.92362
   A11        1.93114  -0.00106   0.00000  -0.00204  -0.00200   1.92914
   A12        1.86988   0.00009   0.00000   0.00349   0.00346   1.87335
   A13        1.89394  -0.00270   0.00000  -0.01426  -0.01426   1.87968
   A14        1.93375   0.00047   0.00000   0.00173   0.00184   1.93559
   A15        1.91103   0.00151   0.00000   0.01216   0.01212   1.92316
   A16        1.95505   0.00269   0.00000   0.00555   0.00541   1.96046
   A17        1.93724  -0.00021   0.00000  -0.00090  -0.00079   1.93645
   A18        1.83243  -0.00165   0.00000  -0.00333  -0.00338   1.82905
   A19        1.92701   0.00136   0.00000   0.00141   0.00117   1.92817
   A20        1.95066  -0.00037   0.00000  -0.00335  -0.00327   1.94739
   A21        1.94037  -0.00089   0.00000  -0.00281  -0.00279   1.93758
   A22        1.85397  -0.00111   0.00000  -0.00081  -0.00074   1.85323
   A23        1.90737   0.00068   0.00000   0.00501   0.00511   1.91248
   A24        1.88172   0.00034   0.00000   0.00081   0.00078   1.88250
   A25        1.92157  -0.00084   0.00000  -0.00782  -0.00805   1.91352
   A26        1.91786   0.00062   0.00000   0.00182   0.00188   1.91974
   A27        1.93176  -0.00018   0.00000   0.00041   0.00047   1.93223
   A28        1.90293   0.00041   0.00000  -0.00034  -0.00028   1.90265
   A29        1.92541  -0.00003   0.00000   0.00139   0.00145   1.92686
   A30        1.86330   0.00007   0.00000   0.00496   0.00492   1.86821
   A31        1.91810   0.00128   0.00000  -0.00264  -0.00267   1.91543
   A32        1.91896  -0.00061   0.00000  -0.00315  -0.00313   1.91583
   A33        1.89703  -0.00108   0.00000  -0.00753  -0.00752   1.88951
   A34        1.93597   0.00011   0.00000   0.00571   0.00572   1.94169
   A35        1.91576  -0.00016   0.00000   0.00344   0.00341   1.91917
   A36        1.87721   0.00040   0.00000   0.00405   0.00400   1.88122
   A37        1.93137   0.00192   0.00000   0.00919   0.00921   1.94059
   A38        1.94015  -0.00060   0.00000  -0.00604  -0.00609   1.93407
   A39        1.91325  -0.00243   0.00000  -0.01631  -0.01638   1.89687
   A40        1.86630  -0.00089   0.00000   0.00068   0.00069   1.86699
   A41        1.91641   0.00133   0.00000   0.01244   0.01250   1.92892
   A42        1.89553   0.00074   0.00000   0.00067   0.00053   1.89606
   A43        1.93693   0.00192   0.00000   0.00871   0.00871   1.94564
   A44        1.90155   0.00067   0.00000   0.00669   0.00673   1.90828
   A45        1.85565  -0.00122   0.00000  -0.00369  -0.00368   1.85197
   A46        1.93059  -0.00161   0.00000  -0.00966  -0.00968   1.92091
   A47        1.94462  -0.00032   0.00000  -0.00297  -0.00298   1.94164
   A48        1.89221   0.00058   0.00000   0.00130   0.00126   1.89348
   A49        1.97588  -0.00463   0.00000  -0.02779  -0.02770   1.94818
   A50        1.92979  -0.00080   0.00000  -0.00590  -0.00596   1.92384
   A51        1.92793  -0.00041   0.00000  -0.00006  -0.00004   1.92789
   A52        1.91889   0.00077   0.00000   0.00115   0.00116   1.92004
   A53        1.90804   0.00071   0.00000   0.00490   0.00493   1.91297
   A54        1.90355  -0.00024   0.00000  -0.00287  -0.00287   1.90068
   A55        1.87465  -0.00001   0.00000   0.00302   0.00301   1.87766
   A56        2.03506  -0.01043   0.00000  -0.04126  -0.04126   1.99380
   A57        1.91596   0.00022   0.00000  -0.00476  -0.00488   1.91108
   A58        1.90787  -0.00048   0.00000  -0.00899  -0.00895   1.89891
   A59        1.89606  -0.00026   0.00000   0.00320   0.00324   1.89930
   A60        1.92127   0.00004   0.00000   0.00247   0.00238   1.92365
   A61        1.94901   0.00029   0.00000   0.00491   0.00500   1.95401
   A62        1.87276   0.00016   0.00000   0.00304   0.00302   1.87578
   A63        2.00798  -0.00551   0.00000  -0.03332  -0.03346   1.97452
    D1        0.91522  -0.00038   0.00000   0.00584   0.00581   0.92103
    D2        3.05101   0.00020   0.00000   0.00917   0.00915   3.06016
    D3       -1.18163  -0.00029   0.00000   0.00785   0.00784  -1.17379
    D4        3.00863  -0.00024   0.00000   0.00590   0.00589   3.01452
    D5       -1.13876   0.00034   0.00000   0.00923   0.00923  -1.12954
    D6        0.91179  -0.00015   0.00000   0.00791   0.00791   0.91970
    D7       -1.17943  -0.00015   0.00000   0.01099   0.01098  -1.16845
    D8        0.95635   0.00042   0.00000   0.01432   0.01432   0.97067
[...]
 0.00094145,0.01371443,0.00740705,-0.01840672,0.00037200,0.00004883,0.0
 0010880,-0.00145681,-0.00054536,0.00147970,-0.00002952,0.00006563,-0.0
 0000041,-0.00001483,0.00014613,0.00000631,0.00036592,0.00010974,0.0007
 5616,-0.00000476,0.00000211,-0.00000227,-0.00000543,-0.00000105,0.0000
 0325,0.00009421,0.00006605,0.00005693,-0.00001104,0.00001057,0.0000006
 7,-0.00000505,-0.00000335,0.00000499,0.00000138,0.00000058,-0.00000375
 ,-0.00001716,0.00000067,-0.00000457,-0.00006857,0.00003410,0.00016950,
 0.00039570,0.00028173,0.00023748,-0.00375687,0.00554780,-0.01402714,0.
 03284471,-0.08388740,0.29079909,-0.00033589,-0.00012016,0.00023040,0.0
 0000115,-0.00000037,-0.00000020,0.00003910,0.00000876,0.00004619,0.000
 00229,-0.00000106,-0.00000073,-0.00000089,-0.00000234,0.00000126,0.000
 67511,-0.00039040,-0.00122906,0.00250965,0.00168034,-0.00447339,-0.059
 13861,0.01403715,-0.02553224,-0.00982699,-0.00307031,-0.02442546,-0.00
 150314,0.00739919,-0.01317596,-0.00021312,0.00011466,0.00014298,-0.000
 00484,-0.00000173,-0.00000279,-0.00000391,0.00000639,-0.00000659,0.000
 07525,-0.00010055,0.00007731,-0.00000027,-0.00000003,-0.00000011,-0.00
 000020,0.00000007,0.00000013,0.00000719,-0.00000331,-0.00000435,-0.000
 00021,0.00000031,-0.00000034,0.00000015,-0.00000005,-0.00000056,-0.000
 00015,0.00000004,-0.00000021,-0.00000116,0.00000007,-0.00000025,0.0001
 6584,-0.00010140,0.00022298,-0.00016136,0.00007380,0.00038235,0.000106
 83,-0.00008023,0.00027150,0.00027464,-0.00016728,0.00080581,0.06103531
 ,-0.00020855,-0.00046827,0.00018015,0.00000003,0.00000007,-0.00000007,
 0.00004168,0.00002713,0.00000663,0.00000096,0.00000037,-0.00000171,0.0
 0000121,0.00000079,-0.00000172,-0.00127074,0.00116897,0.00052434,0.002
 94320,0.00152828,-0.00318433,0.01404202,-0.08419921,0.08851894,-0.0129
 4801,0.00312527,-0.02879193,0.00468665,-0.01257380,0.02932986,-0.00007
 307,0.00024282,0.00012744,0.00000672,0.00000084,0.00000821,-0.00000638
 ,0.00000488,-0.00000609,-0.00005065,-0.00011240,0.00000481,-0.00000017
 ,0.,0.,0.00000008,0.,0.,0.00000868,0.00000062,0.00000250,-0.00000058,0
 .00000026,-0.00000086,0.00000009,-0.00000144,0.00000035,-0.00000022,-0
 .00000020,-0.00000004,0.00000069,0.00000002,0.00000011,-0.00024495,0.0
 0004439,-0.00039715,0.00043934,0.00026382,-0.00067074,0.00016112,-0.00
 005510,0.00005076,0.00069529,-0.00008616,0.00099261,-0.01168101,0.0947
 4881,0.00021531,-0.00050453,0.00006489,0.00000025,0.00000250,0.0000033
 5,0.00028413,0.00001909,0.00025213,0.00003858,-0.00003209,-0.00003167,
 -0.00000364,-0.00001277,0.00001896,-0.00016817,-0.00051577,0.00068224,
 0.00345100,0.00096304,0.00065442,-0.02916133,0.08627681,-0.25451083,-0
 .01392006,-0.00708536,-0.02311603,0.00166943,0.00045335,0.00133112,-0.
 00068125,0.00008239,0.00002315,-0.00002794,0.00001047,-0.00003369,-0.0
 0012317,0.00009139,-0.00005523,0.00007484,0.00007481,-0.00013818,-0.00
 000379,0.00000205,-0.00000211,-0.00000567,-0.00000105,0.00000280,0.000
 00873,-0.00000648,-0.00000906,-0.00000675,0.00000729,0.00000012,-0.000
 00005,-0.00000300,0.00000472,0.00000006,0.00000038,-0.00000275,-0.0000
 1300,-0.00000002,-0.00000316,-0.00009184,0.00006156,0.00014617,-0.0004
 9847,-0.00001633,-0.00004234,-0.00012646,-0.00028848,0.00047081,-0.001
 31569,-0.00014705,0.00078677,0.04170591,-0.08632568,0.28493545,0.00077
 706,-0.00039571,0.00007167,0.00000053,0.00000328,0.00000460,0.00036662
 ,-0.00001924,0.00026705,0.00005408,-0.00003874,-0.00004017,-0.00000363
 ,-0.00001540,0.00002448,0.00035649,0.00277945,-0.00045478,0.00107027,-
 0.00166068,-0.00398524,-0.24908269,-0.00816232,0.11439052,-0.02366345,
 -0.00811783,0.00678832,-0.01053871,0.00042025,0.00736411,-0.00061681,0
 .00006096,0.00004266,-0.00003234,0.00001990,-0.00003957,-0.00016331,0.
 00012571,-0.00006155,-0.00004132,0.00000757,-0.00001825,-0.00000538,0.
 00000245,-0.00000302,-0.00000717,-0.00000112,0.00000340,0.00000838,0.0
 0000590,0.00000691,-0.00001059,0.00001060,0.00000081,-0.00000056,-0.00
 000283,0.00000520,0.00000032,0.00000016,-0.00000390,-0.00001680,0.0000
 0020,-0.00000375,-0.00070835,-0.00019144,0.00034102,0.00002650,-0.0000
 8205,0.00011146,-0.00106946,-0.00010128,0.00043810,0.00003946,-0.00001
 214,0.00026495,0.00614994,0.00051059,-0.00149352,0.27663087,-0.0005197
 1,-0.00119128,-0.00026769,0.00000051,-0.00000004,-0.00000005,0.0000312
 6,0.00003720,-0.00004814,-0.00000163,0.00000444,-0.00000576,0.00000502
 ,0.00000356,-0.00000454,0.00162870,-0.00600532,0.00087201,-0.00115980,
 -0.00235568,-0.00358756,-0.00305447,-0.04868482,0.00397338,-0.02820544
 ,-0.00613509,0.01034195,0.02738363,0.00294186,-0.01561470,-0.00005242,
 0.00051179,0.00019368,0.00002054,0.00000362,0.00002166,-0.00001169,0.0
 0001481,0.00000083,0.00003815,0.00009971,0.00003955,0.00000020,0.00000
 016,0.00000009,-0.00000009,0.,0.00000014,0.00004425,0.00000928,0.00003
 641,-0.00000178,0.00000030,0.00000079,-0.00000189,-0.00000139,0.000001
 36,0.00000020,-0.00000003,0.00000012,0.00000219,-0.00000037,0.00000084
 ,0.00194332,0.00019089,-0.00061355,-0.00020907,0.00003595,-0.00009167,
 -0.00141432,-0.00002477,0.00026587,0.00022920,0.00002193,-0.00006651,-
 0.00991110,0.00038039,0.00648584,0.01495886,0.05793220,-0.00011873,-0.
 00051484,-0.00015127,0.00000032,0.00000007,0.,0.00002701,0.00001181,0.
 00000536,0.00000427,-0.00000019,-0.00000373,0.00000200,0.00000011,-0.0
 0000165,-0.00017056,-0.00086024,0.00101086,-0.00175942,-0.00166363,-0.
 00151005,0.12453093,0.00848487,-0.12303766,-0.02165042,-0.00425348,0.0
 0974453,-0.00079021,0.00139265,-0.00009051,-0.00007966,0.00025203,0.00
 013112,0.00000580,0.00000167,0.00000633,-0.00001475,0.00001364,-0.0000
 0876,0.00000091,0.00000738,0.00000900,-0.00000010,0.00000010,-0.000000
 07,-0.00000024,0.00000012,0.00000010,0.00001492,0.00000107,0.00001446,
 -0.00000137,0.00000084,-0.00000046,0.00000006,-0.00000054,0.00000077,0
 .00000008,0.00000030,-0.00000024,0.00000003,-0.00000006,0.00000012,0.0
 0040296,0.00009374,0.00015998,-0.00039740,-0.00002629,0.00031519,-0.00
 064591,-0.00021672,0.00048890,-0.00020753,-0.00020223,0.00048058,0.024
 78652,0.00060645,-0.01283487,-0.12377033,-0.00238611,0.12455889,-0.002
 65120,0.00256557,0.00463751,0.00000594,0.00000486,0.00000956,0.0006165
 4,-0.00032975,0.00116673,0.00011127,-0.00010022,-0.00008068,-0.0000363
 4,-0.00007104,0.00010058,-0.01764209,-0.02023837,-0.01694738,-0.001020
 28,0.00056687,0.00035352,0.00919358,0.00695928,0.00852515,0.00062696,0
 .00497526,0.00085262,-0.13189370,-0.09378863,-0.08276226,-0.00272283,-
 0.00202841,-0.00111556,-0.00021448,0.00003586,-0.00025159,-0.00029420,
 0.00030613,-0.00017692,0.00011908,0.00024919,-0.00000128,-0.00001188,0
 .00000853,-0.00000692,-0.00001630,-0.00000163,0.00000815,-0.00004849,-
 0.00003461,-0.00008243,-0.00001932,0.00002313,0.00000106,-0.00000314,-
 0.00000459,0.00001197,0.00000098,0.00000075,-0.00000949,-0.00005786,0.
 00000493,-0.00001700,0.00104236,0.00063642,-0.00055279,0.00144439,0.00
 014417,0.00011443,0.00019641,-0.00011177,-0.00013016,0.00018792,-0.000
 04394,-0.00000860,0.00047613,-0.00064091,-0.00031742,0.00013021,-0.001
 04907,0.00013391,0.14424030,0.00057131,0.00119467,0.00051218,0.0000009
 5,0.00000224,0.00000218,0.00020921,-0.00003550,0.00019101,0.00003093,-
 0.00002195,-0.00002267,-0.00000169,-0.00001065,0.00001763,-0.00088098,
 -0.00100845,0.00027167,0.00196365,0.00075108,-0.00073701,-0.01955134,-
 0.01387862,-0.01562855,0.00132629,-0.00880449,-0.00143037,-0.09300965,
 -0.15337651,-0.08943223,-0.00031096,0.00008422,-0.00024135,-0.00001790
 ,0.00001286,-0.00003286,-0.00008787,0.00007039,-0.00003732,-0.00008033
 ,-0.00013173,-0.00019810,-0.00000316,0.00000127,-0.00000164,-0.0000042
 6,-0.00000063,0.00000192,0.00000340,0.00000037,-0.00000536,-0.00000577
 ,0.00000597,0.00000059,-0.00000072,-0.00000119,0.00000304,0.00000073,0
 .00000014,-0.00000230,-0.00001005,0.00000052,-0.00000328,-0.00022171,0
 .00031838,0.00038571,-0.00006421,0.00003113,-0.00001364,-0.00023727,-0
 .00001685,0.00006611,-0.00019259,-0.00002146,0.00016379,-0.00021449,0.
 00098280,0.00085254,0.00039415,0.00088619,-0.00016748,0.10284050,0.164
 59676,0.00218271,-0.00065571,-0.00124987,-0.00000228,0.00000104,-0.000
 00103,0.00002240,0.00014066,-0.00030222,-0.00001904,0.00001407,0.00001
 257,0.00001537,0.00001743,-0.00002775,0.00951033,0.01140081,0.00805122
 ,0.00040668,0.00006602,-0.00035413,-0.00042962,0.00117434,-0.00214356,
 0.00007491,-0.00114467,0.00146940,-0.08346636,-0.09155051,-0.12600435,
 0.00095363,0.00054765,0.00058467,0.00006829,-0.00000583,0.00007149,0.0
 0003582,-0.00006042,0.00003599,0.00013166,0.00016782,0.00033547,0.0000
 0222,-0.00000190,0.00000117,0.00000234,-0.00000014,-0.00000143,-0.0000
 0059,0.00000844,0.00001636,0.00000335,-0.00000440,-0.00000027,0.000001
 13,0.00000091,-0.00000173,-0.00000073,0.00000006,0.00000154,0.00001541
 ,-0.00000166,0.00000466,-0.00082842,-0.00026305,0.00026356,-0.00078211
 ,0.00011114,0.00073297,-0.00005519,-0.00000332,-0.00000675,-0.00013498
 ,-0.00002560,0.00002884,0.00027556,-0.00033617,0.00021722,0.00012907,-
 0.00000575,0.00003425,0.08782316,0.09936863,0.13350787,0.00140509,0.00
 022099,0.00120583,-0.00000005,0.00000068,-0.00000078,0.00005195,0.0000
 1330,-0.00003156,0.00000596,-0.00000303,-0.00000344,0.00000147,0.00000
 024,0.00000223,0.00142109,-0.01154837,0.03009367,-0.00054170,-0.000087
 04,0.00027990,-0.00351922,0.00627631,-0.01676276,0.00102193,-0.0011987
 4,0.00112128,-0.04960053,0.00680393,-0.01943144,-0.00021323,0.00017599
 ,-0.00041473,0.00001329,0.00000117,0.00000065,-0.00002725,0.00002770,-
 0.00003384,-0.00025736,-0.00007158,-0.00045542,-0.00000082,0.00000002,
 -0.00000029,-0.00000027,-0.00000005,0.00000029,-0.00001905,-0.00001148
 ,-0.00001929,-0.00000188,0.00000159,-0.00000002,0.00000041,-0.00000148
 ,0.00000046,0.00000026,0.00000007,-0.00000023,-0.00000169,0.00000024,-
 0.00000002,0.00134083,0.00047651,-0.00063245,-0.00539638,-0.00106388,0
 .00221227,0.00009452,-0.00006868,-0.00001489,-0.00012742,0.00004935,-0
 .00014350,-0.00032606,0.00358797,0.00051320,0.00035519,-0.00069035,-0.
 00030118,-0.00176663,0.00755585,-0.01593202,0.05608876,0.00011541,-0.0
 0015100,0.00074204,0.00000109,-0.00000084,-0.00000111,-0.00004738,-0.0
 0002676,-0.00002190,-0.00000493,0.00000883,0.00000630,0.00000007,0.000
 00057,-0.00000058,0.00028867,-0.00118236,0.00115875,-0.00006587,-0.000
 17018,-0.00001270,0.00453363,-0.01411558,0.02996925,-0.00046833,0.0033
 0724,-0.00052515,0.00543002,-0.08328572,0.08719287,-0.00005258,0.00006
 312,-0.00014545,0.00000422,-0.00000236,0.00000029,0.00002094,-0.000006
 98,-0.00000039,-0.00025250,-0.00007675,-0.00001319,0.00000023,-0.00000
 019,0.00000032,0.00000119,0.00000046,-0.00000054,-0.00000266,-0.000004
 13,-0.00000061,0.00000057,-0.00000085,-0.00000004,0.00000003,0.0000002
 1,-0.00000157,0.00000005,-0.00000016,0.00000015,0.00000107,0.00000031,
 -0.00000020,-0.00027639,0.00033222,-0.00032054,-0.00002313,0.00088372,
 0.00008953,-0.00002393,-0.00000099,-0.00002137,0.00010402,0.00009569,-
 0.00002622,0.00252652,-0.00502305,-0.00044033,-0.00049181,0.00132787,-
 0.00057147,-0.00087282,0.00837197,-0.01896010,-0.01044721,0.08965473,-
 0.00093050,-0.00046892,-0.00010535,-0.00000032,-0.00000144,-0.00000179
 ,-0.00013077,0.00008324,-0.00015490,-0.00002162,0.00001728,0.00001527,
 0.00000483,0.00000872,-0.00001554,0.00006444,0.00438262,-0.01313163,-0
 .00011183,-0.00003163,0.00014878,-0.00058421,-0.00176490,0.00093830,0.
 00125824,0.00071691,0.00130290,-0.01998716,0.08906102,-0.27341914,0.00
 034489,-0.00007806,0.00043807,0.00002323,-0.00000697,0.00002713,0.0000
 6542,-0.00006532,0.00003361,0.00025844,0.00041207,0.00047162,0.0000026
 1,-0.00000126,0.00000156,0.00000284,0.00000061,-0.00000160,0.00001523,
 0.00000730,0.00001331,0.00000490,-0.00000533,0.00000043,-0.00000080,0.
 00000179,-0.00000211,-0.00000058,0.00000014,0.00000188,0.00000916,-0.0
 0000069,0.00000251,-0.00000473,-0.00031346,0.00045167,0.00277113,0.000
 19792,0.00022943,-0.00000335,0.00008783,-0.00000154,-0.00005305,-0.000
 08297,-0.00016152,-0.00009437,-0.00063513,0.00118805,-0.00037858,0.000
 45577,0.00067928,-0.00127211,0.00611675,-0.01527496,0.01874569,-0.0980
 9648,0.29632731,0.00005109,0.00000905,0.00021357,0.00158415,-0.0011111
 6,0.00030229,-0.00365467,0.01334961,0.02292898,0.00042369,0.00060383,0
 .00031051,-0.00158140,-0.01371970,-0.02971824,0.00005056,0.00000073,-0
 .00014940,0.00005893,0.00009900,0.00002744,-0.00001314,0.00000912,0.00
 001113,0.00000925,-0.00005967,-0.00004831,0.00002633,0.00002854,0.0000
 2220,0.00173014,0.00078364,0.00030937,-0.04568173,-0.00240410,-0.00508
 099,0.00034685,-0.00124878,-0.00045938,0.00000100,0.00003496,-0.000187
 79,0.00010459,-0.00020549,0.00027013,-0.00002136,0.00015079,0.00037250
 ,-0.00305806,-0.00249659,0.00196188,0.00000306,-0.00005966,0.00001027,
 0.00031896,0.00011523,-0.00033560,-0.00554093,0.00127781,-0.00275123,0
 .00121165,-0.00034263,0.00091119,-0.00000154,-0.00000474,0.00000005,-0
 .00002707,-0.00002925,-0.00001399,0.00004544,-0.00008176,-0.00001640,-
 0.00002134,-0.00000297,-0.00001990,-0.00000107,-0.00000048,-0.00000020
 ,-0.00000255,-0.00000460,-0.00000291,0.00001310,0.00000060,-0.00000301
 ,0.00000084,0.00000148,0.00000052,0.05402559,-0.00001890,0.00010155,0.
 00031059,-0.00046693,0.00049032,0.00082024,0.00004009,0.00619358,0.012
 42616,0.00001561,-0.00074840,0.00073110,-0.00003001,0.00173112,0.00464
 419,0.00007000,-0.00000163,-0.00011506,-0.00003655,0.00002643,0.000027
 05,-0.00001249,0.00000703,-0.00000247,0.00001792,-0.00002412,-0.000024
 38,0.00001822,0.00002454,0.00002926,0.00127387,0.00057787,0.00021957,-
 0.00183950,-0.10123748,-0.10496776,-0.00022409,-0.00068769,-0.00060366
 ,-0.00004444,-0.00000351,-0.00004596,-0.00005953,0.00007500,-0.0001502
 2,-0.00004424,0.00022266,-0.00045510,-0.00140366,0.00000284,0.00075052
 ,0.00004705,0.00014322,0.00007896,0.00015255,-0.00109070,0.00073056,0.
 00087393,0.00078514,0.00096803,-0.00031865,-0.00001506,-0.00026091,-0.
 00000077,-0.00000321,-0.00000033,-0.00000936,-0.00001567,-0.00000240,-
 0.00000784,-0.00003448,-0.00000620,-0.00000128,0.00000244,-0.00000286,
 -0.00000006,-0.00000069,0.00000191,0.00000049,-0.00000310,-0.00000187,
 0.00001500,0.00000182,-0.00000437,0.00000022,0.00000046,-0.00000082,0.
 00277896,0.10654909,-0.00003895,0.00016036,0.00038481,-0.00018637,-0.0
 0034386,0.00058675,0.00083129,-0.01162124,-0.01964322,0.00022489,-0.00
 099131,-0.00093289,-0.00180991,-0.00503864,-0.01211629,0.00003570,0.00
 000012,0.00003124,-0.00010471,-0.00017076,0.00003891,0.00001769,0.0000
 0048,0.00000076,-0.00005515,0.00008070,0.00002452,0.00000150,-0.000007
 22,-0.00001471,-0.00273130,-0.00014855,0.00168864,-0.00159479,-0.10236
 074,-0.25841698,0.00030708,0.00200428,0.00023166,-0.00022949,-0.000091
 18,0.00010181,0.00010435,0.00003224,0.00017429,-0.00026780,0.00044437,
 -0.00030917,0.00201446,0.00192452,-0.00100608,0.00002840,0.00013960,0.
 00041900,0.00030551,0.00059240,0.00045176,-0.00244170,0.00032813,0.000
 19903,-0.00014614,0.00011924,0.00055449,0.00000047,-0.00000171,-0.0000
 0695,0.00001101,0.00000444,-0.00000627,-0.00002393,0.00007182,0.000023
 24,0.00001914,0.00001419,0.00000765,-0.00000138,-0.00000081,-0.0000017
 3,-0.00000036,0.00000268,0.00000051,-0.00000696,0.00000107,-0.00000113
 ,0.00000221,0.00000051,-0.00000081,0.00525119,0.11319391,0.28275822,-0
 .00017019,0.00054947,-0.00022147,-0.00520954,-0.00049356,-0.00398915,0
 .00567967,-0.02316683,0.00088091,-0.00169251,-0.00003111,0.00038989,-0
 .00505455,0.03061102,-0.00160601,0.00001569,0.00001071,0.00001780,-0.0
 0004277,-0.00018199,0.00000567,0.00002263,0.00000623,0.00000748,-0.000
 09063,0.00006903,0.00003182,0.00000648,-0.00001135,-0.00000386,-0.0005
 9762,0.00055060,0.00030569,-0.05812790,0.05332947,-0.00686449,-0.00126
 060,-0.00381070,0.00384263,0.00004473,-0.00001014,0.00002712,-0.000487
 17,0.00190046,-0.00017230,-0.00006673,0.00019345,0.00016830,0.00098726
 ,0.00017138,-0.00016800,0.00018550,0.00000403,-0.00004629,0.00018253,-
 0.00012872,0.00011464,0.00129769,-0.00061431,0.00008244,0.00116125,-0.
 00034940,0.00091751,0.00000156,-0.00000623,-0.00000637,0.00000046,-0.0
 0000072,-0.00000038,0.00003793,0.00004254,0.00002198,0.00000116,0.0000
 0565,-0.00001664,-0.00000068,-0.00000058,-0.00000304,-0.00000282,0.000
 00140,0.00000101,-0.00000643,-0.00000263,0.00000034,-0.00000204,0.0000
 0033,0.00000243,-0.00040035,-0.00078561,0.00048404,0.06358797,-0.00001
 708,0.00020212,-0.00016354,0.00007680,0.00117801,0.00054765,0.00572842
 ,-0.01186573,-0.00074060,-0.00036989,0.00085940,0.00004235,0.00004509,
 -0.00071017,-0.00017941,-0.00006477,0.00001900,0.00005959,-0.00005699,
 -0.00009787,0.00007045,0.00002419,0.00001013,0.00002756,-0.00009867,0.
 00003905,-0.00000001,-0.00000024,-0.00002817,-0.00003580,-0.00136708,0
 .00037119,0.00026944,0.05205057,-0.30620573,0.03307354,-0.00140857,-0.
 00095037,0.00169162,-0.00000133,-0.00000444,-0.00000239,0.00001152,-0.
 00028665,-0.00005674,0.00004037,0.00006884,-0.00006271,-0.00006641,0.0
 0121169,-0.00002389,0.00003423,-0.00004884,0.00012854,0.00013218,0.000
 13374,0.00008680,0.00027029,0.00021186,0.00030650,0.00044685,0.0003483
 8,0.00000197,0.00000545,-0.00000474,-0.00000326,-0.00000049,-0.0000002
 5,-0.00000760,-0.00004638,-0.00003291,0.00000163,-0.00001420,0.0000025
 3,-0.00001108,-0.00000142,-0.00000020,-0.00000651,-0.00000791,-0.00000
 023,-0.00000168,-0.00002067,-0.00000475,0.00000457,-0.00000024,0.00000
 048,0.00000342,0.00252823,-0.01306936,0.00166094,-0.05785187,0.3286540
 0,0.00006180,0.00003775,0.00007522,-0.00223181,-0.00030788,-0.00034620
 ,-0.00514059,0.01907809,-0.00383095,0.00058728,-0.00144779,-0.00082827
 ,-0.00209089,0.01334277,-0.00203436,0.00002616,0.00000523,-0.00001220,
 0.00001674,-0.00000609,0.00004063,0.00000021,0.00000552,0.00000552,-0.
 00002667,-0.00000342,-0.00000806,0.00000017,0.00000731,0.00000019,0.00
 004573,-0.00044614,-0.00007460,-0.00592648,0.02976006,-0.05093752,0.00
 281398,0.00420183,-0.00323173,-0.00002730,0.00001419,0.00000847,-0.000
 15291,0.00060459,0.00012538,-0.00022317,0.00028966,-0.00008223,-0.0006
 9850,0.00000061,0.00040215,-0.00001691,0.00011149,0.00024157,0.0001480
 4,0.00014206,0.00037655,0.00073300,0.00005503,0.00030083,0.00041150,-0
 .00045675,0.00044638,0.00000011,-0.00000108,-0.00000088,-0.00000279,-0
 .00000251,-0.00000175,0.00001398,-0.00001280,-0.00000032,-0.00000036,-
 0.00000038,-0.00000742,-0.00000090,-0.00000073,-0.00000069,-0.00000130
 ,-0.00000093,-0.00000094,0.00000122,-0.00000065,-0.00000008,0.00000018
 ,-0.00000006,-0.00000020,0.00588415,-0.02828768,0.00477893,0.00579630,
 -0.03668132,0.05459659\\0.00021600,-0.00088509,0.00012761,-0.00000722,
 -0.00000606,-0.00000212,0.00090562,-0.00059625,-0.00085215,0.00001353,
 0.00000267,-0.00000023,-0.00000193,0.00000724,-0.00000425,0.00000338,-
 0.00000125,0.00000066,0.00000468,0.00000053,-0.00000678,-0.00000685,-0
 .00000542,-0.00000737,0.00000443,0.00000336,0.00000199,0.00000488,0.00
 000102,-0.00000232,-0.00053865,0.00131348,0.00006557,-0.00000503,-0.00
 000174,0.00000388,-0.00058696,0.00017262,0.00066715,0.00000155,-0.0000
 0132,-0.00000256,-0.00000064,0.00000112,0.00000153,-0.00000129,-0.0000
 0364,0.00000175,0.00000273,-0.00000134,-0.00000478,-0.00000025,-0.0000
 0131,0.00000006,-0.00000178,-0.00000050,0.00000357,0.00000018,0.000001
 06,0.00000048,-0.00000078,-0.00000134,0.00000113,-0.00000008,0.0000002
 9,-0.00000038,-0.00000177,-0.00000229,0.00000062,-0.00000259,0.0000003
 9,-0.00000116,-0.00000233,-0.00000006,0.00000122,0.00000192,0.00000276
 ,0.00000282,0.00000170,0.00000284,0.00000061,-0.00000048,0.00000043,0.
 00000573,0.00000212,0.00000035,0.00000361,-0.00000005,-0.00000064,-0.0
 0000041,-0.00000401,-0.00000190,-0.00000548\\\@


 ALL SCIENCE IS EITHER PHYSICS, OR STAMP COLLECTING.
   --ERNEST RUTHERFORD, 1871-1937.
 Job cpu time:       0 days 15 hours 18 minutes 39.3 seconds.
 Elapsed time:       0 days  0 hours 57 minutes 29.3 seconds.
 File lengths (MBytes):  RWF=    690 Int=      0 D2E=      0 Chk=     33 Scr=      1
 Normal termination of Gaussian 16 at Mon Nov  5 01:02:11 2018.
