 Entering Gaussian System, Link 0=g16
 Initial command:
 /apps/gaussian/g16a03/g16/l1.exe "/jobfs/local/2011977.r-man2/Gau-7228.inp" -scrdir="/jobfs/local/2011977.r-man2/"
 Entering Link 1 = /apps/gaussian/g16a03/g16/l1.exe PID=      7229.
  
 Copyright (c) 1988,1990,1992,1993,1995,1998,2003,2009,2016,
            Gaussian, Inc.  All Rights Reserved.
  
 This is part of the Gaussian(R) 16 program.  It is based on
 the Gaussian(R) 09 system (copyright 2009, Gaussian, Inc.),
 the Gaussian(R) 03 system (copyright 2003, Gaussian, Inc.),
 the Gaussian(R) 98 system (copyright 1998, Gaussian, Inc.),
 the Gaussian(R) 94 system (copyright 1995, Gaussian, Inc.),
 the Gaussian 92(TM) system (copyright 1992, Gaussian, Inc.),
 the Gaussian 90(TM) system (copyright 1990, Gaussian, Inc.),
 the Gaussian 88(TM) system (copyright 1988, Gaussian, Inc.),
 the Gaussian 86(TM) system (copyright 1986, Carnegie Mellon
 University), and the Gaussian 82(TM) system (copyright 1983,
 Carnegie Mellon University). Gaussian is a federally registered
 trademark of Gaussian, Inc.
  
 This software contains proprietary and confidential information,
 including trade secrets, belonging to Gaussian, Inc.
  
 This software is provided under written license and may be
 used, copied, transmitted, or stored only in accord with that
 written license.
  
 The following legend is applicable only to US Government
 contracts under FAR:
  
                    RESTRICTED RIGHTS LEGEND
  
 Use, reproduction and disclosure by the US Government is
 subject to restrictions as set forth in subparagraphs (a)
 and (c) of the Commercial Computer Software - Restricted
 Rights clause in FAR 52.227-19.
  
 Gaussian, Inc.
 340 Quinnipiac St., Bldg. 40, Wallingford CT 06492
  
  
 ---------------------------------------------------------------
 Warning -- This program may not be used in any manner that
 competes with the business of Gaussian, Inc. or will provide
 assistance to any competitor of Gaussian, Inc.  The licensee
 of this program is prohibited from giving any competitor of
 Gaussian, Inc. access to this program.  By using this program,
 the user acknowledges that Gaussian, Inc. is engaged in the
 business of creating and licensing software in the field of
 computational chemistry and represents and warrants to the
 licensee that it is not a competitor of Gaussian, Inc. and that
 it will not use this program in any manner prohibited above.
 ---------------------------------------------------------------
  

 Cite this work as:
 Gaussian 16, Revision A.03,
 M. J. Frisch, G. W. Trucks, H. B. Schlegel, G. E. Scuseria, 
 M. A. Robb, J. R. Cheeseman, G. Scalmani, V. Barone, 
 G. A. Petersson, H. Nakatsuji, X. Li, M. Caricato, A. V. Marenich, 
 J. Bloino, B. G. Janesko, R. Gomperts, B. Mennucci, H. P. Hratchian, 
 J. V. Ortiz, A. F. Izmaylov, J. L. Sonnenberg, D. Williams-Young, 
 F. Ding, F. Lipparini, F. Egidi, J. Goings, B. Peng, A. Petrone, 
 T. Henderson, D. Ranasinghe, V. G. Zakrzewski, J. Gao, N. Rega, 
 G. Zheng, W. Liang, M. Hada, M. Ehara, K. Toyota, R. Fukuda, 
 J. Hasegawa, M. Ishida, T. Nakajima, Y. Honda, O. Kitao, H. Nakai, 
 T. Vreven, K. Throssell, J. A. Montgomery, Jr., J. E. Peralta, 
 F. Ogliaro, M. J. Bearpark, J. J. Heyd, E. N. Brothers, K. N. Kudin, 
 V. N. Staroverov, T. A. Keith, R. Kobayashi, J. Normand, 
 K. Raghavachari, A. P. Rendell, J. C. Burant, S. S. Iyengar, 
 J. Tomasi, M. Cossi, J. M. Millam, M. Klene, C. Adamo, R. Cammi, 
 J. W. Ochterski, R. L. Martin, K. Morokuma, O. Farkas, 
 J. B. Foresman, and D. J. Fox, Gaussian, Inc., Wallingford CT, 2016.
 
 ******************************************
 Gaussian 16:  ES64L-G16RevA.03 25-Dec-2016
                 4-Nov-2018 
 ******************************************
 %mem=6000mb
 %nproc=24
 Will use up to   24 processors via shared memory.
 %chk=D_1a_4e_D_PSI.inp_extract_5.chk
 ----------------------------------------------------------------------
 #M062X/6-311++G(2d,2p) opt=ModRedundant freq=noraman SCRF=(Solvent=Wat
 er)
 ----------------------------------------------------------------------
 1/18=120,19=15,26=3,38=1/1,3;
 2/9=110,12=2,17=6,18=5,40=1/2;
 3/5=4,6=6,7=1212,11=2,25=1,30=1,70=2201,71=1,72=1,74=-55/1,2,3;
 4//1;
 5/5=2,38=5,53=1/2;
 6/7=2,8=2,9=2,10=2,28=1/1;
 7//1,2,3,16;
 1/18=20,19=15,26=3/3(2);
 2/9=110/2;
 99//99;
 2/9=110/2;
 3/5=4,6=6,7=1212,11=2,25=1,30=1,70=2205,71=1,72=1,74=-55/1,2,3;
 4/5=5,16=3,69=1/1;
 5/5=2,38=5,53=1/2;
 7//1,2,3,16;
 1/18=20,19=15,26=3/3(-5);
 2/9=110/2;
 6/7=2,8=2,9=2,10=2,19=2,28=1/1;
 99/9=1/99;
 ---------------------------
 D_1a_4e_D_PSI.inp_extract_5
 ---------------------------
 Symbolic Z-matrix:
 Charge =  0 Multiplicity = 1
 C                    -3.64615   0.1942   -0.66964 
 C                    -1.15562   0.13628   0.80416 
 C                     1.0179   -0.10086  -0.31351 
 C                    -3.22013  -1.09988   0.02381 
 O                     3.23053  -0.95779  -0.77215 
 C                     3.85083  -0.02803   0.09762 
 C                    -2.42566   1.02881  -1.02009 
 C                     1.59781   0.95576   0.62285 
 C                     1.93097  -1.31916  -0.36259 
 C                     3.03826   1.25265   0.19129 
 O                    -1.61922   1.27553   0.12436 
 O                    -0.27213  -0.5996    0.01261 
 C                    -2.30633  -0.77435   1.20606 
 H                    -4.29439   0.76848  -0.01168 
 H                    -4.20541  -0.01465  -1.57726 
 H                     0.96038   0.32494  -1.31111 
 H                    -4.08892  -1.6501    0.37192 
 H                    -2.70188  -1.74078  -0.6843 
 H                     4.83567   0.15789  -0.30828 
 H                     3.9641   -0.48263   1.07926 
 H                    -1.82958   0.53562  -1.78066 
 H                    -2.70658   2.00417  -1.3928 
 H                     1.60085   0.5835    1.64432 
 H                     1.00881   1.86448   0.60269 
 H                     3.04131   1.74822  -0.77612 
 H                     3.50887   1.92504   0.90199 
 H                    -2.87602  -0.25424   1.97137 
 H                    -1.90168  -1.67407   1.65683 
 H                    -0.65254   0.51643   1.6776 
 H                     1.96899  -1.78951   0.61737 
 H                     1.56335  -2.04039  -1.07934 
 
 The following ModRedundant input section has been read:
 D       8       3      12       2 F                                           
 

 GradGradGradGradGradGradGradGradGradGradGradGradGradGradGradGradGradGrad
 Berny optimization.
 Initialization pass.
                           ----------------------------
                           !    Initial Parameters    !
                           ! (Angstroms and Degrees)  !
 --------------------------                            --------------------------
 ! Name  Definition              Value          Derivative Info.                !
 --------------------------------------------------------------------------------
 ! R1    R(1,4)                  1.5287         estimate D2E/DX2                !
 ! R2    R(1,7)                  1.5195         estimate D2E/DX2                !
 ! R3    R(1,14)                 1.0876         estimate D2E/DX2                !
 ! R4    R(1,15)                 1.0864         estimate D2E/DX2                !
 ! R5    R(2,11)                 1.4053         estimate D2E/DX2                !
 ! R6    R(2,12)                 1.3959         estimate D2E/DX2                !
 ! R7    R(2,13)                 1.5215         estimate D2E/DX2                !
 ! R8    R(2,29)                 1.0773         estimate D2E/DX2                !
 ! R9    R(3,8)                  1.5263         estimate D2E/DX2                !
 ! R10   R(3,9)                  1.5233         estimate D2E/DX2                !
 ! R11   R(3,12)                 1.421          estimate D2E/DX2                !
 ! R12   R(3,16)                 1.0862         estimate D2E/DX2                !
 ! R13   R(4,13)                 1.5293         estimate D2E/DX2                !
 ! R14   R(4,17)                 1.0857         estimate D2E/DX2                !
 ! R15   R(4,18)                 1.0866         estimate D2E/DX2                !
 ! R16   R(5,6)                  1.4162         estimate D2E/DX2                !
 ! R17   R(5,9)                  1.4097         estimate D2E/DX2                !
 ! R18   R(6,10)                 1.5196         estimate D2E/DX2                !
 ! R19   R(6,19)                 1.0813         estimate D2E/DX2                !
 ! R20   R(6,20)                 1.0877         estimate D2E/DX2                !
 ! R21   R(7,11)                 1.4216         estimate D2E/DX2                !
 ! R22   R(7,21)                 1.0849         estimate D2E/DX2                !
 ! R23   R(7,22)                 1.0813         estimate D2E/DX2                !
 ! R24   R(8,10)                 1.5327         estimate D2E/DX2                !
 ! R25   R(8,23)                 1.0872         estimate D2E/DX2                !
 ! R26   R(8,24)                 1.0831         estimate D2E/DX2                !
 ! R27   R(9,30)                 1.0877         estimate D2E/DX2                !
 ! R28   R(9,31)                 1.0812         estimate D2E/DX2                !
 ! R29   R(10,25)                1.087          estimate D2E/DX2                !
 ! R30   R(10,26)                1.0857         estimate D2E/DX2                !
 ! R31   R(13,27)                1.0866         estimate D2E/DX2                !
 ! R32   R(13,28)                1.0846         estimate D2E/DX2                !
 ! A1    A(4,1,7)              110.2265         estimate D2E/DX2                !
 ! A2    A(4,1,14)             109.795          estimate D2E/DX2                !
 ! A3    A(4,1,15)             111.0822         estimate D2E/DX2                !
 ! A4    A(7,1,14)             109.1611         estimate D2E/DX2                !
 ! A5    A(7,1,15)             109.05           estimate D2E/DX2                !
 ! A6    A(14,1,15)            107.4635         estimate D2E/DX2                !
 ! A7    A(11,2,12)            111.2136         estimate D2E/DX2                !
 ! A8    A(11,2,13)            111.3136         estimate D2E/DX2                !
 ! A9    A(11,2,29)            105.0813         estimate D2E/DX2                !
 ! A10   A(12,2,13)            108.2369         estimate D2E/DX2                !
 ! A11   A(12,2,29)            110.5007         estimate D2E/DX2                !
 ! A12   A(13,2,29)            110.501          estimate D2E/DX2                !
 ! A13   A(8,3,9)              110.2247         estimate D2E/DX2                !
 ! A14   A(8,3,12)             116.5583         estimate D2E/DX2                !
 ! A15   A(8,3,16)             108.1911         estimate D2E/DX2                !
 ! A16   A(9,3,12)             105.715          estimate D2E/DX2                !
 ! A17   A(9,3,16)             108.4017         estimate D2E/DX2                !
 ! A18   A(12,3,16)            107.4753         estimate D2E/DX2                !
 ! A19   A(1,4,13)             109.6943         estimate D2E/DX2                !
 ! A20   A(1,4,17)             110.5757         estimate D2E/DX2                !
 ! A21   A(1,4,18)             109.6696         estimate D2E/DX2                !
 ! A22   A(13,4,17)            109.7648         estimate D2E/DX2                !
 ! A23   A(13,4,18)            110.1419         estimate D2E/DX2                !
 ! A24   A(17,4,18)            106.9587         estimate D2E/DX2                !
 ! A25   A(6,5,9)              113.1813         estimate D2E/DX2                !
 ! A26   A(5,6,10)             110.9118         estimate D2E/DX2                !
 ! A27   A(5,6,19)             106.3356         estimate D2E/DX2                !
 ! A28   A(5,6,20)             108.9951         estimate D2E/DX2                !
 ! A29   A(10,6,19)            111.4231         estimate D2E/DX2                !
 ! A30   A(10,6,20)            110.6268         estimate D2E/DX2                !
 ! A31   A(19,6,20)            108.4086         estimate D2E/DX2                !
 ! A32   A(1,7,11)             111.4253         estimate D2E/DX2                !
 ! A33   A(1,7,21)             110.6894         estimate D2E/DX2                !
 ! A34   A(1,7,22)             111.4863         estimate D2E/DX2                !
 ! A35   A(11,7,21)            109.3652         estimate D2E/DX2                !
 ! A36   A(11,7,22)            105.564          estimate D2E/DX2                !
 ! A37   A(21,7,22)            108.1293         estimate D2E/DX2                !
 ! A38   A(3,8,10)             108.5682         estimate D2E/DX2                !
 ! A39   A(3,8,23)             109.9026         estimate D2E/DX2                !
 ! A40   A(3,8,24)             111.2718         estimate D2E/DX2                !
 ! A41   A(10,8,23)            109.1614         estimate D2E/DX2                !
 ! A42   A(10,8,24)            110.0791         estimate D2E/DX2                !
 ! A43   A(23,8,24)            107.8358         estimate D2E/DX2                !
 ! A44   A(3,9,5)              110.9116         estimate D2E/DX2                !
 ! A45   A(3,9,30)             109.7424         estimate D2E/DX2                !
 ! A46   A(3,9,31)             110.5522         estimate D2E/DX2                !
 ! A47   A(5,9,30)             109.9009         estimate D2E/DX2                !
 ! A48   A(5,9,31)             106.9683         estimate D2E/DX2                !
 ! A49   A(30,9,31)            108.7045         estimate D2E/DX2                !
 ! A50   A(6,10,8)             110.8944         estimate D2E/DX2                !
 ! A51   A(6,10,25)            109.1397         estimate D2E/DX2                !
 ! A52   A(6,10,26)            109.3006         estimate D2E/DX2                !
 ! A53   A(8,10,25)            109.9708         estimate D2E/DX2                !
 ! A54   A(8,10,26)            110.0613         estimate D2E/DX2                !
 ! A55   A(25,10,26)           107.3994         estimate D2E/DX2                !
 ! A56   A(2,11,7)             115.8403         estimate D2E/DX2                !
 ! A57   A(2,12,3)             121.3106         estimate D2E/DX2                !
 ! A58   A(2,13,4)             112.0311         estimate D2E/DX2                !
 ! A59   A(2,13,27)            107.2227         estimate D2E/DX2                !
 ! A60   A(2,13,28)            108.9108         estimate D2E/DX2                !
 ! A61   A(4,13,27)            109.4567         estimate D2E/DX2                !
 ! A62   A(4,13,28)            111.5699         estimate D2E/DX2                !
 ! A63   A(27,13,28)           107.4532         estimate D2E/DX2                !
 ! D1    D(7,1,4,13)            52.7235         estimate D2E/DX2                !
 ! D2    D(7,1,4,17)           173.9225         estimate D2E/DX2                !
 ! D3    D(7,1,4,18)           -68.3643         estimate D2E/DX2                !
 ! D4    D(14,1,4,13)          -67.5666         estimate D2E/DX2                !
 ! D5    D(14,1,4,17)           53.6324         estimate D2E/DX2                !
 ! D6    D(14,1,4,18)          171.3456         estimate D2E/DX2                !
 ! D7    D(15,1,4,13)          173.7103         estimate D2E/DX2                !
 ! D8    D(15,1,4,17)          -65.0908         estimate D2E/DX2                !
 ! D9    D(15,1,4,18)           52.6225         estimate D2E/DX2                !
 ! D10   D(4,1,7,11)           -54.8696         estimate D2E/DX2                !
 ! D11   D(4,1,7,21)            67.0651         estimate D2E/DX2                !
 ! D12   D(4,1,7,22)          -172.5296         estimate D2E/DX2                !
 ! D13   D(14,1,7,11)           65.8014         estimate D2E/DX2                !
 ! D14   D(14,1,7,21)         -172.2638         estimate D2E/DX2                !
 ! D15   D(14,1,7,22)          -51.8586         estimate D2E/DX2                !
 ! D16   D(15,1,7,11)         -177.0635         estimate D2E/DX2                !
 ! D17   D(15,1,7,21)          -55.1287         estimate D2E/DX2                !
 ! D18   D(15,1,7,22)           65.2765         estimate D2E/DX2                !
 ! D19   D(12,2,11,7)           65.5956         estimate D2E/DX2                !
 ! D20   D(13,2,11,7)          -55.1867         estimate D2E/DX2                !
 ! D21   D(29,2,11,7)         -174.8223         estimate D2E/DX2                !
 ! D22   D(11,2,12,3)           69.1022         estimate D2E/DX2                !
 ! D23   D(13,2,12,3)         -168.3227         estimate D2E/DX2                !
 ! D24   D(29,2,12,3)          -47.1997         estimate D2E/DX2                !
 ! D25   D(11,2,13,4)           51.7314         estimate D2E/DX2                !
 ! D26   D(11,2,13,27)         -68.3772         estimate D2E/DX2                !
 ! D27   D(11,2,13,28)         175.6389         estimate D2E/DX2                !
 ! D28   D(12,2,13,4)          -70.7828         estimate D2E/DX2                !
 ! D29   D(12,2,13,27)         169.1087         estimate D2E/DX2                !
 ! D30   D(12,2,13,28)          53.1248         estimate D2E/DX2                !
 ! D31   D(29,2,13,4)          168.0945         estimate D2E/DX2                !
 ! D32   D(29,2,13,27)          47.9859         estimate D2E/DX2                !
 ! D33   D(29,2,13,28)         -67.998          estimate D2E/DX2                !
 ! D34   D(9,3,8,10)            53.6225         estimate D2E/DX2                !
 ! D35   D(9,3,8,23)           -65.7093         estimate D2E/DX2                !
 ! D36   D(9,3,8,24)           174.9164         estimate D2E/DX2                !
 ! D37   D(12,3,8,10)          174.0771         estimate D2E/DX2                !
 ! D38   D(12,3,8,23)           54.7453         estimate D2E/DX2                !
 ! D39   D(12,3,8,24)          -64.629          estimate D2E/DX2                !
 ! D40   D(16,3,8,10)          -64.7489         estimate D2E/DX2                !
 ! D41   D(16,3,8,23)          175.9192         estimate D2E/DX2                !
 ! D42   D(16,3,8,24)           56.545          estimate D2E/DX2                !
 ! D43   D(8,3,9,5)            -57.3507         estimate D2E/DX2                !
 ! D44   D(8,3,9,30)            64.2692         estimate D2E/DX2                !
 ! D45   D(8,3,9,31)          -175.8347         estimate D2E/DX2                !
 ! D46   D(12,3,9,5)           175.876          estimate D2E/DX2                !
 ! D47   D(12,3,9,30)          -62.5041         estimate D2E/DX2                !
 ! D48   D(12,3,9,31)           57.392          estimate D2E/DX2                !
 ! D49   D(16,3,9,5)            60.8914         estimate D2E/DX2                !
 ! D50   D(16,3,9,30)         -177.4886         estimate D2E/DX2                !
 ! D51   D(16,3,9,31)          -57.5925         estimate D2E/DX2                !
 ! D52   D(8,3,12,2)            22.7594         Frozen                          !
 ! D53   D(9,3,12,2)           145.5886         estimate D2E/DX2                !
 ! D54   D(16,3,12,2)          -98.7924         estimate D2E/DX2                !
 ! D55   D(1,4,13,2)           -51.5998         estimate D2E/DX2                !
 ! D56   D(1,4,13,27)           67.1972         estimate D2E/DX2                !
 ! D57   D(1,4,13,28)         -174.0063         estimate D2E/DX2                !
 ! D58   D(17,4,13,2)         -173.2859         estimate D2E/DX2                !
 ! D59   D(17,4,13,27)         -54.4889         estimate D2E/DX2                !
 ! D60   D(17,4,13,28)          64.3076         estimate D2E/DX2                !
 ! D61   D(18,4,13,2)           69.2027         estimate D2E/DX2                !
 ! D62   D(18,4,13,27)        -172.0003         estimate D2E/DX2                !
 ! D63   D(18,4,13,28)         -53.2038         estimate D2E/DX2                !
 ! D64   D(9,5,6,10)           -59.539          estimate D2E/DX2                !
 ! D65   D(9,5,6,19)           179.1657         estimate D2E/DX2                !
 ! D66   D(9,5,6,20)            62.4913         estimate D2E/DX2                !
 ! D67   D(6,5,9,3)             60.5033         estimate D2E/DX2                !
 ! D68   D(6,5,9,30)           -61.0236         estimate D2E/DX2                !
 ! D69   D(6,5,9,31)          -178.8657         estimate D2E/DX2                !
 ! D70   D(5,6,10,8)            55.5907         estimate D2E/DX2                !
 ! D71   D(5,6,10,25)          -65.7054         estimate D2E/DX2                !
 ! D72   D(5,6,10,26)          177.106          estimate D2E/DX2                !
 ! D73   D(19,6,10,8)          173.8436         estimate D2E/DX2                !
 ! D74   D(19,6,10,25)          52.5474         estimate D2E/DX2                !
 ! D75   D(19,6,10,26)         -64.6411         estimate D2E/DX2                !
 ! D76   D(20,6,10,8)          -65.4823         estimate D2E/DX2                !
 ! D77   D(20,6,10,25)         173.2215         estimate D2E/DX2                !
 ! D78   D(20,6,10,26)          56.033          estimate D2E/DX2                !
 ! D79   D(1,7,11,2)            57.4256         estimate D2E/DX2                !
 ! D80   D(21,7,11,2)          -65.2722         estimate D2E/DX2                !
 ! D81   D(22,7,11,2)          178.6066         estimate D2E/DX2                !
 ! D82   D(3,8,10,6)           -53.1062         estimate D2E/DX2                !
 ! D83   D(3,8,10,25)           67.6997         estimate D2E/DX2                !
 ! D84   D(3,8,10,26)         -174.1739         estimate D2E/DX2                !
 ! D85   D(23,8,10,6)           66.6892         estimate D2E/DX2                !
 ! D86   D(23,8,10,25)        -172.5049         estimate D2E/DX2                !
 ! D87   D(23,8,10,26)         -54.3785         estimate D2E/DX2                !
 ! D88   D(24,8,10,6)         -175.1301         estimate D2E/DX2                !
 ! D89   D(24,8,10,25)         -54.3242         estimate D2E/DX2                !
 ! D90   D(24,8,10,26)          63.8023         estimate D2E/DX2                !
 --------------------------------------------------------------------------------
 Trust Radius=3.00D-01 FncErr=1.00D-07 GrdErr=1.00D-06 EigMax=2.50D+02 EigMin=1.00D-04
 Number of steps in this run=    186 maximum allowed number of steps=    186.
 GradGradGradGradGradGradGradGradGradGradGradGradGradGradGradGradGradGrad

                          Input orientation:                          
 ---------------------------------------------------------------------
 Center     Atomic      Atomic             Coordinates (Angstroms)
 Number     Number       Type             X           Y           Z
 ---------------------------------------------------------------------
      1          6           0       -3.646149    0.194200   -0.669637
      2          6           0       -1.155615    0.136276    0.804155
      3          6           0        1.017896   -0.100864   -0.313513
      4          6           0       -3.220129   -1.099876    0.023808
      5          8           0        3.230530   -0.957785   -0.772152
      6          6           0        3.850830   -0.028034    0.097617
      7          6           0       -2.425661    1.028808   -1.020093
      8          6           0        1.597805    0.955761    0.622848
      9          6           0        1.930966   -1.319156   -0.362590
     10          6           0        3.038259    1.252646    0.191293
     11          8           0       -1.619216    1.275528    0.124358
     12          8           0       -0.272131   -0.599604    0.012607
     13          6           0       -2.306331   -0.774345    1.206062
     14          1           0       -4.294386    0.768482   -0.011684
     15          1           0       -4.205407   -0.014647   -1.577255
     16          1           0        0.960378    0.324936   -1.311109
     17          1           0       -4.088922   -1.650096    0.371919
     18          1           0       -2.701882   -1.740783   -0.684297
     19          1           0        4.835668    0.157888   -0.308280
     20          1           0        3.964095   -0.482633    1.079256
     21          1           0       -1.829584    0.535620   -1.780664
     22          1           0       -2.706576    2.004172   -1.392796
     23          1           0        1.600848    0.583496    1.644315
     24          1           0        1.008808    1.864477    0.602691
     25          1           0        3.041312    1.748216   -0.776116
     26          1           0        3.508865    1.925036    0.901986
     27          1           0       -2.876019   -0.254240    1.971374
     28          1           0       -1.901684   -1.674065    1.656833
     29          1           0       -0.652535    0.516427    1.677598
     30          1           0        1.968991   -1.789505    0.617369
     31          1           0        1.563352   -2.040391   -1.079336
 ---------------------------------------------------------------------
                    Distance matrix (angstroms):
                    1          2          3          4          5
     1  C    0.000000
     2  C    2.894508   0.000000
     3  C    4.686918   2.455518   0.000000
     4  C    1.528722   2.529670   4.367226   0.000000
     5  O    6.973256   4.787482   2.416695   6.501134   0.000000
     6  C    7.539414   5.058724   2.863538   7.152115   1.416230
     7  C    1.519533   2.395310   3.692357   2.500441   6.000044
     8  C    5.454314   2.878498   1.526277   5.272284   2.876365
     9  C    5.786945   3.606461   1.523266   5.170219   1.409680
    10  C    6.822230   4.382974   2.483684   6.688036   2.418925
    11  O    2.430670   1.405327   3.006750   2.866283   5.414005
    12  O    3.532645   1.395927   1.421009   2.990166   3.607322
    13  C    2.500288   1.521482   3.716607   1.529288   5.882500
    14  H    1.087618   3.304113   5.391401   2.155470   7.757749
    15  H    1.086350   3.872354   5.374697   2.170691   7.538624
    16  H    4.652813   2.997893   1.086191   4.613971   2.662600
    17  H    2.163866   3.461538   5.380476   1.085691   7.440603
    18  H    2.153141   2.851277   4.082103   1.086625   5.984506
    19  H    8.489589   6.093722   3.826534   8.160154   2.009072
    20  H    7.837892   5.164316   3.281104   7.287526   2.047339
    21  H    2.156585   2.700926   3.265852   2.804386   5.371416
    22  H    2.163736   3.274310   4.412224   3.450452   6.663904
    23  H    5.747774   2.916155   2.154361   5.357388   3.297078
    24  H    5.106591   2.777048   2.168427   5.196768   3.845960
    25  H    6.866472   4.765480   2.779804   6.925110   2.712611
    26  H    7.527285   4.996660   3.433167   7.429714   3.345275
    27  H    2.787317   2.115347   4.517389   2.150936   6.731408
    28  H    3.456304   2.135653   3.857612   2.175951   5.722993
    29  H    3.817731   1.077268   2.671313   3.455430   4.822113
    30  H    6.092722   3.675144   2.150031   5.268289   2.052805
    31  H    5.683322   3.959571   2.155405   4.998318   2.011437
                    6          7          8          9         10
     6  C    0.000000
     7  C    6.462239   0.000000
     8  C    2.513930   4.346593   0.000000
     9  C    2.358954   4.992539   2.501466   0.000000
    10  C    1.519601   5.601070   1.532739   2.854304   0.000000
    11  O    5.623290   1.421616   3.271080   4.424172   4.658012
    12  O    4.163259   2.890655   2.507631   2.347800   3.797557
    13  C    6.300497   2.867293   4.309952   4.551063   5.805436
    14  H    8.184799   2.139344   5.929217   6.575437   7.351415
    15  H    8.228507   2.136989   6.281673   6.390010   7.563365
    16  H    3.234781   3.470646   2.131770   2.131846   2.726802
    17  H    8.108390   3.446834   6.260377   6.073555   7.697743
    18  H    6.817839   2.803514   5.240924   4.663105   6.532725
    19  H    1.081307   7.347930   3.462276   3.259126   2.163041
    20  H    1.087706   6.893526   2.806531   2.629126   2.157972
    21  H    6.009388   1.084901   4.207182   4.426383   5.300815
    22  H    7.025010   1.081275   4.867205   5.797640   6.006435
    23  H    2.797975   4.848726   1.087191   2.785091   2.150624
    24  H    3.451635   3.889389   1.083092   3.452197   2.159226
    25  H    2.138643   5.519499   2.160740   3.288258   1.086959
    26  H    2.139727   6.302080   2.160917   3.822787   1.085662
    27  H    6.986604   3.286017   4.826772   5.448719   6.357521
    28  H    6.183202   3.840053   4.497948   4.346635   5.925916
    29  H    4.803444   3.268646   2.523795   3.769113   4.046366
    30  H    2.629494   5.471484   2.770252   1.087655   3.252623
    31  H    3.266092   5.033460   3.446091   1.081224   3.825433
                   11         12         13         14         15
    11  O    0.000000
    12  O    2.311546   0.000000
    13  C    2.417476   2.364918   0.000000
    14  H    2.726195   4.248621   2.795636   0.000000
    15  H    3.353867   4.282581   3.454053   1.752775   0.000000
    16  H    3.101370   2.031275   4.268015   5.431186   5.183771
    17  H    3.836667   3.974988   2.154151   2.457415   2.547065
    18  H    3.305181   2.773383   2.159611   3.047111   2.457134
    19  H    6.565198   5.173623   7.360057   9.155254   9.131325
    20  H    5.930963   4.370015   6.278489   8.423654   8.603303
    21  H    2.054465   2.632530   3.296032   3.042822   2.447183
    22  H    2.003754   3.831622   3.825495   2.440398   2.521141
    23  H    3.627394   2.751408   4.159549   6.126201   6.667000
    24  H    2.735356   2.839137   4.279905   5.450003   5.955780
    25  H    4.770200   4.136816   6.236155   7.440208   7.500963
    26  H    5.227215   4.632573   6.418382   7.941230   8.331806
    27  H    2.707621   3.276626   1.086626   2.643907   3.797031
    28  H    3.335921   2.552134   1.084633   3.804603   4.303502
    29  H    1.980722   2.040203   2.150228   4.022472   4.847577
    30  H    4.744757   2.608492   4.433451   6.794770   6.788939
    31  H    4.751099   2.576277   4.669086   6.583521   6.134341
                   16         17         18         19         20
    16  H    0.000000
    17  H    5.677038   0.000000
    18  H    4.251145   1.745765   0.000000
    19  H    4.006425   9.131253   7.782095   0.000000
    20  H    3.922796   8.167887   7.009159   1.759307   0.000000
    21  H    2.837033   3.809931   2.673001   6.836386   6.540848
    22  H    4.033988   4.287047   3.811388   7.840305   7.536119
    23  H    3.035059   6.243509   5.416474   3.802345   2.653462
    24  H    2.456657   6.196154   5.331365   4.288027   3.803914
    25  H    2.577252   7.981651   6.720552   2.442893   3.044769
    26  H    3.735357   8.413614   7.384301   2.519516   2.456731
    27  H    5.082134   2.444955   3.048397   8.052129   6.901826
    28  H    4.582148   2.536846   2.475007   7.253250   6.013358
    29  H    3.401548   4.267010   3.856601   5.847447   4.761240
    30  H    3.034335   6.064486   4.849099   3.587060   2.429340
    31  H    2.451952   5.848647   4.293954   4.016841   3.584647
                   21         22         23         24         25
    21  H    0.000000
    22  H    1.753910   0.000000
    23  H    4.847746   5.458596   0.000000
    24  H    3.937348   4.219664   1.753968   0.000000
    25  H    5.119095   5.786538   3.047949   2.458800   0.000000
    26  H    6.134014   6.626009   2.447715   2.518637   1.750970
    27  H    3.974506   4.055462   4.566301   4.631861   6.824466
    28  H    4.087088   4.845360   4.167070   4.701432   6.485712
    29  H    3.653134   3.982435   2.254627   2.394311   4.602447
    30  H    5.058255   6.347730   2.611758   3.778062   3.950588
    31  H    4.317373   5.889740   3.782124   4.287742   4.077971
                   26         27         28         29         30
    26  H    0.000000
    27  H    6.830782   0.000000
    28  H    6.541969   1.750476   0.000000
    29  H    4.461278   2.371521   2.521718   0.000000
    30  H    4.031133   5.259704   4.009481   3.648809   0.000000
    31  H    4.840999   5.674961   4.430270   4.364420   1.762468
                   31
    31  H    0.000000
 Stoichiometry    C10H18O3
 Framework group  C1[X(C10H18O3)]
 Deg. of freedom    87
 Full point group                 C1      NOp   1
 Largest Abelian subgroup         C1      NOp   1
 Largest concise Abelian subgroup C1      NOp   1
                         Standard orientation:                         
 ---------------------------------------------------------------------
 Center     Atomic      Atomic             Coordinates (Angstroms)
 Number     Number       Type             X           Y           Z
 ---------------------------------------------------------------------
      1          6           0       -3.646149    0.194200   -0.669637
      2          6           0       -1.155615    0.136276    0.804155
      3          6           0        1.017896   -0.100864   -0.313513
      4          6           0       -3.220129   -1.099876    0.023808
      5          8           0        3.230530   -0.957785   -0.772152
      6          6           0        3.850830   -0.028034    0.097617
      7          6           0       -2.425661    1.028808   -1.020093
      8          6           0        1.597805    0.955761    0.622848
      9          6           0        1.930966   -1.319156   -0.362590
     10          6           0        3.038259    1.252646    0.191293
     11          8           0       -1.619216    1.275528    0.124358
     12          8           0       -0.272131   -0.599604    0.012607
     13          6           0       -2.306331   -0.774345    1.206062
     14          1           0       -4.294386    0.768482   -0.011684
     15          1           0       -4.205407   -0.014647   -1.577255
     16          1           0        0.960378    0.324936   -1.311109
     17          1           0       -4.088922   -1.650096    0.371919
     18          1           0       -2.701882   -1.740783   -0.684297
     19          1           0        4.835668    0.157888   -0.308280
     20          1           0        3.964095   -0.482633    1.079256
     21          1           0       -1.829584    0.535620   -1.780664
     22          1           0       -2.706576    2.004172   -1.392796
     23          1           0        1.600848    0.583496    1.644315
     24          1           0        1.008808    1.864477    0.602691
     25          1           0        3.041312    1.748216   -0.776116
     26          1           0        3.508865    1.925036    0.901986
     27          1           0       -2.876019   -0.254240    1.971374
     28          1           0       -1.901684   -1.674065    1.656833
     29          1           0       -0.652535    0.516427    1.677598
     30          1           0        1.968991   -1.789505    0.617369
     31          1           0        1.563352   -2.040391   -1.079336
 ---------------------------------------------------------------------
 Rotational constants (GHZ):           2.0043589           0.3996552           0.3766846
 Standard basis: 6-311++G(2d,2p) (5D, 7F)
 There are   557 symmetry adapted cartesian basis functions of A   symmetry.
 There are   531 symmetry adapted basis functions of A   symmetry.
   531 basis functions,   762 primitive gaussians,   557 cartesian basis functions
    51 alpha electrons       51 beta electrons
       nuclear repulsion energy       892.8956700831 Hartrees.
 NAtoms=   31 NActive=   31 NUniq=   31 SFac= 1.00D+00 NAtFMM=   60 NAOKFM=F Big=F
 Integral buffers will be    131072 words long.
 Raffenetti 2 integral format.
 Two-electron integral symmetry is turned on.
 ------------------------------------------------------------------------------
 Polarizable Continuum Model (PCM)
 =================================
 Model                : PCM.
 Atomic radii         : UFF (Universal Force Field).
 Polarization charges : Total charges.
 Charge compensation  : None.
 Solution method      : On-the-fly selection.
 Cavity type          : Scaled VdW (van der Waals Surface) (Alpha=1.100).
 Cavity algorithm     : GePol (No added spheres)
                        Default sphere list used, NSphG=   31.
                        Lebedev-Laikov grids with approx.  5.0 points / Ang**2.
                        Smoothing algorithm: York/Karplus (Gamma=1.0000).
                        Polarization charges: spherical gaussians, with
                                              point-specific exponents (IZeta= 3).
                        Self-potential: point-specific (ISelfS= 7).
                        Self-field    : sphere-specific E.n sum rule (ISelfD= 2).
 1st derivatives      : Analytical E(r).r(x)/FMM algorithm (CHGder, D1EAlg=3).
                        Cavity 1st derivative terms included.
 Solvent              : Water, Eps=  78.355300 Eps(inf)=   1.777849
 ------------------------------------------------------------------------------
 One-electron integrals computed using PRISM.
 NBasis=   531 RedAO= T EigKep=  4.49D-06  NBF=   531
 NBsUse=   531 1.00D-06 EigRej= -1.00D+00 NBFU=   531
 ExpMin= 3.60D-02 ExpMax= 8.59D+03 ExpMxC= 1.30D+03 IAcc=3 IRadAn=         5 AccDes= 0.00D+00
 Harris functional with IExCor= 1009 and IRadAn=       5 diagonalized for initial guess.
 HarFok:  IExCor= 1009 AccDes= 0.00D+00 IRadAn=         5 IDoV= 1 UseB2=F ITyADJ=14
 ICtDFT=  3500011 ScaDFX=  1.000000  1.000000  1.000000  1.000000
 FoFCou: FMM=F IPFlag=           0 FMFlag=      100000 FMFlg1=           0
         NFxFlg=           0 DoJE=T BraDBF=F KetDBF=T FulRan=T
         wScrn=  0.000000 ICntrl=       500 IOpCl=  0 I1Cent=   200000004 NGrid=           0
         NMat0=    1 NMatS0=      1 NMatT0=    0 NMatD0=    1 NMtDS0=    0 NMtDT0=    0
 Petite list used in FoFCou.
 Requested convergence on RMS density matrix=1.00D-08 within 128 cycles.
 Requested convergence on MAX density matrix=1.00D-06.
 Requested convergence on             energy=1.00D-06.
 No special actions if energy rises.
 Inv3:  Mode=1 IEnd=    12582912.
 Iteration    1 A*A^-1 deviation from unit magnitude is 4.88D-15 for   2027.
 Iteration    1 A*A^-1 deviation from orthogonality  is 1.78D-15 for   2014    831.
 Iteration    1 A^-1*A deviation from unit magnitude is 4.88D-15 for   2027.
 Iteration    1 A^-1*A deviation from orthogonality  is 2.10D-15 for   2042    931.
 Error on total polarization charges =  0.01483
 SCF Done:  E(RM062X) =  -617.499312844     A.U. after   12 cycles
            NFock= 12  Conv=0.63D-08     -V/T= 2.0035

 **********************************************************************

            Population analysis using the SCF density.

 **********************************************************************

 Orbital symmetries:
       Occupied  (A) (A) (A) (A) (A) (A) (A) (A) (A) (A) (A) (A)
                 (A) (A) (A) (A) (A) (A) (A) (A) (A) (A) (A) (A)
                 (A) (A) (A) (A) (A) (A) (A) (A) (A) (A) (A) (A)
                 (A) (A) (A) (A) (A) (A) (A) (A) (A) (A) (A) (A)
                 (A) (A) (A)
       Virtual   (A) (A) (A) (A) (A) (A) (A) (A) (A) (A) (A) (A)
                 (A) (A) (A) (A) (A) (A) (A) (A) (A) (A) (A) (A)
                 (A) (A) (A) (A) (A) (A) (A) (A) (A) (A) (A) (A)
                 (A) (A) (A) (A) (A) (A) (A) (A) (A) (A) (A) (A)
                 (A) (A) (A) (A) (A) (A) (A) (A) (A) (A) (A) (A)
                 (A) (A) (A) (A) (A) (A) (A) (A) (A) (A) (A) (A)
                 (A) (A) (A) (A) (A) (A) (A) (A) (A) (A) (A) (A)
                 (A) (A) (A) (A) (A) (A) (A) (A) (A) (A) (A) (A)
                 (A) (A) (A) (A) (A) (A) (A) (A) (A) (A) (A) (A)
                 (A) (A) (A) (A) (A) (A) (A) (A) (A) (A) (A) (A)
                 (A) (A) (A) (A) (A) (A) (A) (A) (A) (A) (A) (A)
                 (A) (A) (A) (A) (A) (A) (A) (A) (A) (A) (A) (A)
                 (A) (A) (A) (A) (A) (A) (A) (A) (A) (A) (A) (A)
                 (A) (A) (A) (A) (A) (A) (A) (A) (A) (A) (A) (A)
                 (A) (A) (A) (A) (A) (A) (A) (A) (A) (A) (A) (A)
                 (A) (A) (A) (A) (A) (A) (A) (A) (A) (A) (A) (A)
                 (A) (A) (A) (A) (A) (A) (A) (A) (A) (A) (A) (A)
                 (A) (A) (A) (A) (A) (A) (A) (A) (A) (A) (A) (A)
                 (A) (A) (A) (A) (A) (A) (A) (A) (A) (A) (A) (A)
                 (A) (A) (A) (A) (A) (A) (A) (A) (A) (A) (A) (A)
                 (A) (A) (A) (A) (A) (A) (A) (A) (A) (A) (A) (A)
                 (A) (A) (A) (A) (A) (A) (A) (A) (A) (A) (A) (A)
                 (A) (A) (A) (A) (A) (A) (A) (A) (A) (A) (A) (A)
                 (A) (A) (A) (A) (A) (A) (A) (A) (A) (A) (A) (A)
                 (A) (A) (A) (A) (A) (A) (A) (A) (A) (A) (A) (A)
                 (A) (A) (A) (A) (A) (A) (A) (A) (A) (A) (A) (A)
                 (A) (A) (A) (A) (A) (A) (A) (A) (A) (A) (A) (A)
                 (A) (A) (A) (A) (A) (A) (A) (A) (A) (A) (A) (A)
                 (A) (A) (A) (A) (A) (A) (A) (A) (A) (A) (A) (A)
                 (A) (A) (A) (A) (A) (A) (A) (A) (A) (A) (A) (A)
                 (A) (A) (A) (A) (A) (A) (A) (A) (A) (A) (A) (A)
                 (A) (A) (A) (A) (A) (A) (A) (A) (A) (A) (A) (A)
                 (A) (A) (A) (A) (A) (A) (A) (A) (A) (A) (A) (A)
                 (A) (A) (A) (A) (A) (A) (A) (A) (A) (A) (A) (A)
                 (A) (A) (A) (A) (A) (A) (A) (A) (A) (A) (A) (A)
                 (A) (A) (A) (A) (A) (A) (A) (A) (A) (A) (A) (A)
                 (A) (A) (A) (A) (A) (A) (A) (A) (A) (A) (A) (A)
                 (A) (A) (A) (A) (A) (A) (A) (A) (A) (A) (A) (A)
                 (A) (A) (A) (A) (A) (A) (A) (A) (A) (A) (A) (A)
                 (A) (A) (A) (A) (A) (A) (A) (A) (A) (A) (A) (A)
 The electronic state is 1-A.
 Alpha  occ. eigenvalues --  -19.62969 -19.62942 -19.62602 -10.63316 -10.58820
 Alpha  occ. eigenvalues --  -10.57896 -10.57884 -10.57569 -10.53398 -10.53288
 Alpha  occ. eigenvalues --  -10.52928 -10.52889 -10.52712  -1.20057  -1.16832
 Alpha  occ. eigenvalues --   -1.13400  -0.90999  -0.89689  -0.87844  -0.84683
 Alpha  occ. eigenvalues --   -0.75550  -0.74192  -0.72883  -0.70964  -0.66279
 Alpha  occ. eigenvalues --   -0.63274  -0.60360  -0.58820  -0.57012  -0.56264
 Alpha  occ. eigenvalues --   -0.54261  -0.53382  -0.52387  -0.51272  -0.49852
 Alpha  occ. eigenvalues --   -0.48607  -0.47067  -0.46198  -0.45385  -0.45250
 Alpha  occ. eigenvalues --   -0.43882  -0.42921  -0.41259  -0.40444  -0.39174
 Alpha  occ. eigenvalues --   -0.38514  -0.37526  -0.35749  -0.34519  -0.33535
 Alpha  occ. eigenvalues --   -0.32187
 Alpha virt. eigenvalues --   -0.00092   0.00773   0.00809   0.01051   0.02147
 Alpha virt. eigenvalues --    0.02446   0.02643   0.03532   0.03565   0.04432
 Alpha virt. eigenvalues --    0.04551   0.04705   0.05669   0.05706   0.06796
 Alpha virt. eigenvalues --    0.07413   0.07906   0.08141   0.09091   0.09265
 Alpha virt. eigenvalues --    0.09824   0.10238   0.11285   0.11678   0.11904
 Alpha virt. eigenvalues --    0.12291   0.12454   0.12837   0.13021   0.13459
 Alpha virt. eigenvalues --    0.13753   0.14360   0.14597   0.14667   0.15150
 Alpha virt. eigenvalues --    0.15197   0.15459   0.15539   0.16052   0.16085
 Alpha virt. eigenvalues --    0.16527   0.16853   0.17382   0.17520   0.17750
 Alpha virt. eigenvalues --    0.17796   0.18110   0.18480   0.19001   0.19597
 Alpha virt. eigenvalues --    0.19842   0.20091   0.20502   0.21367   0.21781
 Alpha virt. eigenvalues --    0.22490   0.22568   0.23383   0.23743   0.23907
 Alpha virt. eigenvalues --    0.24504   0.25922   0.26396   0.26795   0.27626
 Alpha virt. eigenvalues --    0.27754   0.28240   0.28284   0.29129   0.29280
 Alpha virt. eigenvalues --    0.29620   0.30192   0.30750   0.31031   0.31621
 Alpha virt. eigenvalues --    0.32056   0.32923   0.33103   0.33701   0.33986
 Alpha virt. eigenvalues --    0.34496   0.35341   0.35599   0.35942   0.36255
 Alpha virt. eigenvalues --    0.36548   0.37162   0.37561   0.37857   0.38674
 Alpha virt. eigenvalues --    0.39060   0.39648   0.39805   0.40430   0.40612
 Alpha virt. eigenvalues --    0.41450   0.41964   0.43435   0.43781   0.44411
 Alpha virt. eigenvalues --    0.46131   0.46836   0.49012   0.49767   0.50624
 Alpha virt. eigenvalues --    0.51817   0.52545   0.53315   0.54541   0.55258
 Alpha virt. eigenvalues --    0.56004   0.57050   0.57365   0.58661   0.59541
 Alpha virt. eigenvalues --    0.60096   0.60966   0.61007   0.61533   0.61945
 Alpha virt. eigenvalues --    0.62312   0.62461   0.63130   0.63278   0.64122
 Alpha virt. eigenvalues --    0.64610   0.65353   0.66508   0.66593   0.67424
 Alpha virt. eigenvalues --    0.67635   0.68286   0.68889   0.70114   0.70723
 Alpha virt. eigenvalues --    0.71257   0.71715   0.72205   0.72547   0.72997
 Alpha virt. eigenvalues --    0.73448   0.74032   0.74587   0.75006   0.75558
 Alpha virt. eigenvalues --    0.76401   0.76550   0.77618   0.78163   0.79045
 Alpha virt. eigenvalues --    0.80150   0.82573   0.83021   0.84874   0.85415
 Alpha virt. eigenvalues --    0.86652   0.87347   0.87834   0.88354   0.88671
 Alpha virt. eigenvalues --    0.90273   0.90786   0.92365   0.94006   0.95341
 Alpha virt. eigenvalues --    0.97397   0.99303   1.00519   1.00863   1.01947
 Alpha virt. eigenvalues --    1.02388   1.03191   1.05883   1.06448   1.07031
 Alpha virt. eigenvalues --    1.07927   1.08609   1.10722   1.11055   1.12371
 Alpha virt. eigenvalues --    1.13631   1.13773   1.14335   1.15205   1.15939
 Alpha virt. eigenvalues --    1.17622   1.17979   1.18779   1.19153   1.20358
 Alpha virt. eigenvalues --    1.21195   1.22200   1.22946   1.23493   1.24450
 Alpha virt. eigenvalues --    1.24981   1.25081   1.26228   1.27344   1.27636
 Alpha virt. eigenvalues --    1.28413   1.29446   1.29890   1.30591   1.31715
 Alpha virt. eigenvalues --    1.32224   1.33243   1.33410   1.34787   1.34907
 Alpha virt. eigenvalues --    1.35091   1.35951   1.36453   1.37380   1.38059
 Alpha virt. eigenvalues --    1.39072   1.39621   1.40513   1.41693   1.42151
 Alpha virt. eigenvalues --    1.42824   1.43271   1.43489   1.44434   1.44645
 Alpha virt. eigenvalues --    1.45721   1.46343   1.46742   1.47726   1.48080
 Alpha virt. eigenvalues --    1.48723   1.49635   1.50491   1.51470   1.52094
 Alpha virt. eigenvalues --    1.53021   1.53328   1.54356   1.55115   1.55176
 Alpha virt. eigenvalues --    1.56427   1.56604   1.57118   1.58106   1.58589
 Alpha virt. eigenvalues --    1.59676   1.60265   1.61160   1.61644   1.61965
 Alpha virt. eigenvalues --    1.63669   1.64545   1.65493   1.66617   1.67682
 Alpha virt. eigenvalues --    1.68104   1.68841   1.69375   1.70353   1.72930
 Alpha virt. eigenvalues --    1.73424   1.74436   1.75050   1.76537   1.77216
 Alpha virt. eigenvalues --    1.77563   1.79215   1.81548   1.82455   1.83295
 Alpha virt. eigenvalues --    1.86525   1.87220   1.91100   1.93182   1.96983
 Alpha virt. eigenvalues --    2.04546   2.07904   2.13206   2.19752   2.21592
 Alpha virt. eigenvalues --    2.24031   2.27723   2.30341   2.33727   2.40320
 Alpha virt. eigenvalues --    2.41161   2.43236   2.45826   2.46854   2.53580
 Alpha virt. eigenvalues --    2.62819   2.75600   2.76849   2.77743   2.83276
 Alpha virt. eigenvalues --    2.84910   2.90392   2.92757   2.93286   2.93637
 Alpha virt. eigenvalues --    2.95004   2.97100   3.00904   3.02968   3.04045
 Alpha virt. eigenvalues --    3.06732   3.07733   3.08394   3.09590   3.11283
 Alpha virt. eigenvalues --    3.13735   3.14420   3.19461   3.21250   3.23319
 Alpha virt. eigenvalues --    3.24971   3.27034   3.31506   3.33679   3.34333
 Alpha virt. eigenvalues --    3.35880   3.35984   3.38271   3.40114   3.41704
 Alpha virt. eigenvalues --    3.42423   3.43367   3.45364   3.46090   3.46602
 Alpha virt. eigenvalues --    3.48412   3.48972   3.50252   3.51285   3.52464
 Alpha virt. eigenvalues --    3.53143   3.53922   3.54895   3.55834   3.56440
 Alpha virt. eigenvalues --    3.56621   3.57659   3.58398   3.59179   3.59408
 Alpha virt. eigenvalues --    3.60421   3.61826   3.62385   3.63180   3.65158
 Alpha virt. eigenvalues --    3.65708   3.67228   3.68112   3.69151   3.69537
 Alpha virt. eigenvalues --    3.70431   3.71437   3.72231   3.73156   3.74047
 Alpha virt. eigenvalues --    3.75256   3.75914   3.76377   3.76598   3.77681
 Alpha virt. eigenvalues --    3.78413   3.78982   3.80393   3.82487   3.84056
 Alpha virt. eigenvalues --    3.85242   3.87028   3.88616   3.90501   3.91815
 Alpha virt. eigenvalues --    3.93199   3.93513   3.95722   3.95927   3.98262
 Alpha virt. eigenvalues --    3.99541   4.00714   4.02457   4.03250   4.04063
 Alpha virt. eigenvalues --    4.05159   4.06199   4.06864   4.07527   4.07748
 Alpha virt. eigenvalues --    4.08389   4.08902   4.09482   4.10148   4.11704
 Alpha virt. eigenvalues --    4.12023   4.13968   4.14690   4.15342   4.16113
 Alpha virt. eigenvalues --    4.16593   4.17919   4.19108   4.19576   4.20622
 Alpha virt. eigenvalues --    4.22495   4.24053   4.25038   4.26541   4.26936
 Alpha virt. eigenvalues --    4.28380   4.29862   4.30893   4.32399   4.33078
 Alpha virt. eigenvalues --    4.33203   4.35266   4.36559   4.38345   4.39916
 Alpha virt. eigenvalues --    4.40554   4.43415   4.46061   4.46854   4.51876
 Alpha virt. eigenvalues --    4.59240   4.62137   4.75282   4.75991   4.83620
 Alpha virt. eigenvalues --    4.85176   4.92148   4.95377   4.99181   5.02237
 Alpha virt. eigenvalues --    5.06644   5.06855   5.07598   5.08449   5.11598
 Alpha virt. eigenvalues --    5.12312   5.14133   5.15358   5.30346   5.38760
 Alpha virt. eigenvalues --    5.39687   5.57615   5.60231   5.65562   5.86925
 Alpha virt. eigenvalues --    5.87653   6.04099   7.03025   7.04801   7.06048
 Alpha virt. eigenvalues --    7.09669   7.10903   7.12710   7.16611   7.18737
 Alpha virt. eigenvalues --    7.27564   7.36436   7.40463   7.45182   7.54413
 Alpha virt. eigenvalues --    7.54782   7.65740  23.95956  23.97525  24.05908
 Alpha virt. eigenvalues --   24.07048  24.11081  24.11687  24.14675  24.15377
 Alpha virt. eigenvalues --   24.18125  24.21542  50.16427  50.18185  50.27051
          Condensed to atoms (all electrons):
               1          2          3          4          5          6
     1  C    5.669015   0.387685  -0.068512  -0.026067  -0.000188  -0.001812
     2  C    0.387685   7.965314  -1.069739  -0.267231  -0.010728  -0.021325
     3  C   -0.068512  -1.069739   7.216071   0.113153   0.019520   0.194646
     4  C   -0.026067  -0.267231   0.113153   5.676682   0.000478   0.004947
     5  O   -0.000188  -0.010728   0.019520   0.000478   8.351479   0.110968
     6  C   -0.001812  -0.021325   0.194646   0.004947   0.110968   5.392950
     7  C   -0.073029  -0.487442   0.143425   0.002288   0.001030  -0.000761
     8  C    0.024706   0.457068  -1.046854  -0.056436  -0.044838  -0.106483
     9  C    0.018967   0.185856  -0.474153  -0.014146   0.158994  -0.243294
    10  C   -0.004302  -0.202547   0.148522   0.004058  -0.013286   0.089888
    11  O   -0.067665   0.298022   0.049343   0.009115   0.000448  -0.000434
    12  O   -0.014592   0.252485   0.150726  -0.025686  -0.001664   0.006504
    13  C   -0.188690  -1.639886   0.187852   0.023273   0.001081  -0.003257
    14  H    0.489405  -0.014588  -0.001870  -0.019412  -0.000014   0.000030
    15  H    0.441706   0.013984   0.001477  -0.046943   0.000009  -0.000028
    16  H   -0.002476  -0.080337   0.580785   0.000874  -0.013113   0.009098
    17  H   -0.020118   0.002493   0.008702   0.428674   0.000018   0.000136
    18  H   -0.071080  -0.021445   0.001535   0.521102   0.000035  -0.000086
    19  H   -0.000040  -0.005328   0.011625   0.000227  -0.070187   0.430232
    20  H   -0.000104  -0.000911   0.018160  -0.000364  -0.042699   0.454745
    21  H   -0.076307  -0.018038  -0.009260   0.006190   0.000707   0.001386
    22  H   -0.025158   0.001894  -0.001051   0.009886   0.000042  -0.000306
    23  H   -0.000388  -0.013198   0.013389   0.003921   0.000656  -0.001981
    24  H    0.000002   0.017058  -0.064225  -0.001625  -0.002215   0.001500
    25  H   -0.000413  -0.000026  -0.031873   0.000144  -0.000883  -0.079322
    26  H    0.000450   0.000588  -0.015828  -0.000368   0.007208  -0.037001
    27  H   -0.016094  -0.145771   0.010052  -0.000438  -0.000007  -0.000344
    28  H   -0.005774  -0.006017  -0.013783  -0.045435   0.000186  -0.000835
    29  H    0.030607   0.520365  -0.065092  -0.024512  -0.000762   0.002446
    30  H   -0.003184  -0.039283   0.057755   0.004427  -0.036864   0.003491
    31  H    0.003463   0.018646  -0.088108  -0.001356  -0.072169   0.000020
               7          8          9         10         11         12
     1  C   -0.073029   0.024706   0.018967  -0.004302  -0.067665  -0.014592
     2  C   -0.487442   0.457068   0.185856  -0.202547   0.298022   0.252485
     3  C    0.143425  -1.046854  -0.474153   0.148522   0.049343   0.150726
     4  C    0.002288  -0.056436  -0.014146   0.004058   0.009115  -0.025686
     5  O    0.001030  -0.044838   0.158994  -0.013286   0.000448  -0.001664
     6  C   -0.000761  -0.106483  -0.243294   0.089888  -0.000434   0.006504
     7  C    5.568616  -0.011335  -0.043249   0.001931   0.104753   0.003668
     8  C   -0.011335   6.972269   0.120145  -0.551025  -0.086229  -0.039183
     9  C   -0.043249   0.120145   6.042203   0.090992   0.002748  -0.175116
    10  C    0.001931  -0.551025   0.090992   6.242799  -0.013413  -0.016454
    11  O    0.104753  -0.086229   0.002748  -0.013413   8.211933  -0.044605
    12  O    0.003668  -0.039183  -0.175116  -0.016454  -0.044605   8.340083
    13  C    0.138469  -0.309187  -0.010222  -0.090786  -0.019686  -0.066674
    14  H   -0.085951  -0.002799   0.001045  -0.000237  -0.002915  -0.000528
    15  H   -0.036664   0.003441  -0.002033   0.000273   0.010183   0.001115
    16  H    0.012980  -0.034269  -0.126236   0.004695  -0.000626  -0.046974
    17  H    0.002104  -0.003621  -0.001031  -0.000408  -0.004800   0.000376
    18  H    0.007616  -0.001453   0.001226   0.000516   0.001466  -0.002422
    19  H   -0.000029  -0.008616   0.012481  -0.034052   0.000044   0.000486
    20  H    0.000316  -0.007584  -0.026470  -0.039385   0.000051  -0.000069
    21  H    0.468554  -0.014197   0.007771  -0.000323  -0.037008   0.006831
    22  H    0.433228   0.007024   0.000893  -0.000035  -0.068807   0.001351
    23  H    0.003416   0.444370  -0.041389  -0.073935   0.002691   0.011157
    24  H   -0.000696   0.424281   0.013302   0.009460   0.004125  -0.010077
    25  H    0.001293   0.015734   0.009990   0.449946  -0.000068   0.001680
    26  H   -0.000982  -0.033331   0.003179   0.446725  -0.000555  -0.001607
    27  H    0.017536  -0.006515   0.002581   0.000310  -0.005915   0.009453
    28  H    0.007120   0.014272  -0.001553  -0.000237   0.008841  -0.005788
    29  H   -0.059789   0.070602   0.015030   0.000725  -0.076860  -0.025322
    30  H    0.002420  -0.052470   0.366112   0.027361   0.000526   0.007351
    31  H    0.000824   0.052276   0.438300  -0.007751   0.000093  -0.001262
              13         14         15         16         17         18
     1  C   -0.188690   0.489405   0.441706  -0.002476  -0.020118  -0.071080
     2  C   -1.639886  -0.014588   0.013984  -0.080337   0.002493  -0.021445
     3  C    0.187852  -0.001870   0.001477   0.580785   0.008702   0.001535
     4  C    0.023273  -0.019412  -0.046943   0.000874   0.428674   0.521102
     5  O    0.001081  -0.000014   0.000009  -0.013113   0.000018   0.000035
     6  C   -0.003257   0.000030  -0.000028   0.009098   0.000136  -0.000086
     7  C    0.138469  -0.085951  -0.036664   0.012980   0.002104   0.007616
     8  C   -0.309187  -0.002799   0.003441  -0.034269  -0.003621  -0.001453
     9  C   -0.010222   0.001045  -0.002033  -0.126236  -0.001031   0.001226
    10  C   -0.090786  -0.000237   0.000273   0.004695  -0.000408   0.000516
    11  O   -0.019686  -0.002915   0.010183  -0.000626  -0.004800   0.001466
    12  O   -0.066674  -0.000528   0.001115  -0.046974   0.000376  -0.002422
    13  C    7.711007   0.007169  -0.015287   0.003758  -0.041620  -0.050776
    14  H    0.007169   0.483036  -0.011810  -0.000023  -0.000061   0.000196
    15  H   -0.015287  -0.011810   0.488503   0.000646  -0.009057  -0.003357
    16  H    0.003758  -0.000023   0.000646   0.471250   0.000293   0.000442
    17  H   -0.041620  -0.000061  -0.009057   0.000293   0.470058  -0.004766
    18  H   -0.050776   0.000196  -0.003357   0.000442  -0.004766   0.456735
    19  H   -0.000563  -0.000000   0.000002   0.000081   0.000005   0.000001
    20  H   -0.000901  -0.000006   0.000000  -0.001191  -0.000017   0.000018
    21  H    0.036179   0.003757  -0.000242  -0.010440  -0.000555  -0.002770
    22  H   -0.009761  -0.005124  -0.009712   0.000945   0.000765  -0.001640
    23  H    0.033465  -0.000073  -0.000011   0.004790   0.000087  -0.000077
    24  H   -0.008379   0.000201  -0.000059  -0.005377  -0.000168   0.000122
    25  H    0.002542  -0.000023  -0.000007  -0.007730   0.000017  -0.000015
    26  H   -0.001285   0.000000   0.000007  -0.002430  -0.000004  -0.000027
    27  H    0.520050  -0.002781  -0.002100   0.000107  -0.003635   0.002254
    28  H    0.416523  -0.001362   0.001210   0.000158  -0.011495  -0.001552
    29  H   -0.131307   0.001019   0.000927  -0.002992   0.003136  -0.003386
    30  H   -0.003753  -0.000110  -0.000006  -0.000987   0.000280   0.000387
    31  H   -0.005288  -0.000001   0.000238  -0.005336  -0.000351  -0.001361
              19         20         21         22         23         24
     1  C   -0.000040  -0.000104  -0.076307  -0.025158  -0.000388   0.000002
     2  C   -0.005328  -0.000911  -0.018038   0.001894  -0.013198   0.017058
     3  C    0.011625   0.018160  -0.009260  -0.001051   0.013389  -0.064225
     4  C    0.000227  -0.000364   0.006190   0.009886   0.003921  -0.001625
     5  O   -0.070187  -0.042699   0.000707   0.000042   0.000656  -0.002215
     6  C    0.430232   0.454745   0.001386  -0.000306  -0.001981   0.001500
     7  C   -0.000029   0.000316   0.468554   0.433228   0.003416  -0.000696
     8  C   -0.008616  -0.007584  -0.014197   0.007024   0.444370   0.424281
     9  C    0.012481  -0.026470   0.007771   0.000893  -0.041389   0.013302
    10  C   -0.034052  -0.039385  -0.000323  -0.000035  -0.073935   0.009460
    11  O    0.000044   0.000051  -0.037008  -0.068807   0.002691   0.004125
    12  O    0.000486  -0.000069   0.006831   0.001351   0.011157  -0.010077
    13  C   -0.000563  -0.000901   0.036179  -0.009761   0.033465  -0.008379
    14  H   -0.000000  -0.000006   0.003757  -0.005124  -0.000073   0.000201
    15  H    0.000002   0.000000  -0.000242  -0.009712  -0.000011  -0.000059
    16  H    0.000081  -0.001191  -0.010440   0.000945   0.004790  -0.005377
    17  H    0.000005  -0.000017  -0.000555   0.000765   0.000087  -0.000168
    18  H    0.000001   0.000018  -0.002770  -0.001640  -0.000077   0.000122
    19  H    0.476046  -0.009803  -0.000067  -0.000025   0.000668   0.000497
    20  H   -0.009803   0.503177   0.000155   0.000026  -0.010897   0.000088
    21  H   -0.000067   0.000155   0.505975  -0.012696  -0.000734   0.000699
    22  H   -0.000025   0.000026  -0.012696   0.477668  -0.000279  -0.000278
    23  H    0.000668  -0.010897  -0.000734  -0.000279   0.444506  -0.018957
    24  H    0.000497   0.000088   0.000699  -0.000278  -0.018957   0.460165
    25  H   -0.004617   0.003545   0.000456   0.000001   0.000186  -0.003942
    26  H   -0.009633   0.004676  -0.000062   0.000045  -0.007526  -0.008302
    27  H    0.000014  -0.000045  -0.001603   0.000716   0.001252  -0.000673
    28  H   -0.000052   0.000047  -0.000834   0.000983  -0.000706   0.000328
    29  H   -0.000435   0.001983   0.003986  -0.000412  -0.010104  -0.007371
    30  H   -0.001985   0.009829   0.000947   0.000048  -0.003615  -0.001327
    31  H    0.001609  -0.002534  -0.001716   0.000121  -0.001706   0.000261
              25         26         27         28         29         30
     1  C   -0.000413   0.000450  -0.016094  -0.005774   0.030607  -0.003184
     2  C   -0.000026   0.000588  -0.145771  -0.006017   0.520365  -0.039283
     3  C   -0.031873  -0.015828   0.010052  -0.013783  -0.065092   0.057755
     4  C    0.000144  -0.000368  -0.000438  -0.045435  -0.024512   0.004427
     5  O   -0.000883   0.007208  -0.000007   0.000186  -0.000762  -0.036864
     6  C   -0.079322  -0.037001  -0.000344  -0.000835   0.002446   0.003491
     7  C    0.001293  -0.000982   0.017536   0.007120  -0.059789   0.002420
     8  C    0.015734  -0.033331  -0.006515   0.014272   0.070602  -0.052470
     9  C    0.009990   0.003179   0.002581  -0.001553   0.015030   0.366112
    10  C    0.449946   0.446725   0.000310  -0.000237   0.000725   0.027361
    11  O   -0.000068  -0.000555  -0.005915   0.008841  -0.076860   0.000526
    12  O    0.001680  -0.001607   0.009453  -0.005788  -0.025322   0.007351
    13  C    0.002542  -0.001285   0.520050   0.416523  -0.131307  -0.003753
    14  H   -0.000023   0.000000  -0.002781  -0.001362   0.001019  -0.000110
    15  H   -0.000007   0.000007  -0.002100   0.001210   0.000927  -0.000006
    16  H   -0.007730  -0.002430   0.000107   0.000158  -0.002992  -0.000987
    17  H    0.000017  -0.000004  -0.003635  -0.011495   0.003136   0.000280
    18  H   -0.000015  -0.000027   0.002254  -0.001552  -0.003386   0.000387
    19  H   -0.004617  -0.009633   0.000014  -0.000052  -0.000435  -0.001985
    20  H    0.003545   0.004676  -0.000045   0.000047   0.001983   0.009829
    21  H    0.000456  -0.000062  -0.001603  -0.000834   0.003986   0.000947
    22  H    0.000001   0.000045   0.000716   0.000983  -0.000412   0.000048
    23  H    0.000186  -0.007526   0.001252  -0.000706  -0.010104  -0.003615
    24  H   -0.003942  -0.008302  -0.000673   0.000328  -0.007371  -0.001327
    25  H    0.479809  -0.010168  -0.000001   0.000055   0.000186   0.002120
    26  H   -0.010168   0.490286  -0.000055   0.000033   0.002331  -0.002445
    27  H   -0.000001  -0.000055   0.450383  -0.003138  -0.017839   0.000046
    28  H    0.000055   0.000033  -0.003138   0.474601  -0.011994  -0.002278
    29  H    0.000186   0.002331  -0.017839  -0.011994   0.504494   0.001717
    30  H    0.002120  -0.002445   0.000046  -0.002278   0.001717   0.497787
    31  H   -0.001255   0.002141  -0.000017   0.001284  -0.002038  -0.025988
              31
     1  C    0.003463
     2  C    0.018646
     3  C   -0.088108
     4  C   -0.001356
     5  O   -0.072169
     6  C    0.000020
     7  C    0.000824
     8  C    0.052276
     9  C    0.438300
    10  C   -0.007751
    11  O    0.000093
    12  O   -0.001262
    13  C   -0.005288
    14  H   -0.000001
    15  H    0.000238
    16  H   -0.005336
    17  H   -0.000351
    18  H   -0.001361
    19  H    0.001609
    20  H   -0.002534
    21  H   -0.001716
    22  H    0.000121
    23  H   -0.001706
    24  H    0.000261
    25  H   -0.001255
    26  H    0.002141
    27  H   -0.000017
    28  H    0.001284
    29  H   -0.002038
    30  H   -0.025988
    31  H    0.493679
 Mulliken charges:
               1
     1  C   -0.400015
     2  C   -0.077617
     3  C    0.023611
     4  C   -0.279420
     5  O   -0.343244
     6  C   -0.205719
     7  C   -0.121663
     8  C   -0.189765
     9  C   -0.332922
    10  C   -0.470023
    11  O   -0.274798
    12  O   -0.315246
    13  C   -0.484057
    14  H    0.163828
    15  H    0.173594
    16  H    0.249633
    17  H    0.184561
    18  H    0.172560
    19  H    0.211412
    20  H    0.146164
    21  H    0.143259
    22  H    0.199645
    23  H    0.221022
    24  H    0.201581
    25  H    0.172639
    26  H    0.173938
    27  H    0.192218
    28  H    0.187192
    29  H    0.280657
    30  H    0.191692
    31  H    0.205282
 Sum of Mulliken charges =  -0.00000
 Mulliken charges with hydrogens summed into heavy atoms:
               1
     1  C   -0.062592
     2  C    0.203041
     3  C    0.273243
     4  C    0.077700
     5  O   -0.343244
     6  C    0.151857
     7  C    0.221241
     8  C    0.232839
     9  C    0.064053
    10  C   -0.123446
    11  O   -0.274798
    12  O   -0.315246
    13  C   -0.104648
 Electronic spatial extent (au):  <R**2>=           3106.0470
 Charge=             -0.0000 electrons
 Dipole moment (field-independent basis, Debye):
    X=             -0.8282    Y=              0.6799    Z=              1.4688  Tot=              1.8182
 Quadrupole moment (field-independent basis, Debye-Ang):
   XX=            -75.3678   YY=            -83.2246   ZZ=            -78.1149
   XY=              6.7269   XZ=              6.7428   YZ=             -2.6730
 Traceless Quadrupole moment (field-independent basis, Debye-Ang):
   XX=              3.5346   YY=             -4.3221   ZZ=              0.7875
   XY=              6.7269   XZ=              6.7428   YZ=             -2.6730
 Octapole moment (field-independent basis, Debye-Ang**2):
  XXX=            -12.0014  YYY=             -3.1161  ZZZ=              1.1585  XYY=              1.9244
  XXY=             18.7899  XXZ=             14.8750  XZZ=             -7.4033  YZZ=              2.1017
  YYZ=             -2.0038  XYZ=             -0.7149
 Hexadecapole moment (field-independent basis, Debye-Ang**3):
 XXXX=          -3144.7833 YYYY=           -545.2607 ZZZZ=           -348.5463 XXXY=             67.2136
 XXXZ=             62.7502 YYYX=             -7.1147 YYYZ=             -3.2029 ZZZX=              4.1361
 ZZZY=              1.5051 XXYY=           -648.3477 XXZZ=           -603.4340 YYZZ=           -144.5532
 XXYZ=            -29.1332 YYXZ=             10.0931 ZZXY=             -1.3685
 N-N= 8.928956700831D+02 E-N=-3.227594516334D+03  KE= 6.153407653661D+02
 D1PCM: PCM CHGder 1st derivatives, ID1Alg=3 FixD1E=F DoIter=F DoCFld=F I1PDM=0.
 Calling FoFJK, ICntrl=      2127 FMM=F ISym2X=0 I1Cent= 0 IOpClX= 0 NMat=1 NMatS=1 NMatT=0.
 ***** Axes restored to original set *****
 -------------------------------------------------------------------
 Center     Atomic                   Forces (Hartrees/Bohr)
 Number     Number              X              Y              Z
 -------------------------------------------------------------------
      1        6           0.002335342   -0.001433884   -0.000633521
      2        6          -0.004302915   -0.000856947   -0.008754487
      3        6          -0.003284386    0.005050754    0.003395211
      4        6           0.001402286    0.003615860    0.000762062
      5        8           0.003632210   -0.003071092   -0.007662987
      6        6          -0.006494047    0.001883087   -0.001287199
      7        6          -0.001930876   -0.004790642    0.004402551
      8        6           0.003210843   -0.004223941   -0.002708518
      9        6           0.002828784    0.006779758   -0.000180809
     10        6          -0.000653761   -0.002011880    0.002330237
     11        8           0.002583603    0.010783456    0.003943164
     12        8          -0.000934379   -0.013946531    0.002113577
     13        6           0.000244839   -0.000910699   -0.002672521
     14        1          -0.001374680    0.001901583    0.002371021
     15        1          -0.001650769   -0.000767665   -0.002184276
     16        1           0.001273150    0.002865915   -0.005763607
     17        1          -0.002102683   -0.001223245    0.000898503
     18        1           0.002613100   -0.001371631   -0.002126287
     19        1           0.003952393    0.000876346   -0.001711082
     20        1           0.000135110   -0.001535478    0.005990250
     21        1           0.003005279   -0.003888193   -0.004080162
     22        1          -0.001263029    0.003977899   -0.001422579
     23        1           0.000037879   -0.002439071    0.003759239
     24        1          -0.003525863    0.002785032   -0.000318669
     25        1          -0.000199681    0.000842675   -0.003135952
     26        1           0.001120364    0.002173969    0.001879478
     27        1          -0.001742411    0.002132630    0.001987947
     28        1           0.001352482   -0.002685380    0.000993249
     29        1           0.003501705    0.004013303    0.006604788
     30        1          -0.001430796   -0.001658258    0.006270912
     31        1          -0.002339091   -0.002867730   -0.003059530
 -------------------------------------------------------------------
 Cartesian Forces:  Max     0.013946531 RMS     0.003605622

 GradGradGradGradGradGradGradGradGradGradGradGradGradGradGradGradGradGrad
 Berny optimization.
 FormGI is forming the generalized inverse of G from B-inverse, IUseBI=4.
 Internal  Forces:  Max     0.015979122 RMS     0.002237760
 Search for a local minimum.
 Step number   1 out of a maximum of  186
 All quantities printed in internal units (Hartrees-Bohrs-Radians)
 Mixed Optimization -- RFO/linear search
 Second derivative matrix not updated -- first step.
 ITU=  0
     Eigenvalues ---    0.00623   0.00636   0.00724   0.00744   0.01411
     Eigenvalues ---    0.01447   0.01746   0.02667   0.02699   0.03075
     Eigenvalues ---    0.03181   0.03991   0.04084   0.04516   0.04749
     Eigenvalues ---    0.04865   0.04889   0.05142   0.05145   0.05195
     Eigenvalues ---    0.05272   0.05684   0.05773   0.06162   0.06173
     Eigenvalues ---    0.06418   0.06592   0.07049   0.07616   0.07645
     Eigenvalues ---    0.07860   0.07968   0.08054   0.08077   0.08250
     Eigenvalues ---    0.08834   0.09225   0.09338   0.10879   0.11602
     Eigenvalues ---    0.11617   0.11704   0.11765   0.12399   0.12483
     Eigenvalues ---    0.14612   0.14714   0.16326   0.16478   0.17719
     Eigenvalues ---    0.19125   0.21404   0.21946   0.25000   0.28440
     Eigenvalues ---    0.28607   0.28647   0.28871   0.28940   0.29028
     Eigenvalues ---    0.30246   0.30320   0.35079   0.35085   0.35089
     Eigenvalues ---    0.35139   0.35166   0.35205   0.35206   0.35238
     Eigenvalues ---    0.35257   0.35315   0.35319   0.35409   0.35440
     Eigenvalues ---    0.35623   0.35837   0.35841   0.35847   0.36326
     Eigenvalues ---    0.40843   0.41477   0.42309   0.42522   0.43232
     Eigenvalues ---    0.463021000.000001000.000001000.000001000.00000
     Eigenvalues --- 1000.000001000.000001000.000001000.000001000.00000
     Eigenvalues --- 1000.000001000.000001000.000001000.000001000.00000
     Eigenvalues --- 1000.000001000.000001000.000001000.000001000.00000
     Eigenvalues --- 1000.000001000.000001000.000001000.000001000.00000
     Eigenvalues --- 1000.000001000.000001000.000001000.000001000.00000
     Eigenvalues --- 1000.000001000.000001000.000001000.000001000.00000
     Eigenvalues --- 1000.000001000.000001000.000001000.000001000.00000
     Eigenvalues --- 1000.000001000.000001000.000001000.000001000.00000
     Eigenvalues --- 1000.000001000.000001000.000001000.000001000.00000
     Eigenvalues --- 1000.000001000.000001000.000001000.000001000.00000
     Eigenvalues --- 1000.000001000.000001000.000001000.000001000.00000
     Eigenvalues --- 1000.000001000.000001000.000001000.000001000.00000
     Eigenvalues --- 1000.000001000.000001000.000001000.000001000.00000
     Eigenvalues --- 1000.000001000.000001000.000001000.000001000.00000
     Eigenvalues --- 1000.000001000.000001000.000001000.000001000.00000
     Eigenvalues --- 1000.000001000.000001000.000001000.000001000.00000
     Eigenvalues --- 1000.000001000.000001000.000001000.000001000.00000
     Eigenvalues --- 1000.000001000.000001000.000001000.000001000.00000
     Eigenvalues --- 1000.000001000.000001000.000001000.000001000.00000
 RFO step:  Lambda=-3.86938835D-03 EMin= 6.22711704D-03
 Linear search not attempted -- first point.
 Iteration  1 RMS(Cart)=  0.06687975 RMS(Int)=  0.00087388
 Iteration  2 RMS(Cart)=  0.00280150 RMS(Int)=  0.00004535
 Iteration  3 RMS(Cart)=  0.00000235 RMS(Int)=  0.00004533
 Iteration  4 RMS(Cart)=  0.00000000 RMS(Int)=  0.00004533
 Iteration  1 RMS(Cart)=  0.00000122 RMS(Int)=  0.00000028
 Iteration  2 RMS(Cart)=  0.00000067 RMS(Int)=  0.00000032
 Variable       Old X    -DE/DX   Delta X   Delta X   Delta X     New X
                                 (Linear)    (Quad)   (Total)
    R1        2.88887  -0.00079   0.00000  -0.00222  -0.00223   2.88663
    R2        2.87150   0.00007   0.00000   0.00038   0.00040   2.87190
    R3        2.05530   0.00326   0.00000   0.00919   0.00919   2.06449
    R4        2.05290   0.00282   0.00000   0.00792   0.00792   2.06082
    R5        2.65568   0.00375   0.00000   0.00802   0.00804   2.66372
    R6        2.63792   0.00286   0.00000   0.00612   0.00612   2.64403
    R7        2.87518  -0.00051   0.00000  -0.00187  -0.00188   2.87330
    R8        2.03574   0.00841   0.00000   0.02290   0.02290   2.05864
    R9        2.88425  -0.00270   0.00000  -0.00949  -0.00952   2.87473
   R10        2.87856  -0.00012   0.00000  -0.00134  -0.00135   2.87721
   R11        2.68532   0.00085   0.00000   0.00199   0.00199   2.68731
   R12        2.05260   0.00635   0.00000   0.01782   0.01782   2.07042
   R13        2.88994  -0.00144   0.00000  -0.00458  -0.00459   2.88534
   R14        2.05166   0.00259   0.00000   0.00726   0.00726   2.05892
   R15        2.05342   0.00344   0.00000   0.00966   0.00966   2.06309
   R16        2.67629   0.00342   0.00000   0.00823   0.00826   2.68455
   R17        2.66391   0.00291   0.00000   0.00686   0.00688   2.67079
   R18        2.87163   0.00016   0.00000   0.00152   0.00153   2.87316
   R19        2.04337   0.00439   0.00000   0.01213   0.01213   2.05550
   R20        2.05547   0.00606   0.00000   0.01708   0.01708   2.07255
   R21        2.68647   0.00309   0.00000   0.00707   0.00708   2.69354
   R22        2.05017   0.00628   0.00000   0.01754   0.01754   2.06771
   R23        2.04331   0.00441   0.00000   0.01216   0.01216   2.05547
   R24        2.89646  -0.00072   0.00000  -0.00285  -0.00286   2.89359
   R25        2.05449   0.00436   0.00000   0.01229   0.01229   2.06678
   R26        2.04675   0.00426   0.00000   0.01183   0.01183   2.05858
   R27        2.05537   0.00632   0.00000   0.01781   0.01781   2.07318
   R28        2.04322   0.00474   0.00000   0.01307   0.01307   2.05629
   R29        2.05405   0.00318   0.00000   0.00894   0.00894   2.06299
   R30        2.05160   0.00306   0.00000   0.00857   0.00857   2.06018
   R31        2.05343   0.00334   0.00000   0.00937   0.00937   2.06280
   R32        2.04966   0.00315   0.00000   0.00878   0.00878   2.05844
    A1        1.92381  -0.00095   0.00000  -0.00542  -0.00560   1.91821
    A2        1.91628   0.00090   0.00000   0.00184   0.00192   1.91820
    A3        1.93875  -0.00052   0.00000  -0.00177  -0.00174   1.93701
    A4        1.90522   0.00002   0.00000  -0.00136  -0.00131   1.90391
    A5        1.90328   0.00058   0.00000   0.00344   0.00348   1.90677
    A6        1.87559   0.00001   0.00000   0.00350   0.00347   1.87906
    A7        1.94104   0.00031   0.00000  -0.00183  -0.00170   1.93935
    A8        1.94279   0.00330   0.00000   0.01298   0.01282   1.95561
    A9        1.83401  -0.00248   0.00000  -0.01424  -0.01425   1.81976
   A10        1.88909  -0.00300   0.00000  -0.01357  -0.01350   1.87559
   A11        1.92860   0.00166   0.00000   0.01135   0.01135   1.93995
   A12        1.92861   0.00036   0.00000   0.00603   0.00610   1.93471
   A13        1.92378  -0.00052   0.00000  -0.00370  -0.00376   1.92002
   A14        2.03433  -0.00283   0.00000  -0.01936  -0.01930   2.01502
   A15        1.88829   0.00137   0.00000  -0.00020  -0.00015   1.88815
   A16        1.84507   0.00165   0.00000   0.01023   0.01015   1.85523
   A17        1.89197  -0.00068   0.00000  -0.00058  -0.00063   1.89134
   A18        1.87580   0.00109   0.00000   0.01500   0.01495   1.89074
   A19        1.91453   0.00188   0.00000  -0.00139  -0.00139   1.91313
   A20        1.92991  -0.00027   0.00000   0.00187   0.00192   1.93183
   A21        1.91409  -0.00081   0.00000  -0.00160  -0.00168   1.91242
   A22        1.91576  -0.00053   0.00000   0.00151   0.00151   1.91726
   A23        1.92234  -0.00097   0.00000  -0.00622  -0.00623   1.91611
   A24        1.86678   0.00064   0.00000   0.00592   0.00593   1.87271
   A25        1.97539  -0.00485   0.00000  -0.02570  -0.02565   1.94974
   A26        1.93578   0.00193   0.00000   0.00952   0.00953   1.94530
   A27        1.85591  -0.00113   0.00000  -0.00327  -0.00326   1.85264
   A28        1.90232   0.00063   0.00000   0.00638   0.00642   1.90874
   A29        1.94470  -0.00033   0.00000  -0.00320  -0.00322   1.94148
   A30        1.93080  -0.00167   0.00000  -0.01032  -0.01035   1.92045
   A31        1.89209   0.00060   0.00000   0.00129   0.00125   1.89334
   A32        1.94474   0.00231   0.00000   0.00595   0.00590   1.95064
   A33        1.93189  -0.00168   0.00000  -0.00790  -0.00793   1.92396
   A34        1.94580  -0.00027   0.00000  -0.00200  -0.00195   1.94386
   A35        1.90878   0.00024   0.00000   0.00240   0.00246   1.91125
   A36        1.84244  -0.00133   0.00000  -0.00224  -0.00225   1.84019
   A37        1.88721   0.00075   0.00000   0.00417   0.00416   1.89137
   A38        1.89487   0.00133   0.00000  -0.00269  -0.00274   1.89213
   A39        1.91816  -0.00090   0.00000  -0.00620  -0.00620   1.91196
   A40        1.94206  -0.00110   0.00000  -0.00824  -0.00820   1.93386
   A41        1.90523  -0.00019   0.00000   0.00175   0.00173   1.90696
   A42        1.92124   0.00040   0.00000   0.01151   0.01151   1.93276
   A43        1.88209   0.00044   0.00000   0.00405   0.00397   1.88605
   A44        1.93577   0.00195   0.00000   0.00566   0.00568   1.94145
   A45        1.91537  -0.00230   0.00000  -0.01577  -0.01582   1.89954
   A46        1.92950  -0.00097   0.00000  -0.00669  -0.00672   1.92278
   A47        1.91813   0.00105   0.00000   0.01225   0.01228   1.93041
   A48        1.86695  -0.00049   0.00000   0.00312   0.00313   1.87008
   A49        1.89725   0.00082   0.00000   0.00205   0.00191   1.89917
   A50        1.93547  -0.00082   0.00000  -0.00739  -0.00742   1.92805
   A51        1.90485  -0.00022   0.00000  -0.00222  -0.00225   1.90260
   A52        1.90766   0.00074   0.00000   0.00544   0.00547   1.91312
   A53        1.91935   0.00060   0.00000  -0.00002  -0.00003   1.91932
   A54        1.92093  -0.00027   0.00000   0.00135   0.00136   1.92229
   A55        1.87447  -0.00001   0.00000   0.00319   0.00319   1.87766
   A56        2.02180  -0.00572   0.00000  -0.03609  -0.03599   1.98581
   A57        2.11727  -0.01598   0.00000  -0.06294  -0.06294   2.05433
   A58        1.95531  -0.00165   0.00000  -0.01437  -0.01449   1.94082
   A59        1.87139   0.00005   0.00000   0.00291   0.00291   1.87430
   A60        1.90085   0.00076   0.00000  -0.00013  -0.00010   1.90075
   A61        1.91038   0.00117   0.00000   0.00685   0.00692   1.91730
   A62        1.94726  -0.00025   0.00000  -0.00110  -0.00118   1.94608
   A63        1.87541   0.00001   0.00000   0.00686   0.00683   1.88224
    D1        0.92020  -0.00010   0.00000   0.00903   0.00902   0.92922
    D2        3.03552   0.00029   0.00000   0.01121   0.01123   3.04675
    D3       -1.19318   0.00042   0.00000   0.01861   0.01863  -1.17455
    D4       -1.17926  -0.00010   0.00000   0.01297   0.01296  -1.16630
    D5        0.93606   0.00030   0.00000   0.01515   0.01517   0.95123
    D6        2.99055   0.00042   0.00000   0.02255   0.02257   3.01312
    D7        3.03182  -0.00036   0.00000   0.00856   0.00852   3.04034
    D8       -1.13605   0.00004   0.00000   0.01073   0.01073  -1.12532
    D9        0.91844   0.00016   0.00000   0.01814   0.01813   0.93656
   D10       -0.95766  -0.00137   0.00000  -0.02049  -0.02054  -0.97820
   D11        1.17051  -0.00065   0.00000  -0.01883  -0.01890   1.15161
[...]
 95433,0.00013788,-0.00000759,0.00011115,0.00026204,-0.00008249,0.00027
 982,0.00000575,-0.00000214,0.00006436,0.00000115,-0.00000195,-0.000002
 53,0.00000889,0.00000246,0.00000285,-0.00000742,0.00029216,0.00062771,
 0.00001332,0.00000331,0.00000965,-0.00000159,-0.00000297,-0.00000029,-
 0.00049084,0.00037988,0.00056827,0.00003850,-0.00071183,0.00112146,0.0
 0000156,0.00000714,0.00000647,0.00001111,-0.00000540,0.00001142,0.0021
 7155,0.00034816,0.00057072,0.00007964,-0.00018893,0.00032939,0.0099713
 8,-0.11182591,0.28323499,0.00000279,-0.00001419,-0.00001863,0.00101734
 ,-0.00073651,-0.00064186,-0.00417005,0.00123287,0.00452135,-0.00000507
 ,-0.00001697,0.00003549,-0.00052659,0.00612397,0.00138783,0.00943193,0
 .00919923,0.01243997,0.00012586,0.00000303,0.00012447,-0.01414905,-0.0
 2107896,-0.02008652,-0.00139445,0.00029037,0.00042240,-0.09444714,-0.0
 7202650,-0.07319949,-0.00031761,0.00026476,-0.00011311,-0.00224518,-0.
 00221688,-0.00071971,-0.00004213,0.00011689,0.00003271,-0.00000781,0.0
 0000412,0.00000612,-0.00001851,-0.00000361,-0.00000947,0.00008315,0.00
 028085,0.00000930,-0.00003395,-0.00000362,-0.00000700,0.00000657,0.000
 02257,0.00001977,0.00021869,-0.00111788,0.00008499,0.00056416,-0.00060
 823,-0.00044167,0.00000342,-0.00000948,0.00001669,-0.00002504,0.000017
 96,-0.00001263,0.00140891,0.00028104,0.00014526,0.00120373,0.00074610,
 -0.00048516,-0.00120851,-0.00036028,-0.00083703,0.10405962,0.00000121,
 -0.00000618,-0.00001017,0.00029955,-0.00023543,-0.00018597,-0.00038139
 ,0.00139170,0.00147242,-0.00000421,-0.00000778,0.00001458,0.00246145,-
 0.00755994,-0.00178390,-0.01478565,-0.01403398,-0.01687939,0.00004984,
 0.00000159,0.00006090,-0.00321729,-0.00464773,-0.00307582,0.00183467,0
 .00104359,-0.00041684,-0.07143235,-0.16048976,-0.10896969,-0.00013760,
 0.00008704,-0.00005212,-0.00051803,-0.00009880,-0.00022667,-0.00001240
 ,0.00003878,0.00000111,-0.00000296,0.00000146,0.00000292,-0.00000789,-
 0.00000205,-0.00000385,0.00001874,-0.00007838,-0.00029996,-0.00001294,
 -0.00000192,-0.00000423,0.00000198,0.00000698,0.00000520,0.00029681,0.
 00080229,-0.00005735,-0.00033390,0.00076572,0.00080561,0.00000277,-0.0
 0000593,0.00000416,-0.00000957,0.00000722,-0.00000659,0.00017424,0.000
 05206,-0.00003766,-0.00001497,0.00041954,0.00034835,0.00649886,0.01007
 594,0.00863150,0.07960403,0.17256344,-0.00000132,0.00000083,-0.0000019
 9,-0.00017077,0.00009915,0.00012992,0.00198817,-0.00005476,-0.00080885
 ,-0.00000304,0.00000029,0.00000405,0.00024559,-0.00134625,0.00134528,-
 0.00074728,0.00096342,-0.00234193,-0.00000197,-0.00000178,0.00000535,0
 .00611228,0.00957674,0.00748743,0.00046726,0.00028225,-0.00031249,-0.0
 7358393,-0.11105997,-0.15615936,-0.00000235,-0.00002541,-0.00000846,0.
 00080749,0.00055237,0.00054655,-0.00000541,-0.00000482,-0.00002302,-0.
 00000044,-0.00000084,0.00000039,-0.00000029,-0.00000039,0.00000025,0.0
 0003680,0.00016015,0.00042548,0.00000191,-0.00000248,-0.00000331,0.000
 00106,-0.00000416,-0.00000545,0.00017247,-0.00003985,0.00004832,0.0003
 2923,-0.00031916,0.00023937,0.00000172,0.00000141,-0.00000115,0.,-0.00
 000093,-0.00000139,-0.00069044,-0.00002445,0.00070159,-0.00076485,-0.0
 0026522,0.00017666,-0.01141735,-0.01889000,-0.01753664,0.07740429,0.12
 050235,0.16613344,0.00087450,-0.00059604,0.00050933,-0.01263209,0.0166
 6556,0.01645232,0.00111549,0.00113129,0.00074311,0.01074935,-0.0105426
 2,-0.01506364,-0.00046229,0.00012469,0.00001290,0.00009624,0.00005085,
 0.00011653,-0.00020116,-0.00007190,-0.00004672,-0.00014212,0.00003319,
 0.00018141,0.00004764,-0.00050150,0.00011723,0.00004317,-0.00007502,-0
 .00015265,0.00152472,0.00013904,-0.00117957,-0.00781027,-0.00359536,0.
 00288638,-0.12430676,0.06905278,0.09655123,-0.00020795,0.00015385,0.00
 034863,-0.00008600,-0.00014567,0.00027147,-0.00044372,-0.00017843,0.00
 023473,0.00101773,0.00006529,0.00091961,-0.00170935,-0.00049560,-0.003
 92603,-0.00002905,-0.00000352,-0.00000581,-0.00000237,-0.00000068,-0.0
 0002542,-0.00006668,0.00003027,-0.00004738,0.00006077,0.00000348,0.000
 01202,0.00001286,-0.00000535,-0.00004788,0.00000342,-0.00002241,-0.000
 03825,0.00000101,0.00000447,0.00000909,-0.00007551,-0.00002476,0.00000
 483,0.13783203,-0.00021686,0.00049667,0.00089397,-0.00949778,0.0082001
 7,0.01358860,-0.00026953,0.00084892,0.00040972,0.00314002,-0.00477812,
 -0.00552564,-0.00022242,0.00006733,0.00000595,0.00004166,0.00003270,0.
 00004278,-0.00025150,0.00002251,0.00001549,0.00004513,0.00003873,0.000
 03084,-0.00004915,-0.00027344,0.00008171,0.00001257,-0.00002492,-0.000
 03687,0.00012234,0.00075325,-0.00069075,-0.00411882,-0.00129954,0.0016
 2590,0.07342430,-0.11602641,-0.08916289,0.00003272,0.00041068,-0.00007
 796,-0.00013497,0.00003858,0.00003188,-0.00008619,-0.00003969,0.000056
 94,0.00005737,0.00007120,0.00013304,-0.00132389,0.00084014,-0.00116015
 ,-0.00000855,-0.00000491,-0.00000304,-0.00000200,-0.00000178,-0.000008
 67,0.00001235,-0.00003732,-0.00005172,0.00004572,0.00002786,-0.0000053
 1,-0.00000717,-0.00000457,-0.00002784,-0.00000041,-0.00002368,-0.00001
 209,0.00000172,0.00000261,0.00000166,-0.00001789,-0.00000759,0.0000012
 0,-0.07555208,0.12236894,0.00115124,-0.00058829,0.00090482,0.00329947,
 -0.00518434,-0.00705178,-0.00029881,-0.00055248,0.00027881,0.01358338,
 -0.01387466,-0.01952722,0.00014834,-0.00004415,-0.00001268,-0.00002902
 ,-0.00001418,-0.00003587,-0.00014856,0.00003994,-0.00030434,0.00006469
 ,0.00000041,-0.00008593,0.00001579,0.00018030,-0.00004822,-0.00001305,
 0.00002612,0.00004432,-0.00054886,0.00016868,0.00063488,0.00178014,0.0
 0112032,0.00054877,0.09716215,-0.08676606,-0.16810622,-0.00032207,0.00
 067233,-0.00009412,-0.00030335,0.00006197,0.00034792,0.00002081,-0.000
 00240,-0.00003566,0.00002149,0.00025945,0.00132046,-0.00342040,-0.0006
 9769,-0.00353527,0.00000867,0.00000065,0.00000158,0.00000009,0.0000000
 5,0.00000772,-0.00006066,-0.00005771,0.00008127,0.00006100,0.00006438,
 -0.00000820,-0.00000797,-0.00000395,0.00000532,-0.00000227,-0.00000077
 ,0.00000850,0.00000362,0.00000022,-0.00000427,0.00002294,0.00000779,-0
 .00000325,-0.10420247,0.09885014,0.18389911,-0.00166999,-0.00210350,-0
 .00364015,0.00992250,-0.01997233,0.01098721,0.00021834,0.00004461,-0.0
 0018049,-0.00606245,0.01661517,-0.00640553,0.00002594,-0.00000520,0.00
 000035,-0.00001291,-0.00001427,-0.00000426,-0.00129337,-0.00046080,-0.
 00115530,0.00001152,-0.00004128,-0.00005136,-0.00000283,0.00003428,0.0
 0000737,0.00000249,0.00002306,0.00000691,-0.00305994,-0.00619848,0.004
 06908,0.00084944,-0.00010444,-0.00029364,-0.07872280,0.07738538,-0.037
 87155,0.00011126,-0.00039434,0.00022936,0.00000872,0.00118384,-0.00091
 293,0.00005254,-0.00001389,-0.00003497,0.00020531,0.00014466,0.0007762
 0,0.00085517,-0.00039373,0.00039819,-0.00000082,0.00000294,0.00000088,
 0.00000022,0.00000030,0.00000103,0.00011785,0.00007529,0.00013026,0.00
 022678,0.00011224,0.00015097,-0.00001545,0.00000488,0.00000622,0.00002
 607,0.00002796,0.00001424,-0.00000059,-0.00000102,0.00000270,0.0000046
 3,0.00000038,-0.00000096,-0.00571373,0.01419351,-0.00782570,0.08331156
 ,-0.00101704,0.00055593,-0.00148794,0.01023968,-0.01546161,0.00637791,
 -0.00028926,0.00028549,-0.00027870,-0.00279238,0.00857506,-0.00400694,
 -0.00002896,0.00001670,0.00000347,-0.00001114,-0.00001328,0.00000826,-
 0.00073764,-0.00013368,-0.00157968,-0.00001092,-0.00004405,-0.00003536
 ,-0.00003436,-0.00004765,0.00002981,0.00000663,0.00004186,0.00000296,-
 0.00364488,-0.00371580,0.00300824,0.00107270,0.00137877,-0.00086230,0.
 07352683,-0.24134926,0.09635701,-0.00008192,0.00011968,-0.00006437,-0.
 00022172,0.00032861,-0.00030548,0.00013977,0.00004583,-0.00005849,0.00
 045952,0.00029956,0.00063179,0.00039875,0.00047472,0.00057205,-0.00000
 522,0.00000583,0.00000112,0.00000031,0.00000016,-0.00000243,0.00006696
 ,0.00007984,0.00020053,0.00012812,0.00000516,0.00015197,-0.00001665,-0
 .00000292,0.00001544,0.00004791,0.00005833,0.00001096,-0.00000516,-0.0
 0000359,0.00000692,0.00000005,-0.00000359,-0.00000074,0.00397468,-0.01
 246014,0.00593436,-0.08092727,0.26060669,-0.00314313,-0.00297076,-0.00
 371782,-0.00291724,0.00662232,-0.00531214,0.00008258,-0.00013337,0.000
 08892,-0.00785415,0.02299022,-0.01134840,-0.00001683,-0.00000566,-0.00
 000185,0.00001153,0.00001186,0.00000583,-0.00031390,-0.00046716,0.0006
 3446,-0.00003458,0.00002000,0.00002997,0.00003315,-0.00000284,-0.00000
 957,-0.00000342,-0.00002918,-0.00002325,0.00125776,0.00154862,0.000489
 35,-0.00030511,-0.00023201,0.00053787,-0.03618187,0.09409772,-0.094150
 50,-0.00014567,0.00020793,0.00010946,-0.00035613,0.00147838,-0.0006714
 4,-0.00007148,-0.00002548,0.00003767,0.00028086,-0.00031297,0.00101959
 ,0.00088203,0.00014361,0.00090499,-0.00000040,-0.00000338,-0.00000105,
 0.,-0.00000044,-0.00000126,0.00007071,-0.00001340,-0.00003379,0.000063
 62,0.00006388,0.00004304,-0.00000120,0.00000300,-0.00000896,-0.0000143
 1,-0.00002738,0.00000041,0.00000485,0.00000135,-0.00000145,-0.00000780
 ,-0.00000157,0.00000128,0.00598265,-0.01867369,0.01017449,0.04232742,-
 0.10426236,0.10116417,0.00042631,-0.00009328,0.00024051,-0.11810413,-0
 .04595936,-0.10909879,0.00314012,0.00080028,0.00034642,-0.00228535,-0.
 00284465,0.00305525,-0.00002057,-0.00005568,-0.00006831,-0.00008618,0.
 00004046,0.00007236,0.00152897,0.00161884,0.00081066,-0.00290769,-0.00
 103728,0.00074592,0.00005417,0.00011157,0.00004208,0.00010267,0.000484
 06,0.00019202,-0.00504856,0.00198410,-0.01245854,0.00621743,0.01415511
 ,0.02540572,-0.01229259,-0.00871601,-0.01959832,-0.00006537,0.00009711
 ,0.00004189,-0.00001789,0.00004295,-0.00003865,-0.00032033,-0.00038324
 ,-0.00003508,-0.00085921,-0.00026853,-0.00117828,0.00004061,-0.0001136
 8,-0.00014670,-0.00001127,0.00000323,-0.00002373,-0.00000858,0.0000029
 0,0.00000141,-0.00014798,-0.00003351,-0.00028575,-0.00021402,-0.000018
 99,-0.00042626,-0.00246670,-0.00076706,0.00035387,-0.00073892,-0.00039
 601,-0.00002882,0.00007165,0.00001107,0.00002729,0.00005918,0.00001355
 ,-0.00001439,0.00052130,0.00063145,-0.00016269,0.00059971,-0.00022846,
 0.00036400,0.13283569,0.00013446,-0.00029074,0.00048648,-0.04922530,-0
 .07479407,-0.07399710,-0.00283146,-0.00140321,0.00133624,-0.00229153,-
 0.00141534,0.00228407,0.00035551,-0.00005314,-0.00001067,-0.00010541,-
 0.00003509,-0.00008331,-0.00030093,-0.00459603,0.00101267,-0.00097896,
 0.00012402,0.00045267,-0.00017963,0.00026889,-0.00013578,0.00002257,0.
 00014397,0.00043860,0.02117106,0.00114841,0.03448929,0.00202453,-0.010
 97471,-0.02482989,-0.01032077,-0.00349806,-0.01480740,0.00002808,0.000
 07370,-0.00007665,0.00017130,0.00024295,-0.00016635,0.00033098,0.00030
 208,-0.00015039,-0.00066893,-0.00016113,-0.00098042,0.00021956,0.00001
 324,0.00007416,0.00001750,0.00001760,0.00000604,0.00000767,0.00000071,
 0.00001767,0.00010838,0.00006051,0.00046778,0.00081579,0.00013678,0.00
 127447,0.00001220,0.00012331,0.00037075,-0.00066832,-0.00031896,0.0004
 2805,-0.00006168,-0.00002380,0.00001489,0.00010122,0.00002630,-0.00003
 100,0.00033798,0.00074584,0.00041316,0.00077835,0.00035476,-0.00002875
 ,0.04098775,0.09378476,-0.00002589,0.00013648,-0.00038890,-0.10078689,
 -0.06464450,-0.21925217,-0.00396842,-0.00198710,0.00061622,0.00160461,
 0.00150419,-0.00024002,0.00036034,0.00004623,0.00000412,-0.00016950,-0
 .00026278,-0.00005621,0.00081934,0.00377773,0.00245190,-0.00061556,0.0
 0028713,-0.00013619,-0.00003183,0.00023803,0.00003765,0.00015056,0.000
 41151,0.00047731,-0.01602121,0.00370030,-0.02110732,0.00305000,-0.0168
 5304,-0.02112799,0.00481421,0.00226286,0.00962955,-0.00002480,-0.00004
 534,0.00002527,-0.00010644,-0.00020887,0.00005405,0.00035668,0.0003291
 0,-0.00001262,0.00047095,0.00013475,0.00045134,0.00003740,0.00010683,0
 .00012015,-0.00002972,0.00008838,0.00002791,0.00001356,0.00001165,0.00
 000433,0.00013034,-0.00016113,-0.00000159,-0.00062542,-0.00016478,-0.0
 0088532,-0.00013456,-0.00037215,0.00089005,0.00022885,0.00064626,-0.00
 037254,-0.00016916,-0.00005177,0.00012555,0.00004654,0.00000007,-0.000
 04302,-0.00060053,-0.00032683,0.00058858,-0.00071803,-0.00036970,0.000
 04527,0.11194569,0.07166784,0.24804880,-0.00000881,0.00001756,0.000007
 55,0.00006360,-0.00003663,0.00008113,-0.00230665,0.00969416,-0.0196551
 5,0.00000065,0.00000293,0.00000325,-0.01289841,-0.02068226,0.03572870,
 0.00305790,0.00228436,0.00523029,0.00006329,-0.00003337,0.00000424,0.0
 0041944,-0.00135569,-0.00043944,-0.05087543,0.01031326,-0.02947180,-0.
 00041093,-0.00020200,-0.00048812,-0.00008103,-0.00009049,0.00003580,0.
 00212412,-0.00032186,-0.00021458,-0.00002762,0.00004431,0.00001944,-0.
 00001088,-0.00000679,0.00000495,-0.00000485,-0.00000277,-0.00000270,-0
 .00247672,0.00326324,0.00067896,-0.00000565,-0.00000476,0.00000026,0.0
 0000120,0.00000273,0.00000135,-0.00001132,0.00023564,-0.00022887,0.000
 22620,0.00071705,-0.00121900,0.00003240,0.00001812,0.00004212,-0.00001
 283,0.00001345,0.00000393,0.00019732,-0.00002100,0.00054637,-0.0001179
 2,-0.00020209,0.00020048,-0.00012404,0.00007035,-0.00002781,0.00023294
 ,-0.00016649,-0.00013170,-0.00001964,-0.00000750,0.00000491,0.00000420
 ,-0.00000633,0.00000415,-0.00000864,0.00001258,0.00003355,0.06251189,0
 .00000737,-0.00001519,-0.00001100,0.00011237,0.00001871,-0.00002359,0.
 00548319,-0.01337450,0.02679478,0.00000018,-0.00000687,-0.00000535,-0.
 00796875,-0.00295334,0.00926318,0.00088331,0.00044955,0.00258607,-0.00
 006672,0.00005439,0.00000486,-0.00035341,0.00147183,0.00149453,0.01063
 772,-0.09034841,0.08346375,-0.00009640,-0.00029164,-0.00024266,0.00001
 456,0.00007398,-0.00004504,-0.00179113,0.00142799,-0.00127604,0.000040
 55,-0.00005797,-0.00004079,0.00000963,0.00000565,-0.00000430,0.0000033
 6,0.00000178,0.00000337,0.00309531,-0.00367216,-0.00020504,0.00000423,
 0.00000482,0.00000027,-0.00000378,-0.00000307,0.00000019,-0.00001761,0
 .00007475,-0.00026501,-0.00012718,-0.00001732,-0.00035732,-0.00003573,
 -0.00001373,-0.00003944,0.00001020,-0.00001118,-0.00000311,-0.00009564
 ,-0.00034725,-0.00074770,0.00009070,0.00036148,-0.00036059,0.00003574,
 0.00012267,-0.00006453,-0.00001619,-0.00005375,-0.00004649,0.00002627,
 0.00001162,-0.00000665,0.00000358,0.00000019,0.00000192,0.00001673,-0.
 00002253,-0.00001149,-0.00833829,0.09696090,0.00000268,-0.00000327,-0.
 00000188,-0.00002292,-0.00021575,-0.00016066,0.00093368,-0.00025949,-0
 .00195487,-0.00000277,-0.00000433,0.00001179,0.01276235,0.00831215,-0.
 01146101,-0.00160652,-0.00248760,0.00120025,0.00003858,-0.00001855,0.0
 0001471,0.00019724,-0.00058731,0.00098335,-0.02739365,0.08609108,-0.25
 446126,0.00032162,-0.00000069,0.00011037,0.00001359,0.00007125,-0.0000
 4847,-0.00134707,-0.00065718,0.00137736,-0.00003834,0.00006805,0.00003
 596,-0.00000239,0.00000156,0.00000253,-0.00000392,-0.00000065,-0.00000
 195,0.00026243,0.00016974,0.00094682,-0.00000858,-0.00000215,-0.000004
 25,0.00000238,0.00000400,0.,0.00023349,-0.00001945,0.00044624,0.000670
 08,0.00114565,0.00081661,0.00000371,-0.00000708,0.00000376,-0.00000509
 ,0.00000408,-0.00000320,0.00040365,0.00036700,0.00034066,-0.00010210,0
 .00000254,0.00017713,-0.00014608,-0.00001574,-0.00020197,-0.00001598,0
 .00013731,0.00002599,-0.00002914,-0.00001460,0.00001050,-0.00001016,-0
 .00000089,-0.00000109,-0.00003729,0.00004761,-0.00001056,0.01788588,-0
 .10028847,0.27865530,-0.00000386,-0.00000258,-0.00001080,0.00020671,0.
 00004289,0.00005519,0.00751787,0.01387829,0.01420236,-0.00000742,-0.00
 000143,0.00000707,-0.02214512,-0.02873386,-0.02169994,-0.00395912,0.00
 050542,0.00475235,0.00000661,-0.00000976,0.00002616,-0.00322181,0.0032
 0787,-0.00004153,-0.07351191,-0.05451807,-0.05324877,-0.00072993,-0.00
 040506,-0.00028872,-0.00003349,-0.00010713,-0.00000958,0.00180744,-0.0
 0019751,-0.00062280,-0.00001476,-0.00002102,-0.00003026,0.00000058,-0.
 00000063,0.00000045,-0.00000321,-0.00000198,-0.00000004,0.00087825,-0.
 00085127,-0.00029101,-0.00000162,-0.00000114,-0.00000219,0.00000310,-0
 .00000410,-0.00000287,-0.00079917,-0.00145784,-0.00087044,0.00006836,0
 .00016831,-0.00011632,0.00000008,-0.00000153,-0.00000917,-0.00000098,0
 .00000191,-0.00000154,-0.00007336,-0.00010661,-0.00006484,0.00052822,0
 .00112260,0.00074337,0.00010581,-0.00001556,-0.00000440,0.00024368,-0.
 00019566,-0.00003662,0.00000845,0.00000582,-0.00000286,0.00000061,-0.0
 0000259,0.00000190,0.00000617,-0.00000455,-0.00003464,0.00046625,-0.00
 156413,-0.00295933,0.09265756,0.00000579,0.00000552,0.00001535,0.00012
 578,0.00014856,0.00002603,-0.00839570,-0.01952134,-0.01893965,0.000007
 83,0.00000202,-0.00001866,-0.00885163,-0.00676615,-0.00424661,-0.00009
 668,0.00146826,0.00230792,-0.00003010,-0.00000298,-0.00007932,0.004355
 33,-0.00269372,0.00113278,-0.05896191,-0.17589585,-0.11798586,0.000253
 77,0.00038509,-0.00012690,0.00004845,0.00014205,0.00003622,-0.00083543
 ,0.00140564,0.00116306,0.00004832,-0.00003811,-0.00000351,0.00000011,-
 0.00000009,-0.00000050,0.00000827,0.00000357,0.00000292,-0.00061380,0.
 00112069,0.00039830,0.00000692,0.00000415,0.00000613,-0.00000002,-0.00
 000240,-0.00000118,-0.00020202,-0.00019397,-0.00037486,-0.00006309,-0.
 00003645,-0.00035264,-0.00000959,-0.00000121,-0.00000074,0.00000517,-0
 .00000362,0.00000472,0.00000798,0.00008590,-0.00015770,-0.00067768,-0.
 00106623,-0.00103889,-0.00006561,-0.00001686,0.00008479,-0.00006188,-0
 .00005084,-0.00002145,0.00001724,0.00000435,-0.00000696,0.00000010,0.0
 0000240,-0.00000041,-0.00008539,0.00001898,0.00011014,0.00478855,0.010
 14859,0.00816117,0.06927092,0.19134406,-0.00000100,-0.00000098,0.00000
 492,0.00002716,0.00019873,0.00007268,-0.00120745,0.00178881,0.00033664
 ,0.00000357,-0.00000292,-0.00001100,0.00640315,0.01101498,0.01046325,0
 .00189207,0.00092704,0.00000734,-0.00002272,0.00000823,-0.00001559,0.0
 0053606,-0.00061362,0.00090069,-0.06127808,-0.12403774,-0.17016524,0.0
 0027840,0.00026319,-0.00002304,0.00002372,0.00001166,0.00002259,0.0006
 1030,0.00005746,-0.00018590,0.00002498,-0.00003376,-0.00001626,0.00000
 219,0.00000182,-0.00000219,0.00000399,0.00000128,0.00000080,0.00061628
 ,-0.00016380,0.00074048,0.00000360,0.00000365,0.00000296,0.00000311,-0
 .00000064,0.00000446,0.00026200,0.00013049,0.00043377,0.00023756,0.000
 07783,0.00044786,0.00000237,-0.00000750,-0.00000861,0.00000533,-0.0000
 0337,0.00000134,0.00009577,0.00029825,0.00040712,-0.00027369,-0.000275
 65,0.00010513,-0.00001154,-0.00002510,-0.00000331,-0.00012403,0.000017
 50,-0.00002103,0.00001204,0.00000824,-0.00000402,-0.00000334,0.0000025
 8,-0.00000420,-0.00004350,0.00001530,0.00003639,-0.00863814,-0.0195682
 9,-0.01684818,0.06055984,0.12990633,0.17332014\\-0.00000669,0.00000126
 ,0.00001079,0.00150933,-0.00157276,0.00312061,0.00301306,-0.00434306,0
 .00429793,0.00000664,-0.00000097,-0.00001362,0.00000886,0.00000174,-0.
 00000440,-0.00001063,-0.00000794,-0.00000768,0.00002332,0.00000913,0.0
 0003553,-0.00156380,0.00246472,-0.00192287,0.00000447,0.00000577,-0.00
 001366,-0.00000344,-0.00000423,0.00000153,-0.00003101,0.00003894,-0.00
 002714,-0.00297420,0.00343924,-0.00550159,-0.00001751,0.00000127,0.000
 00740,0.00000452,-0.00000180,-0.00000665,0.00000399,0.00001287,-0.0000
 0886,0.00000511,0.00000360,0.00000036,0.00000135,0.00000561,-0.0000099
 5,-0.00000381,0.00000699,0.00000078,-0.00000807,-0.00000604,0.00000830
 ,-0.00000005,0.00000059,0.00000154,-0.00000717,0.00001026,-0.00000132,
 0.00000315,0.00000089,0.00000626,-0.00000079,-0.00001066,0.00000572,0.
 00000682,-0.00002339,0.00001442,0.00000360,-0.00000337,0.00001710,0.00
 000731,-0.00000489,0.00001028,0.00001146,-0.00001068,-0.00001218,0.000
 00671,-0.00000377,-0.00000460,0.00000734,-0.00001622,-0.00000510,-0.00
 000555,-0.00000280,-0.00000484,0.00000568,0.00000970,0.00000590\\\@


 NATURE GIVES TO EVERY TIME AND SEASON SOME BEAUTY OF ITS OWN.

                                                    --DICKENS
 Job cpu time:       0 days 14 hours  5 minutes  1.6 seconds.
 Elapsed time:       0 days  0 hours 52 minutes 50.8 seconds.
 File lengths (MBytes):  RWF=    687 Int=      0 D2E=      0 Chk=     33 Scr=      1
 Normal termination of Gaussian 16 at Sun Nov  4 22:48:50 2018.
