 Entering Gaussian System, Link 0=g16
 Initial command:
 /apps/gaussian/g16a03/g16/l1.exe "/jobfs/local/2011981.r-man2/Gau-15184.inp" -scrdir="/jobfs/local/2011981.r-man2/"
 Entering Link 1 = /apps/gaussian/g16a03/g16/l1.exe PID=     15185.
  
 Copyright (c) 1988,1990,1992,1993,1995,1998,2003,2009,2016,
            Gaussian, Inc.  All Rights Reserved.
  
 This is part of the Gaussian(R) 16 program.  It is based on
 the Gaussian(R) 09 system (copyright 2009, Gaussian, Inc.),
 the Gaussian(R) 03 system (copyright 2003, Gaussian, Inc.),
 the Gaussian(R) 98 system (copyright 1998, Gaussian, Inc.),
 the Gaussian(R) 94 system (copyright 1995, Gaussian, Inc.),
 the Gaussian 92(TM) system (copyright 1992, Gaussian, Inc.),
 the Gaussian 90(TM) system (copyright 1990, Gaussian, Inc.),
 the Gaussian 88(TM) system (copyright 1988, Gaussian, Inc.),
 the Gaussian 86(TM) system (copyright 1986, Carnegie Mellon
 University), and the Gaussian 82(TM) system (copyright 1983,
 Carnegie Mellon University). Gaussian is a federally registered
 trademark of Gaussian, Inc.
  
 This software contains proprietary and confidential information,
 including trade secrets, belonging to Gaussian, Inc.
  
 This software is provided under written license and may be
 used, copied, transmitted, or stored only in accord with that
 written license.
  
 The following legend is applicable only to US Government
 contracts under FAR:
  
                    RESTRICTED RIGHTS LEGEND
  
 Use, reproduction and disclosure by the US Government is
 subject to restrictions as set forth in subparagraphs (a)
 and (c) of the Commercial Computer Software - Restricted
 Rights clause in FAR 52.227-19.
  
 Gaussian, Inc.
 340 Quinnipiac St., Bldg. 40, Wallingford CT 06492
  
  
 ---------------------------------------------------------------
 Warning -- This program may not be used in any manner that
 competes with the business of Gaussian, Inc. or will provide
 assistance to any competitor of Gaussian, Inc.  The licensee
 of this program is prohibited from giving any competitor of
 Gaussian, Inc. access to this program.  By using this program,
 the user acknowledges that Gaussian, Inc. is engaged in the
 business of creating and licensing software in the field of
 computational chemistry and represents and warrants to the
 licensee that it is not a competitor of Gaussian, Inc. and that
 it will not use this program in any manner prohibited above.
 ---------------------------------------------------------------
  

 Cite this work as:
 Gaussian 16, Revision A.03,
 M. J. Frisch, G. W. Trucks, H. B. Schlegel, G. E. Scuseria, 
 M. A. Robb, J. R. Cheeseman, G. Scalmani, V. Barone, 
 G. A. Petersson, H. Nakatsuji, X. Li, M. Caricato, A. V. Marenich, 
 J. Bloino, B. G. Janesko, R. Gomperts, B. Mennucci, H. P. Hratchian, 
 J. V. Ortiz, A. F. Izmaylov, J. L. Sonnenberg, D. Williams-Young, 
 F. Ding, F. Lipparini, F. Egidi, J. Goings, B. Peng, A. Petrone, 
 T. Henderson, D. Ranasinghe, V. G. Zakrzewski, J. Gao, N. Rega, 
 G. Zheng, W. Liang, M. Hada, M. Ehara, K. Toyota, R. Fukuda, 
 J. Hasegawa, M. Ishida, T. Nakajima, Y. Honda, O. Kitao, H. Nakai, 
 T. Vreven, K. Throssell, J. A. Montgomery, Jr., J. E. Peralta, 
 F. Ogliaro, M. J. Bearpark, J. J. Heyd, E. N. Brothers, K. N. Kudin, 
 V. N. Staroverov, T. A. Keith, R. Kobayashi, J. Normand, 
 K. Raghavachari, A. P. Rendell, J. C. Burant, S. S. Iyengar, 
 J. Tomasi, M. Cossi, J. M. Millam, M. Klene, C. Adamo, R. Cammi, 
 J. W. Ochterski, R. L. Martin, K. Morokuma, O. Farkas, 
 J. B. Foresman, and D. J. Fox, Gaussian, Inc., Wallingford CT, 2016.
 
 ******************************************
 Gaussian 16:  ES64L-G16RevA.03 25-Dec-2016
                 4-Nov-2018 
 ******************************************
 %mem=6000mb
 %nproc=24
 Will use up to   24 processors via shared memory.
 %chk=D_1a_4e_D_PSI.inp_extract_9.chk
 ----------------------------------------------------------------------
 #M062X/6-311++G(2d,2p) opt=ModRedundant freq=noraman SCRF=(Solvent=Wat
 er)
 ----------------------------------------------------------------------
 1/18=120,19=15,26=3,38=1/1,3;
 2/9=110,12=2,17=6,18=5,40=1/2;
 3/5=4,6=6,7=1212,11=2,25=1,30=1,70=2201,71=1,72=1,74=-55/1,2,3;
 4//1;
 5/5=2,38=5,53=1/2;
 6/7=2,8=2,9=2,10=2,28=1/1;
 7//1,2,3,16;
 1/18=20,19=15,26=3/3(2);
 2/9=110/2;
 99//99;
 2/9=110/2;
 3/5=4,6=6,7=1212,11=2,25=1,30=1,70=2205,71=1,72=1,74=-55/1,2,3;
 4/5=5,16=3,69=1/1;
 5/5=2,38=5,53=1/2;
 7//1,2,3,16;
 1/18=20,19=15,26=3/3(-5);
 2/9=110/2;
 6/7=2,8=2,9=2,10=2,19=2,28=1/1;
 99/9=1/99;
 ---------------------------
 D_1a_4e_D_PSI.inp_extract_9
 ---------------------------
 Symbolic Z-matrix:
 Charge =  0 Multiplicity = 1
 C                    -3.6173   -0.75634   0.0227 
 C                    -1.22466   0.82016  -0.37545 
 C                     1.0212    0.00987  -0.13975 
 C                    -3.16968   0.21069   1.1188 
 O                     2.96856  -1.37628   0.1977 
 C                     3.84663  -0.26636   0.26361 
 C                    -2.42105  -1.2126   -0.79563 
 C                     1.89783   1.25845  -0.13816 
 C                     1.6732   -1.09518   0.67967 
 C                     3.32053   0.89121  -0.56906 
 O                    -1.69745  -0.10606  -1.319 
 O                    -0.2471    0.24671   0.44445 
 C                    -2.35081   1.34523   0.50112 
 H                    -4.33214  -0.26435  -0.63288 
 H                    -4.1093   -1.62715   0.44665 
 H                     0.88896  -0.3464   -1.15548 
 H                    -4.02889   0.62023   1.641 
 H                    -2.57471  -0.32175   1.85596 
 H                     4.80313  -0.61442  -0.10148 
 H                     3.96334   0.03107   1.30329 
 H                    -1.75701  -1.82523  -0.19546 
 H                    -2.72703  -1.79134  -1.65611 
 H                     1.91385   1.66813   0.86952 
 H                     1.48737   2.01896  -0.79368 
 H                     3.32995   0.6075   -1.61848 
 H                     3.98251   1.7447   -0.45761 
 H                    -2.99358   1.95432  -0.12847 
 H                    -1.93061   1.99407   1.26197 
 H                    -0.7917    1.61634  -0.96249 
 H                     1.7249   -0.7994    1.72505 
 H                     1.10352  -2.01109   0.60652 
 
 The following ModRedundant input section has been read:
 D       8       3      12       2 F                                           
 

 GradGradGradGradGradGradGradGradGradGradGradGradGradGradGradGradGradGrad
 Berny optimization.
 Initialization pass.
                           ----------------------------
                           !    Initial Parameters    !
                           ! (Angstroms and Degrees)  !
 --------------------------                            --------------------------
 ! Name  Definition              Value          Derivative Info.                !
 --------------------------------------------------------------------------------
 ! R1    R(1,4)                  1.5287         estimate D2E/DX2                !
 ! R2    R(1,7)                  1.5195         estimate D2E/DX2                !
 ! R3    R(1,14)                 1.0876         estimate D2E/DX2                !
 ! R4    R(1,15)                 1.0863         estimate D2E/DX2                !
 ! R5    R(2,11)                 1.4042         estimate D2E/DX2                !
 ! R6    R(2,12)                 1.3988         estimate D2E/DX2                !
 ! R7    R(2,13)                 1.5206         estimate D2E/DX2                !
 ! R8    R(2,29)                 1.0798         estimate D2E/DX2                !
 ! R9    R(3,8)                  1.5256         estimate D2E/DX2                !
 ! R10   R(3,9)                  1.5224         estimate D2E/DX2                !
 ! R11   R(3,12)                 1.4163         estimate D2E/DX2                !
 ! R12   R(3,16)                 1.0845         estimate D2E/DX2                !
 ! R13   R(4,13)                 1.5295         estimate D2E/DX2                !
 ! R14   R(4,17)                 1.0857         estimate D2E/DX2                !
 ! R15   R(4,18)                 1.0867         estimate D2E/DX2                !
 ! R16   R(5,6)                  1.4168         estimate D2E/DX2                !
 ! R17   R(5,9)                  1.4104         estimate D2E/DX2                !
 ! R18   R(6,10)                 1.5199         estimate D2E/DX2                !
 ! R19   R(6,19)                 1.0814         estimate D2E/DX2                !
 ! R20   R(6,20)                 1.0877         estimate D2E/DX2                !
 ! R21   R(7,11)                 1.422          estimate D2E/DX2                !
 ! R22   R(7,21)                 1.0847         estimate D2E/DX2                !
 ! R23   R(7,22)                 1.0812         estimate D2E/DX2                !
 ! R24   R(8,10)                 1.5312         estimate D2E/DX2                !
 ! R25   R(8,23)                 1.0879         estimate D2E/DX2                !
 ! R26   R(8,24)                 1.0847         estimate D2E/DX2                !
 ! R27   R(9,30)                 1.0877         estimate D2E/DX2                !
 ! R28   R(9,31)                 1.0811         estimate D2E/DX2                !
 ! R29   R(10,25)                1.0871         estimate D2E/DX2                !
 ! R30   R(10,26)                1.0859         estimate D2E/DX2                !
 ! R31   R(13,27)                1.0865         estimate D2E/DX2                !
 ! R32   R(13,28)                1.0847         estimate D2E/DX2                !
 ! A1    A(4,1,7)              110.217          estimate D2E/DX2                !
 ! A2    A(4,1,14)             109.7857         estimate D2E/DX2                !
 ! A3    A(4,1,15)             111.0926         estimate D2E/DX2                !
 ! A4    A(7,1,14)             109.187          estimate D2E/DX2                !
 ! A5    A(7,1,15)             109.0277         estimate D2E/DX2                !
 ! A6    A(14,1,15)            107.4691         estimate D2E/DX2                !
 ! A7    A(11,2,12)            111.0237         estimate D2E/DX2                !
 ! A8    A(11,2,13)            111.4546         estimate D2E/DX2                !
 ! A9    A(11,2,29)            104.8359         estimate D2E/DX2                !
 ! A10   A(12,2,13)            108.737          estimate D2E/DX2                !
 ! A11   A(12,2,29)            109.921          estimate D2E/DX2                !
 ! A12   A(13,2,29)            110.8386         estimate D2E/DX2                !
 ! A13   A(8,3,9)              110.3288         estimate D2E/DX2                !
 ! A14   A(8,3,12)             112.1644         estimate D2E/DX2                !
 ! A15   A(8,3,16)             109.8714         estimate D2E/DX2                !
 ! A16   A(9,3,12)             106.4323         estimate D2E/DX2                !
 ! A17   A(9,3,16)             108.5355         estimate D2E/DX2                !
 ! A18   A(12,3,16)            109.3939         estimate D2E/DX2                !
 ! A19   A(1,4,13)             109.6601         estimate D2E/DX2                !
 ! A20   A(1,4,17)             110.596          estimate D2E/DX2                !
 ! A21   A(1,4,18)             109.6798         estimate D2E/DX2                !
 ! A22   A(13,4,17)            109.7649         estimate D2E/DX2                !
 ! A23   A(13,4,18)            110.1371         estimate D2E/DX2                !
 ! A24   A(17,4,18)            106.9683         estimate D2E/DX2                !
 ! A25   A(6,5,9)              113.4016         estimate D2E/DX2                !
 ! A26   A(5,6,10)             110.8942         estimate D2E/DX2                !
 ! A27   A(5,6,19)             106.2806         estimate D2E/DX2                !
 ! A28   A(5,6,20)             108.9775         estimate D2E/DX2                !
 ! A29   A(10,6,19)            111.4912         estimate D2E/DX2                !
 ! A30   A(10,6,20)            110.6436         estimate D2E/DX2                !
 ! A31   A(19,6,20)            108.4102         estimate D2E/DX2                !
 ! A32   A(1,7,11)             111.4187         estimate D2E/DX2                !
 ! A33   A(1,7,21)             110.7065         estimate D2E/DX2                !
 ! A34   A(1,7,22)             111.5024         estimate D2E/DX2                !
 ! A35   A(11,7,21)            109.3691         estimate D2E/DX2                !
 ! A36   A(11,7,22)            105.5232         estimate D2E/DX2                !
 ! A37   A(21,7,22)            108.1375         estimate D2E/DX2                !
 ! A38   A(3,8,10)             109.7132         estimate D2E/DX2                !
 ! A39   A(3,8,23)             108.5201         estimate D2E/DX2                !
 ! A40   A(3,8,24)             110.8394         estimate D2E/DX2                !
 ! A41   A(10,8,23)            109.7125         estimate D2E/DX2                !
 ! A42   A(10,8,24)            110.4674         estimate D2E/DX2                !
 ! A43   A(23,8,24)            107.5366         estimate D2E/DX2                !
 ! A44   A(3,9,5)              110.7363         estimate D2E/DX2                !
 ! A45   A(3,9,30)             109.8945         estimate D2E/DX2                !
 ! A46   A(3,9,31)             110.6619         estimate D2E/DX2                !
 ! A47   A(5,9,30)             109.8154         estimate D2E/DX2                !
 ! A48   A(5,9,31)             106.9771         estimate D2E/DX2                !
 ! A49   A(30,9,31)            108.6917         estimate D2E/DX2                !
 ! A50   A(6,10,8)             110.4935         estimate D2E/DX2                !
 ! A51   A(6,10,25)            109.0916         estimate D2E/DX2                !
 ! A52   A(6,10,26)            109.3523         estimate D2E/DX2                !
 ! A53   A(8,10,25)            110.0166         estimate D2E/DX2                !
 ! A54   A(8,10,26)            110.4289         estimate D2E/DX2                !
 ! A55   A(25,10,26)           107.3927         estimate D2E/DX2                !
 ! A56   A(2,11,7)             115.9331         estimate D2E/DX2                !
 ! A57   A(2,12,3)             116.9101         estimate D2E/DX2                !
 ! A58   A(2,13,4)             111.9117         estimate D2E/DX2                !
 ! A59   A(2,13,27)            107.3173         estimate D2E/DX2                !
 ! A60   A(2,13,28)            108.9063         estimate D2E/DX2                !
 ! A61   A(4,13,27)            109.458          estimate D2E/DX2                !
 ! A62   A(4,13,28)            111.5839         estimate D2E/DX2                !
 ! A63   A(27,13,28)           107.476          estimate D2E/DX2                !
 ! D1    D(7,1,4,13)            52.9419         estimate D2E/DX2                !
 ! D2    D(7,1,4,17)           174.1317         estimate D2E/DX2                !
 ! D3    D(7,1,4,18)           -68.1248         estimate D2E/DX2                !
 ! D4    D(14,1,4,13)          -67.3683         estimate D2E/DX2                !
 ! D5    D(14,1,4,17)           53.8215         estimate D2E/DX2                !
 ! D6    D(14,1,4,18)          171.565          estimate D2E/DX2                !
 ! D7    D(15,1,4,13)          173.9011         estimate D2E/DX2                !
 ! D8    D(15,1,4,17)          -64.9092         estimate D2E/DX2                !
 ! D9    D(15,1,4,18)           52.8344         estimate D2E/DX2                !
 ! D10   D(4,1,7,11)           -54.8003         estimate D2E/DX2                !
 ! D11   D(4,1,7,21)            67.1468         estimate D2E/DX2                !
 ! D12   D(4,1,7,22)          -172.4152         estimate D2E/DX2                !
 ! D13   D(14,1,7,11)           65.8697         estimate D2E/DX2                !
 ! D14   D(14,1,7,21)         -172.1832         estimate D2E/DX2                !
 ! D15   D(14,1,7,22)          -51.7452         estimate D2E/DX2                !
 ! D16   D(15,1,7,11)         -176.9865         estimate D2E/DX2                !
 ! D17   D(15,1,7,21)          -55.0394         estimate D2E/DX2                !
 ! D18   D(15,1,7,22)           65.3987         estimate D2E/DX2                !
 ! D19   D(12,2,11,7)           66.4037         estimate D2E/DX2                !
 ! D20   D(13,2,11,7)          -54.9821         estimate D2E/DX2                !
 ! D21   D(29,2,11,7)         -174.9491         estimate D2E/DX2                !
 ! D22   D(11,2,12,3)           72.6418         estimate D2E/DX2                !
 ! D23   D(13,2,12,3)         -164.3919         estimate D2E/DX2                !
 ! D24   D(29,2,12,3)          -42.8929         estimate D2E/DX2                !
 ! D25   D(11,2,13,4)           51.7401         estimate D2E/DX2                !
 ! D26   D(11,2,13,27)         -68.3604         estimate D2E/DX2                !
 ! D27   D(11,2,13,28)         175.5807         estimate D2E/DX2                !
 ! D28   D(12,2,13,4)          -70.9668         estimate D2E/DX2                !
 ! D29   D(12,2,13,27)         168.9328         estimate D2E/DX2                !
 ! D30   D(12,2,13,28)          52.8739         estimate D2E/DX2                !
 ! D31   D(29,2,13,4)          168.0968         estimate D2E/DX2                !
 ! D32   D(29,2,13,27)          47.9963         estimate D2E/DX2                !
 ! D33   D(29,2,13,28)         -68.0626         estimate D2E/DX2                !
 ! D34   D(9,3,8,10)            52.4727         estimate D2E/DX2                !
 ! D35   D(9,3,8,23)           -67.3884         estimate D2E/DX2                !
 ! D36   D(9,3,8,24)           174.7377         estimate D2E/DX2                !
 ! D37   D(12,3,8,10)          170.9406         estimate D2E/DX2                !
 ! D38   D(12,3,8,23)           51.0795         estimate D2E/DX2                !
 ! D39   D(12,3,8,24)          -66.7944         estimate D2E/DX2                !
 ! D40   D(16,3,8,10)          -67.1558         estimate D2E/DX2                !
 ! D41   D(16,3,8,23)          172.9831         estimate D2E/DX2                !
 ! D42   D(16,3,8,24)           55.1092         estimate D2E/DX2                !
 ! D43   D(8,3,9,5)            -56.2454         estimate D2E/DX2                !
 ! D44   D(8,3,9,30)            65.2537         estimate D2E/DX2                !
 ! D45   D(8,3,9,31)          -174.699          estimate D2E/DX2                !
 ! D46   D(12,3,9,5)          -178.1647         estimate D2E/DX2                !
 ! D47   D(12,3,9,30)          -56.6656         estimate D2E/DX2                !
 ! D48   D(12,3,9,31)           63.3817         estimate D2E/DX2                !
 ! D49   D(16,3,9,5)            64.188          estimate D2E/DX2                !
 ! D50   D(16,3,9,30)         -174.3129         estimate D2E/DX2                !
 ! D51   D(16,3,9,31)          -54.2656         estimate D2E/DX2                !
 ! D52   D(8,3,12,2)            82.7594         Frozen                          !
 ! D53   D(9,3,12,2)          -156.4936         estimate D2E/DX2                !
 ! D54   D(16,3,12,2)          -39.4163         estimate D2E/DX2                !
 ! D55   D(1,4,13,2)           -51.7859         estimate D2E/DX2                !
 ! D56   D(1,4,13,27)           67.0552         estimate D2E/DX2                !
 ! D57   D(1,4,13,28)         -174.1104         estimate D2E/DX2                !
 ! D58   D(17,4,13,2)         -173.4753         estimate D2E/DX2                !
 ! D59   D(17,4,13,27)         -54.6342         estimate D2E/DX2                !
 ! D60   D(17,4,13,28)          64.2002         estimate D2E/DX2                !
 ! D61   D(18,4,13,2)           69.0044         estimate D2E/DX2                !
 ! D62   D(18,4,13,27)        -172.1545         estimate D2E/DX2                !
 ! D63   D(18,4,13,28)         -53.3201         estimate D2E/DX2                !
 ! D64   D(9,5,6,10)           -60.3516         estimate D2E/DX2                !
 ! D65   D(9,5,6,19)           178.315          estimate D2E/DX2                !
 ! D66   D(9,5,6,20)            61.6768         estimate D2E/DX2                !
 ! D67   D(6,5,9,3)             60.7937         estimate D2E/DX2                !
 ! D68   D(6,5,9,30)           -60.7519         estimate D2E/DX2                !
 ! D69   D(6,5,9,31)          -178.538          estimate D2E/DX2                !
 ! D70   D(5,6,10,8)            55.1775         estimate D2E/DX2                !
 ! D71   D(5,6,10,25)          -65.8903         estimate D2E/DX2                !
 ! D72   D(5,6,10,26)          176.9274         estimate D2E/DX2                !
 ! D73   D(19,6,10,8)          173.3938         estimate D2E/DX2                !
 ! D74   D(19,6,10,25)          52.326          estimate D2E/DX2                !
 ! D75   D(19,6,10,26)         -64.8563         estimate D2E/DX2                !
 ! D76   D(20,6,10,8)          -65.8729         estimate D2E/DX2                !
 ! D77   D(20,6,10,25)         173.0593         estimate D2E/DX2                !
 ! D78   D(20,6,10,26)          55.8769         estimate D2E/DX2                !
 ! D79   D(1,7,11,2)            57.1136         estimate D2E/DX2                !
 ! D80   D(21,7,11,2)          -65.6041         estimate D2E/DX2                !
 ! D81   D(22,7,11,2)          178.2847         estimate D2E/DX2                !
 ! D82   D(3,8,10,6)           -52.0787         estimate D2E/DX2                !
 ! D83   D(3,8,10,25)           68.4377         estimate D2E/DX2                !
 ! D84   D(3,8,10,26)         -173.1913         estimate D2E/DX2                !
 ! D85   D(23,8,10,6)           67.0517         estimate D2E/DX2                !
 ! D86   D(23,8,10,25)        -172.4318         estimate D2E/DX2                !
 ! D87   D(23,8,10,26)         -54.0608         estimate D2E/DX2                !
 ! D88   D(24,8,10,6)         -174.5649         estimate D2E/DX2                !
 ! D89   D(24,8,10,25)         -54.0484         estimate D2E/DX2                !
 ! D90   D(24,8,10,26)          64.3226         estimate D2E/DX2                !
 --------------------------------------------------------------------------------
 Trust Radius=3.00D-01 FncErr=1.00D-07 GrdErr=1.00D-06 EigMax=2.50D+02 EigMin=1.00D-04
 Number of steps in this run=    186 maximum allowed number of steps=    186.
 GradGradGradGradGradGradGradGradGradGradGradGradGradGradGradGradGradGrad

                          Input orientation:                          
 ---------------------------------------------------------------------
 Center     Atomic      Atomic             Coordinates (Angstroms)
 Number     Number       Type             X           Y           Z
 ---------------------------------------------------------------------
      1          6           0       -3.617302   -0.756336    0.022698
      2          6           0       -1.224657    0.820162   -0.375453
      3          6           0        1.021203    0.009865   -0.139752
      4          6           0       -3.169685    0.210692    1.118799
      5          8           0        2.968560   -1.376277    0.197698
      6          6           0        3.846625   -0.266359    0.263605
      7          6           0       -2.421048   -1.212599   -0.795630
      8          6           0        1.897830    1.258446   -0.138157
      9          6           0        1.673202   -1.095181    0.679671
     10          6           0        3.320526    0.891209   -0.569060
     11          8           0       -1.697447   -0.106057   -1.319002
     12          8           0       -0.247101    0.246714    0.444450
     13          6           0       -2.350806    1.345229    0.501117
     14          1           0       -4.332137   -0.264349   -0.632883
     15          1           0       -4.109296   -1.627147    0.446645
     16          1           0        0.888956   -0.346401   -1.155484
     17          1           0       -4.028888    0.620225    1.641002
     18          1           0       -2.574712   -0.321747    1.855961
     19          1           0        4.803132   -0.614419   -0.101479
     20          1           0        3.963342    0.031067    1.303292
     21          1           0       -1.757005   -1.825233   -0.195456
     22          1           0       -2.727031   -1.791336   -1.656110
     23          1           0        1.913848    1.668132    0.869515
     24          1           0        1.487373    2.018957   -0.793684
     25          1           0        3.329948    0.607497   -1.618481
     26          1           0        3.982511    1.744696   -0.457609
     27          1           0       -2.993577    1.954322   -0.128469
     28          1           0       -1.930606    1.994073    1.261973
     29          1           0       -0.791704    1.616336   -0.962491
     30          1           0        1.724898   -0.799398    1.725054
     31          1           0        1.103521   -2.011090    0.606516
 ---------------------------------------------------------------------
                    Distance matrix (angstroms):
                    1          2          3          4          5
     1  C    0.000000
     2  C    2.892857   0.000000
     3  C    4.704167   2.399171   0.000000
     4  C    1.528706   2.527326   4.380391   0.000000
     5  O    6.617290   4.768219   2.414014   6.406633   0.000000
     6  C    7.483871   5.225593   2.867404   7.084317   1.416778
     7  C    1.519493   2.395833   3.711292   2.500251   5.482825
     8  C    5.873832   3.162013   1.525592   5.325170   2.863743
     9  C    5.341897   3.630346   1.522394   5.035046   1.410413
    10  C    7.155281   4.549859   2.499592   6.740535   2.419357
    11  O    2.430816   1.404171   2.965658   2.865430   5.068082
    12  O    3.541502   1.398821   1.416328   2.999590   3.610466
    13  C    2.499894   1.520619   3.682982   1.529467   5.982835
    14  H    1.087578   3.301343   5.382994   2.155307   7.431448
    15  H    1.086325   3.871215   5.417166   2.170786   7.086675
    16  H    4.675737   2.537061   1.084494   4.685646   2.686354
    17  H    2.164077   3.459737   5.389531   1.085653   7.418452
    18  H    2.153303   2.847071   4.125947   1.086689   5.881304
    19  H    8.422545   6.202203   3.833299   8.107755   2.008878
    20  H    7.728266   5.509645   3.277042   7.137673   2.047571
    21  H    2.156580   2.704424   3.330034   2.804982   4.763097
    22  H    2.163840   3.273703   4.426390   3.450243   6.004052
    23  H    6.098259   3.481266   2.136653   5.294203   3.291228
    24  H    5.867405   2.994517   2.163653   5.349355   3.834627
    25  H    7.267585   4.725968   2.806084   7.063667   2.713755
    26  H    8.015174   5.289245   3.446740   7.482789   3.346341
    27  H    2.785597   2.115750   4.460885   2.151032   6.837130
    28  H    3.456226   2.134852   3.822969   2.176296   6.041007
    29  H    3.818923   1.079794   2.558179   3.458670   4.943820
    30  H    5.607047   3.966734   2.151184   5.034359   2.052389
    31  H    4.919494   3.794821   2.155911   4.843453   2.012086
                    6          7          8          9         10
     6  C    0.000000
     7  C    6.426591   0.000000
     8  C    2.506840   5.019068   0.000000
     9  C    2.363012   4.353525   2.501771   0.000000
    10  C    1.519893   6.119070   1.531210   2.866836   0.000000
    11  O    5.767762   1.421954   4.022720   4.041576   5.170784
    12  O    4.129714   2.897143   2.442081   2.354480   3.764378
    13  C    6.407947   2.868618   4.297338   4.709578   5.789250
    14  H    8.227748   2.139609   6.432429   6.202997   7.739679
    15  H    8.073532   2.136651   6.689858   5.811589   7.910501
    16  H    3.281467   3.440337   2.151352   2.131550   2.790718
    17  H    8.044064   3.446965   6.220829   6.031634   7.679303
    18  H    6.616059   2.801458   5.145595   4.475112   6.488900
    19  H    1.081359   7.282063   3.456841   3.261562   2.164178
    20  H    1.087674   6.834663   2.801888   2.627181   2.158416
    21  H    5.834509   1.084658   4.782278   3.614574   5.770612
    22  H    7.015968   1.081197   5.744101   5.030165   6.704526
    23  H    2.800894   5.464672   1.087889   2.780261   2.156815
    24  H    3.450594   5.071362   1.084697   3.450096   2.163960
    25  H    2.138417   6.088004   2.160105   3.305363   1.087136
    26  H    2.140784   7.061545   2.164344   3.832912   1.085857
    27  H    7.202327   3.286683   4.940668   5.633062   6.418117
    28  H    6.283525   3.841485   4.142274   4.782259   5.669513
    29  H    5.153828   3.268865   2.835702   4.015567   4.194167
    30  H    2.630910   4.869646   2.781399   1.087651   3.266059
    31  H    3.268990   3.876363   3.446060   1.081100   3.836721
                   11         12         13         14         15
    11  O    0.000000
    12  O    2.310349   0.000000
    13  C    2.417838   2.373925   0.000000
    14  H    2.727161   4.255508   2.793272   0.000000
    15  H    3.353840   4.292774   3.454023   1.752786   0.000000
    16  H    2.602688   2.049927   4.012729   5.247824   5.402745
    17  H    3.837281   3.984113   2.154281   2.458655   2.546298
    18  H    3.300986   2.780878   2.159756   3.047324   2.458697
    19  H    6.633123   5.152130   7.441920   9.157406   8.986514
    20  H    6.240173   4.302551   6.499152   8.523557   8.285590
    21  H    2.054621   2.642396   3.299946   3.042861   2.446386
    22  H    2.003460   3.836151   3.825338   2.440297   2.521744
    23  H    4.580263   2.621223   4.292698   6.708503   6.878659
    24  H    3.864547   2.771682   4.106341   6.253482   6.793761
    25  H    5.086605   4.145012   6.108020   7.774257   8.037458
    26  H    6.035661   4.576820   6.417915   8.555721   8.812737
    27  H    2.709702   3.284401   1.086521   2.639825   3.795063
    28  H    3.335617   2.560429   1.084651   3.802407   4.304031
    29  H    1.978411   2.037631   2.155562   4.022472   4.848945
    30  H    4.632434   2.573534   4.765376   6.521796   6.029703
    31  H    3.896433   2.635929   4.817506   5.842396   5.229382
                   16         17         18         19         20
    16  H    0.000000
    17  H    5.739328   0.000000
    18  H    4.589815   1.745894   0.000000
    19  H    4.062454   9.086537   7.638705   0.000000
    20  H    3.954733   8.021028   6.570850   1.759341   0.000000
    21  H    3.179577   3.809763   2.671596   6.671604   6.197940
    22  H    3.926045   4.287354   3.810188   7.778520   7.539251
    23  H    3.034694   6.083536   5.007980   3.807996   2.658678
    24  H    2.466560   6.189772   5.385169   4.290463   3.805186
    25  H    2.661340   8.048407   6.913773   2.442262   3.044703
    26  H    3.798657   8.357698   7.253962   2.523028   2.457166
    27  H    4.628407   2.445958   3.048590   8.209009   7.358503
    28  H    4.389971   2.536515   2.476028   7.348909   6.212385
    29  H    2.591178   4.271975   3.857325   6.084390   5.500665
    30  H    3.033398   5.926926   4.328040   3.584127   2.424497
    31  H    2.433490   5.859659   4.236082   4.017346   3.582524
                   21         22         23         24         25
    21  H    0.000000
    22  H    1.753742   0.000000
    23  H    5.178120   6.315414   0.000000
    24  H    5.065734   5.746591   1.752481   0.000000
    25  H    5.815519   6.514815   3.052935   2.463248   0.000000
    26  H    6.764256   7.678404   2.458961   2.532564   1.751195
    27  H    3.977265   4.053972   5.016044   4.530519   6.634835
    28  H    4.091618   4.845495   3.878155   3.988599   6.155732
    29  H    3.655755   3.979802   3.267865   2.320515   4.293727
    30  H    4.106622   5.677665   2.618464   3.787292   3.966707
    31  H    2.976627   4.454312   3.776569   4.283594   4.094458
                   26         27         28         29         30
    26  H    0.000000
    27  H    6.986994   0.000000
    28  H    6.163125   1.750662   0.000000
    29  H    4.802553   2.378670   2.527454   0.000000
    30  H    4.041441   5.769101   4.623920   4.403630   0.000000
    31  H    4.850451   5.748992   5.067236   4.383136   1.762224
                   31
    31  H    0.000000
 Stoichiometry    C10H18O3
 Framework group  C1[X(C10H18O3)]
 Deg. of freedom    87
 Full point group                 C1      NOp   1
 Largest Abelian subgroup         C1      NOp   1
 Largest concise Abelian subgroup C1      NOp   1
                         Standard orientation:                         
 ---------------------------------------------------------------------
 Center     Atomic      Atomic             Coordinates (Angstroms)
 Number     Number       Type             X           Y           Z
 ---------------------------------------------------------------------
      1          6           0        3.617302   -0.756336   -0.022698
      2          6           0        1.224657    0.820162    0.375453
      3          6           0       -1.021203    0.009865    0.139752
      4          6           0        3.169685    0.210692   -1.118799
      5          8           0       -2.968560   -1.376277   -0.197698
      6          6           0       -3.846625   -0.266359   -0.263605
      7          6           0        2.421048   -1.212599    0.795630
      8          6           0       -1.897830    1.258446    0.138157
      9          6           0       -1.673202   -1.095181   -0.679671
     10          6           0       -3.320526    0.891209    0.569060
     11          8           0        1.697447   -0.106057    1.319002
     12          8           0        0.247101    0.246714   -0.444450
     13          6           0        2.350806    1.345229   -0.501117
     14          1           0        4.332137   -0.264349    0.632883
     15          1           0        4.109296   -1.627147   -0.446645
     16          1           0       -0.888956   -0.346401    1.155484
     17          1           0        4.028888    0.620225   -1.641002
     18          1           0        2.574712   -0.321747   -1.855961
     19          1           0       -4.803132   -0.614419    0.101479
     20          1           0       -3.963342    0.031067   -1.303292
     21          1           0        1.757005   -1.825233    0.195456
     22          1           0        2.727031   -1.791336    1.656110
     23          1           0       -1.913848    1.668132   -0.869515
     24          1           0       -1.487373    2.018957    0.793684
     25          1           0       -3.329948    0.607497    1.618481
     26          1           0       -3.982511    1.744696    0.457609
     27          1           0        2.993577    1.954322    0.128469
     28          1           0        1.930606    1.994073   -1.261973
     29          1           0        0.791704    1.616336    0.962491
     30          1           0       -1.724898   -0.799398   -1.725054
     31          1           0       -1.103521   -2.011090   -0.606516
 ---------------------------------------------------------------------
 Rotational constants (GHZ):           1.9571559           0.3972420           0.3755912
 Standard basis: 6-311++G(2d,2p) (5D, 7F)
 There are   557 symmetry adapted cartesian basis functions of A   symmetry.
 There are   531 symmetry adapted basis functions of A   symmetry.
   531 basis functions,   762 primitive gaussians,   557 cartesian basis functions
    51 alpha electrons       51 beta electrons
       nuclear repulsion energy       890.6140148610 Hartrees.
 NAtoms=   31 NActive=   31 NUniq=   31 SFac= 1.00D+00 NAtFMM=   60 NAOKFM=F Big=F
 Integral buffers will be    131072 words long.
 Raffenetti 2 integral format.
 Two-electron integral symmetry is turned on.
 ------------------------------------------------------------------------------
 Polarizable Continuum Model (PCM)
 =================================
 Model                : PCM.
 Atomic radii         : UFF (Universal Force Field).
 Polarization charges : Total charges.
 Charge compensation  : None.
 Solution method      : On-the-fly selection.
 Cavity type          : Scaled VdW (van der Waals Surface) (Alpha=1.100).
 Cavity algorithm     : GePol (No added spheres)
                        Default sphere list used, NSphG=   31.
                        Lebedev-Laikov grids with approx.  5.0 points / Ang**2.
                        Smoothing algorithm: York/Karplus (Gamma=1.0000).
                        Polarization charges: spherical gaussians, with
                                              point-specific exponents (IZeta= 3).
                        Self-potential: point-specific (ISelfS= 7).
                        Self-field    : sphere-specific E.n sum rule (ISelfD= 2).
 1st derivatives      : Analytical E(r).r(x)/FMM algorithm (CHGder, D1EAlg=3).
                        Cavity 1st derivative terms included.
 Solvent              : Water, Eps=  78.355300 Eps(inf)=   1.777849
 ------------------------------------------------------------------------------
 One-electron integrals computed using PRISM.
 NBasis=   531 RedAO= T EigKep=  5.50D-06  NBF=   531
 NBsUse=   531 1.00D-06 EigRej= -1.00D+00 NBFU=   531
 ExpMin= 3.60D-02 ExpMax= 8.59D+03 ExpMxC= 1.30D+03 IAcc=3 IRadAn=         5 AccDes= 0.00D+00
 Harris functional with IExCor= 1009 and IRadAn=       5 diagonalized for initial guess.
 HarFok:  IExCor= 1009 AccDes= 0.00D+00 IRadAn=         5 IDoV= 1 UseB2=F ITyADJ=14
 ICtDFT=  3500011 ScaDFX=  1.000000  1.000000  1.000000  1.000000
 FoFCou: FMM=F IPFlag=           0 FMFlag=      100000 FMFlg1=           0
         NFxFlg=           0 DoJE=T BraDBF=F KetDBF=T FulRan=T
         wScrn=  0.000000 ICntrl=       500 IOpCl=  0 I1Cent=   200000004 NGrid=           0
         NMat0=    1 NMatS0=      1 NMatT0=    0 NMatD0=    1 NMtDS0=    0 NMtDT0=    0
 Petite list used in FoFCou.
 Requested convergence on RMS density matrix=1.00D-08 within 128 cycles.
 Requested convergence on MAX density matrix=1.00D-06.
 Requested convergence on             energy=1.00D-06.
 No special actions if energy rises.
 Inv3:  Mode=1 IEnd=    12979200.
 Iteration    1 A*A^-1 deviation from unit magnitude is 3.77D-15 for   2072.
 Iteration    1 A*A^-1 deviation from orthogonality  is 2.84D-15 for   1628    634.
 Iteration    1 A^-1*A deviation from unit magnitude is 3.77D-15 for   2072.
 Iteration    1 A^-1*A deviation from orthogonality  is 1.26D-15 for   2025    888.
 Error on total polarization charges =  0.01493
 SCF Done:  E(RM062X) =  -617.502767175     A.U. after   12 cycles
            NFock= 12  Conv=0.46D-08     -V/T= 2.0035

 **********************************************************************

            Population analysis using the SCF density.

 **********************************************************************

 Orbital symmetries:
       Occupied  (A) (A) (A) (A) (A) (A) (A) (A) (A) (A) (A) (A)
                 (A) (A) (A) (A) (A) (A) (A) (A) (A) (A) (A) (A)
                 (A) (A) (A) (A) (A) (A) (A) (A) (A) (A) (A) (A)
                 (A) (A) (A) (A) (A) (A) (A) (A) (A) (A) (A) (A)
                 (A) (A) (A)
       Virtual   (A) (A) (A) (A) (A) (A) (A) (A) (A) (A) (A) (A)
                 (A) (A) (A) (A) (A) (A) (A) (A) (A) (A) (A) (A)
                 (A) (A) (A) (A) (A) (A) (A) (A) (A) (A) (A) (A)
                 (A) (A) (A) (A) (A) (A) (A) (A) (A) (A) (A) (A)
                 (A) (A) (A) (A) (A) (A) (A) (A) (A) (A) (A) (A)
                 (A) (A) (A) (A) (A) (A) (A) (A) (A) (A) (A) (A)
                 (A) (A) (A) (A) (A) (A) (A) (A) (A) (A) (A) (A)
                 (A) (A) (A) (A) (A) (A) (A) (A) (A) (A) (A) (A)
                 (A) (A) (A) (A) (A) (A) (A) (A) (A) (A) (A) (A)
                 (A) (A) (A) (A) (A) (A) (A) (A) (A) (A) (A) (A)
                 (A) (A) (A) (A) (A) (A) (A) (A) (A) (A) (A) (A)
                 (A) (A) (A) (A) (A) (A) (A) (A) (A) (A) (A) (A)
                 (A) (A) (A) (A) (A) (A) (A) (A) (A) (A) (A) (A)
                 (A) (A) (A) (A) (A) (A) (A) (A) (A) (A) (A) (A)
                 (A) (A) (A) (A) (A) (A) (A) (A) (A) (A) (A) (A)
                 (A) (A) (A) (A) (A) (A) (A) (A) (A) (A) (A) (A)
                 (A) (A) (A) (A) (A) (A) (A) (A) (A) (A) (A) (A)
                 (A) (A) (A) (A) (A) (A) (A) (A) (A) (A) (A) (A)
                 (A) (A) (A) (A) (A) (A) (A) (A) (A) (A) (A) (A)
                 (A) (A) (A) (A) (A) (A) (A) (A) (A) (A) (A) (A)
                 (A) (A) (A) (A) (A) (A) (A) (A) (A) (A) (A) (A)
                 (A) (A) (A) (A) (A) (A) (A) (A) (A) (A) (A) (A)
                 (A) (A) (A) (A) (A) (A) (A) (A) (A) (A) (A) (A)
                 (A) (A) (A) (A) (A) (A) (A) (A) (A) (A) (A) (A)
                 (A) (A) (A) (A) (A) (A) (A) (A) (A) (A) (A) (A)
                 (A) (A) (A) (A) (A) (A) (A) (A) (A) (A) (A) (A)
                 (A) (A) (A) (A) (A) (A) (A) (A) (A) (A) (A) (A)
                 (A) (A) (A) (A) (A) (A) (A) (A) (A) (A) (A) (A)
                 (A) (A) (A) (A) (A) (A) (A) (A) (A) (A) (A) (A)
                 (A) (A) (A) (A) (A) (A) (A) (A) (A) (A) (A) (A)
                 (A) (A) (A) (A) (A) (A) (A) (A) (A) (A) (A) (A)
                 (A) (A) (A) (A) (A) (A) (A) (A) (A) (A) (A) (A)
                 (A) (A) (A) (A) (A) (A) (A) (A) (A) (A) (A) (A)
                 (A) (A) (A) (A) (A) (A) (A) (A) (A) (A) (A) (A)
                 (A) (A) (A) (A) (A) (A) (A) (A) (A) (A) (A) (A)
                 (A) (A) (A) (A) (A) (A) (A) (A) (A) (A) (A) (A)
                 (A) (A) (A) (A) (A) (A) (A) (A) (A) (A) (A) (A)
                 (A) (A) (A) (A) (A) (A) (A) (A) (A) (A) (A) (A)
                 (A) (A) (A) (A) (A) (A) (A) (A) (A) (A) (A) (A)
                 (A) (A) (A) (A) (A) (A) (A) (A) (A) (A) (A) (A)
 The electronic state is 1-A.
 Alpha  occ. eigenvalues --  -19.63114 -19.62939 -19.62707 -10.63392 -10.58601
 Alpha  occ. eigenvalues --  -10.57946 -10.57876 -10.57596 -10.53181 -10.53113
 Alpha  occ. eigenvalues --  -10.52988 -10.52949 -10.52748  -1.20288  -1.16794
 Alpha  occ. eigenvalues --   -1.13608  -0.90931  -0.89722  -0.87741  -0.84640
 Alpha  occ. eigenvalues --   -0.75121  -0.74043  -0.73139  -0.71090  -0.65805
 Alpha  occ. eigenvalues --   -0.64138  -0.60292  -0.58588  -0.57744  -0.55812
 Alpha  occ. eigenvalues --   -0.54634  -0.53362  -0.52034  -0.50967  -0.49999
 Alpha  occ. eigenvalues --   -0.48472  -0.47881  -0.46044  -0.45469  -0.44609
 Alpha  occ. eigenvalues --   -0.44029  -0.42263  -0.41357  -0.40544  -0.39550
 Alpha  occ. eigenvalues --   -0.38418  -0.37951  -0.36001  -0.34794  -0.33380
 Alpha  occ. eigenvalues --   -0.32112
 Alpha virt. eigenvalues --   -0.00059   0.00765   0.00904   0.01013   0.02152
 Alpha virt. eigenvalues --    0.02457   0.02615   0.03444   0.03696   0.04329
 Alpha virt. eigenvalues --    0.04502   0.04712   0.05472   0.05779   0.07262
 Alpha virt. eigenvalues --    0.07383   0.07826   0.08006   0.09242   0.09296
 Alpha virt. eigenvalues --    0.09899   0.10428   0.10635   0.11479   0.12052
 Alpha virt. eigenvalues --    0.12451   0.12661   0.12967   0.13111   0.13383
 Alpha virt. eigenvalues --    0.13673   0.14065   0.14225   0.14524   0.14907
 Alpha virt. eigenvalues --    0.15161   0.15564   0.15613   0.15924   0.16210
 Alpha virt. eigenvalues --    0.16552   0.16889   0.17260   0.17507   0.17823
 Alpha virt. eigenvalues --    0.17993   0.18531   0.18907   0.19145   0.19463
 Alpha virt. eigenvalues --    0.19976   0.20197   0.20591   0.20925   0.21359
 Alpha virt. eigenvalues --    0.21844   0.22717   0.22798   0.23376   0.23787
 Alpha virt. eigenvalues --    0.24872   0.24878   0.26276   0.26666   0.26931
 Alpha virt. eigenvalues --    0.27232   0.28225   0.28539   0.28889   0.29131
 Alpha virt. eigenvalues --    0.29547   0.30337   0.30551   0.31224   0.31748
 Alpha virt. eigenvalues --    0.32273   0.33068   0.33150   0.34189   0.34468
 Alpha virt. eigenvalues --    0.34856   0.35239   0.35731   0.36072   0.36414
 Alpha virt. eigenvalues --    0.36812   0.37274   0.37641   0.37768   0.38006
 Alpha virt. eigenvalues --    0.38428   0.38949   0.39588   0.40091   0.40706
 Alpha virt. eigenvalues --    0.41196   0.42256   0.42804   0.43887   0.45094
 Alpha virt. eigenvalues --    0.45420   0.47081   0.48548   0.49741   0.50332
 Alpha virt. eigenvalues --    0.51804   0.52855   0.53338   0.54000   0.54292
 Alpha virt. eigenvalues --    0.55928   0.56724   0.57914   0.58617   0.59140
 Alpha virt. eigenvalues --    0.60228   0.60555   0.60709   0.61062   0.62332
 Alpha virt. eigenvalues --    0.62423   0.62572   0.63539   0.63804   0.64088
 Alpha virt. eigenvalues --    0.64296   0.65272   0.65557   0.66247   0.66476
 Alpha virt. eigenvalues --    0.67263   0.68206   0.69310   0.69930   0.70113
 Alpha virt. eigenvalues --    0.70379   0.71273   0.71872   0.72292   0.73338
 Alpha virt. eigenvalues --    0.73555   0.73850   0.74303   0.75080   0.75559
 Alpha virt. eigenvalues --    0.75974   0.76541   0.76969   0.78580   0.78943
 Alpha virt. eigenvalues --    0.80976   0.82905   0.84847   0.85070   0.85473
 Alpha virt. eigenvalues --    0.86506   0.86931   0.87559   0.88194   0.89001
 Alpha virt. eigenvalues --    0.90490   0.91085   0.92407   0.93181   0.95669
 Alpha virt. eigenvalues --    0.96739   0.98624   1.00199   1.00934   1.01488
 Alpha virt. eigenvalues --    1.03477   1.04115   1.04769   1.05121   1.06218
 Alpha virt. eigenvalues --    1.07062   1.08458   1.10929   1.11080   1.12017
 Alpha virt. eigenvalues --    1.12727   1.12804   1.14792   1.15483   1.17156
 Alpha virt. eigenvalues --    1.17471   1.18369   1.18758   1.19181   1.20495
 Alpha virt. eigenvalues --    1.20800   1.21740   1.22288   1.23300   1.24393
 Alpha virt. eigenvalues --    1.24693   1.25672   1.26014   1.27185   1.27480
 Alpha virt. eigenvalues --    1.28209   1.29018   1.29661   1.30537   1.31214
 Alpha virt. eigenvalues --    1.31875   1.32595   1.33003   1.33542   1.33758
 Alpha virt. eigenvalues --    1.34889   1.35159   1.36088   1.36896   1.37630
 Alpha virt. eigenvalues --    1.37993   1.38975   1.40313   1.40692   1.40918
 Alpha virt. eigenvalues --    1.41650   1.42023   1.42779   1.44303   1.44877
 Alpha virt. eigenvalues --    1.46009   1.46576   1.46984   1.47424   1.47596
 Alpha virt. eigenvalues --    1.48606   1.48987   1.50020   1.51354   1.52353
 Alpha virt. eigenvalues --    1.53016   1.53152   1.54122   1.55114   1.55256
 Alpha virt. eigenvalues --    1.55908   1.56544   1.57439   1.58137   1.58610
 Alpha virt. eigenvalues --    1.59522   1.60003   1.60320   1.61195   1.62898
 Alpha virt. eigenvalues --    1.63429   1.63695   1.65116   1.66366   1.66802
 Alpha virt. eigenvalues --    1.68031   1.68677   1.70285   1.71934   1.72764
 Alpha virt. eigenvalues --    1.73523   1.74340   1.75217   1.76632   1.77458
 Alpha virt. eigenvalues --    1.77978   1.79024   1.80064   1.81234   1.83270
 Alpha virt. eigenvalues --    1.85523   1.87067   1.92372   1.93610   2.00040
 Alpha virt. eigenvalues --    2.03449   2.06629   2.13640   2.17221   2.20207
 Alpha virt. eigenvalues --    2.24482   2.25969   2.29120   2.34320   2.38665
 Alpha virt. eigenvalues --    2.41754   2.43034   2.45598   2.45785   2.52094
 Alpha virt. eigenvalues --    2.60840   2.75769   2.76556   2.79990   2.80326
 Alpha virt. eigenvalues --    2.82335   2.89741   2.92422   2.92916   2.93437
 Alpha virt. eigenvalues --    2.96686   2.97319   2.99728   3.02362   3.02893
 Alpha virt. eigenvalues --    3.05478   3.07228   3.07395   3.08272   3.10318
 Alpha virt. eigenvalues --    3.13463   3.15475   3.17462   3.20830   3.22147
 Alpha virt. eigenvalues --    3.22852   3.29662   3.31697   3.33412   3.34760
 Alpha virt. eigenvalues --    3.35428   3.37418   3.38032   3.40122   3.41010
 Alpha virt. eigenvalues --    3.42535   3.43229   3.43871   3.45088   3.46294
 Alpha virt. eigenvalues --    3.47414   3.48550   3.48839   3.51161   3.52263
 Alpha virt. eigenvalues --    3.52657   3.53552   3.54294   3.55365   3.55990
 Alpha virt. eigenvalues --    3.56761   3.57288   3.57958   3.59098   3.59616
 Alpha virt. eigenvalues --    3.60507   3.61803   3.62546   3.64710   3.65674
 Alpha virt. eigenvalues --    3.65767   3.66971   3.67619   3.68027   3.69088
 Alpha virt. eigenvalues --    3.70087   3.70505   3.72045   3.72923   3.74303
 Alpha virt. eigenvalues --    3.74584   3.74788   3.76070   3.76344   3.77512
 Alpha virt. eigenvalues --    3.78378   3.79370   3.79807   3.82677   3.84491
 Alpha virt. eigenvalues --    3.85867   3.87892   3.89474   3.91263   3.92697
 Alpha virt. eigenvalues --    3.93204   3.93855   3.94299   3.95802   3.97835
 Alpha virt. eigenvalues --    3.99371   4.00386   4.02899   4.03349   4.04863
 Alpha virt. eigenvalues --    4.05789   4.06332   4.06811   4.07060   4.07344
 Alpha virt. eigenvalues --    4.07488   4.08073   4.08699   4.09457   4.11733
 Alpha virt. eigenvalues --    4.12154   4.12260   4.13924   4.14514   4.15933
 Alpha virt. eigenvalues --    4.16414   4.17327   4.17890   4.19003   4.19510
 Alpha virt. eigenvalues --    4.21984   4.23638   4.24262   4.25563   4.26672
 Alpha virt. eigenvalues --    4.27687   4.29232   4.30377   4.31685   4.32227
 Alpha virt. eigenvalues --    4.33180   4.33580   4.36112   4.37054   4.39490
 Alpha virt. eigenvalues --    4.41575   4.42535   4.44823   4.46675   4.48982
 Alpha virt. eigenvalues --    4.57864   4.61122   4.74690   4.77201   4.82699
 Alpha virt. eigenvalues --    4.85198   4.92569   4.95258   4.99323   5.00960
 Alpha virt. eigenvalues --    5.06197   5.06854   5.08015   5.08617   5.11870
 Alpha virt. eigenvalues --    5.12291   5.13867   5.14796   5.30352   5.37071
 Alpha virt. eigenvalues --    5.39890   5.57371   5.58949   5.64171   5.86799
 Alpha virt. eigenvalues --    5.87442   6.05551   7.03804   7.05454   7.05991
 Alpha virt. eigenvalues --    7.06799   7.10291   7.13108   7.13565   7.19609
 Alpha virt. eigenvalues --    7.26489   7.35992   7.38022   7.46376   7.54083
 Alpha virt. eigenvalues --    7.54783   7.65957  23.95740  23.97111  24.05357
 Alpha virt. eigenvalues --   24.08732  24.11407  24.11985  24.14536  24.15058
 Alpha virt. eigenvalues --   24.16094  24.20522  50.17684  50.17724  50.25340
          Condensed to atoms (all electrons):
               1          2          3          4          5          6
     1  C    5.739725   0.278988   0.035123  -0.077817   0.000551   0.002706
     2  C    0.278988   7.383909  -1.069348  -0.195061  -0.001777  -0.036790
     3  C    0.035123  -1.069348   8.547649   0.031262   0.050057   0.321669
     4  C   -0.077817  -0.195061   0.031262   5.754914   0.000072  -0.003937
     5  O    0.000551  -0.001777   0.050057   0.000072   8.327984   0.114518
     6  C    0.002706  -0.036790   0.321669  -0.003937   0.114518   5.471869
     7  C   -0.088163  -0.506724   0.136868   0.012864   0.000612   0.001484
     8  C   -0.007357   0.204808  -1.518905  -0.008360  -0.042878  -0.193616
     9  C   -0.032448   0.154273  -0.724342   0.002652   0.160078  -0.254493
    10  C   -0.005372  -0.063708  -0.205639   0.007200  -0.039951   0.004165
    11  O   -0.060889   0.265443   0.043761   0.007713   0.000500   0.001912
    12  O   -0.018201   0.380064   0.110006  -0.025663  -0.003868   0.009021
    13  C   -0.125156  -1.022700   0.146789  -0.037852   0.001886   0.002846
    14  H    0.496478   0.000006  -0.004508  -0.019703  -0.000001  -0.000040
    15  H    0.434724   0.008744   0.001349  -0.045769  -0.000021   0.000027
    16  H   -0.002129  -0.039827   0.500859  -0.006530  -0.011926   0.011455
    17  H   -0.018161   0.018246   0.005337   0.422130   0.000007   0.000115
    18  H   -0.071794  -0.021313  -0.008541   0.527183   0.000037  -0.000881
    19  H   -0.000032  -0.002705  -0.000479   0.000009  -0.070356   0.431025
    20  H    0.000028   0.002148   0.037457   0.000167  -0.042811   0.457688
    21  H   -0.108571  -0.003436  -0.037840   0.019973   0.001307  -0.003159
    22  H   -0.020507  -0.016017   0.014841   0.005694   0.000006   0.000353
    23  H    0.001655   0.027316  -0.064272   0.000291  -0.000759  -0.016299
    24  H   -0.002571   0.003888  -0.069562   0.008581  -0.001172  -0.015354
    25  H   -0.000084   0.000986  -0.030519   0.000767   0.000375  -0.082738
    26  H    0.000036  -0.000527  -0.019021  -0.000295   0.006286  -0.041570
    27  H   -0.019129  -0.156618   0.008520   0.000830   0.000000  -0.000113
    28  H   -0.003092  -0.026389  -0.014039  -0.043567   0.000038  -0.000475
    29  H    0.025081   0.523206   0.051665  -0.039026  -0.000755   0.010263
    30  H   -0.000402  -0.006590   0.012374   0.001959  -0.029674   0.004285
    31  H    0.006018   0.012411  -0.068811  -0.006549  -0.088621   0.004986
               7          8          9         10         11         12
     1  C   -0.088163  -0.007357  -0.032448  -0.005372  -0.060889  -0.018201
     2  C   -0.506724   0.204808   0.154273  -0.063708   0.265443   0.380064
     3  C    0.136868  -1.518905  -0.724342  -0.205639   0.043761   0.110006
     4  C    0.012864  -0.008360   0.002652   0.007200   0.007713  -0.025663
     5  O    0.000612  -0.042878   0.160078  -0.039951   0.000500  -0.003868
     6  C    0.001484  -0.193616  -0.254493   0.004165   0.001912   0.009021
     7  C    5.508944  -0.041143  -0.000639   0.004419   0.107387   0.001868
     8  C   -0.041143   6.838779   0.237427  -0.007667  -0.008828  -0.129870
     9  C   -0.000639   0.237427   6.145992   0.170224  -0.023277  -0.148692
    10  C    0.004419  -0.007667   0.170224   5.726020   0.003489  -0.016593
    11  O    0.107387  -0.008828  -0.023277   0.003489   8.202394  -0.056304
    12  O    0.001868  -0.129870  -0.148692  -0.016593  -0.056304   8.266927
    13  C    0.202599  -0.025147  -0.108625   0.038172  -0.028835  -0.095076
    14  H   -0.090171   0.001077  -0.000564  -0.000035  -0.003301  -0.000744
    15  H   -0.034621  -0.000536   0.001098  -0.000072   0.009816   0.001045
    16  H    0.007772  -0.026892  -0.065097  -0.011017   0.000618  -0.021800
    17  H    0.007912  -0.001456  -0.001443   0.000223  -0.003387  -0.000394
    18  H    0.000937   0.006922   0.002920   0.000022   0.002311  -0.004876
    19  H    0.000067   0.009754   0.017021  -0.045905   0.000022   0.000838
    20  H    0.000323  -0.024714  -0.035996  -0.039774   0.000022  -0.001064
    21  H    0.489366   0.006481   0.016959   0.000798  -0.037156   0.011176
    22  H    0.438718  -0.000611  -0.002394  -0.000092  -0.073426   0.000910
    23  H   -0.003286   0.521517  -0.023112  -0.069608  -0.001741   0.006902
    24  H    0.003441   0.413845   0.009331   0.047172   0.002605  -0.008749
    25  H    0.000569  -0.019523   0.006126   0.497765  -0.000001   0.000424
    26  H   -0.000359  -0.014564   0.002858   0.428177  -0.000051  -0.001686
    27  H    0.014706  -0.001210  -0.003516   0.000656  -0.006184   0.008855
    28  H    0.004375   0.010005   0.001409  -0.000405   0.006977   0.000146
    29  H   -0.023962  -0.007379   0.005975  -0.036536  -0.071484  -0.023779
    30  H    0.003473  -0.036958   0.374246  -0.006897   0.000068   0.006103
    31  H   -0.004571   0.046874   0.400374   0.011111  -0.000105   0.007845
              13         14         15         16         17         18
     1  C   -0.125156   0.496478   0.434724  -0.002129  -0.018161  -0.071794
     2  C   -1.022700   0.000006   0.008744  -0.039827   0.018246  -0.021313
     3  C    0.146789  -0.004508   0.001349   0.500859   0.005337  -0.008541
     4  C   -0.037852  -0.019703  -0.045769  -0.006530   0.422130   0.527183
     5  O    0.001886  -0.000001  -0.000021  -0.011926   0.000007   0.000037
     6  C    0.002846  -0.000040   0.000027   0.011455   0.000115  -0.000881
     7  C    0.202599  -0.090171  -0.034621   0.007772   0.007912   0.000937
     8  C   -0.025147   0.001077  -0.000536  -0.026892  -0.001456   0.006922
     9  C   -0.108625  -0.000564   0.001098  -0.065097  -0.001443   0.002920
    10  C    0.038172  -0.000035  -0.000072  -0.011017   0.000223   0.000022
    11  O   -0.028835  -0.003301   0.009816   0.000618  -0.003387   0.002311
    12  O   -0.095076  -0.000744   0.001045  -0.021800  -0.000394  -0.004876
    13  C    6.677079  -0.009487  -0.003849  -0.010394  -0.054750  -0.051216
    14  H   -0.009487   0.484025  -0.012722  -0.000040  -0.002946   0.001795
    15  H   -0.003849  -0.012722   0.490612  -0.000205  -0.006703  -0.004699
    16  H   -0.010394  -0.000040  -0.000205   0.413752  -0.000220  -0.000029
    17  H   -0.054750  -0.002946  -0.006703  -0.000220   0.466174  -0.006035
    18  H   -0.051216   0.001795  -0.004699  -0.000029  -0.006035   0.457070
    19  H    0.000053  -0.000004   0.000002   0.000465   0.000006  -0.000037
    20  H    0.001040  -0.000006   0.000005  -0.002162   0.000004  -0.000004
    21  H    0.011170   0.003584   0.000238  -0.000537  -0.001396  -0.001051
    22  H    0.002050  -0.006675  -0.008604  -0.000588   0.001654  -0.002258
    23  H   -0.014731   0.000020   0.000060   0.002895  -0.000021  -0.000274
    24  H    0.012813  -0.000221   0.000008  -0.003244   0.000015   0.000349
    25  H    0.001313  -0.000013   0.000011  -0.005447   0.000020   0.000022
    26  H    0.000376   0.000011  -0.000008  -0.002299  -0.000010   0.000025
    27  H    0.541947  -0.001835  -0.002581   0.000428  -0.002910   0.002036
    28  H    0.433599  -0.001866   0.001259  -0.000738  -0.007731  -0.002610
    29  H   -0.124949   0.000067   0.001988  -0.002302   0.002049  -0.003081
    30  H    0.010338  -0.000082   0.000008  -0.002273   0.000373  -0.001057
    31  H    0.005912   0.000302   0.000133  -0.006645  -0.000181   0.000369
              19         20         21         22         23         24
     1  C   -0.000032   0.000028  -0.108571  -0.020507   0.001655  -0.002571
     2  C   -0.002705   0.002148  -0.003436  -0.016017   0.027316   0.003888
     3  C   -0.000479   0.037457  -0.037840   0.014841  -0.064272  -0.069562
     4  C    0.000009   0.000167   0.019973   0.005694   0.000291   0.008581
     5  O   -0.070356  -0.042811   0.001307   0.000006  -0.000759  -0.001172
     6  C    0.431025   0.457688  -0.003159   0.000353  -0.016299  -0.015354
     7  C    0.000067   0.000323   0.489366   0.438718  -0.003286   0.003441
     8  C    0.009754  -0.024714   0.006481  -0.000611   0.521517   0.413845
     9  C    0.017021  -0.035996   0.016959  -0.002394  -0.023112   0.009331
    10  C   -0.045905  -0.039774   0.000798  -0.000092  -0.069608   0.047172
    11  O    0.000022   0.000022  -0.037156  -0.073426  -0.001741   0.002605
    12  O    0.000838  -0.001064   0.011176   0.000910   0.006902  -0.008749
    13  C    0.000053   0.001040   0.011170   0.002050  -0.014731   0.012813
    14  H   -0.000004  -0.000006   0.003584  -0.006675   0.000020  -0.000221
    15  H    0.000002   0.000005   0.000238  -0.008604   0.000060   0.000008
    16  H    0.000465  -0.002162  -0.000537  -0.000588   0.002895  -0.003244
    17  H    0.000006   0.000004  -0.001396   0.001654  -0.000021   0.000015
    18  H   -0.000037  -0.000004  -0.001051  -0.002258  -0.000274   0.000349
    19  H    0.473001  -0.007773  -0.000074   0.000011  -0.000547   0.000767
    20  H   -0.007773   0.502174  -0.000017   0.000003  -0.007392   0.002222
    21  H   -0.000074  -0.000017   0.529530  -0.019235  -0.000049  -0.000087
    22  H    0.000011   0.000003  -0.019235   0.481412  -0.000120   0.000176
    23  H   -0.000547  -0.007392  -0.000049  -0.000120   0.445468  -0.016215
    24  H    0.000767   0.002222  -0.000087   0.000176  -0.016215   0.503089
    25  H   -0.004003   0.003486   0.000149  -0.000018   0.000287  -0.000287
    26  H   -0.008566   0.002293   0.000003   0.000004  -0.001825  -0.012363
    27  H    0.000006   0.000015  -0.001783   0.000217  -0.000101   0.001301
    28  H   -0.000030   0.000168   0.000300   0.001102  -0.001122   0.000472
    29  H   -0.000197  -0.000739  -0.001356   0.000559   0.003982  -0.018959
    30  H   -0.002885   0.013020   0.000976   0.000143  -0.005773   0.000258
    31  H    0.002556  -0.004627  -0.007647   0.000950   0.000356  -0.001791
              25         26         27         28         29         30
     1  C   -0.000084   0.000036  -0.019129  -0.003092   0.025081  -0.000402
     2  C    0.000986  -0.000527  -0.156618  -0.026389   0.523206  -0.006590
     3  C   -0.030519  -0.019021   0.008520  -0.014039   0.051665   0.012374
     4  C    0.000767  -0.000295   0.000830  -0.043567  -0.039026   0.001959
     5  O    0.000375   0.006286   0.000000   0.000038  -0.000755  -0.029674
     6  C   -0.082738  -0.041570  -0.000113  -0.000475   0.010263   0.004285
     7  C    0.000569  -0.000359   0.014706   0.004375  -0.023962   0.003473
     8  C   -0.019523  -0.014564  -0.001210   0.010005  -0.007379  -0.036958
     9  C    0.006126   0.002858  -0.003516   0.001409   0.005975   0.374246
    10  C    0.497765   0.428177   0.000656  -0.000405  -0.036536  -0.006897
    11  O   -0.000001  -0.000051  -0.006184   0.006977  -0.071484   0.000068
    12  O    0.000424  -0.001686   0.008855   0.000146  -0.023779   0.006103
    13  C    0.001313   0.000376   0.541947   0.433599  -0.124949   0.010338
    14  H   -0.000013   0.000011  -0.001835  -0.001866   0.000067  -0.000082
    15  H    0.000011  -0.000008  -0.002581   0.001259   0.001988   0.000008
    16  H   -0.005447  -0.002299   0.000428  -0.000738  -0.002302  -0.002273
    17  H    0.000020  -0.000010  -0.002910  -0.007731   0.002049   0.000373
    18  H    0.000022   0.000025   0.002036  -0.002610  -0.003081  -0.001057
    19  H   -0.004003  -0.008566   0.000006  -0.000030  -0.000197  -0.002885
    20  H    0.003486   0.002293   0.000015   0.000168  -0.000739   0.013020
    21  H    0.000149   0.000003  -0.001783   0.000300  -0.001356   0.000976
    22  H   -0.000018   0.000004   0.000217   0.001102   0.000559   0.000143
    23  H    0.000287  -0.001825  -0.000101  -0.001122   0.003982  -0.005773
    24  H   -0.000287  -0.012363   0.001301   0.000472  -0.018959   0.000258
    25  H    0.470788  -0.007923  -0.000037   0.000136  -0.001581   0.003231
    26  H   -0.007923   0.490448   0.000017  -0.000038   0.000329  -0.004106
    27  H   -0.000037   0.000017   0.451013  -0.003520  -0.017340  -0.000126
    28  H    0.000136  -0.000038  -0.003520   0.472056  -0.006766   0.000371
    29  H   -0.001581   0.000329  -0.017340  -0.006766   0.473646  -0.001636
    30  H    0.003231  -0.004106  -0.000126   0.000371  -0.001636   0.502985
    31  H   -0.002831   0.003421   0.000308  -0.000360   0.000623  -0.029409
              31
     1  C    0.006018
     2  C    0.012411
     3  C   -0.068811
     4  C   -0.006549
     5  O   -0.088621
     6  C    0.004986
     7  C   -0.004571
     8  C    0.046874
     9  C    0.400374
    10  C    0.011111
    11  O   -0.000105
    12  O    0.007845
    13  C    0.005912
    14  H    0.000302
    15  H    0.000133
    16  H   -0.006645
    17  H   -0.000181
    18  H    0.000369
    19  H    0.002556
    20  H   -0.004627
    21  H   -0.007647
    22  H    0.000950
    23  H    0.000356
    24  H   -0.001791
    25  H   -0.002831
    26  H    0.003421
    27  H    0.000308
    28  H   -0.000360
    29  H    0.000623
    30  H   -0.029409
    31  H    0.514113
 Mulliken charges:
               1
     1  C   -0.359239
     2  C   -0.094906
     3  C   -0.219760
     4  C   -0.294133
     5  O   -0.329745
     6  C   -0.200920
     7  C   -0.155066
     8  C   -0.179878
     9  C   -0.284324
    10  C   -0.390339
    11  O   -0.280068
    12  O   -0.254773
    13  C   -0.377218
    14  H    0.167599
    15  H    0.169263
    16  H    0.284098
    17  H    0.183479
    18  H    0.177758
    19  H    0.207989
    20  H    0.144816
    21  H    0.131384
    22  H    0.201745
    23  H    0.216499
    24  H    0.140244
    25  H    0.168551
    26  H    0.180926
    27  H    0.186149
    28  H    0.180336
    29  H    0.282394
    30  H    0.193654
    31  H    0.203485
 Sum of Mulliken charges =  -0.00000
 Mulliken charges with hydrogens summed into heavy atoms:
               1
     1  C   -0.022377
     2  C    0.187488
     3  C    0.064338
     4  C    0.067105
     5  O   -0.329745
     6  C    0.151884
     7  C    0.178063
     8  C    0.176864
     9  C    0.112815
    10  C   -0.040862
    11  O   -0.280068
    12  O   -0.254773
    13  C   -0.010733
 Electronic spatial extent (au):  <R**2>=           3127.3378
 Charge=              0.0000 electrons
 Dipole moment (field-independent basis, Debye):
    X=              0.5759    Y=              1.9681    Z=             -0.8005  Tot=              2.2013
 Quadrupole moment (field-independent basis, Debye-Ang):
   XX=            -72.4990   YY=            -79.3444   ZZ=            -83.0921
   XY=             -7.8489   XZ=             -1.6065   YZ=              0.4221
 Traceless Quadrupole moment (field-independent basis, Debye-Ang):
   XX=              5.8128   YY=             -1.0326   ZZ=             -4.7802
   XY=             -7.8489   XZ=             -1.6065   YZ=              0.4221
 Octapole moment (field-independent basis, Debye-Ang**2):
  XXX=             -3.0654  YYY=              2.4572  ZZZ=             -3.4700  XYY=             16.5957
  XXY=             17.8899  XXZ=             -3.9501  XZZ=             -7.5470  YZZ=             -1.7479
  YYZ=              3.1274  XYZ=             -2.3896
 Hexadecapole moment (field-independent basis, Debye-Ang**3):
 XXXX=          -3097.6774 YYYY=           -558.4856 ZZZZ=           -357.9539 XXXY=            -60.2276
 XXXZ=             -0.1335 YYYX=            -19.7590 YYYZ=              1.2435 ZZZX=              3.9550
 ZZZY=             -3.4122 XXYY=           -657.9825 XXZZ=           -605.2486 YYZZ=           -146.3839
 XXYZ=            -10.5720 YYXZ=              5.7945 ZZXY=             -0.7930
 N-N= 8.906140148610D+02 E-N=-3.223046222095D+03  KE= 6.153490848254D+02
 D1PCM: PCM CHGder 1st derivatives, ID1Alg=3 FixD1E=F DoIter=F DoCFld=F I1PDM=0.
 Calling FoFJK, ICntrl=      2127 FMM=F ISym2X=0 I1Cent= 0 IOpClX= 0 NMat=1 NMatS=1 NMatT=0.
 ***** Axes restored to original set *****
 -------------------------------------------------------------------
 Center     Atomic                   Forces (Hartrees/Bohr)
 Number     Number              X              Y              Z
 -------------------------------------------------------------------
      1        6           0.002442972   -0.000118112    0.001474347
      2        6          -0.004088859   -0.005970272    0.003545763
      3        6          -0.000748295    0.003154666    0.001989289
      4        6           0.001229944    0.000100520   -0.003830677
      5        8           0.002295496   -0.007875914   -0.003295447
      6        6          -0.006177793    0.001924767   -0.002579721
      7        6          -0.002021072    0.005140271    0.003860651
      8        6           0.002247022   -0.004421278   -0.000393733
      9        6           0.003550445    0.004434709   -0.004799420
     10        6          -0.000834286    0.000291327    0.002383107
     11        8           0.001638041    0.001822508   -0.011185441
     12        8          -0.001422567   -0.000986681    0.012343968
     13        6           0.000648796   -0.002403730    0.001250333
     14        1          -0.001615914    0.001858236   -0.002257140
     15        1          -0.001474868   -0.002052378    0.001315758
     16        1          -0.000090408   -0.002672643   -0.006370528
     17        1          -0.002061806    0.001019004    0.001147836
     18        1           0.002799867   -0.001670529    0.001622573
     19        1           0.003826257   -0.001360676   -0.001620167
     20        1           0.000433048    0.002851134    0.005496296
     21        1           0.003480642   -0.003069845    0.004463556
     22        1          -0.001373734   -0.002279221   -0.003536962
     23        1          -0.000388330    0.000474684    0.003761974
     24        1          -0.001613404    0.002363560   -0.002175608
     25        1          -0.000168377   -0.001446459   -0.002881711
     26        1           0.001616141    0.002540010    0.000053069
     27        1          -0.002014225    0.001425143   -0.002346962
     28        1           0.001432794    0.001618602    0.002341988
     29        1           0.002809046    0.005791200   -0.005005216
     30        1          -0.001039236    0.003199922    0.005764019
     31        1          -0.003317336   -0.003682526   -0.000535794
 -------------------------------------------------------------------
 Cartesian Forces:  Max     0.012343968 RMS     0.003386843

 GradGradGradGradGradGradGradGradGradGradGradGradGradGradGradGradGradGrad
 Berny optimization.
 FormGI is forming the generalized inverse of G from B-inverse, IUseBI=4.
 Internal  Forces:  Max     0.011471021 RMS     0.002021381
 Search for a local minimum.
 Step number   1 out of a maximum of  186
 All quantities printed in internal units (Hartrees-Bohrs-Radians)
 Mixed Optimization -- RFO/linear search
 Second derivative matrix not updated -- first step.
 ITU=  0
     Eigenvalues ---    0.00625   0.00636   0.00728   0.00744   0.01411
     Eigenvalues ---    0.01453   0.01707   0.02701   0.02751   0.03076
     Eigenvalues ---    0.03153   0.04094   0.04198   0.04580   0.04749
     Eigenvalues ---    0.04867   0.04888   0.05126   0.05140   0.05167
     Eigenvalues ---    0.05249   0.05685   0.05740   0.06160   0.06168
     Eigenvalues ---    0.06404   0.06559   0.06995   0.07601   0.07834
     Eigenvalues ---    0.07854   0.07966   0.07996   0.08112   0.08234
     Eigenvalues ---    0.08830   0.09286   0.09304   0.10867   0.11605
     Eigenvalues ---    0.11611   0.11705   0.11764   0.12402   0.12495
     Eigenvalues ---    0.14569   0.14749   0.16249   0.16485   0.17562
     Eigenvalues ---    0.19179   0.21209   0.21947   0.25000   0.28508
     Eigenvalues ---    0.28661   0.28697   0.28870   0.28949   0.29096
     Eigenvalues ---    0.30264   0.30360   0.35058   0.35083   0.35085
     Eigenvalues ---    0.35094   0.35146   0.35198   0.35218   0.35241
     Eigenvalues ---    0.35296   0.35320   0.35433   0.35437   0.35438
     Eigenvalues ---    0.35457   0.35831   0.35850   0.35862   0.36019
     Eigenvalues ---    0.40801   0.41369   0.42406   0.43018   0.43410
     Eigenvalues ---    0.458171000.000001000.000001000.000001000.00000
     Eigenvalues --- 1000.000001000.000001000.000001000.000001000.00000
     Eigenvalues --- 1000.000001000.000001000.000001000.000001000.00000
     Eigenvalues --- 1000.000001000.000001000.000001000.000001000.00000
     Eigenvalues --- 1000.000001000.000001000.000001000.000001000.00000
     Eigenvalues --- 1000.000001000.000001000.000001000.000001000.00000
     Eigenvalues --- 1000.000001000.000001000.000001000.000001000.00000
     Eigenvalues --- 1000.000001000.000001000.000001000.000001000.00000
     Eigenvalues --- 1000.000001000.000001000.000001000.000001000.00000
     Eigenvalues --- 1000.000001000.000001000.000001000.000001000.00000
     Eigenvalues --- 1000.000001000.000001000.000001000.000001000.00000
     Eigenvalues --- 1000.000001000.000001000.000001000.000001000.00000
     Eigenvalues --- 1000.000001000.000001000.000001000.000001000.00000
     Eigenvalues --- 1000.000001000.000001000.000001000.000001000.00000
     Eigenvalues --- 1000.000001000.000001000.000001000.000001000.00000
     Eigenvalues --- 1000.000001000.000001000.000001000.000001000.00000
     Eigenvalues --- 1000.000001000.000001000.000001000.000001000.00000
     Eigenvalues --- 1000.000001000.000001000.000001000.000001000.00000
     Eigenvalues --- 1000.000001000.000001000.000001000.000001000.00000
     Eigenvalues --- 1000.000001000.000001000.000001000.000001000.00000
 RFO step:  Lambda=-3.12856042D-03 EMin= 6.25080214D-03
 Linear search not attempted -- first point.
 Iteration  1 RMS(Cart)=  0.04611362 RMS(Int)=  0.00047938
 Iteration  2 RMS(Cart)=  0.00156246 RMS(Int)=  0.00004543
 Iteration  3 RMS(Cart)=  0.00000069 RMS(Int)=  0.00004543
 Iteration  1 RMS(Cart)=  0.00000438 RMS(Int)=  0.00000104
 Iteration  2 RMS(Cart)=  0.00000241 RMS(Int)=  0.00000116
 Iteration  3 RMS(Cart)=  0.00000133 RMS(Int)=  0.00000131
 Iteration  4 RMS(Cart)=  0.00000073 RMS(Int)=  0.00000141
 Variable       Old X    -DE/DX   Delta X   Delta X   Delta X     New X
                                 (Linear)    (Quad)   (Total)
    R1        2.88884  -0.00090   0.00000  -0.00255  -0.00257   2.88627
    R2        2.87143   0.00009   0.00000   0.00059   0.00062   2.87204
    R3        2.05523   0.00326   0.00000   0.00922   0.00922   2.06444
    R4        2.05286   0.00283   0.00000   0.00795   0.00795   2.06080
    R5        2.65350   0.00362   0.00000   0.00770   0.00772   2.66121
    R6        2.64339   0.00340   0.00000   0.00738   0.00738   2.65077
    R7        2.87355  -0.00070   0.00000  -0.00262  -0.00264   2.87092
    R8        2.04051   0.00812   0.00000   0.02234   0.02234   2.06286
    R9        2.88295  -0.00139   0.00000  -0.00479  -0.00481   2.87814
   R10        2.87691  -0.00074   0.00000  -0.00235  -0.00234   2.87456
   R11        2.67647   0.00182   0.00000   0.00420   0.00420   2.68067
   R12        2.04940   0.00686   0.00000   0.01917   0.01917   2.06856
   R13        2.89027  -0.00151   0.00000  -0.00499  -0.00500   2.88527
   R14        2.05159   0.00257   0.00000   0.00721   0.00721   2.05879
   R15        2.05354   0.00345   0.00000   0.00972   0.00972   2.06326
   R16        2.67732   0.00330   0.00000   0.00776   0.00779   2.68511
   R17        2.66529   0.00300   0.00000   0.00690   0.00692   2.67221
   R18        2.87218   0.00024   0.00000   0.00072   0.00072   2.87290
   R19        2.04347   0.00437   0.00000   0.01209   0.01209   2.05556
   R20        2.05541   0.00608   0.00000   0.01718   0.01718   2.07258
   R21        2.68710   0.00314   0.00000   0.00731   0.00732   2.69442
   R22        2.04971   0.00633   0.00000   0.01772   0.01772   2.06742
   R23        2.04317   0.00442   0.00000   0.01223   0.01223   2.05540
   R24        2.89357  -0.00070   0.00000  -0.00254  -0.00256   2.89101
   R25        2.05581   0.00366   0.00000   0.01034   0.01034   2.06615
   R26        2.04978   0.00358   0.00000   0.01002   0.01002   2.05980
   R27        2.05536   0.00636   0.00000   0.01797   0.01797   2.07333
   R28        2.04298   0.00490   0.00000   0.01356   0.01356   2.05654
   R29        2.05439   0.00316   0.00000   0.00890   0.00890   2.06329
   R30        2.05197   0.00299   0.00000   0.00839   0.00839   2.06036
   R31        2.05323   0.00335   0.00000   0.00943   0.00943   2.06266
   R32        2.04969   0.00317   0.00000   0.00886   0.00886   2.05855
    A1        1.92365  -0.00098   0.00000  -0.00558  -0.00579   1.91786
    A2        1.91612   0.00089   0.00000   0.00162   0.00170   1.91782
    A3        1.93893  -0.00051   0.00000  -0.00162  -0.00159   1.93734
    A4        1.90567   0.00004   0.00000  -0.00144  -0.00138   1.90429
    A5        1.90289   0.00058   0.00000   0.00366   0.00371   1.90660
    A6        1.87569   0.00000   0.00000   0.00361   0.00357   1.87926
    A7        1.93773   0.00052   0.00000  -0.00042  -0.00027   1.93746
    A8        1.94525   0.00328   0.00000   0.01246   0.01227   1.95752
    A9        1.82973  -0.00222   0.00000  -0.01011  -0.01012   1.81961
   A10        1.89782  -0.00330   0.00000  -0.01588  -0.01580   1.88202
   A11        1.91848   0.00174   0.00000   0.01126   0.01125   1.92973
   A12        1.93450   0.00012   0.00000   0.00351   0.00358   1.93808
   A13        1.92560  -0.00035   0.00000  -0.00438  -0.00443   1.92117
   A14        1.95764  -0.00071   0.00000  -0.00266  -0.00266   1.95498
   A15        1.91762   0.00071   0.00000   0.00245   0.00245   1.92007
   A16        1.85759   0.00039   0.00000   0.00067   0.00067   1.85827
   A17        1.89430  -0.00036   0.00000  -0.00243  -0.00242   1.89188
   A18        1.90928   0.00030   0.00000   0.00633   0.00632   1.91561
   A19        1.91393   0.00188   0.00000  -0.00195  -0.00197   1.91196
   A20        1.93026  -0.00027   0.00000   0.00202   0.00208   1.93235
   A21        1.91427  -0.00081   0.00000  -0.00151  -0.00160   1.91268
   A22        1.91576  -0.00054   0.00000   0.00163   0.00163   1.91738
   A23        1.92226  -0.00095   0.00000  -0.00602  -0.00603   1.91623
   A24        1.86695   0.00063   0.00000   0.00595   0.00596   1.87291
   A25        1.97923  -0.00434   0.00000  -0.02524  -0.02518   1.95406
   A26        1.93547   0.00196   0.00000   0.00861   0.00861   1.94408
   A27        1.85495  -0.00115   0.00000  -0.00345  -0.00344   1.85151
   A28        1.90202   0.00065   0.00000   0.00713   0.00717   1.90918
   A29        1.94589  -0.00039   0.00000  -0.00330  -0.00332   1.94257
   A30        1.93110  -0.00164   0.00000  -0.01001  -0.01004   1.92106
   A31        1.89212   0.00061   0.00000   0.00146   0.00142   1.89354
   A32        1.94462   0.00227   0.00000   0.00579   0.00574   1.95036
   A33        1.93219  -0.00166   0.00000  -0.00791  -0.00796   1.92424
   A34        1.94608  -0.00025   0.00000  -0.00177  -0.00171   1.94437
   A35        1.90885   0.00022   0.00000   0.00206   0.00212   1.91098
   A36        1.84173  -0.00130   0.00000  -0.00197  -0.00198   1.83975
   A37        1.88736   0.00074   0.00000   0.00420   0.00418   1.89154
   A38        1.91486   0.00137   0.00000  -0.00180  -0.00185   1.91301
   A39        1.89403  -0.00110   0.00000  -0.00731  -0.00731   1.88673
   A40        1.93451  -0.00043   0.00000  -0.00130  -0.00127   1.93324
   A41        1.91485  -0.00009   0.00000   0.00352   0.00352   1.91836
   A42        1.92802  -0.00023   0.00000   0.00285   0.00286   1.93088
   A43        1.87687   0.00044   0.00000   0.00403   0.00400   1.88087
   A44        1.93271   0.00181   0.00000   0.00834   0.00837   1.94108
   A45        1.91802  -0.00236   0.00000  -0.01639  -0.01645   1.90157
   A46        1.93141  -0.00089   0.00000  -0.00785  -0.00791   1.92351
   A47        1.91664   0.00120   0.00000   0.01142   0.01147   1.92811
   A48        1.86710  -0.00051   0.00000   0.00352   0.00353   1.87064
   A49        1.89703   0.00082   0.00000   0.00160   0.00144   1.89847
   A50        1.92848  -0.00111   0.00000  -0.00815  -0.00819   1.92028
   A51        1.90401  -0.00011   0.00000  -0.00213  -0.00214   1.90187
   A52        1.90856   0.00077   0.00000   0.00510   0.00512   1.91368
   A53        1.92015   0.00082   0.00000   0.00202   0.00201   1.92217
   A54        1.92735  -0.00027   0.00000   0.00027   0.00029   1.92764
   A55        1.87436  -0.00006   0.00000   0.00322   0.00322   1.87757
   A56        2.02341  -0.00568   0.00000  -0.03630  -0.03621   1.98720
   A57        2.04047  -0.01147   0.00000  -0.04532  -0.04532   1.99515
   A58        1.95323  -0.00160   0.00000  -0.01499  -0.01513   1.93810
   A59        1.87304   0.00009   0.00000   0.00383   0.00383   1.87687
   A60        1.90077   0.00072   0.00000  -0.00045  -0.00043   1.90035
   A61        1.91040   0.00115   0.00000   0.00713   0.00722   1.91762
   A62        1.94751  -0.00029   0.00000  -0.00139  -0.00148   1.94603
   A63        1.87581   0.00001   0.00000   0.00694   0.00691   1.88272
    D1        0.92401  -0.00008   0.00000   0.01007   0.01006   0.93407
    D2        3.03917   0.00030   0.00000   0.01212   0.01214   3.05131
    D3       -1.18900   0.00041   0.00000   0.01970   0.01973  -1.16927
    D4       -1.17580  -0.00008   0.00000   0.01434   0.01434  -1.16146
    D5        0.93936   0.00030   0.00000   0.01640   0.01642   0.95578
    D6        2.99437   0.00041   0.00000   0.02398   0.02401   3.01838
    D7        3.03515  -0.00034   0.00000   0.00985   0.00982   3.04496
    D8       -1.13288   0.00004   0.00000   0.01190   0.01190  -1.12098
    D9        0.92213   0.00016   0.00000   0.01949   0.01948   0.94162
   D10       -0.95645  -0.00133   0.00000  -0.02010  -0.02015  -0.97659
[...]
 004901,0.00038541,0.00011293,0.00032509,0.00000775,0.00000873,0.000014
 71,0.00000170,-0.00000114,0.00000046,0.00000233,0.00000184,-0.00000047
 ,0.00035918,0.00048024,0.00002466,0.00000519,0.00000283,-0.00000203,-0
 .00000024,-0.00000078,0.00000234,0.00000713,0.00014099,0.00103244,-0.0
 0136801,0.00322415,-0.00123456,-0.00000261,-0.00000426,-0.00000198,0.0
 0000498,0.00000345,0.00000266,0.00174029,-0.00044750,0.00058457,0.0002
 1182,-0.00000593,0.00065223,0.01720592,0.08954021,0.30403470,0.0000124
 6,-0.00001194,0.00001672,0.00094336,-0.00048873,0.00102220,-0.00193277
 ,0.00540413,0.00143730,-0.00000642,0.00004238,0.00001259,0.00119773,0.
 00333824,-0.00198938,0.00769481,0.00769832,0.00177227,0.00013126,0.000
 13110,-0.00004266,-0.02038126,-0.02365301,-0.00030854,-0.00066740,0.00
 078643,-0.00028980,-0.15809975,-0.13284153,-0.00435773,-0.00034418,-0.
 00018209,-0.00027699,-0.00327417,-0.00126316,0.00079878,-0.00006235,0.
 00001375,-0.00012972,-0.00000922,0.00000557,-0.00000461,-0.00001692,-0
 .00001102,0.00000580,0.00017234,0.00004011,-0.00018977,-0.00003497,-0.
 00000991,0.00000712,0.00000236,0.00001370,-0.00002571,0.00007691,-0.00
 063415,0.00071243,0.00037395,-0.00058969,0.00021624,0.00000465,0.00002
 025,0.00001014,-0.00002534,-0.00001640,-0.00001591,0.00135204,0.000070
 02,0.00009799,0.00113957,0.00001435,-0.00073331,-0.00146562,-0.0009095
 3,-0.00050726,0.17294026,-0.00000236,-0.00000013,-0.00000389,-0.000069
 47,0.00013471,-0.00015119,0.00198372,-0.00066121,-0.00061405,0.0000004
 0,-0.00000247,-0.00000034,0.00000327,-0.00602420,0.00511640,-0.0171401
 2,-0.01510078,-0.00447396,-0.00000216,-0.00000972,0.00000575,0.0087444
 1,0.01061506,0.00005397,0.00191943,-0.00037519,-0.00085382,-0.13262332
 ,-0.20421702,-0.00221280,0.00000471,0.00000115,0.00003134,0.00102480,0
 .00047248,-0.00038756,0.00000549,-0.00001186,0.00000982,-0.00000093,0.
 00000077,0.00000119,0.00000041,0.00000038,0.00000056,0.00001424,0.0000
 7323,0.00007743,0.00000261,-0.00000069,0.00000142,0.00000074,-0.000003
 10,0.00000325,0.00046044,0.00042832,-0.00056074,0.00007610,0.00093680,
 0.00023122,0.00000440,0.00000143,-0.00000251,-0.00000020,0.00000018,0.
 00000062,-0.00067930,0.00040467,0.00024532,-0.00080952,0.00050357,0.00
 031544,-0.00563060,-0.00784016,-0.00014714,0.14319858,0.22053615,-0.00
 000369,0.00000135,-0.00000213,-0.00018331,0.00012695,-0.00028269,0.000
 76732,-0.00168228,0.00021108,0.00000155,-0.00000961,-0.00000313,-0.000
 08743,0.00535094,-0.00194700,0.01447334,0.01244309,0.00071837,-0.00003
 390,-0.00002290,0.00000671,0.00796115,0.00854539,-0.00126739,-0.001099
 69,-0.00001409,0.00037987,-0.00554915,-0.00406371,-0.04847295,0.000075
 98,0.00004249,0.00007448,0.00100564,0.00020611,0.00010942,0.00002094,-
 0.00000794,0.00003371,0.00000281,-0.00000170,0.00000041,0.00000372,0.0
 0000259,-0.00000095,0.00019696,0.00046931,0.00009627,0.00000844,0.0000
 0206,-0.00000169,-0.00000027,-0.00000289,0.00000563,-0.00023074,-0.000
 35676,0.00052063,0.00023809,-0.00101618,0.00032453,-0.00000665,-0.0000
 0671,-0.00000255,0.00000670,0.00000289,0.00000495,-0.00043422,0.000458
 07,0.00033404,-0.00052930,-0.00028375,0.00014921,-0.01956356,-0.023206
 82,0.00060411,0.00279334,0.00315298,0.04849086,0.00072483,0.00050842,0
 .00045144,-0.01480176,0.01211449,-0.01868046,0.00088859,0.00083248,-0.
 00160169,0.01086105,-0.01019032,0.01043740,-0.00048672,0.00026941,-0.0
 0011787,0.00013098,0.00010307,0.00005250,-0.00017183,0.00000283,0.0000
 9091,-0.00016385,0.00018868,0.00011512,-0.00018909,-0.00028304,0.00054
 504,0.00000034,-0.00017017,-0.00004213,0.00162182,-0.00112786,0.000009
 57,-0.00752359,0.00266500,0.00391481,-0.15045510,0.08761300,-0.0929265
 2,-0.00021302,0.00031234,-0.00011299,-0.00006668,0.00024230,0.00010836
 ,-0.00017037,0.00008430,0.00015394,0.00092450,0.00085773,-0.00023682,-
 0.00092740,-0.00345104,0.00112488,-0.00003166,-0.00000089,-0.00000361,
 -0.00000649,-0.00002022,-0.00001816,-0.00004940,-0.00006770,-0.0000252
 8,0.00005282,0.00001599,-0.00000098,0.00000122,-0.00001276,-0.00001784
 ,0.00001619,-0.00004810,0.00000572,-0.00000257,0.00001353,0.00001031,-
 0.00007777,0.00000615,0.00001843,0.16579543,0.00117156,0.00091791,0.00
 051543,0.00479680,-0.00652706,0.00614364,-0.00011669,0.00024184,0.0006
 0362,0.01606197,-0.01547765,0.01593318,0.00009688,-0.00005725,0.000017
 43,-0.00003233,-0.00001974,-0.00001370,-0.00009577,-0.00032083,0.00004
 615,0.00012106,-0.00010781,-0.00005224,0.00002266,0.00008058,-0.000105
 86,0.00001249,0.00006452,0.00001290,-0.00048390,0.00065899,-0.00012231
 ,0.00163698,0.00049147,-0.00126598,0.08731682,-0.12112250,0.07747723,-
 0.00036068,-0.00020740,-0.00055798,-0.00031768,0.00031267,-0.00009498,
 -0.00002683,0.00001123,-0.00002177,-0.00003986,0.00128365,-0.00047836,
 -0.00282167,-0.00360707,0.00164038,0.00000652,-0.00000146,0.00000078,0
 .00000109,0.00000355,0.00000435,-0.00007371,0.00008292,0.00003505,0.00
 005487,-0.00001006,-0.00005722,0.00000030,-0.00000098,0.00000902,-0.00
 001828,0.00000072,-0.00000374,-0.00000006,-0.00000294,-0.00000318,0.00
 002503,-0.00000451,-0.00000685,-0.09432475,0.13175153,0.00010919,-0.00
 095573,0.00052992,0.01108919,-0.01066029,0.00988288,0.00038610,-0.0004
 5657,0.00090778,-0.00730818,0.00761728,-0.00887686,0.00020686,-0.00012
 677,0.00004923,-0.00005544,-0.00004267,-0.00001284,0.00028500,0.000058
 72,-0.00000687,0.00005692,-0.00008623,-0.00003233,0.00015677,0.0001143
 5,-0.00024319,0.00000755,0.00006127,0.00000746,-0.00011703,0.00078827,
 0.00069219,0.00417759,-0.00167443,-0.00138255,-0.09750685,0.07944142,-
 0.13696586,0.00003710,0.00016909,0.00049494,0.00019548,-0.00007644,0.0
 0004419,-0.00003985,0.00000319,-0.00001241,-0.00008068,-0.00039798,0.0
 0019726,0.00180184,0.00220162,0.00020831,0.00001054,0.00000302,0.00000
 015,0.00000282,0.00000757,0.00000602,-0.00000008,0.00002995,-0.0000477
 0,-0.00005691,0.00000702,0.00004124,0.00000192,0.00000414,0.00000575,-
 0.00000192,0.00002642,-0.00000796,0.00000084,-0.00000390,-0.00000296,0
 .00002478,-0.00000213,-0.00000757,0.10148556,-0.08935108,0.14658261,-0
 .00089034,-0.00288562,0.00239521,0.00959896,0.01526854,0.01699103,0.00
 031712,-0.00022689,0.00002037,-0.00522741,-0.00787308,-0.01248578,0.00
 004399,-0.00002544,0.00000947,-0.00001105,-0.00000806,0.00000179,-0.00
 109099,-0.00113849,0.00065891,0.00000944,-0.00002594,0.00001470,0.0000
 2928,0.00002211,-0.00005442,-0.00000527,0.00001023,-0.00000603,-0.0031
 8732,0.00458757,0.00554065,0.00076743,-0.00017541,0.00008920,-0.078046
 96,-0.05274894,-0.06681951,0.00012340,0.00030634,0.00036580,0.00008995
 ,-0.00097699,-0.00084749,0.00007904,0.00003084,0.00004229,0.00007628,0
 .00061077,-0.00028057,0.00071578,0.00039167,0.00034087,0.00000093,0.00
 000013,-0.00000073,0.00000014,0.00000137,0.00000023,0.00008888,0.00011
 807,-0.00009895,0.00019807,0.00013817,-0.00014323,0.00000565,-0.000009
 64,-0.00001746,-0.00000713,0.00000645,-0.00000730,0.00000132,-0.000001
 02,-0.00000086,0.00000262,-0.00000064,-0.00000011,-0.00627277,-0.01236
 332,-0.01420725,0.08199921,-0.00247916,-0.00327696,0.00390068,-0.00371
 102,-0.00698649,-0.00618889,0.00012765,0.00017152,0.00010656,-0.007582
 31,-0.01540997,-0.01970938,-0.00002246,0.00001290,-0.00000471,0.000006
 00,0.00000286,-0.00000275,-0.00034638,0.00082528,0.00034332,0.00001645
 ,0.00000063,-0.00000267,-0.00000565,-0.00001758,0.00002543,-0.00000191
 ,-0.00000706,0.00000379,0.00151624,0.00014550,-0.00176944,-0.00041502,
 0.00071234,0.00046544,-0.05024990,-0.14027275,-0.11652389,-0.00013595,
 0.00009460,-0.00016458,-0.00030417,-0.00094863,-0.00130916,-0.00011092
 ,0.00003283,0.00005328,0.00012269,0.00100120,0.00015941,0.00075687,0.0
 0082276,-0.00019997,-0.00000104,-0.00000052,0.00000056,0.00000030,-0.0
 0000100,-0.00000035,0.00007292,-0.00004835,0.00002461,0.00005638,0.000
 02066,-0.00007911,0.00001037,-0.00000186,-0.00000101,-0.00000719,-0.00
 001660,0.00000688,0.00000053,-0.00000006,0.00000100,-0.00000238,-0.000
 00005,-0.00000009,0.00448987,0.01109961,0.01293919,0.05775563,0.151947
 36,0.00140609,0.00239098,-0.00059570,-0.01019477,-0.00949759,-0.013405
 40,0.00028366,0.00024913,0.00012693,0.00442543,0.00892455,0.01185096,0
 .00000300,0.00000019,-0.00001100,-0.00000131,-0.00000450,-0.00000436,0
 .00070132,0.00151010,-0.00053770,0.00003064,-0.00000966,-0.00002728,-0
 .00000463,0.00002292,0.00002964,0.00000558,0.00000562,0.00000919,0.003
 64916,-0.00358292,-0.00335365,-0.00104931,0.00097813,0.00129525,-0.063
 14802,-0.11837207,-0.19585025,0.00009864,0.00006312,0.00011689,0.00026
 193,0.00060115,0.00053141,-0.00014827,0.00006599,0.00009235,-0.0004044
 1,-0.00081560,0.00041949,-0.00048113,-0.00066273,0.00060305,0.00000175
 ,-0.00000085,0.00000049,-0.00000083,0.00000099,0.00000156,-0.00005913,
 -0.00018813,0.00011734,-0.00013147,-0.00017075,0.00006106,0.00001070,0
 .00000125,0.00000632,0.00000777,-0.00001528,0.00000653,-0.00000107,0.0
 0000060,0.00000027,0.00000406,0.00000061,-0.00000067,-0.00451602,-0.00
 992597,-0.01285209,0.06912272,0.12795256,0.21107164,0.00042721,0.00036
 595,0.00004085,-0.09756204,-0.08223488,0.05689214,0.00330139,0.0008097
 0,-0.00106331,-0.00258525,0.00337872,0.00252836,-0.00020516,0.00002320
 ,-0.00000528,0.00006653,0.00011289,-0.00006391,0.00152957,0.00032104,-
 0.00168804,-0.00019795,-0.00069799,-0.00020820,-0.00011657,-0.00006867
 ,0.00024766,0.00014285,0.00007181,0.00019525,-0.00304090,-0.01238037,0
 .00070906,0.00297820,0.02518444,-0.02143549,-0.00976048,-0.01919325,0.
 01255316,-0.00007769,0.00002225,-0.00010373,-0.00000384,-0.00006422,-0
 .00006818,-0.00024624,0.00011578,0.00018079,-0.00076813,-0.00124227,0.
 00054747,0.00005838,-0.00013947,0.00015748,-0.00002630,-0.00004968,0.0
 0001009,0.00000020,-0.00001065,0.00000330,-0.00015626,-0.00032284,0.00
 007662,-0.00015308,-0.00043068,0.00009555,0.00006014,-0.00002821,-0.00
 000167,-0.00212120,-0.00031062,-0.00018551,0.00000541,-0.00001041,-0.0
 0001758,0.00005484,-0.00000957,-0.00001547,0.00058238,-0.00024727,-0.0
 0065764,0.00059490,0.00044093,0.00012104,0.10716314,0.00002602,-0.0004
 7873,-0.00008277,-0.07650700,-0.19960973,0.09266905,-0.00263330,0.0003
 6211,0.00143649,0.00174495,-0.00044690,-0.00146780,0.00035932,-0.00012
 348,0.00003312,-0.00021298,-0.00008451,0.00006750,0.00055935,0.0015604
 1,-0.00506391,0.00029737,-0.00044412,0.00026673,0.00002884,0.00010916,
 -0.00029697,0.00012353,0.00031266,-0.00027204,-0.01773247,-0.03028846,
 0.00234525,0.00500855,-0.01179925,0.01602482,0.00434366,0.01017404,-0.
 00415020,-0.00003716,0.00005015,0.00003945,-0.00014301,0.00010557,0.00
 023734,0.00016984,-0.00027542,-0.00023076,0.00043041,0.00051478,-0.000
 24347,-0.00001469,0.00005682,-0.00010396,-0.00000299,0.00005462,-0.000
 02650,0.00000922,0.00001084,0.00000798,0.00012309,-0.00009323,0.000196
 37,-0.00066388,-0.00116362,0.00042845,-0.00006717,-0.00002230,-0.00013
 245,-0.00051335,0.00065043,-0.00039067,0.00000497,-0.00000086,0.000005
 87,0.00004563,-0.00001835,-0.00001185,-0.00063062,0.00047577,0.0003635
 8,-0.00078453,0.00009318,0.00048142,0.08671918,0.23018551,-0.00014541,
 -0.00053732,-0.00019587,0.05851048,0.10159453,-0.10996255,0.00286252,-
 0.00166080,-0.00124245,0.00230251,-0.00248573,-0.00102551,-0.00045390,
 0.00015590,-0.00004497,0.00021433,0.00009429,-0.00002282,-0.00019831,-
 0.00203490,-0.00330726,-0.00033447,0.00042165,0.00018458,0.00003152,-0
 .00022543,0.00032384,-0.00013583,-0.00037616,0.00016980,-0.01513128,-0
 .03016661,0.00788414,-0.00519339,0.02424562,-0.01696606,0.00826194,0.0
 1410362,-0.00643917,-0.00001401,0.00007300,0.00006196,-0.00016414,0.00
 019075,0.00020269,-0.00036962,0.00016438,0.00033873,0.00054405,0.00100
 044,-0.00036302,-0.00021677,-0.00006914,0.00003990,-0.00002034,-0.0000
 4355,0.00001872,-0.00000919,-0.00001462,-0.00001569,-0.00006113,-0.000
 41485,0.00010206,-0.00055358,-0.00105716,0.00032385,0.00002899,-0.0000
 2638,-0.00001159,0.00005227,-0.00036354,0.00044547,0.00001428,0.000001
 13,-0.00001142,-0.00010393,0.00002800,0.00002508,-0.00018659,-0.000393
 08,0.00079136,-0.00062620,-0.00002761,0.00029478,-0.04898467,-0.102028
 02,0.12833820,-0.00001247,-0.00001550,-0.00002133,0.00030021,-0.000321
 28,0.00006663,-0.00115208,-0.00504379,-0.01404131,-0.00001743,0.000008
 35,-0.00001083,-0.01130314,0.01468265,0.03758817,0.00411016,0.00452832
 ,0.00289557,0.00007895,0.00001877,0.00005705,0.00013955,-0.00073192,0.
 00084095,-0.05536994,-0.01768526,-0.03741400,-0.00048167,-0.00041875,-
 0.00019209,-0.00037843,0.00005541,0.00001581,0.00107656,-0.00043437,0.
 00004491,-0.00002307,-0.00000680,-0.00001468,-0.00001294,0.00000931,0.
 00000645,-0.00001182,-0.00000285,0.00001082,-0.00079219,0.00271077,-0.
 00105678,-0.00000732,-0.00000073,0.00000835,0.00000512,-0.00000230,0.0
 0000066,0.00006058,0.00002115,-0.00031089,0.00037487,-0.00031786,-0.00
 136617,0.00004188,0.00003858,-0.00001840,-0.00002469,-0.00000167,-0.00
 001531,0.00029887,0.00023868,0.00030295,-0.00009128,0.00006703,0.00016
 526,-0.00011239,0.00005008,-0.00012489,0.00016013,-0.00025448,0.000029
 15,-0.00000972,0.00000183,0.00000269,-0.00000233,0.00000664,0.00000906
 ,0.00002414,-0.00002536,0.00004108,0.06381626,0.00000140,0.00003435,-0
 .00003973,-0.00013999,0.00013470,0.00021273,0.00484956,0.00665981,0.02
 380389,0.00001200,-0.00000453,-0.00000593,0.00699773,-0.00345222,-0.01
 397262,-0.00161223,-0.00010816,0.00221638,-0.00002949,-0.00021802,0.00
 009770,0.00022659,0.00187592,0.00047136,-0.01563435,-0.08224937,-0.077
 09717,0.00022641,-0.00014222,0.00012012,0.00038023,-0.00000735,-0.0001
 3621,-0.00204105,0.00099012,-0.00062454,-0.00000214,0.00004130,-0.0000
 3005,-0.00001254,0.00000653,0.00000790,0.00000855,-0.00000121,-0.00000
 810,0.00199836,-0.00275456,0.00232620,0.00000424,0.00000380,0.00000061
 ,-0.00000014,-0.00000345,0.00000248,0.00015945,0.00007773,0.00017288,0
 .00053312,0.00073852,0.00005988,0.00003199,0.00003761,-0.00002409,-0.0
 0001109,0.00001483,-0.00000937,0.00013440,-0.00031118,-0.00027091,0.00
 004251,0.00005746,-0.00036055,-0.00005077,-0.00006941,-0.00014884,-0.0
 0005448,0.00010236,-0.00006087,-0.00001120,-0.00000152,0.00000726,0.00
 000165,-0.00000072,-0.00000681,-0.00001032,0.00003983,-0.00005596,0.00
 790229,0.08592579,-0.00000550,-0.00002119,0.00000368,-0.00006024,-0.00
 006909,0.00024899,-0.00463499,-0.00763859,-0.02206939,-0.00001113,0.00
 002067,-0.00000515,0.01309850,-0.00797444,-0.01271754,-0.00206117,-0.0
 0132448,0.00077247,0.00009167,0.00014209,-0.00002628,0.00001757,-0.001
 38403,0.00077490,-0.03508585,-0.07512034,-0.25895196,0.00033782,0.0002
 2582,0.00004159,-0.00025799,0.00005660,0.00019171,0.00031926,-0.000027
 08,0.00149228,-0.00007023,0.00001008,-0.00008273,-0.00000580,0.0000032
 0,0.00000224,-0.00001482,-0.00000428,0.00000866,-0.00115798,0.00310734
 ,-0.00123470,-0.00001250,-0.00000575,0.00000906,-0.00000280,0.00000314
 ,-0.00000761,0.00022188,0.00025439,0.00040397,0.00089673,0.00094769,-0
 .00007284,0.00004268,0.00001889,-0.00000446,-0.00001378,-0.00000969,-0
 .00000798,0.00049377,0.00084809,0.00017519,-0.00012076,0.00014502,0.00
 043351,-0.00015353,-0.00009683,-0.00002024,0.00005644,0.00010541,-0.00
 006275,-0.00004064,0.00000962,0.00001624,0.00000092,0.00000291,0.00000
 579,0.00009088,-0.00005323,0.00000754,0.02898671,0.08732840,0.28868891
 ,0.00001672,-0.00002921,0.00004610,-0.00009111,-0.00003929,-0.00017128
 ,0.00834127,0.01165681,0.00026177,-0.00000120,0.00000458,-0.00000448,-
 0.03090772,-0.02671723,0.00387607,-0.00236660,0.00518854,0.00270913,-0
 .00013834,0.00011582,-0.00014075,-0.00136560,0.00232385,-0.00153497,-0
 .12911581,-0.12045847,0.00047470,-0.00068930,-0.00028530,-0.00008991,0
 .00005721,-0.00001000,0.00005798,0.00193193,-0.00088519,-0.00016741,0.
 00001362,-0.00001246,0.00004490,0.00001942,-0.00001004,-0.00001565,0.0
 0000100,0.00000410,-0.00000340,0.00063292,-0.00062468,0.00039289,0.000
 00637,-0.00000339,-0.00000486,0.00002172,-0.00001606,0.00001232,-0.001
 21139,-0.00134461,0.00036332,0.00010413,-0.00000153,-0.00020554,-0.000
 10435,0.00007881,-0.00004553,0.00003586,-0.00002155,0.00002156,-0.0000
 5220,-0.00002123,0.00001235,0.00054516,0.00077961,-0.00022227,0.000081
 40,-0.00002477,0.00002995,0.00013885,-0.00022726,0.00013390,0.00001962
 ,-0.00000405,-0.00000692,-0.00000081,-0.00000402,-0.00000217,0.0000318
 3,-0.00002540,0.00003878,-0.00068439,-0.00390067,-0.00094512,0.1547297
 9,-0.00002333,0.00004369,-0.00009029,0.00011485,0.00003639,-0.00017728
 ,-0.01417194,-0.01924572,-0.00075286,0.00000698,-0.00002480,-0.0000048
 7,0.00807126,0.01301881,-0.00017732,0.00257435,0.00058368,-0.00070432,
 0.00003050,-0.00032149,0.00018760,0.00349035,-0.00216743,0.00348504,-0
 .12973424,-0.23838515,0.00188374,0.00063248,0.00021243,-0.00035653,0.0
 0015715,0.00019156,0.00005574,-0.00010394,0.00158177,-0.00037747,0.000
 05787,-0.00000374,0.00005867,-0.00003903,0.00001723,0.00002057,0.00000
 238,-0.00000114,0.00000214,0.00005334,0.00122107,-0.00006490,-0.000000
 03,0.00001490,0.00000210,0.00001610,-0.00000584,-0.00000535,0.00037027
 ,0.00034746,-0.00002385,0.00011027,0.00004530,0.00009574,0.00026976,0.
 00015121,0.00002081,-0.00005540,0.00003621,-0.00004750,0.00018572,0.00
 033015,-0.00005798,-0.00110145,-0.00118865,0.00028918,-0.00007104,0.00
 004155,0.00005146,-0.00017958,0.00005820,-0.00004922,0.00001906,-0.000
 00817,-0.00000913,-0.00000554,0.00000537,0.00000352,-0.00011452,0.0000
 9310,-0.00009246,-0.00507695,-0.00741672,0.00049964,0.13451430,0.25073
 878,0.00001792,-0.00002676,0.00005650,-0.00007658,0.00002491,-0.000038
 03,0.01134579,0.01949398,-0.00107955,0.00000985,0.00000417,0.00002264,
 0.01266510,0.01096661,-0.00061637,0.00078827,-0.00145303,-0.00064147,-
 0.00006869,0.00012294,-0.00014405,-0.00248182,0.00185685,-0.00165794,-
 0.00343170,-0.00277004,-0.05221397,-0.00003991,-0.00000296,0.00010870,
 0.00001256,-0.00010262,-0.00000379,0.00056587,-0.00174452,0.00042784,-
 0.00001043,-0.00001729,0.00000677,0.00002338,-0.00001180,-0.00001751,0
 .00000063,0.00000244,-0.00000307,0.00079615,-0.00065717,0.00083755,-0.
 00000310,-0.00000490,-0.00000828,-0.00001089,0.00001281,-0.00000663,0.
 00035504,0.00037517,0.00028182,0.00030416,0.00038648,0.00033546,-0.000
 19789,-0.00001972,0.00002209,0.00003060,-0.00001824,0.00002190,0.00013
 344,0.00034175,0.00018393,0.00059589,0.00095775,0.00013530,0.00003599,
 -0.00006030,-0.00003492,-0.00001289,0.00002941,-0.00003786,0.00000362,
 0.00000552,-0.00000638,0.00000172,-0.00000199,-0.00000285,0.00004902,-
 0.00004880,0.00005567,-0.01648563,-0.02397604,0.00198687,-0.00491548,-
 0.00366460,0.05202965\\-0.00000092,-0.00000326,0.00000239,-0.00002942,
 -0.00016684,-0.00000043,-0.00010390,-0.00002064,-0.00022814,0.00000410
 ,-0.00000083,-0.00000027,-0.00000280,-0.00000302,-0.00000027,-0.000001
 59,0.00000627,-0.00000059,-0.00000266,0.00000126,0.00000581,0.00005707
 ,-0.00003714,0.00014840,0.00000089,0.00000412,0.00000255,0.00000335,-0
 .00000533,-0.00000218,-0.00001586,-0.00001056,-0.00001596,0.00008731,0
 .00023267,0.00010242,0.00000664,-0.00000346,-0.00000996,-0.00000096,-0
 .00000205,0.00000055,0.00000007,0.00000196,0.00000522,-0.00000207,0.00
 000041,0.00000247,0.00000060,0.00000213,0.00000213,0.00000117,0.000000
 43,0.00000455,-0.00000158,-0.00000089,-0.00000315,0.00000115,0.0000011
 7,-0.00000310,0.00000055,-0.00000116,0.00000383,0.00000003,-0.00000171
 ,0.00000418,0.00000124,0.00000115,-0.00000375,-0.00000002,-0.00000263,
 -0.00000475,-0.00000045,-0.00000212,-0.00000223,-0.00000154,0.00000020
 ,-0.00000391,0.00000233,0.00000166,-0.00000054,-0.00000005,0.00000034,
 0.00000126,-0.00000407,0.00000359,-0.00000565,-0.00000033,0.00000279,-
 0.00000037,0.00000169,0.00000150,-0.00000051\\\@


 DEFINE YOUR TERMS, YOU WILL PERMIT ME AGAIN TO SAY, 
 OR WE SHALL NEVER UNDERSTAND ONE ANOTHER.

                                    -- VOLTAIRE
 Job cpu time:       0 days 14 hours 22 minutes  1.8 seconds.
 Elapsed time:       0 days  0 hours 53 minutes 54.2 seconds.
 File lengths (MBytes):  RWF=    688 Int=      0 D2E=      0 Chk=     33 Scr=      1
 Normal termination of Gaussian 16 at Sun Nov  4 22:58:10 2018.
