 Entering Gaussian System, Link 0=g16
 Initial command:
 /apps/gaussian/g16a03/g16/l1.exe "/jobfs/local/2011979.r-man2/Gau-620.inp" -scrdir="/jobfs/local/2011979.r-man2/"
 Entering Link 1 = /apps/gaussian/g16a03/g16/l1.exe PID=       621.
  
 Copyright (c) 1988,1990,1992,1993,1995,1998,2003,2009,2016,
            Gaussian, Inc.  All Rights Reserved.
  
 This is part of the Gaussian(R) 16 program.  It is based on
 the Gaussian(R) 09 system (copyright 2009, Gaussian, Inc.),
 the Gaussian(R) 03 system (copyright 2003, Gaussian, Inc.),
 the Gaussian(R) 98 system (copyright 1998, Gaussian, Inc.),
 the Gaussian(R) 94 system (copyright 1995, Gaussian, Inc.),
 the Gaussian 92(TM) system (copyright 1992, Gaussian, Inc.),
 the Gaussian 90(TM) system (copyright 1990, Gaussian, Inc.),
 the Gaussian 88(TM) system (copyright 1988, Gaussian, Inc.),
 the Gaussian 86(TM) system (copyright 1986, Carnegie Mellon
 University), and the Gaussian 82(TM) system (copyright 1983,
 Carnegie Mellon University). Gaussian is a federally registered
 trademark of Gaussian, Inc.
  
 This software contains proprietary and confidential information,
 including trade secrets, belonging to Gaussian, Inc.
  
 This software is provided under written license and may be
 used, copied, transmitted, or stored only in accord with that
 written license.
  
 The following legend is applicable only to US Government
 contracts under FAR:
  
                    RESTRICTED RIGHTS LEGEND
  
 Use, reproduction and disclosure by the US Government is
 subject to restrictions as set forth in subparagraphs (a)
 and (c) of the Commercial Computer Software - Restricted
 Rights clause in FAR 52.227-19.
  
 Gaussian, Inc.
 340 Quinnipiac St., Bldg. 40, Wallingford CT 06492
  
  
 ---------------------------------------------------------------
 Warning -- This program may not be used in any manner that
 competes with the business of Gaussian, Inc. or will provide
 assistance to any competitor of Gaussian, Inc.  The licensee
 of this program is prohibited from giving any competitor of
 Gaussian, Inc. access to this program.  By using this program,
 the user acknowledges that Gaussian, Inc. is engaged in the
 business of creating and licensing software in the field of
 computational chemistry and represents and warrants to the
 licensee that it is not a competitor of Gaussian, Inc. and that
 it will not use this program in any manner prohibited above.
 ---------------------------------------------------------------
  

 Cite this work as:
 Gaussian 16, Revision A.03,
 M. J. Frisch, G. W. Trucks, H. B. Schlegel, G. E. Scuseria, 
 M. A. Robb, J. R. Cheeseman, G. Scalmani, V. Barone, 
 G. A. Petersson, H. Nakatsuji, X. Li, M. Caricato, A. V. Marenich, 
 J. Bloino, B. G. Janesko, R. Gomperts, B. Mennucci, H. P. Hratchian, 
 J. V. Ortiz, A. F. Izmaylov, J. L. Sonnenberg, D. Williams-Young, 
 F. Ding, F. Lipparini, F. Egidi, J. Goings, B. Peng, A. Petrone, 
 T. Henderson, D. Ranasinghe, V. G. Zakrzewski, J. Gao, N. Rega, 
 G. Zheng, W. Liang, M. Hada, M. Ehara, K. Toyota, R. Fukuda, 
 J. Hasegawa, M. Ishida, T. Nakajima, Y. Honda, O. Kitao, H. Nakai, 
 T. Vreven, K. Throssell, J. A. Montgomery, Jr., J. E. Peralta, 
 F. Ogliaro, M. J. Bearpark, J. J. Heyd, E. N. Brothers, K. N. Kudin, 
 V. N. Staroverov, T. A. Keith, R. Kobayashi, J. Normand, 
 K. Raghavachari, A. P. Rendell, J. C. Burant, S. S. Iyengar, 
 J. Tomasi, M. Cossi, J. M. Millam, M. Klene, C. Adamo, R. Cammi, 
 J. W. Ochterski, R. L. Martin, K. Morokuma, O. Farkas, 
 J. B. Foresman, and D. J. Fox, Gaussian, Inc., Wallingford CT, 2016.
 
 ******************************************
 Gaussian 16:  ES64L-G16RevA.03 25-Dec-2016
                 4-Nov-2018 
 ******************************************
 %mem=6000mb
 %nproc=24
 Will use up to   24 processors via shared memory.
 %chk=D_1a_4e_D_PSI.inp_extract_7.chk
 ----------------------------------------------------------------------
 #M062X/6-311++G(2d,2p) opt=ModRedundant freq=noraman SCRF=(Solvent=Wat
 er)
 ----------------------------------------------------------------------
 1/18=120,19=15,26=3,38=1/1,3;
 2/9=110,12=2,17=6,18=5,40=1/2;
 3/5=4,6=6,7=1212,11=2,25=1,30=1,70=2201,71=1,72=1,74=-55/1,2,3;
 4//1;
 5/5=2,38=5,53=1/2;
 6/7=2,8=2,9=2,10=2,28=1/1;
 7//1,2,3,16;
 1/18=20,19=15,26=3/3(2);
 2/9=110/2;
 99//99;
 2/9=110/2;
 3/5=4,6=6,7=1212,11=2,25=1,30=1,70=2205,71=1,72=1,74=-55/1,2,3;
 4/5=5,16=3,69=1/1;
 5/5=2,38=5,53=1/2;
 7//1,2,3,16;
 1/18=20,19=15,26=3/3(-5);
 2/9=110/2;
 6/7=2,8=2,9=2,10=2,19=2,28=1/1;
 99/9=1/99;
 ---------------------------
 D_1a_4e_D_PSI.inp_extract_7
 ---------------------------
 Symbolic Z-matrix:
 Charge =  0 Multiplicity = 1
 C                    -3.56179  -0.26341  -0.7802 
 C                    -1.20729   0.62359   0.6457 
 C                     0.97518  -0.09329  -0.12534 
 C                    -3.21544  -0.91163   0.56025 
 O                     3.0786   -1.19575  -0.57831 
 C                     3.84039  -0.15821   0.01267 
 C                    -2.30261   0.25839  -1.45167 
 C                     1.71294   1.10066   0.47533 
 C                     1.81102  -1.35891   0.01603 
 C                     3.12469   1.17556  -0.11592 
 O                    -1.59031   1.14607  -0.59896 
 O                    -0.26024  -0.39526   0.49985 
 C                    -2.39779   0.06332   1.40858 
 H                    -4.25155   0.56265  -0.62308 
 H                    -4.04838  -0.97307  -1.44326 
 H                     0.80075   0.09013  -1.18064 
 H                    -4.1186   -1.19315   1.09294 
 H                    -2.65058  -1.8241    0.38979 
 H                     4.79144  -0.1479   -0.5018 
 H                     4.01752  -0.40076   1.05808 
 H                    -1.6543   -0.5622   -1.73988 
 H                    -2.53452   0.83223  -2.33819 
 H                     1.7707    0.9767    1.55478 
 H                     1.18574   2.0268    0.27831 
 H                     3.07046   1.44831  -1.16682 
 H                     3.70164   1.94446   0.38881 
 H                    -3.02132   0.90571   1.69533 
 H                    -2.0424   -0.40326   2.32106 
 H                    -0.77545   1.45637   1.17775 
 H                     1.92733  -1.60733   1.06838 
 H                     1.3313   -2.18839  -0.48484 
 
 The following ModRedundant input section has been read:
 D       8       3      12       2 F                                           
 

 GradGradGradGradGradGradGradGradGradGradGradGradGradGradGradGradGradGrad
 Berny optimization.
 Initialization pass.
                           ----------------------------
                           !    Initial Parameters    !
                           ! (Angstroms and Degrees)  !
 --------------------------                            --------------------------
 ! Name  Definition              Value          Derivative Info.                !
 --------------------------------------------------------------------------------
 ! R1    R(1,4)                  1.5287         estimate D2E/DX2                !
 ! R2    R(1,7)                  1.5194         estimate D2E/DX2                !
 ! R3    R(1,14)                 1.0876         estimate D2E/DX2                !
 ! R4    R(1,15)                 1.0863         estimate D2E/DX2                !
 ! R5    R(2,11)                 1.4032         estimate D2E/DX2                !
 ! R6    R(2,12)                 1.3987         estimate D2E/DX2                !
 ! R7    R(2,13)                 1.5209         estimate D2E/DX2                !
 ! R8    R(2,29)                 1.0785         estimate D2E/DX2                !
 ! R9    R(3,8)                  1.5266         estimate D2E/DX2                !
 ! R10   R(3,9)                  1.5233         estimate D2E/DX2                !
 ! R11   R(3,12)                 1.4172         estimate D2E/DX2                !
 ! R12   R(3,16)                 1.0852         estimate D2E/DX2                !
 ! R13   R(4,13)                 1.5293         estimate D2E/DX2                !
 ! R14   R(4,17)                 1.0857         estimate D2E/DX2                !
 ! R15   R(4,18)                 1.0866         estimate D2E/DX2                !
 ! R16   R(5,6)                  1.4164         estimate D2E/DX2                !
 ! R17   R(5,9)                  1.4095         estimate D2E/DX2                !
 ! R18   R(6,10)                 1.5191         estimate D2E/DX2                !
 ! R19   R(6,19)                 1.0813         estimate D2E/DX2                !
 ! R20   R(6,20)                 1.0877         estimate D2E/DX2                !
 ! R21   R(7,11)                 1.4221         estimate D2E/DX2                !
 ! R22   R(7,21)                 1.0848         estimate D2E/DX2                !
 ! R23   R(7,22)                 1.0812         estimate D2E/DX2                !
 ! R24   R(8,10)                 1.5324         estimate D2E/DX2                !
 ! R25   R(8,23)                 1.0881         estimate D2E/DX2                !
 ! R26   R(8,24)                 1.0837         estimate D2E/DX2                !
 ! R27   R(9,30)                 1.0875         estimate D2E/DX2                !
 ! R28   R(9,31)                 1.0812         estimate D2E/DX2                !
 ! R29   R(10,25)                1.0871         estimate D2E/DX2                !
 ! R30   R(10,26)                1.0857         estimate D2E/DX2                !
 ! R31   R(13,27)                1.0866         estimate D2E/DX2                !
 ! R32   R(13,28)                1.0847         estimate D2E/DX2                !
 ! A1    A(4,1,7)              110.2038         estimate D2E/DX2                !
 ! A2    A(4,1,14)             109.8207         estimate D2E/DX2                !
 ! A3    A(4,1,15)             111.081          estimate D2E/DX2                !
 ! A4    A(7,1,14)             109.1834         estimate D2E/DX2                !
 ! A5    A(7,1,15)             109.0152         estimate D2E/DX2                !
 ! A6    A(14,1,15)            107.4752         estimate D2E/DX2                !
 ! A7    A(11,2,12)            111.3197         estimate D2E/DX2                !
 ! A8    A(11,2,13)            111.6192         estimate D2E/DX2                !
 ! A9    A(11,2,29)            105.0334         estimate D2E/DX2                !
 ! A10   A(12,2,13)            108.2989         estimate D2E/DX2                !
 ! A11   A(12,2,29)            110.0484         estimate D2E/DX2                !
 ! A12   A(13,2,29)            110.5141         estimate D2E/DX2                !
 ! A13   A(8,3,9)              110.3716         estimate D2E/DX2                !
 ! A14   A(8,3,12)             114.4784         estimate D2E/DX2                !
 ! A15   A(8,3,16)             109.1535         estimate D2E/DX2                !
 ! A16   A(9,3,12)             105.0916         estimate D2E/DX2                !
 ! A17   A(9,3,16)             108.5947         estimate D2E/DX2                !
 ! A18   A(12,3,16)            108.9587         estimate D2E/DX2                !
 ! A19   A(1,4,13)             109.7069         estimate D2E/DX2                !
 ! A20   A(1,4,17)             110.5919         estimate D2E/DX2                !
 ! A21   A(1,4,18)             109.6511         estimate D2E/DX2                !
 ! A22   A(13,4,17)            109.7499         estimate D2E/DX2                !
 ! A23   A(13,4,18)            110.147          estimate D2E/DX2                !
 ! A24   A(17,4,18)            106.9578         estimate D2E/DX2                !
 ! A25   A(6,5,9)              113.1138         estimate D2E/DX2                !
 ! A26   A(5,6,10)             110.7594         estimate D2E/DX2                !
 ! A27   A(5,6,19)             106.3504         estimate D2E/DX2                !
 ! A28   A(5,6,20)             108.982          estimate D2E/DX2                !
 ! A29   A(10,6,19)            111.4518         estimate D2E/DX2                !
 ! A30   A(10,6,20)            110.7238         estimate D2E/DX2                !
 ! A31   A(19,6,20)            108.4324         estimate D2E/DX2                !
 ! A32   A(1,7,11)             111.3743         estimate D2E/DX2                !
 ! A33   A(1,7,21)             110.6658         estimate D2E/DX2                !
 ! A34   A(1,7,22)             111.5222         estimate D2E/DX2                !
 ! A35   A(11,7,21)            109.3986         estimate D2E/DX2                !
 ! A36   A(11,7,22)            105.5324         estimate D2E/DX2                !
 ! A37   A(21,7,22)            108.1692         estimate D2E/DX2                !
 ! A38   A(3,8,10)             109.3678         estimate D2E/DX2                !
 ! A39   A(3,8,23)             109.0806         estimate D2E/DX2                !
 ! A40   A(3,8,24)             111.2067         estimate D2E/DX2                !
 ! A41   A(10,8,23)            109.8426         estimate D2E/DX2                !
 ! A42   A(10,8,24)            109.6487         estimate D2E/DX2                !
 ! A43   A(23,8,24)            107.6697         estimate D2E/DX2                !
 ! A44   A(3,9,5)              110.987          estimate D2E/DX2                !
 ! A45   A(3,9,30)             109.7722         estimate D2E/DX2                !
 ! A46   A(3,9,31)             110.5459         estimate D2E/DX2                !
 ! A47   A(5,9,30)             109.7734         estimate D2E/DX2                !
 ! A48   A(5,9,31)             107.007          estimate D2E/DX2                !
 ! A49   A(30,9,31)            108.6912         estimate D2E/DX2                !
 ! A50   A(6,10,8)             111.0059         estimate D2E/DX2                !
 ! A51   A(6,10,25)            109.0033         estimate D2E/DX2                !
 ! A52   A(6,10,26)            109.3945         estimate D2E/DX2                !
 ! A53   A(8,10,25)            109.8343         estimate D2E/DX2                !
 ! A54   A(8,10,26)            110.1704         estimate D2E/DX2                !
 ! A55   A(25,10,26)           107.351          estimate D2E/DX2                !
 ! A56   A(2,11,7)             115.8597         estimate D2E/DX2                !
 ! A57   A(2,12,3)             118.7554         estimate D2E/DX2                !
 ! A58   A(2,13,4)             112.0314         estimate D2E/DX2                !
 ! A59   A(2,13,27)            107.2153         estimate D2E/DX2                !
 ! A60   A(2,13,28)            108.9018         estimate D2E/DX2                !
 ! A61   A(4,13,27)            109.5009         estimate D2E/DX2                !
 ! A62   A(4,13,28)            111.5669         estimate D2E/DX2                !
 ! A63   A(27,13,28)           107.4267         estimate D2E/DX2                !
 ! D1    D(7,1,4,13)            52.8677         estimate D2E/DX2                !
 ! D2    D(7,1,4,17)           174.0667         estimate D2E/DX2                !
 ! D3    D(7,1,4,18)           -68.2227         estimate D2E/DX2                !
 ! D4    D(14,1,4,13)          -67.452          estimate D2E/DX2                !
 ! D5    D(14,1,4,17)           53.747          estimate D2E/DX2                !
 ! D6    D(14,1,4,18)          171.4576         estimate D2E/DX2                !
 ! D7    D(15,1,4,13)          173.7946         estimate D2E/DX2                !
 ! D8    D(15,1,4,17)          -65.0064         estimate D2E/DX2                !
 ! D9    D(15,1,4,18)           52.7042         estimate D2E/DX2                !
 ! D10   D(4,1,7,11)           -55.0664         estimate D2E/DX2                !
 ! D11   D(4,1,7,21)            66.8594         estimate D2E/DX2                !
 ! D12   D(4,1,7,22)          -172.6769         estimate D2E/DX2                !
 ! D13   D(14,1,7,11)           65.6363         estimate D2E/DX2                !
 ! D14   D(14,1,7,21)         -172.4379         estimate D2E/DX2                !
 ! D15   D(14,1,7,22)          -51.9742         estimate D2E/DX2                !
 ! D16   D(15,1,7,11)         -177.2216         estimate D2E/DX2                !
 ! D17   D(15,1,7,21)          -55.2958         estimate D2E/DX2                !
 ! D18   D(15,1,7,22)           65.1679         estimate D2E/DX2                !
 ! D19   D(12,2,11,7)           66.3224         estimate D2E/DX2                !
 ! D20   D(13,2,11,7)          -54.8234         estimate D2E/DX2                !
 ! D21   D(29,2,11,7)         -174.609          estimate D2E/DX2                !
 ! D22   D(11,2,12,3)           60.0591         estimate D2E/DX2                !
 ! D23   D(13,2,12,3)         -176.8731         estimate D2E/DX2                !
 ! D24   D(29,2,12,3)          -55.9696         estimate D2E/DX2                !
 ! D25   D(11,2,13,4)           51.2993         estimate D2E/DX2                !
 ! D26   D(11,2,13,27)         -68.859          estimate D2E/DX2                !
 ! D27   D(11,2,13,28)         175.1967         estimate D2E/DX2                !
 ! D28   D(12,2,13,4)          -71.587          estimate D2E/DX2                !
 ! D29   D(12,2,13,27)         168.2547         estimate D2E/DX2                !
 ! D30   D(12,2,13,28)          52.3104         estimate D2E/DX2                !
 ! D31   D(29,2,13,4)          167.7987         estimate D2E/DX2                !
 ! D32   D(29,2,13,27)          47.6404         estimate D2E/DX2                !
 ! D33   D(29,2,13,28)         -68.3039         estimate D2E/DX2                !
 ! D34   D(9,3,8,10)            51.9969         estimate D2E/DX2                !
 ! D35   D(9,3,8,23)           -68.1559         estimate D2E/DX2                !
 ! D36   D(9,3,8,24)           173.2425         estimate D2E/DX2                !
 ! D37   D(12,3,8,10)          170.3055         estimate D2E/DX2                !
 ! D38   D(12,3,8,23)           50.1526         estimate D2E/DX2                !
 ! D39   D(12,3,8,24)          -68.449          estimate D2E/DX2                !
 ! D40   D(16,3,8,10)          -67.2815         estimate D2E/DX2                !
 ! D41   D(16,3,8,23)          172.5657         estimate D2E/DX2                !
 ! D42   D(16,3,8,24)           53.9641         estimate D2E/DX2                !
 ! D43   D(8,3,9,5)            -56.4362         estimate D2E/DX2                !
 ! D44   D(8,3,9,30)            65.0931         estimate D2E/DX2                !
 ! D45   D(8,3,9,31)          -175.0122         estimate D2E/DX2                !
 ! D46   D(12,3,9,5)           179.6518         estimate D2E/DX2                !
 ! D47   D(12,3,9,30)          -58.8189         estimate D2E/DX2                !
 ! D48   D(12,3,9,31)           61.0758         estimate D2E/DX2                !
 ! D49   D(16,3,9,5)            63.1806         estimate D2E/DX2                !
 ! D50   D(16,3,9,30)         -175.2902         estimate D2E/DX2                !
 ! D51   D(16,3,9,31)          -55.3955         estimate D2E/DX2                !
 ! D52   D(8,3,12,2)            52.7595         Frozen                          !
 ! D53   D(9,3,12,2)           174.0192         estimate D2E/DX2                !
 ! D54   D(16,3,12,2)          -69.7593         estimate D2E/DX2                !
 ! D55   D(1,4,13,2)           -51.3389         estimate D2E/DX2                !
 ! D56   D(1,4,13,27)           67.478          estimate D2E/DX2                !
 ! D57   D(1,4,13,28)         -173.7318         estimate D2E/DX2                !
 ! D58   D(17,4,13,2)         -173.0436         estimate D2E/DX2                !
 ! D59   D(17,4,13,27)         -54.2267         estimate D2E/DX2                !
 ! D60   D(17,4,13,28)          64.5635         estimate D2E/DX2                !
 ! D61   D(18,4,13,2)           69.452          estimate D2E/DX2                !
 ! D62   D(18,4,13,27)        -171.7311         estimate D2E/DX2                !
 ! D63   D(18,4,13,28)         -52.9409         estimate D2E/DX2                !
 ! D64   D(9,5,6,10)           -60.345          estimate D2E/DX2                !
 ! D65   D(9,5,6,19)           178.4032         estimate D2E/DX2                !
 ! D66   D(9,5,6,20)            61.6996         estimate D2E/DX2                !
 ! D67   D(6,5,9,3)             61.0713         estimate D2E/DX2                !
 ! D68   D(6,5,9,30)           -60.4572         estimate D2E/DX2                !
 ! D69   D(6,5,9,31)          -178.2372         estimate D2E/DX2                !
 ! D70   D(5,6,10,8)            55.2651         estimate D2E/DX2                !
 ! D71   D(5,6,10,25)          -65.8425         estimate D2E/DX2                !
 ! D72   D(5,6,10,26)          177.0519         estimate D2E/DX2                !
 ! D73   D(19,6,10,8)          173.4559         estimate D2E/DX2                !
 ! D74   D(19,6,10,25)          52.3484         estimate D2E/DX2                !
 ! D75   D(19,6,10,26)         -64.7573         estimate D2E/DX2                !
 ! D76   D(20,6,10,8)          -65.7545         estimate D2E/DX2                !
 ! D77   D(20,6,10,25)         173.1379         estimate D2E/DX2                !
 ! D78   D(20,6,10,26)          56.0323         estimate D2E/DX2                !
 ! D79   D(1,7,11,2)            57.3065         estimate D2E/DX2                !
 ! D80   D(21,7,11,2)          -65.3505         estimate D2E/DX2                !
 ! D81   D(22,7,11,2)          178.4824         estimate D2E/DX2                !
 ! D82   D(3,8,10,6)           -51.8071         estimate D2E/DX2                !
 ! D83   D(3,8,10,25)           68.8102         estimate D2E/DX2                !
 ! D84   D(3,8,10,26)         -173.1396         estimate D2E/DX2                !
 ! D85   D(23,8,10,6)           67.8778         estimate D2E/DX2                !
 ! D86   D(23,8,10,25)        -171.5049         estimate D2E/DX2                !
 ! D87   D(23,8,10,26)         -53.4547         estimate D2E/DX2                !
 ! D88   D(24,8,10,6)         -173.9917         estimate D2E/DX2                !
 ! D89   D(24,8,10,25)         -53.3744         estimate D2E/DX2                !
 ! D90   D(24,8,10,26)          64.6758         estimate D2E/DX2                !
 --------------------------------------------------------------------------------
 Trust Radius=3.00D-01 FncErr=1.00D-07 GrdErr=1.00D-06 EigMax=2.50D+02 EigMin=1.00D-04
 Number of steps in this run=    186 maximum allowed number of steps=    186.
 GradGradGradGradGradGradGradGradGradGradGradGradGradGradGradGradGradGrad

                          Input orientation:                          
 ---------------------------------------------------------------------
 Center     Atomic      Atomic             Coordinates (Angstroms)
 Number     Number       Type             X           Y           Z
 ---------------------------------------------------------------------
      1          6           0       -3.561792   -0.263405   -0.780204
      2          6           0       -1.207292    0.623589    0.645703
      3          6           0        0.975184   -0.093293   -0.125344
      4          6           0       -3.215445   -0.911631    0.560254
      5          8           0        3.078604   -1.195750   -0.578308
      6          6           0        3.840394   -0.158213    0.012674
      7          6           0       -2.302611    0.258385   -1.451669
      8          6           0        1.712939    1.100657    0.475328
      9          6           0        1.811022   -1.358909    0.016028
     10          6           0        3.124686    1.175563   -0.115916
     11          8           0       -1.590305    1.146065   -0.598957
     12          8           0       -0.260241   -0.395261    0.499852
     13          6           0       -2.397789    0.063318    1.408578
     14          1           0       -4.251545    0.562654   -0.623081
     15          1           0       -4.048385   -0.973067   -1.443263
     16          1           0        0.800750    0.090130   -1.180639
     17          1           0       -4.118598   -1.193153    1.092940
     18          1           0       -2.650580   -1.824103    0.389787
     19          1           0        4.791436   -0.147899   -0.501803
     20          1           0        4.017523   -0.400760    1.058083
     21          1           0       -1.654301   -0.562204   -1.739884
     22          1           0       -2.534516    0.832227   -2.338191
     23          1           0        1.770697    0.976700    1.554778
     24          1           0        1.185736    2.026800    0.278313
     25          1           0        3.070458    1.448312   -1.166820
     26          1           0        3.701637    1.944461    0.388808
     27          1           0       -3.021323    0.905709    1.695327
     28          1           0       -2.042404   -0.403260    2.321060
     29          1           0       -0.775446    1.456374    1.177754
     30          1           0        1.927327   -1.607331    1.068377
     31          1           0        1.331300   -2.188395   -0.484840
 ---------------------------------------------------------------------
                    Distance matrix (angstroms):
                    1          2          3          4          5
     1  C    0.000000
     2  C    2.891996   0.000000
     3  C    4.587148   2.423146   0.000000
     4  C    1.528719   2.529205   4.324476   0.000000
     5  O    6.708568   4.814260   2.417636   6.402507   0.000000
     6  C    7.445272   5.146948   2.869267   7.117046   1.416357
     7  C    1.519430   2.394174   3.553415   2.500008   5.642229
     8  C    5.591048   2.963844   1.526632   5.324048   2.872051
     9  C    5.540870   3.665653   1.523284   5.075590   1.409475
    10  C    6.871746   4.432919   2.496086   6.709012   2.416414
    11  O    2.430271   1.403160   2.888261   2.866873   5.223336
    12  O    3.543468   1.398654   1.417155   3.000586   3.598763
    13  C    2.500483   1.520909   3.708691   1.529294   5.960189
    14  H    1.087575   3.298636   5.291191   2.155760   7.538241
    15  H    1.086297   3.871033   5.267557   2.170632   7.182737
    16  H    4.395123   2.766286   1.085228   4.490440   2.684196
    17  H    2.164055   3.460676   5.351684   1.085677   7.388694
    18  H    2.152897   2.853028   4.050584   1.086617   5.844278
    19  H    8.358664   6.156030   3.835164   8.113039   2.009388
    20  H    7.800268   5.340228   3.278851   7.268057   2.047280
    21  H    2.156105   2.701286   3.121027   2.801768   4.914370
    22  H    2.164031   3.272411   4.251032   3.450462   6.222298
    23  H    5.951927   3.133612   2.144886   5.423697   3.313641
    24  H    5.376292   2.798314   2.168425   5.299459   3.834264
    25  H    6.860480   4.718533   2.802033   6.932870   2.708778
    26  H    7.681059   5.090018   3.442432   7.485498   3.344310
    27  H    2.790553   2.114713   4.503878   2.151464   6.840662
    28  H    3.456290   2.135100   3.897026   2.175983   5.937937
    29  H    3.815097   1.078471   2.676609   3.455770   4.997121
    30  H    5.945908   3.870593   2.150316   5.214431   2.050953
    31  H    5.266420   3.953458   2.155344   4.836862   2.011753
                    6          7          8          9         10
     6  C    0.000000
     7  C    6.328852   0.000000
     8  C    2.514929   4.532922   0.000000
     9  C    2.357972   4.657440   2.504005   0.000000
    10  C    1.519122   5.664010   1.532387   2.857739   0.000000
    11  O    5.618516   1.422137   3.473841   4.268738   4.739761
    12  O    4.136271   2.899476   2.476249   2.335130   3.782114
    13  C    6.396292   2.868470   4.341096   4.655751   5.836000
    14  H    8.148823   2.139505   6.088597   6.391837   7.419007
    15  H    8.063286   2.136416   6.416711   6.050707   7.604696
    16  H    3.274921   3.119714   2.143707   2.133630   2.777135
    17  H    8.098372   3.446709   6.296811   6.028898   7.716042
    18  H    6.711941   2.801571   5.253745   4.501332   6.527437
    19  H    1.081330   7.168878   3.462776   3.258460   2.162988
    20  H    1.087697   6.832088   2.811577   2.621560   2.158756
    21  H    5.781552   1.084776   4.360112   3.965656   5.338148
    22  H    6.866368   1.081201   5.101845   5.406212   6.089577
    23  H    2.819532   5.113369   1.088078   2.797221   2.159641
    24  H    3.448486   4.276528   1.083743   3.452941   2.153961
    25  H    2.136570   5.510620   2.158789   3.296331   1.087075
    26  H    2.140553   6.502400   2.162039   3.824349   1.085736
    27  H    7.144677   3.292288   4.892815   5.594649   6.413022
    28  H    6.324240   3.839136   4.446470   4.590787   5.927086
    29  H    5.026955   3.268222   2.609980   3.995653   4.118673
    30  H    2.621884   5.265349   2.780444   1.087510   3.252801
    31  H    3.265687   4.486290   3.447526   1.081226   3.829955
                   11         12         13         14         15
    11  O    0.000000
    12  O    2.313469   0.000000
    13  C    2.419622   2.367528   0.000000
    14  H    2.724546   4.255477   2.795243   0.000000
    15  H    3.353465   4.296463   3.454209   1.752830   0.000000
    16  H    2.677778   2.045814   4.115266   5.104883   4.971264
    17  H    3.837541   3.984382   2.153957   2.458711   2.546702
    18  H    3.305101   2.787010   2.159675   3.047228   2.457274
    19  H    6.512327   5.155962   7.441715   9.071665   8.928028
    20  H    6.048651   4.314037   6.441618   8.493054   8.464227
    21  H    2.055235   2.643424   3.294976   3.042734   2.447127
    22  H    2.003737   3.838430   3.827296   2.441815   2.520274
    23  H    3.995447   2.668306   4.269885   6.417313   6.830194
    24  H    3.041661   2.829542   4.239624   5.702654   6.273679
    25  H    4.704948   4.155733   6.201017   7.395388   7.524455
    26  H    5.442221   4.602511   6.463871   8.135503   8.481232
    27  H    2.714650   3.277996   1.086574   2.646913   3.799395
    28  H    3.336360   2.548130   1.084720   3.805425   4.303344
    29  H    1.979138   2.038023   2.150786   4.015595   4.846034
    30  H    4.768116   2.564720   4.649025   6.763751   6.513045
    31  H    4.434797   2.591901   4.749879   6.225395   5.597911
                   16         17         18         19         20
    16  H    0.000000
    17  H    5.569198   0.000000
    18  H    4.247612   1.745737   0.000000
    19  H    4.055003   9.111776   7.680377   0.000000
    20  H    3.949744   8.174691   6.850994   1.759581   0.000000
    21  H    2.601071   3.807328   2.668419   6.576627   6.326474
    22  H    3.607580   4.287673   3.809386   7.615940   7.482256
    23  H    3.034684   6.293278   5.361846   3.823495   2.681852
    24  H    2.455086   6.258408   5.436837   4.282402   3.810526
    25  H    2.645075   7.985385   6.772149   2.439652   3.044042
    26  H    3.783762   8.455560   7.385982   2.521670   2.459222
    27  H    4.852277   2.443789   3.048567   8.183928   7.187370
    28  H    4.537494   2.538265   2.473558   7.398320   6.190140
    29  H    3.148497   4.266597   3.859864   6.031980   5.141578
    30  H    3.034571   6.060145   4.633002   3.577503   2.413470
    31  H    2.440757   5.760320   4.093049   4.017020   3.576597
                   21         22         23         24         25
    21  H    0.000000
    22  H    1.754191   0.000000
    23  H    4.995361   5.806112   0.000000
    24  H    4.340722   4.702486   1.753355   0.000000
    25  H    5.166616   5.759115   3.052686   2.444429   0.000000
    26  H    6.284964   6.896607   2.454501   2.519672   1.750580
    27  H    3.977963   4.063453   4.794606   4.578659   6.752488
    28  H    4.082543   4.845330   4.126889   4.527571   6.460262
    29  H    3.655086   3.980673   2.618220   2.231729   4.504228
    30  H    4.669762   6.120800   2.634072   3.792238   3.954720
    31  H    3.624010   5.244388   3.790902   4.286194   4.088448
                   26         27         28         29         30
    26  H    0.000000
    27  H    6.927062   0.000000
    28  H    6.499184   1.750207   0.000000
    29  H    4.572192   2.369615   2.523999   0.000000
    30  H    4.028054   5.585479   4.333332   4.086959   0.000000
    31  H    4.843785   5.768183   4.737263   4.526250   1.762205
                   31
    31  H    0.000000
 Stoichiometry    C10H18O3
 Framework group  C1[X(C10H18O3)]
 Deg. of freedom    87
 Full point group                 C1      NOp   1
 Largest Abelian subgroup         C1      NOp   1
 Largest concise Abelian subgroup C1      NOp   1
                         Standard orientation:                         
 ---------------------------------------------------------------------
 Center     Atomic      Atomic             Coordinates (Angstroms)
 Number     Number       Type             X           Y           Z
 ---------------------------------------------------------------------
      1          6           0       -3.561792    0.263405    0.780204
      2          6           0       -1.207292   -0.623589   -0.645703
      3          6           0        0.975184    0.093293    0.125344
      4          6           0       -3.215445    0.911631   -0.560254
      5          8           0        3.078604    1.195750    0.578308
      6          6           0        3.840394    0.158213   -0.012674
      7          6           0       -2.302611   -0.258385    1.451669
      8          6           0        1.712939   -1.100657   -0.475328
      9          6           0        1.811022    1.358909   -0.016028
     10          6           0        3.124686   -1.175563    0.115916
     11          8           0       -1.590305   -1.146065    0.598957
     12          8           0       -0.260241    0.395261   -0.499852
     13          6           0       -2.397789   -0.063318   -1.408578
     14          1           0       -4.251545   -0.562654    0.623081
     15          1           0       -4.048385    0.973067    1.443263
     16          1           0        0.800750   -0.090130    1.180639
     17          1           0       -4.118598    1.193153   -1.092940
     18          1           0       -2.650580    1.824103   -0.389787
     19          1           0        4.791436    0.147899    0.501803
     20          1           0        4.017523    0.400760   -1.058083
     21          1           0       -1.654301    0.562204    1.739884
     22          1           0       -2.534516   -0.832227    2.338191
     23          1           0        1.770697   -0.976700   -1.554778
     24          1           0        1.185736   -2.026800   -0.278313
     25          1           0        3.070458   -1.448312    1.166820
     26          1           0        3.701637   -1.944461   -0.388808
     27          1           0       -3.021323   -0.905709   -1.695327
     28          1           0       -2.042404    0.403260   -2.321060
     29          1           0       -0.775446   -1.456374   -1.177754
     30          1           0        1.927327    1.607331   -1.068377
     31          1           0        1.331300    2.188395    0.484840
 ---------------------------------------------------------------------
 Rotational constants (GHZ):           1.9537986           0.3982143           0.3885983
 Standard basis: 6-311++G(2d,2p) (5D, 7F)
 There are   557 symmetry adapted cartesian basis functions of A   symmetry.
 There are   531 symmetry adapted basis functions of A   symmetry.
   531 basis functions,   762 primitive gaussians,   557 cartesian basis functions
    51 alpha electrons       51 beta electrons
       nuclear repulsion energy       893.9372409999 Hartrees.
 NAtoms=   31 NActive=   31 NUniq=   31 SFac= 1.00D+00 NAtFMM=   60 NAOKFM=F Big=F
 Integral buffers will be    131072 words long.
 Raffenetti 2 integral format.
 Two-electron integral symmetry is turned on.
 ------------------------------------------------------------------------------
 Polarizable Continuum Model (PCM)
 =================================
 Model                : PCM.
 Atomic radii         : UFF (Universal Force Field).
 Polarization charges : Total charges.
 Charge compensation  : None.
 Solution method      : On-the-fly selection.
 Cavity type          : Scaled VdW (van der Waals Surface) (Alpha=1.100).
 Cavity algorithm     : GePol (No added spheres)
                        Default sphere list used, NSphG=   31.
                        Lebedev-Laikov grids with approx.  5.0 points / Ang**2.
                        Smoothing algorithm: York/Karplus (Gamma=1.0000).
                        Polarization charges: spherical gaussians, with
                                              point-specific exponents (IZeta= 3).
                        Self-potential: point-specific (ISelfS= 7).
                        Self-field    : sphere-specific E.n sum rule (ISelfD= 2).
 1st derivatives      : Analytical E(r).r(x)/FMM algorithm (CHGder, D1EAlg=3).
                        Cavity 1st derivative terms included.
 Solvent              : Water, Eps=  78.355300 Eps(inf)=   1.777849
 ------------------------------------------------------------------------------
 One-electron integrals computed using PRISM.
 NBasis=   531 RedAO= T EigKep=  4.79D-06  NBF=   531
 NBsUse=   531 1.00D-06 EigRej= -1.00D+00 NBFU=   531
 ExpMin= 3.60D-02 ExpMax= 8.59D+03 ExpMxC= 1.30D+03 IAcc=3 IRadAn=         5 AccDes= 0.00D+00
 Harris functional with IExCor= 1009 and IRadAn=       5 diagonalized for initial guess.
 HarFok:  IExCor= 1009 AccDes= 0.00D+00 IRadAn=         5 IDoV= 1 UseB2=F ITyADJ=14
 ICtDFT=  3500011 ScaDFX=  1.000000  1.000000  1.000000  1.000000
 FoFCou: FMM=F IPFlag=           0 FMFlag=      100000 FMFlg1=           0
         NFxFlg=           0 DoJE=T BraDBF=F KetDBF=T FulRan=T
         wScrn=  0.000000 ICntrl=       500 IOpCl=  0 I1Cent=   200000004 NGrid=           0
         NMat0=    1 NMatS0=      1 NMatT0=    0 NMatD0=    1 NMtDS0=    0 NMtDT0=    0
 Petite list used in FoFCou.
 Requested convergence on RMS density matrix=1.00D-08 within 128 cycles.
 Requested convergence on MAX density matrix=1.00D-06.
 Requested convergence on             energy=1.00D-06.
 No special actions if energy rises.
 Inv3:  Mode=1 IEnd=    12607500.
 Iteration    1 A*A^-1 deviation from unit magnitude is 5.11D-15 for   2039.
 Iteration    1 A*A^-1 deviation from orthogonality  is 2.81D-15 for   2038    940.
 Iteration    1 A^-1*A deviation from unit magnitude is 5.11D-15 for   2039.
 Iteration    1 A^-1*A deviation from orthogonality  is 1.56D-15 for   1748    732.
 Error on total polarization charges =  0.01484
 SCF Done:  E(RM062X) =  -617.502587642     A.U. after   12 cycles
            NFock= 12  Conv=0.54D-08     -V/T= 2.0035

 **********************************************************************

            Population analysis using the SCF density.

 **********************************************************************

 Orbital symmetries:
       Occupied  (A) (A) (A) (A) (A) (A) (A) (A) (A) (A) (A) (A)
                 (A) (A) (A) (A) (A) (A) (A) (A) (A) (A) (A) (A)
                 (A) (A) (A) (A) (A) (A) (A) (A) (A) (A) (A) (A)
                 (A) (A) (A) (A) (A) (A) (A) (A) (A) (A) (A) (A)
                 (A) (A) (A)
       Virtual   (A) (A) (A) (A) (A) (A) (A) (A) (A) (A) (A) (A)
                 (A) (A) (A) (A) (A) (A) (A) (A) (A) (A) (A) (A)
                 (A) (A) (A) (A) (A) (A) (A) (A) (A) (A) (A) (A)
                 (A) (A) (A) (A) (A) (A) (A) (A) (A) (A) (A) (A)
                 (A) (A) (A) (A) (A) (A) (A) (A) (A) (A) (A) (A)
                 (A) (A) (A) (A) (A) (A) (A) (A) (A) (A) (A) (A)
                 (A) (A) (A) (A) (A) (A) (A) (A) (A) (A) (A) (A)
                 (A) (A) (A) (A) (A) (A) (A) (A) (A) (A) (A) (A)
                 (A) (A) (A) (A) (A) (A) (A) (A) (A) (A) (A) (A)
                 (A) (A) (A) (A) (A) (A) (A) (A) (A) (A) (A) (A)
                 (A) (A) (A) (A) (A) (A) (A) (A) (A) (A) (A) (A)
                 (A) (A) (A) (A) (A) (A) (A) (A) (A) (A) (A) (A)
                 (A) (A) (A) (A) (A) (A) (A) (A) (A) (A) (A) (A)
                 (A) (A) (A) (A) (A) (A) (A) (A) (A) (A) (A) (A)
                 (A) (A) (A) (A) (A) (A) (A) (A) (A) (A) (A) (A)
                 (A) (A) (A) (A) (A) (A) (A) (A) (A) (A) (A) (A)
                 (A) (A) (A) (A) (A) (A) (A) (A) (A) (A) (A) (A)
                 (A) (A) (A) (A) (A) (A) (A) (A) (A) (A) (A) (A)
                 (A) (A) (A) (A) (A) (A) (A) (A) (A) (A) (A) (A)
                 (A) (A) (A) (A) (A) (A) (A) (A) (A) (A) (A) (A)
                 (A) (A) (A) (A) (A) (A) (A) (A) (A) (A) (A) (A)
                 (A) (A) (A) (A) (A) (A) (A) (A) (A) (A) (A) (A)
                 (A) (A) (A) (A) (A) (A) (A) (A) (A) (A) (A) (A)
                 (A) (A) (A) (A) (A) (A) (A) (A) (A) (A) (A) (A)
                 (A) (A) (A) (A) (A) (A) (A) (A) (A) (A) (A) (A)
                 (A) (A) (A) (A) (A) (A) (A) (A) (A) (A) (A) (A)
                 (A) (A) (A) (A) (A) (A) (A) (A) (A) (A) (A) (A)
                 (A) (A) (A) (A) (A) (A) (A) (A) (A) (A) (A) (A)
                 (A) (A) (A) (A) (A) (A) (A) (A) (A) (A) (A) (A)
                 (A) (A) (A) (A) (A) (A) (A) (A) (A) (A) (A) (A)
                 (A) (A) (A) (A) (A) (A) (A) (A) (A) (A) (A) (A)
                 (A) (A) (A) (A) (A) (A) (A) (A) (A) (A) (A) (A)
                 (A) (A) (A) (A) (A) (A) (A) (A) (A) (A) (A) (A)
                 (A) (A) (A) (A) (A) (A) (A) (A) (A) (A) (A) (A)
                 (A) (A) (A) (A) (A) (A) (A) (A) (A) (A) (A) (A)
                 (A) (A) (A) (A) (A) (A) (A) (A) (A) (A) (A) (A)
                 (A) (A) (A) (A) (A) (A) (A) (A) (A) (A) (A) (A)
                 (A) (A) (A) (A) (A) (A) (A) (A) (A) (A) (A) (A)
                 (A) (A) (A) (A) (A) (A) (A) (A) (A) (A) (A) (A)
                 (A) (A) (A) (A) (A) (A) (A) (A) (A) (A) (A) (A)
 The electronic state is 1-A.
 Alpha  occ. eigenvalues --  -19.63112 -19.62950 -19.62809 -10.63327 -10.58681
 Alpha  occ. eigenvalues --  -10.57939 -10.57877 -10.57677 -10.53290 -10.53236
 Alpha  occ. eigenvalues --  -10.52973 -10.52930 -10.52767  -1.20309  -1.16847
 Alpha  occ. eigenvalues --   -1.13564  -0.90982  -0.89696  -0.87870  -0.84650
 Alpha  occ. eigenvalues --   -0.75496  -0.74197  -0.72947  -0.70930  -0.65924
 Alpha  occ. eigenvalues --   -0.63822  -0.60246  -0.58795  -0.57594  -0.56193
 Alpha  occ. eigenvalues --   -0.54250  -0.53324  -0.52009  -0.51373  -0.49993
 Alpha  occ. eigenvalues --   -0.48677  -0.47468  -0.46096  -0.45458  -0.45229
 Alpha  occ. eigenvalues --   -0.43948  -0.42283  -0.41361  -0.40628  -0.39315
 Alpha  occ. eigenvalues --   -0.38541  -0.37715  -0.35950  -0.34548  -0.33374
 Alpha  occ. eigenvalues --   -0.32471
 Alpha virt. eigenvalues --   -0.00091   0.00769   0.00881   0.00998   0.02160
 Alpha virt. eigenvalues --    0.02457   0.02655   0.03417   0.03614   0.04424
 Alpha virt. eigenvalues --    0.04578   0.04727   0.05581   0.05733   0.06935
 Alpha virt. eigenvalues --    0.07405   0.07735   0.08315   0.08715   0.09220
 Alpha virt. eigenvalues --    0.09839   0.10430   0.11347   0.11764   0.11985
 Alpha virt. eigenvalues --    0.12507   0.12681   0.12905   0.13121   0.13486
 Alpha virt. eigenvalues --    0.13571   0.14190   0.14367   0.14528   0.14924
 Alpha virt. eigenvalues --    0.15412   0.15502   0.15592   0.15799   0.16293
 Alpha virt. eigenvalues --    0.16533   0.16927   0.17151   0.17362   0.17682
 Alpha virt. eigenvalues --    0.18006   0.18383   0.18675   0.18940   0.19432
 Alpha virt. eigenvalues --    0.19999   0.20199   0.20821   0.21405   0.21698
 Alpha virt. eigenvalues --    0.22113   0.22554   0.23120   0.23665   0.23779
 Alpha virt. eigenvalues --    0.25147   0.25336   0.26307   0.26584   0.27119
 Alpha virt. eigenvalues --    0.27569   0.27857   0.28504   0.29016   0.29352
 Alpha virt. eigenvalues --    0.29864   0.30221   0.30377   0.31374   0.31653
 Alpha virt. eigenvalues --    0.32061   0.32861   0.33272   0.34006   0.34382
 Alpha virt. eigenvalues --    0.34702   0.35327   0.35832   0.35981   0.36313
 Alpha virt. eigenvalues --    0.36634   0.37199   0.37277   0.37952   0.38045
 Alpha virt. eigenvalues --    0.38854   0.39384   0.39712   0.40250   0.40956
 Alpha virt. eigenvalues --    0.41699   0.42339   0.42613   0.43324   0.44301
 Alpha virt. eigenvalues --    0.46311   0.46688   0.49116   0.49881   0.50365
 Alpha virt. eigenvalues --    0.51834   0.52411   0.54154   0.54877   0.55232
 Alpha virt. eigenvalues --    0.55942   0.56199   0.56983   0.58916   0.59522
 Alpha virt. eigenvalues --    0.59873   0.60598   0.61162   0.61846   0.61957
 Alpha virt. eigenvalues --    0.62352   0.62499   0.62834   0.63782   0.63987
 Alpha virt. eigenvalues --    0.64715   0.65219   0.65324   0.66627   0.67148
 Alpha virt. eigenvalues --    0.68059   0.68152   0.69076   0.70140   0.70548
 Alpha virt. eigenvalues --    0.70909   0.71778   0.71849   0.72294   0.72883
 Alpha virt. eigenvalues --    0.73457   0.74136   0.74634   0.75136   0.75794
 Alpha virt. eigenvalues --    0.76179   0.76398   0.77266   0.78533   0.79168
 Alpha virt. eigenvalues --    0.80770   0.81511   0.83464   0.84823   0.85301
 Alpha virt. eigenvalues --    0.86544   0.87375   0.88078   0.88604   0.89396
 Alpha virt. eigenvalues --    0.89623   0.90897   0.91108   0.93760   0.94509
 Alpha virt. eigenvalues --    0.97923   0.98331   1.00401   1.01623   1.01997
 Alpha virt. eigenvalues --    1.03094   1.03888   1.05693   1.05785   1.06355
 Alpha virt. eigenvalues --    1.07371   1.09041   1.09578   1.11777   1.12195
 Alpha virt. eigenvalues --    1.12768   1.13979   1.14599   1.15688   1.16323
 Alpha virt. eigenvalues --    1.17193   1.18055   1.19035   1.19246   1.19650
 Alpha virt. eigenvalues --    1.21179   1.21701   1.23249   1.23699   1.24073
 Alpha virt. eigenvalues --    1.24691   1.24916   1.26349   1.27538   1.28252
 Alpha virt. eigenvalues --    1.28988   1.29727   1.30012   1.30531   1.31333
 Alpha virt. eigenvalues --    1.31701   1.32646   1.33360   1.34600   1.34901
 Alpha virt. eigenvalues --    1.35763   1.36176   1.36866   1.37915   1.38582
 Alpha virt. eigenvalues --    1.38694   1.39352   1.39992   1.40925   1.41568
 Alpha virt. eigenvalues --    1.41751   1.43334   1.44166   1.44563   1.45657
 Alpha virt. eigenvalues --    1.46093   1.46368   1.46833   1.47837   1.48563
 Alpha virt. eigenvalues --    1.49106   1.49319   1.49972   1.50319   1.51547
 Alpha virt. eigenvalues --    1.52713   1.52819   1.53936   1.54985   1.55345
 Alpha virt. eigenvalues --    1.56694   1.57260   1.57468   1.58406   1.58824
 Alpha virt. eigenvalues --    1.59812   1.60612   1.60666   1.61207   1.61863
 Alpha virt. eigenvalues --    1.63548   1.64406   1.65688   1.66326   1.66874
 Alpha virt. eigenvalues --    1.68409   1.69035   1.70363   1.71651   1.72757
 Alpha virt. eigenvalues --    1.73605   1.74130   1.75119   1.76308   1.77058
 Alpha virt. eigenvalues --    1.78472   1.79067   1.80502   1.81357   1.83435
 Alpha virt. eigenvalues --    1.86423   1.86849   1.93457   1.95345   1.96747
 Alpha virt. eigenvalues --    2.03170   2.07608   2.14781   2.18485   2.21513
 Alpha virt. eigenvalues --    2.24537   2.25991   2.29251   2.34381   2.40049
 Alpha virt. eigenvalues --    2.41494   2.43148   2.45822   2.46542   2.52938
 Alpha virt. eigenvalues --    2.60516   2.75918   2.76785   2.78593   2.81808
 Alpha virt. eigenvalues --    2.83990   2.90859   2.92717   2.93092   2.94141
 Alpha virt. eigenvalues --    2.95049   2.96224   3.00826   3.03118   3.03975
 Alpha virt. eigenvalues --    3.06223   3.07898   3.08413   3.09494   3.12162
 Alpha virt. eigenvalues --    3.13415   3.15207   3.17974   3.20071   3.22503
 Alpha virt. eigenvalues --    3.27505   3.28012   3.31290   3.33984   3.34672
 Alpha virt. eigenvalues --    3.35293   3.36336   3.38466   3.39785   3.42140
 Alpha virt. eigenvalues --    3.42620   3.43278   3.44163   3.45628   3.46963
 Alpha virt. eigenvalues --    3.47521   3.48638   3.49279   3.51627   3.52179
 Alpha virt. eigenvalues --    3.52763   3.54202   3.54416   3.55177   3.55741
 Alpha virt. eigenvalues --    3.56943   3.57476   3.58500   3.59256   3.59836
 Alpha virt. eigenvalues --    3.59861   3.61471   3.62508   3.63554   3.65643
 Alpha virt. eigenvalues --    3.65927   3.66494   3.67803   3.68331   3.69525
 Alpha virt. eigenvalues --    3.70319   3.71014   3.71817   3.73466   3.74296
 Alpha virt. eigenvalues --    3.74702   3.75364   3.76664   3.77204   3.78071
 Alpha virt. eigenvalues --    3.78899   3.79545   3.80034   3.83221   3.84667
 Alpha virt. eigenvalues --    3.86144   3.87963   3.88280   3.90268   3.91514
 Alpha virt. eigenvalues --    3.93483   3.93859   3.94867   3.95728   3.97026
 Alpha virt. eigenvalues --    3.99906   4.00467   4.02583   4.03349   4.04224
 Alpha virt. eigenvalues --    4.04830   4.05244   4.06452   4.06871   4.07525
 Alpha virt. eigenvalues --    4.08061   4.08927   4.09268   4.10397   4.11753
 Alpha virt. eigenvalues --    4.11820   4.12593   4.13267   4.15017   4.15531
 Alpha virt. eigenvalues --    4.16385   4.17419   4.18711   4.19281   4.21147
 Alpha virt. eigenvalues --    4.22475   4.23591   4.25319   4.25749   4.26963
 Alpha virt. eigenvalues --    4.27544   4.29369   4.30922   4.32398   4.32863
 Alpha virt. eigenvalues --    4.33126   4.35586   4.36654   4.37625   4.40241
 Alpha virt. eigenvalues --    4.41388   4.43839   4.45618   4.47497   4.49001
 Alpha virt. eigenvalues --    4.58703   4.61420   4.75223   4.76446   4.83119
 Alpha virt. eigenvalues --    4.85011   4.92374   4.95490   4.99156   5.02418
 Alpha virt. eigenvalues --    5.06609   5.06805   5.07703   5.08492   5.12113
 Alpha virt. eigenvalues --    5.12323   5.14100   5.15274   5.30636   5.38256
 Alpha virt. eigenvalues --    5.39172   5.57970   5.59843   5.65982   5.86256
 Alpha virt. eigenvalues --    5.87540   6.05366   7.03416   7.04385   7.05804
 Alpha virt. eigenvalues --    7.09670   7.10490   7.12747   7.14656   7.19505
 Alpha virt. eigenvalues --    7.25464   7.36530   7.38840   7.47602   7.54498
 Alpha virt. eigenvalues --    7.55752   7.65522  23.96087  23.97201  24.05206
 Alpha virt. eigenvalues --   24.07733  24.11405  24.11668  24.14794  24.15346
 Alpha virt. eigenvalues --   24.16723  24.22226  50.16600  50.17586  50.25790
          Condensed to atoms (all electrons):
               1          2          3          4          5          6
     1  C    5.717660   0.402411  -0.078598  -0.051587   0.000142  -0.003843
     2  C    0.402411   7.848588  -1.098801  -0.270597  -0.011160  -0.016979
     3  C   -0.078598  -1.098801   7.654330   0.118045   0.038558   0.188261
     4  C   -0.051587  -0.270597   0.118045   5.729523   0.000198   0.003500
     5  O    0.000142  -0.011160   0.038558   0.000198   8.333116   0.105311
     6  C   -0.003843  -0.016979   0.188261   0.003500   0.105311   5.405494
     7  C   -0.050169  -0.538642   0.187075  -0.010333   0.002103   0.003040
     8  C    0.052231   0.474983  -1.470100  -0.068320  -0.029210  -0.132461
     9  C    0.007569   0.034234  -0.367266   0.002621   0.155666  -0.203445
    10  C   -0.003485  -0.072730  -0.036399   0.007943  -0.016249   0.050974
    11  O   -0.077943   0.266259   0.082149   0.009583   0.000928   0.000621
    12  O   -0.008207   0.222066   0.192876  -0.021318  -0.002785   0.009092
    13  C   -0.252986  -1.415478   0.432216  -0.002788   0.001226   0.015187
    14  H    0.479739  -0.008160  -0.001043  -0.021869  -0.000011   0.000015
    15  H    0.455326   0.008453  -0.000040  -0.050588  -0.000009  -0.000100
    16  H   -0.007289  -0.109644   0.563793  -0.005898  -0.016352   0.015018
    17  H   -0.028656   0.005352   0.007794   0.429147   0.000008   0.000203
    18  H   -0.071337  -0.003316  -0.006067   0.524171   0.000110  -0.000462
    19  H   -0.000234  -0.003699   0.000328   0.000278  -0.069761   0.430697
    20  H    0.000164   0.003567   0.035478  -0.000350  -0.045375   0.456079
    21  H   -0.076397  -0.024709   0.004650   0.012749   0.000885   0.001980
    22  H   -0.013133  -0.014716   0.005322   0.007298   0.000038  -0.000088
    23  H   -0.000439  -0.007609  -0.037196   0.001105   0.000888  -0.000374
    24  H    0.002383   0.001680  -0.041604  -0.000318  -0.001673  -0.002893
    25  H    0.000300   0.002646  -0.029426   0.000233   0.001302  -0.077568
    26  H    0.000328   0.000216  -0.028971  -0.000379   0.006815  -0.038661
    27  H   -0.014526  -0.142739   0.014912   0.000944   0.000007  -0.000119
    28  H    0.001626  -0.023911  -0.011342  -0.046661   0.000100  -0.000543
    29  H    0.020996   0.542523  -0.089404  -0.016807  -0.001363   0.002847
    30  H   -0.001486  -0.012566   0.013672   0.004413  -0.038006  -0.003383
    31  H    0.006255   0.015521  -0.095791  -0.006013  -0.075939  -0.000352
               7          8          9         10         11         12
     1  C   -0.050169   0.052231   0.007569  -0.003485  -0.077943  -0.008207
     2  C   -0.538642   0.474983   0.034234  -0.072730   0.266259   0.222066
     3  C    0.187075  -1.470100  -0.367266  -0.036399   0.082149   0.192876
     4  C   -0.010333  -0.068320   0.002621   0.007943   0.009583  -0.021318
     5  O    0.002103  -0.029210   0.155666  -0.016249   0.000928  -0.002785
     6  C    0.003040  -0.132461  -0.203445   0.050974   0.000621   0.009092
     7  C    5.492261  -0.057547  -0.023789  -0.003368   0.113973  -0.013035
     8  C   -0.057547   7.427960  -0.159100  -0.276710  -0.111833  -0.081317
     9  C   -0.023789  -0.159100   6.205142   0.151741   0.024484  -0.193591
    10  C   -0.003368  -0.276710   0.151741   5.906970  -0.002576  -0.015222
    11  O    0.113973  -0.111833   0.024484  -0.002576   8.170733  -0.049697
    12  O   -0.013035  -0.081317  -0.193591  -0.015222  -0.049697   8.313031
    13  C    0.261195  -0.309958  -0.033995  -0.038851  -0.013971  -0.044286
    14  H   -0.077729  -0.001872   0.000644  -0.000193  -0.002434  -0.000016
    15  H   -0.047485   0.003475  -0.002339   0.000164   0.010088   0.000611
    16  H    0.008746  -0.036689  -0.088163  -0.007727   0.000987  -0.030203
    17  H    0.008209  -0.003318  -0.000670  -0.000271  -0.004367   0.000696
    18  H    0.003539   0.003591   0.001787   0.000499   0.000206  -0.002636
    19  H   -0.000031  -0.002928   0.019196  -0.038108  -0.000037   0.000689
    20  H    0.000507  -0.009739  -0.044583  -0.042693   0.000167  -0.000330
    21  H    0.467312  -0.017112  -0.003662  -0.001755  -0.025624   0.006107
    22  H    0.426670   0.002630   0.000595  -0.000800  -0.063312   0.001384
    23  H   -0.001442   0.489173  -0.027588  -0.068688  -0.000186   0.012764
    24  H    0.002536   0.402747   0.007426   0.031534   0.004855  -0.010770
    25  H    0.001227  -0.004002   0.005902   0.474754  -0.000494   0.001194
    26  H   -0.000967  -0.002513   0.002098   0.428619  -0.000367  -0.001287
    27  H    0.014642  -0.007659   0.003500   0.000344  -0.008404   0.008464
    28  H    0.002213   0.013966  -0.006531   0.000414   0.007957  -0.004160
    29  H   -0.041866   0.076345  -0.001800  -0.024460  -0.060993  -0.031495
    30  H    0.002365  -0.028662   0.376959   0.010859   0.001063   0.007368
    31  H   -0.002783   0.057077   0.436384   0.000033  -0.000586   0.003679
              13         14         15         16         17         18
     1  C   -0.252986   0.479739   0.455326  -0.007289  -0.028656  -0.071337
     2  C   -1.415478  -0.008160   0.008453  -0.109644   0.005352  -0.003316
     3  C    0.432216  -0.001043  -0.000040   0.563793   0.007794  -0.006067
     4  C   -0.002788  -0.021869  -0.050588  -0.005898   0.429147   0.524171
     5  O    0.001226  -0.000011  -0.000009  -0.016352   0.000008   0.000110
     6  C    0.015187   0.000015  -0.000100   0.015018   0.000203  -0.000462
     7  C    0.261195  -0.077729  -0.047485   0.008746   0.008209   0.003539
     8  C   -0.309958  -0.001872   0.003475  -0.036689  -0.003318   0.003591
     9  C   -0.033995   0.000644  -0.002339  -0.088163  -0.000670   0.001787
    10  C   -0.038851  -0.000193   0.000164  -0.007727  -0.000271   0.000499
    11  O   -0.013971  -0.002434   0.010088   0.000987  -0.004367   0.000206
    12  O   -0.044286  -0.000016   0.000611  -0.030203   0.000696  -0.002636
    13  C    7.052778   0.000705  -0.004560   0.026945  -0.042362  -0.064117
    14  H    0.000705   0.480137  -0.010380   0.000596  -0.000933   0.000179
    15  H   -0.004560  -0.010380   0.485093  -0.000106  -0.007820  -0.002847
    16  H    0.026945   0.000596  -0.000106   0.487374   0.000488  -0.000253
    17  H   -0.042362  -0.000933  -0.007820   0.000488   0.471191  -0.006100
    18  H   -0.064117   0.000179  -0.002847  -0.000253  -0.006100   0.457629
    19  H    0.000335  -0.000001  -0.000001   0.001366   0.000008  -0.000018
    20  H   -0.001540  -0.000009   0.000008  -0.004434  -0.000025   0.000017
    21  H    0.034577   0.004244  -0.000386  -0.013411  -0.000365  -0.000844
    22  H    0.002229  -0.004986  -0.010478   0.000530   0.001187  -0.002120
    23  H    0.009946   0.000085  -0.000024   0.006374   0.000078  -0.000205
    24  H   -0.015671  -0.000172   0.000073  -0.005307  -0.000247   0.000271
    25  H    0.000016  -0.000047   0.000027  -0.012085   0.000004   0.000044
    26  H   -0.001620   0.000007   0.000002  -0.001455  -0.000004  -0.000014
    27  H    0.511736  -0.003211  -0.001892   0.000112  -0.003009   0.001516
    28  H    0.438545  -0.001159   0.000962  -0.000281  -0.010312  -0.002162
    29  H   -0.083017   0.000450   0.001048  -0.002164   0.003052  -0.002352
    30  H    0.001574  -0.000132   0.000002  -0.008365   0.000268   0.000423
    31  H   -0.002469   0.000142   0.000181  -0.002964  -0.000376  -0.001849
              19         20         21         22         23         24
     1  C   -0.000234   0.000164  -0.076397  -0.013133  -0.000439   0.002383
     2  C   -0.003699   0.003567  -0.024709  -0.014716  -0.007609   0.001680
     3  C    0.000328   0.035478   0.004650   0.005322  -0.037196  -0.041604
     4  C    0.000278  -0.000350   0.012749   0.007298   0.001105  -0.000318
     5  O   -0.069761  -0.045375   0.000885   0.000038   0.000888  -0.001673
     6  C    0.430697   0.456079   0.001980  -0.000088  -0.000374  -0.002893
     7  C   -0.000031   0.000507   0.467312   0.426670  -0.001442   0.002536
     8  C   -0.002928  -0.009739  -0.017112   0.002630   0.489173   0.402747
     9  C    0.019196  -0.044583  -0.003662   0.000595  -0.027588   0.007426
    10  C   -0.038108  -0.042693  -0.001755  -0.000800  -0.068688   0.031534
    11  O   -0.000037   0.000167  -0.025624  -0.063312  -0.000186   0.004855
    12  O    0.000689  -0.000330   0.006107   0.001384   0.012764  -0.010770
    13  C    0.000335  -0.001540   0.034577   0.002229   0.009946  -0.015671
    14  H   -0.000001  -0.000009   0.004244  -0.004986   0.000085  -0.000172
    15  H   -0.000001   0.000008  -0.000386  -0.010478  -0.000024   0.000073
    16  H    0.001366  -0.004434  -0.013411   0.000530   0.006374  -0.005307
    17  H    0.000008  -0.000025  -0.000365   0.001187   0.000078  -0.000247
    18  H   -0.000018   0.000017  -0.000844  -0.002120  -0.000205   0.000271
    19  H    0.475975  -0.009656   0.000024  -0.000025  -0.000213   0.001343
    20  H   -0.009656   0.503497   0.000128   0.000017  -0.006852   0.000073
    21  H    0.000024   0.000128   0.513735  -0.016082   0.000503  -0.001824
    22  H   -0.000025   0.000017  -0.016082   0.475669  -0.000178   0.000379
    23  H   -0.000213  -0.006852   0.000503  -0.000178   0.424103  -0.016947
    24  H    0.001343   0.000073  -0.001824   0.000379  -0.016947   0.479184
    25  H   -0.005608   0.004500   0.000596  -0.000059   0.000528  -0.005174
    26  H   -0.008941   0.002703  -0.000138   0.000011  -0.005634  -0.009028
    27  H    0.000006   0.000021  -0.001402   0.000709  -0.000269   0.000415
    28  H   -0.000011   0.000048  -0.000857   0.001007  -0.000295   0.000120
    29  H   -0.000478   0.000096   0.002074  -0.001824   0.001670  -0.015175
    30  H   -0.002695   0.012417   0.001290  -0.000054   0.000441  -0.001040
    31  H    0.001697  -0.002941  -0.004833   0.000516  -0.002554   0.000384
              25         26         27         28         29         30
     1  C    0.000300   0.000328  -0.014526   0.001626   0.020996  -0.001486
     2  C    0.002646   0.000216  -0.142739  -0.023911   0.542523  -0.012566
     3  C   -0.029426  -0.028971   0.014912  -0.011342  -0.089404   0.013672
     4  C    0.000233  -0.000379   0.000944  -0.046661  -0.016807   0.004413
     5  O    0.001302   0.006815   0.000007   0.000100  -0.001363  -0.038006
     6  C   -0.077568  -0.038661  -0.000119  -0.000543   0.002847  -0.003383
     7  C    0.001227  -0.000967   0.014642   0.002213  -0.041866   0.002365
     8  C   -0.004002  -0.002513  -0.007659   0.013966   0.076345  -0.028662
     9  C    0.005902   0.002098   0.003500  -0.006531  -0.001800   0.376959
    10  C    0.474754   0.428619   0.000344   0.000414  -0.024460   0.010859
    11  O   -0.000494  -0.000367  -0.008404   0.007957  -0.060993   0.001063
    12  O    0.001194  -0.001287   0.008464  -0.004160  -0.031495   0.007368
    13  C    0.000016  -0.001620   0.511736   0.438545  -0.083017   0.001574
    14  H   -0.000047   0.000007  -0.003211  -0.001159   0.000450  -0.000132
    15  H    0.000027   0.000002  -0.001892   0.000962   0.001048   0.000002
    16  H   -0.012085  -0.001455   0.000112  -0.000281  -0.002164  -0.008365
    17  H    0.000004  -0.000004  -0.003009  -0.010312   0.003052   0.000268
    18  H    0.000044  -0.000014   0.001516  -0.002162  -0.002352   0.000423
    19  H   -0.005608  -0.008941   0.000006  -0.000011  -0.000478  -0.002695
    20  H    0.004500   0.002703   0.000021   0.000048   0.000096   0.012417
    21  H    0.000596  -0.000138  -0.001402  -0.000857   0.002074   0.001290
    22  H   -0.000059   0.000011   0.000709   0.001007  -0.001824  -0.000054
    23  H    0.000528  -0.005634  -0.000269  -0.000295   0.001670   0.000441
    24  H   -0.005174  -0.009028   0.000415   0.000120  -0.015175  -0.001040
    25  H    0.476749  -0.010067  -0.000022   0.000013   0.000203   0.003709
    26  H   -0.010067   0.493488  -0.000047   0.000058   0.001624  -0.003203
    27  H   -0.000022  -0.000047   0.447311  -0.003946  -0.012945   0.000359
    28  H    0.000013   0.000058  -0.003946   0.472160  -0.011183  -0.001842
    29  H    0.000203   0.001624  -0.012945  -0.011183   0.481127  -0.000776
    30  H    0.003709  -0.003203   0.000359  -0.001842  -0.000776   0.496156
    31  H   -0.002179   0.002620  -0.000120   0.001154  -0.000356  -0.026443
              31
     1  C    0.006255
     2  C    0.015521
     3  C   -0.095791
     4  C   -0.006013
     5  O   -0.075939
     6  C   -0.000352
     7  C   -0.002783
     8  C    0.057077
     9  C    0.436384
    10  C    0.000033
    11  O   -0.000586
    12  O    0.003679
    13  C   -0.002469
    14  H    0.000142
    15  H    0.000181
    16  H   -0.002964
    17  H   -0.000376
    18  H   -0.001849
    19  H    0.001697
    20  H   -0.002941
    21  H   -0.004833
    22  H    0.000516
    23  H   -0.002554
    24  H    0.000384
    25  H   -0.002179
    26  H    0.002620
    27  H   -0.000120
    28  H    0.001154
    29  H   -0.000356
    30  H   -0.026443
    31  H    0.497063
 Mulliken charges:
               1
     1  C   -0.406814
     2  C   -0.053045
     3  C   -0.147413
     4  C   -0.277928
     5  O   -0.339505
     6  C   -0.207046
     7  C   -0.128427
     8  C   -0.193127
     9  C   -0.279426
    10  C   -0.414564
    11  O   -0.271231
    12  O   -0.269667
    13  C   -0.461541
    14  H    0.167415
    15  H    0.173543
    16  H    0.240460
    17  H    0.181150
    18  H    0.172718
    19  H    0.210502
    20  H    0.149039
    21  H    0.138548
    22  H    0.201668
    23  H    0.229034
    24  H    0.192438
    25  H    0.172784
    26  H    0.174708
    27  H    0.195311
    28  H    0.184853
    29  H    0.264403
    30  H    0.195315
    31  H    0.205843
 Sum of Mulliken charges =  -0.00000
 Mulliken charges with hydrogens summed into heavy atoms:
               1
     1  C   -0.065856
     2  C    0.211359
     3  C    0.093047
     4  C    0.075940
     5  O   -0.339505
     6  C    0.152495
     7  C    0.211790
     8  C    0.228345
     9  C    0.121732
    10  C   -0.067071
    11  O   -0.271231
    12  O   -0.269667
    13  C   -0.081378
 Electronic spatial extent (au):  <R**2>=           3077.9705
 Charge=             -0.0000 electrons
 Dipole moment (field-independent basis, Debye):
    X=             -0.8124    Y=             -1.0117    Z=             -1.2296  Tot=              1.7876
 Quadrupole moment (field-independent basis, Debye-Ang):
   XX=            -73.5609   YY=            -83.5555   ZZ=            -78.4199
   XY=             -7.9665   XZ=             -4.2678   YZ=              1.0077
 Traceless Quadrupole moment (field-independent basis, Debye-Ang):
   XX=              4.9512   YY=             -5.0434   ZZ=              0.0922
   XY=             -7.9665   XZ=             -4.2678   YZ=              1.0077
 Octapole moment (field-independent basis, Debye-Ang**2):
  XXX=             -3.0761  YYY=              2.3735  ZZZ=              3.3672  XYY=             -0.6211
  XXY=            -17.6345  XXZ=            -10.3748  XZZ=             -7.4470  YZZ=             -2.2098
  YYZ=             -3.5528  XYZ=             -7.9455
 Hexadecapole moment (field-independent basis, Debye-Ang**3):
 XXXX=          -3057.6386 YYYY=           -492.1612 ZZZZ=           -412.4037 XXXY=            -64.7909
 XXXZ=            -32.8704 YYYX=             -4.7055 YYYZ=              6.2447 ZZZX=            -12.4197
 ZZZY=             -6.3364 XXYY=           -646.9954 XXZZ=           -592.2328 YYZZ=           -150.6015
 XXYZ=            -15.4486 YYXZ=             -7.0895 ZZXY=              2.3357
 N-N= 8.939372409999D+02 E-N=-3.229679463468D+03  KE= 6.153436391493D+02
 D1PCM: PCM CHGder 1st derivatives, ID1Alg=3 FixD1E=F DoIter=F DoCFld=F I1PDM=0.
 Calling FoFJK, ICntrl=      2127 FMM=F ISym2X=0 I1Cent= 0 IOpClX= 0 NMat=1 NMatS=1 NMatT=0.
 ***** Axes restored to original set *****
 -------------------------------------------------------------------
 Center     Atomic                   Forces (Hartrees/Bohr)
 Number     Number              X              Y              Z
 -------------------------------------------------------------------
      1        6           0.002386667   -0.001560918    0.000531079
      2        6          -0.003929905   -0.005590983   -0.005444091
      3        6          -0.001618133    0.003386460    0.003381093
      4        6           0.001419457    0.003424308   -0.001262498
      5        8           0.002503272   -0.004823281   -0.007030965
      6        6          -0.006629891    0.002089334   -0.001047145
      7        6          -0.002493333   -0.001241521    0.006184350
      8        6           0.002484493   -0.003931944   -0.002668905
      9        6           0.002830388    0.006356376   -0.001797940
     10        6          -0.000557425   -0.001174918    0.002445475
     11        8           0.002529260    0.010769768   -0.002608411
     12        8          -0.001126992   -0.010887839    0.006946666
     13        6           0.000658137   -0.002288341   -0.001761109
     14        1          -0.001524369    0.002867239    0.000700664
     15        1          -0.001484504   -0.001937793   -0.001474283
     16        1           0.000050565    0.001579248   -0.006767811
     17        1          -0.002196127   -0.000552487    0.001238251
     18        1           0.002761301   -0.002197888   -0.000750070
     19        1           0.003803674    0.000181044   -0.002153444
     20        1           0.000671646   -0.000241377    0.006140571
     21        1           0.003389932   -0.005563928   -0.000958040
     22        1          -0.001021543    0.002393305   -0.003553685
     23        1          -0.000094649   -0.001422768    0.003863128
     24        1          -0.002550238    0.002983278   -0.000967241
     25        1          -0.000352528    0.000167099   -0.003213895
     26        1           0.001385695    0.002408883    0.001266719
     27        1          -0.001859385    0.002795873    0.000318661
     28        1           0.001251362   -0.001596652    0.002468602
     29        1           0.002975699    0.007071880    0.003505271
     30        1          -0.000838063   -0.000191622    0.006584233
     31        1          -0.002824467   -0.003269835   -0.002115232
 -------------------------------------------------------------------
 Cartesian Forces:  Max     0.010887839 RMS     0.003461692

 GradGradGradGradGradGradGradGradGradGradGradGradGradGradGradGradGradGrad
 Berny optimization.
 FormGI is forming the generalized inverse of G from B-inverse, IUseBI=4.
 Internal  Forces:  Max     0.014216169 RMS     0.002131136
 Search for a local minimum.
 Step number   1 out of a maximum of  186
 All quantities printed in internal units (Hartrees-Bohrs-Radians)
 Mixed Optimization -- RFO/linear search
 Second derivative matrix not updated -- first step.
 ITU=  0
     Eigenvalues ---    0.00622   0.00623   0.00728   0.00740   0.01413
     Eigenvalues ---    0.01457   0.01710   0.02700   0.02714   0.03078
     Eigenvalues ---    0.03178   0.04086   0.04111   0.04515   0.04753
     Eigenvalues ---    0.04862   0.04888   0.05137   0.05142   0.05166
     Eigenvalues ---    0.05269   0.05683   0.05721   0.06156   0.06176
     Eigenvalues ---    0.06397   0.06619   0.07013   0.07603   0.07775
     Eigenvalues ---    0.07862   0.07964   0.08073   0.08138   0.08254
     Eigenvalues ---    0.08834   0.09246   0.09316   0.10876   0.11605
     Eigenvalues ---    0.11628   0.11696   0.11762   0.12399   0.12507
     Eigenvalues ---    0.14558   0.14760   0.16285   0.16493   0.17628
     Eigenvalues ---    0.19179   0.21269   0.21949   0.25000   0.28448
     Eigenvalues ---    0.28640   0.28660   0.28883   0.28948   0.29021
     Eigenvalues ---    0.30273   0.30350   0.35036   0.35080   0.35094
     Eigenvalues ---    0.35102   0.35153   0.35207   0.35212   0.35244
     Eigenvalues ---    0.35310   0.35317   0.35370   0.35423   0.35430
     Eigenvalues ---    0.35546   0.35834   0.35847   0.35850   0.36180
     Eigenvalues ---    0.40774   0.41439   0.42533   0.42892   0.43565
     Eigenvalues ---    0.458441000.000001000.000001000.000001000.00000
     Eigenvalues --- 1000.000001000.000001000.000001000.000001000.00000
     Eigenvalues --- 1000.000001000.000001000.000001000.000001000.00000
     Eigenvalues --- 1000.000001000.000001000.000001000.000001000.00000
     Eigenvalues --- 1000.000001000.000001000.000001000.000001000.00000
     Eigenvalues --- 1000.000001000.000001000.000001000.000001000.00000
     Eigenvalues --- 1000.000001000.000001000.000001000.000001000.00000
     Eigenvalues --- 1000.000001000.000001000.000001000.000001000.00000
     Eigenvalues --- 1000.000001000.000001000.000001000.000001000.00000
     Eigenvalues --- 1000.000001000.000001000.000001000.000001000.00000
     Eigenvalues --- 1000.000001000.000001000.000001000.000001000.00000
     Eigenvalues --- 1000.000001000.000001000.000001000.000001000.00000
     Eigenvalues --- 1000.000001000.000001000.000001000.000001000.00000
     Eigenvalues --- 1000.000001000.000001000.000001000.000001000.00000
     Eigenvalues --- 1000.000001000.000001000.000001000.000001000.00000
     Eigenvalues --- 1000.000001000.000001000.000001000.000001000.00000
     Eigenvalues --- 1000.000001000.000001000.000001000.000001000.00000
     Eigenvalues --- 1000.000001000.000001000.000001000.000001000.00000
     Eigenvalues --- 1000.000001000.000001000.000001000.000001000.00000
     Eigenvalues --- 1000.000001000.000001000.000001000.000001000.00000
 RFO step:  Lambda=-3.58758301D-03 EMin= 6.22072070D-03
 Linear search not attempted -- first point.
 Iteration  1 RMS(Cart)=  0.06296565 RMS(Int)=  0.00075098
 Iteration  2 RMS(Cart)=  0.00258003 RMS(Int)=  0.00004440
 Iteration  3 RMS(Cart)=  0.00000187 RMS(Int)=  0.00004438
 Iteration  4 RMS(Cart)=  0.00000000 RMS(Int)=  0.00004438
 Iteration  1 RMS(Cart)=  0.00000085 RMS(Int)=  0.00000020
 Variable       Old X    -DE/DX   Delta X   Delta X   Delta X     New X
                                 (Linear)    (Quad)   (Total)
    R1        2.88886  -0.00078   0.00000  -0.00209  -0.00211   2.88675
    R2        2.87131   0.00009   0.00000   0.00047   0.00049   2.87179
    R3        2.05522   0.00325   0.00000   0.00915   0.00915   2.06437
    R4        2.05280   0.00283   0.00000   0.00795   0.00795   2.06076
    R5        2.65159   0.00347   0.00000   0.00729   0.00731   2.65890
    R6        2.64307   0.00271   0.00000   0.00588   0.00588   2.64895
    R7        2.87410  -0.00074   0.00000  -0.00261  -0.00263   2.87147
    R8        2.03802   0.00838   0.00000   0.02294   0.02294   2.06096
    R9        2.88492  -0.00216   0.00000  -0.00719  -0.00720   2.87771
   R10        2.87859  -0.00053   0.00000  -0.00183  -0.00183   2.87676
   R11        2.67804   0.00115   0.00000   0.00267   0.00267   2.68070
   R12        2.05078   0.00684   0.00000   0.01914   0.01914   2.06992
   R13        2.88995  -0.00141   0.00000  -0.00453  -0.00454   2.88541
   R14        2.05163   0.00258   0.00000   0.00723   0.00723   2.05886
   R15        2.05341   0.00340   0.00000   0.00955   0.00955   2.06296
   R16        2.67653   0.00343   0.00000   0.00791   0.00793   2.68446
   R17        2.66352   0.00282   0.00000   0.00640   0.00641   2.66994
   R18        2.87072   0.00022   0.00000   0.00081   0.00082   2.87154
   R19        2.04342   0.00437   0.00000   0.01208   0.01208   2.05549
   R20        2.05545   0.00607   0.00000   0.01712   0.01712   2.07257
   R21        2.68745   0.00306   0.00000   0.00706   0.00706   2.69451
   R22        2.04993   0.00649   0.00000   0.01814   0.01814   2.06807
   R23        2.04317   0.00440   0.00000   0.01216   0.01216   2.05533
   R24        2.89579  -0.00078   0.00000  -0.00270  -0.00271   2.89308
   R25        2.05617   0.00399   0.00000   0.01127   0.01127   2.06744
   R26        2.04798   0.00397   0.00000   0.01105   0.01105   2.05902
   R27        2.05510   0.00633   0.00000   0.01785   0.01785   2.07294
   R28        2.04322   0.00474   0.00000   0.01309   0.01309   2.05631
   R29        2.05427   0.00317   0.00000   0.00892   0.00892   2.06319
   R30        2.05174   0.00303   0.00000   0.00850   0.00850   2.06024
   R31        2.05333   0.00332   0.00000   0.00934   0.00934   2.06266
   R32        2.04982   0.00317   0.00000   0.00886   0.00886   2.05868
    A1        1.92342  -0.00102   0.00000  -0.00509  -0.00529   1.91813
    A2        1.91673   0.00092   0.00000   0.00177   0.00185   1.91858
    A3        1.93873  -0.00048   0.00000  -0.00156  -0.00153   1.93720
    A4        1.90561   0.00005   0.00000  -0.00178  -0.00173   1.90388
    A5        1.90268   0.00057   0.00000   0.00350   0.00355   1.90622
    A6        1.87580  -0.00001   0.00000   0.00337   0.00334   1.87914
    A7        1.94290   0.00013   0.00000  -0.00430  -0.00416   1.93874
    A8        1.94812   0.00348   0.00000   0.01328   0.01310   1.96122
    A9        1.83318  -0.00237   0.00000  -0.01170  -0.01172   1.82146
   A10        1.89017  -0.00326   0.00000  -0.01608  -0.01600   1.87418
   A11        1.92071   0.00185   0.00000   0.01303   0.01303   1.93374
   A12        1.92884   0.00033   0.00000   0.00669   0.00676   1.93560
   A13        1.92635  -0.00014   0.00000  -0.00354  -0.00360   1.92275
   A14        1.99803  -0.00154   0.00000  -0.00988  -0.00987   1.98815
   A15        1.90509   0.00049   0.00000  -0.00130  -0.00127   1.90382
   A16        1.83419   0.00071   0.00000   0.00255   0.00252   1.83672
   A17        1.89534  -0.00021   0.00000   0.00155   0.00154   1.89688
   A18        1.90169   0.00073   0.00000   0.01136   0.01134   1.91303
   A19        1.91475   0.00194   0.00000  -0.00097  -0.00097   1.91378
   A20        1.93019  -0.00027   0.00000   0.00177   0.00183   1.93202
   A21        1.91377  -0.00087   0.00000  -0.00199  -0.00208   1.91169
   A22        1.91550  -0.00054   0.00000   0.00191   0.00190   1.91740
   A23        1.92243  -0.00098   0.00000  -0.00671  -0.00671   1.91571
   A24        1.86677   0.00066   0.00000   0.00607   0.00608   1.87285
   A25        1.97421  -0.00445   0.00000  -0.02594  -0.02588   1.94833
   A26        1.93312   0.00191   0.00000   0.00884   0.00883   1.94195
   A27        1.85617  -0.00112   0.00000  -0.00329  -0.00328   1.85289
   A28        1.90209   0.00065   0.00000   0.00704   0.00708   1.90917
   A29        1.94520  -0.00044   0.00000  -0.00375  -0.00376   1.94144
   A30        1.93250  -0.00154   0.00000  -0.00949  -0.00951   1.92298
   A31        1.89250   0.00057   0.00000   0.00106   0.00102   1.89352
   A32        1.94385   0.00228   0.00000   0.00574   0.00569   1.94954
   A33        1.93148  -0.00168   0.00000  -0.00779  -0.00783   1.92365
   A34        1.94643  -0.00019   0.00000  -0.00153  -0.00147   1.94496
   A35        1.90937   0.00023   0.00000   0.00235   0.00241   1.91178
   A36        1.84189  -0.00133   0.00000  -0.00217  -0.00219   1.83970
   A37        1.88791   0.00071   0.00000   0.00377   0.00376   1.89167
   A38        1.90883   0.00130   0.00000  -0.00154  -0.00157   1.90726
   A39        1.90382  -0.00103   0.00000  -0.00649  -0.00650   1.89732
   A40        1.94092  -0.00069   0.00000  -0.00526  -0.00523   1.93569
   A41        1.91712  -0.00010   0.00000   0.00371   0.00370   1.92081
   A42        1.91373   0.00003   0.00000   0.00512   0.00513   1.91886
   A43        1.87919   0.00047   0.00000   0.00458   0.00453   1.88372
   A44        1.93709   0.00164   0.00000   0.00681   0.00683   1.94392
   A45        1.91589  -0.00231   0.00000  -0.01575  -0.01581   1.90007
   A46        1.92939  -0.00080   0.00000  -0.00717  -0.00721   1.92218
   A47        1.91591   0.00125   0.00000   0.01186   0.01191   1.92781
   A48        1.86762  -0.00049   0.00000   0.00315   0.00316   1.87078
   A49        1.89702   0.00078   0.00000   0.00170   0.00155   1.89857
   A50        1.93742  -0.00106   0.00000  -0.00760  -0.00765   1.92977
   A51        1.90247  -0.00017   0.00000  -0.00242  -0.00243   1.90003
   A52        1.90929   0.00082   0.00000   0.00553   0.00555   1.91485
   A53        1.91697   0.00076   0.00000   0.00089   0.00088   1.91785
   A54        1.92284  -0.00026   0.00000   0.00083   0.00085   1.92368
   A55        1.87363  -0.00005   0.00000   0.00313   0.00312   1.87675
   A56        2.02213  -0.00566   0.00000  -0.03594  -0.03583   1.98630
   A57        2.07267  -0.01422   0.00000  -0.05606  -0.05606   2.01661
   A58        1.95532  -0.00173   0.00000  -0.01500  -0.01511   1.94020
   A59        1.87126   0.00004   0.00000   0.00350   0.00350   1.87476
   A60        1.90069   0.00082   0.00000  -0.00038  -0.00037   1.90032
   A61        1.91115   0.00124   0.00000   0.00767   0.00775   1.91890
   A62        1.94721  -0.00027   0.00000  -0.00152  -0.00162   1.94559
   A63        1.87495  -0.00002   0.00000   0.00683   0.00680   1.88175
    D1        0.92271  -0.00009   0.00000   0.00815   0.00815   0.93086
    D2        3.03804   0.00033   0.00000   0.01104   0.01107   3.04910
    D3       -1.19071   0.00045   0.00000   0.01832   0.01835  -1.17236
    D4       -1.17726  -0.00009   0.00000   0.01246   0.01245  -1.16481
    D5        0.93806   0.00033   0.00000   0.01534   0.01537   0.95343
    D6        2.99250   0.00044   0.00000   0.02263   0.02265   3.01515
    D7        3.03329  -0.00036   0.00000   0.00812   0.00808   3.04137
    D8       -1.13458   0.00006   0.00000   0.01100   0.01100  -1.12358
    D9        0.91986   0.00017   0.00000   0.01829   0.01828   0.93814
   D10       -0.96109  -0.00131   0.00000  -0.01899  -0.01904  -0.98013
   D11        1.16692  -0.00063   0.00000  -0.01746  -0.01753   1.14939
   D12       -3.01378  -0.00101   0.00000  -0.01900  -0.01904  -3.03282
[...]
 .02808033,0.05249979,-0.29534683,0.00007898,0.00002668,0.00010219,0.00
 041872,-0.00005153,0.00034396,0.00000731,0.00000947,0.00004376,0.00000
 207,-0.00000240,-0.00000098,0.00000632,0.00000245,0.00000217,0.0002532
 2,0.00051796,0.00042736,0.00001104,0.00000641,0.00000558,-0.00000124,-
 0.00000361,0.00000107,-0.00031390,0.00035678,0.00070655,-0.00049485,0.
 00026771,0.00120715,0.00000011,0.00000338,-0.00000332,0.00000874,0.000
 00005,0.00001032,0.00282078,0.00018382,0.00008458,0.00001607,-0.000250
 06,0.00055843,0.02835159,-0.05825385,0.32107133,0.00000361,-0.00001771
 ,-0.00000660,0.00100057,-0.00096049,-0.00000236,-0.00299640,0.00310051
 ,0.00426787,-0.00001157,0.00000691,0.00003903,0.00021544,0.00559829,0.
 00009864,0.00990063,0.00964928,0.00781411,0.00012470,0.00007002,0.0001
 1772,-0.01710892,-0.02305738,-0.01274299,-0.00112430,0.00058339,0.0003
 7948,-0.12253789,-0.10425697,-0.06152847,-0.00032023,0.00013746,-0.000
 25675,-0.00262891,-0.00208653,0.00006994,-0.00004202,0.00011402,-0.000
 04562,-0.00001048,0.00000621,0.00000335,-0.00001795,-0.00000946,-0.000
 00727,0.00014671,0.00020977,-0.00015543,-0.00003398,-0.00000879,-0.000
 00638,0.00000409,0.00002741,0.00000158,0.00018332,-0.00104339,0.000307
 69,0.00048750,-0.00070081,-0.00026605,0.00000673,0.00000840,0.00002282
 ,-0.00002218,0.00000800,-0.00002265,0.00143526,0.00021261,0.00006925,0
 .00108255,0.00048795,-0.00067519,-0.00226328,-0.00187635,-0.00145477,0
 .13413483,0.00000176,-0.00000529,-0.00000261,0.00015853,-0.00015384,0.
 00005589,0.00066585,0.00135319,0.00036388,-0.00000487,0.00000083,0.000
 01332,0.00168795,-0.00861802,0.00026090,-0.01820336,-0.01634983,-0.012
 66066,0.00003801,0.00002302,0.00003528,-0.00034847,-0.00005448,0.00078
 536,0.00199675,0.00068252,-0.00094416,-0.10342964,-0.19361979,-0.08177
 340,-0.00009119,0.00002226,-0.00007061,-0.00017920,0.00020797,-0.00013
 360,-0.00001198,0.00002049,-0.00002286,-0.00000327,0.00000179,0.000001
 56,-0.00000511,-0.00000280,-0.00000220,-0.00004324,-0.00014303,-0.0001
 3316,-0.00000880,-0.00000418,-0.00000301,0.00000103,0.00000381,-0.0000
 0122,0.00037327,0.00078528,-0.00028476,-0.00014994,0.00095387,0.000709
 64,0.00000439,0.00000148,0.00000652,-0.00000695,0.00000147,-0.00000761
 ,-0.00009931,0.00007888,0.00010299,-0.00026597,0.00038791,0.00035695,0
 .00450803,0.00582440,0.00254539,0.11385297,0.20864430,-0.00000165,0.00
 000458,0.00000012,-0.00028462,0.00032572,0.00000798,0.00207280,-0.0011
 3550,-0.00126462,0.00000129,-0.00000042,-0.00000702,-0.00012578,0.0003
 9208,0.00159929,0.00237437,0.00339474,-0.00027902,-0.00002289,-0.00001
 369,-0.00002294,0.00973674,0.01332746,0.00585748,0.00012712,-0.0000938
 3,-0.00024882,-0.06220934,-0.08373937,-0.09469992,0.00006149,-0.000041
 78,0.00006355,0.00128947,0.00077938,0.00015721,0.00001102,-0.00003923,
 -0.00000251,0.00000159,-0.00000168,-0.00000011,0.00000354,0.00000164,0
 .00000174,0.00011045,0.00030682,0.00036332,0.00000850,-0.00000073,0.00
 000098,0.00000032,-0.00000953,-0.00000131,0.00007554,-0.00012576,0.000
 07911,0.00032034,-0.00045954,0.00013232,-0.00000307,0.00000207,-0.0000
 0695,0.00000488,-0.00000267,0.00000419,-0.00077920,0.00019411,0.000723
 49,-0.00085063,-0.00027469,0.00026397,-0.01591594,-0.02330359,-0.01228
 426,0.06411432,0.09058727,0.09958096,0.00068644,-0.00017021,0.00073594
 ,-0.01445771,0.02354831,0.00328871,0.00067750,0.00163107,-0.00059293,0
 .01056976,-0.01488815,-0.00492166,-0.00051499,0.00019959,0.00004772,0.
 00012135,0.00008034,0.00009646,-0.00020346,-0.00006575,0.00001509,-0.0
 0016142,0.00008736,0.00019453,-0.00004679,-0.00056026,0.00030526,0.000
 02620,-0.00012579,-0.00012934,0.00164325,-0.00055074,-0.00092604,-0.00
 774049,-0.00201465,0.00448489,-0.13943870,0.11857181,0.03740330,-0.000
 19602,0.00027293,0.00021801,-0.00008532,0.00000992,0.00026706,-0.00021
 201,-0.00005456,0.00023891,0.00093370,0.00050828,0.00070259,-0.0010815
 8,-0.00242233,-0.00283993,-0.00003116,-0.00000389,-0.00000267,-0.00000
 495,-0.00000765,-0.00002595,-0.00005035,-0.00000816,-0.00007346,0.0000
 5516,0.00000998,0.00001507,0.00000321,-0.00000659,-0.00003001,0.000017
 55,-0.00004087,-0.00002757,-0.00000288,0.00000466,0.00001333,-0.000077
 00,-0.00001753,0.00002009,0.15418495,0.00035507,0.00075359,0.00100825,
 -0.00722860,0.00802318,0.00333297,-0.00046877,0.00072398,0.00011863,0.
 01175807,-0.01860554,-0.00547775,-0.00014239,0.00005913,0.00001343,0.0
 0002909,0.00002767,0.00001373,-0.00027803,-0.00005614,-0.00014928,0.00
 005300,0.00002758,-0.00002699,-0.00008735,-0.00015506,0.00010094,0.000
 00490,-0.00001584,-0.00000247,-0.00003954,0.00044202,-0.00071514,-0.00
 273991,0.00027200,0.00170382,0.12267524,-0.20546243,-0.04657293,-0.000
 13452,0.00054062,-0.00049190,-0.00029831,0.00017211,0.00011713,0.00000
 570,-0.00000583,0.00001570,0.00001364,0.00066871,0.00060994,-0.0027487
 2,-0.00159839,-0.00295071,-0.00000428,-0.00000502,-0.00000122,-0.00000
 215,-0.00000280,-0.00000416,-0.00002890,-0.00005497,0.00003678,0.00007
 498,0.00004696,-0.00003535,-0.00000791,-0.00000566,-0.00000613,-0.0000
 0046,-0.00003188,-0.00000179,0.00000009,0.00000101,0.00000049,-0.00000
 469,-0.00000285,0.00000105,-0.12909153,0.22427097,0.00108594,-0.000495
 27,0.00074677,0.00813383,-0.01283355,-0.00513689,0.00016793,-0.0007077
 3,0.00069601,0.01134950,-0.01547848,-0.00539825,0.00019650,-0.00008160
 ,-0.00002971,-0.00004702,-0.00003172,-0.00003195,0.00002680,-0.0001580
 5,-0.00023480,0.00006737,-0.00004344,-0.00008514,0.00006500,0.00022928
 ,-0.00013214,-0.00000448,0.00005116,0.00003714,-0.00053159,0.00026662,
 0.00084822,0.00298058,0.00118270,-0.00098772,0.03548381,-0.04473448,-0
 .06312034,-0.00030133,0.00029244,-0.00017839,-0.00020860,0.00018025,0.
 00020450,-0.00004746,-0.00000075,-0.00001491,-0.00002695,0.00075087,0.
 00079631,-0.00194467,-0.00239429,-0.00168309,0.00000942,0.00000290,0.0
 0000082,0.00000186,0.00000253,0.00000834,-0.00006592,0.00003609,0.0000
 8231,0.00003314,0.00002956,-0.00001809,0.00000122,-0.00000160,0.000007
 84,-0.00000941,0.00001401,0.00000795,0.00000268,-0.00000082,-0.0000049
 0,0.00002423,0.00000596,-0.00000826,-0.03951404,0.05322547,0.06527004,
 -0.00113480,-0.00340488,-0.00179230,0.00926118,-0.01048216,0.02208017,
 0.00034095,-0.00009333,-0.00010941,-0.00452824,0.00885959,-0.01315086,
 0.00005304,-0.00001748,-0.00000206,-0.00001562,-0.00001451,-0.00000563
 ,-0.00114507,-0.00106512,-0.00089080,0.00002361,-0.00003833,-0.0000321
 5,-0.00000073,0.00006391,-0.00003794,0.00000210,0.00002527,0.00000838,
 -0.00391489,-0.00305266,0.00662236,0.00057518,0.00009876,-0.00036529,-
 0.07029451,0.03504263,-0.06515957,0.00009032,-0.00020437,0.00041424,0.
 00013511,0.00037948,-0.00128503,0.00008047,-0.00004971,-0.00001369,0.0
 0011789,0.00055407,0.00049515,0.00073524,-0.00013104,0.00053986,0.0000
 0142,0.00000196,-0.00000041,-0.00000005,0.00000147,0.00000182,0.000101
 26,0.00014222,0.00008453,0.00020526,0.00018295,0.00007623,-0.00000519,
 0.00000386,-0.00000461,0.00000872,0.00001880,0.00000999,0.00000054,-0.
 00000069,-0.00000021,0.00000781,0.00000078,-0.00000229,-0.00520964,0.0
 0786965,-0.01641579,0.07384909,-0.00238470,-0.00308453,-0.00232020,0.0
 0674991,-0.00630739,0.00838971,-0.00019182,0.00006417,-0.00021009,-0.0
 0565073,0.01121378,-0.02039147,-0.00003750,0.00000731,0.00001158,0.000
 00305,0.00000322,0.00000993,-0.00074014,-0.00090381,-0.00066032,-0.000
 01695,-0.00001846,0.00002922,-0.00000487,-0.00003591,-0.00000738,0.000
 00021,0.00000679,-0.00001621,-0.00267424,-0.00042078,0.00342762,0.0009
 0999,0.00046138,-0.00084311,0.03272909,-0.10291342,0.10466283,-0.00014
 069,0.00016559,-0.00010553,-0.00029384,0.00055507,-0.00122659,0.000085
 39,-0.00000394,-0.00007165,0.00043988,0.00070382,0.00092675,0.00075004
 ,0.00095348,0.00060546,-0.00000419,0.00000165,-0.00000007,0.00000018,-
 0.00000026,-0.00000301,0.00008368,0.00013599,0.00009520,0.00013538,0.0
 0012272,0.00011298,-0.00000662,0.00000052,-0.00000261,0.00001220,0.000
 01918,0.00000396,0.00000034,-0.00000037,0.00000271,-0.00000651,-0.0000
 0331,0.00000130,0.00515745,-0.01078692,0.02041140,-0.03496735,0.109969
 54,-0.00196249,-0.00388051,-0.00059805,-0.00644560,0.00612627,-0.01361
 660,0.00023240,-0.00008015,0.00025598,-0.00442360,0.00827029,-0.015376
 25,-0.00000858,-0.00000300,-0.00000328,0.00001174,0.00000974,-0.000004
 78,-0.00007870,0.00044819,0.00126940,-0.00001995,0.00003748,0.00000218
 ,0.00002744,0.00000054,0.00001182,-0.00000460,-0.00003712,-0.00000092,
 0.00297099,0.00190100,-0.00206251,-0.00088579,-0.00042472,0.00134498,-
 0.06171336,0.10274979,-0.24042504,-0.00007355,0.00013932,0.00007303,-0
 .00009620,0.00066279,-0.00102429,-0.00015142,-0.00001373,0.00011837,-0
 .00007005,-0.00003724,0.00066970,0.00051371,0.00011875,0.00051202,0.00
 000124,-0.00000411,0.00000025,-0.00000007,-0.00000068,0.00000063,0.000
 04527,-0.00011266,-0.00007368,0.00000705,0.00002799,-0.00005939,0.0000
 0720,0.00000239,-0.00000250,-0.00001233,-0.00004248,0.00000249,0.00000
 208,0.00000051,-0.00000177,-0.00000466,0.00000131,0.00000148,0.0017205
 0,-0.00344639,0.00784206,0.06995658,-0.11238975,0.26085687,0.00041482,
 0.00008344,0.00034705,-0.10033151,-0.08688603,-0.05742849,0.00349296,0
 .00115865,-0.00041572,-0.00284113,-0.00085507,0.00410222,-0.00014302,-
 0.00005562,-0.00004359,-0.00010120,0.00008006,0.00007137,0.00149863,0.
 00140391,-0.00006162,-0.00158448,-0.00105616,0.00104937,-0.00007051,-0
 .00011276,-0.00001728,0.00009407,0.00050505,-0.00005802,-0.00220313,-0
 .00437509,-0.00938587,0.00391528,0.02853894,0.01425804,-0.01101652,-0.
 01968814,-0.01309767,-0.00006153,0.00010836,-0.00003224,0.00000235,0.0
 0002930,-0.00008285,-0.00030211,-0.00016123,0.00017086,-0.00081060,-0.
 00098133,-0.00094244,0.00004378,-0.00020281,-0.00006463,-0.00003850,-0
 .00001137,-0.00002317,-0.00000734,-0.00000130,-0.00000244,-0.00011778,
 -0.00018894,-0.00023143,-0.00011626,-0.00019388,-0.00028392,-0.0003489
 8,-0.00026228,-0.00034732,-0.00236914,-0.00039610,0.00074071,0.0000841
 6,0.00000345,-0.00003899,0.00005227,0.00000323,-0.00001601,0.00060098,
 0.00046437,-0.00051188,0.00066174,0.00007128,0.00044512,0.11157469,0.0
 0010555,-0.00002417,0.00027813,-0.08590409,-0.19125920,-0.10551231,-0.
 00432167,-0.00126044,0.00240415,-0.00131802,0.00065437,0.00177224,0.00
 057535,-0.00005139,-0.00003866,-0.00029086,-0.00019352,-0.00000669,0.0
 0006141,0.00010533,0.00277101,-0.00043902,-0.00008925,0.00036401,-0.00
 017314,0.00036161,-0.00013661,0.00010019,0.00071589,0.00017973,0.00669
 062,0.01195720,0.01184426,0.00731719,-0.03313266,-0.01530515,-0.005682
 61,-0.00628242,-0.00584678,0.00001096,0.00000946,-0.00006361,0.0000899
 7,0.00001198,-0.00013580,0.00039093,0.00020269,-0.00038392,-0.00028173
 ,-0.00043282,-0.00050253,0.00019097,0.00010939,0.00006739,-0.00000288,
 0.00008799,0.00000569,0.00001295,0.00001211,0.00002068,0.00013904,0.00
 019199,0.00034744,0.00024847,0.00031945,0.00043196,0.00029911,-0.00019
 585,0.00016463,-0.00119814,0.00073092,0.00023446,-0.00005068,-0.000008
 17,0.00004465,0.00011515,-0.00000169,-0.00005830,-0.00009251,0.0007555
 8,0.00029510,0.00027908,0.00008675,-0.00001690,0.08313373,0.21648306,-
 0.00001061,-0.00012083,-0.00065560,-0.04988549,-0.09592694,-0.11691070
 ,-0.00125351,-0.00082588,0.00003436,0.00254672,0.00091226,-0.00181023,
 0.00012790,0.00001761,-0.00000809,-0.00016835,-0.00016457,0.00007943,0
 .00107264,0.00562770,-0.00200458,0.00007373,-0.00033163,0.00043589,0.0
 0009161,0.00012747,0.00006419,0.00000089,0.00049541,-0.00017052,-0.022
 10212,-0.02062280,-0.03536454,0.00182131,-0.00590752,0.00304482,0.0074
 1153,0.01100323,0.01093109,-0.00005164,-0.00001918,0.00009549,-0.00021
 162,-0.00018180,0.00026995,0.00002325,0.00001418,0.00005668,0.00060702
 ,0.00063468,0.00063143,-0.00008421,0.00008583,-0.00000857,-0.00003151,
 0.00007560,0.00000434,0.00000252,0.00000706,-0.00000524,0.00003579,-0.
 00032699,-0.00016277,-0.00085441,-0.00105369,-0.00117939,-0.00008286,-
 0.00010609,-0.00009010,0.00071669,0.00064791,-0.00045740,-0.00000491,0
 .00000134,0.00004744,-0.00001403,-0.00001953,-0.00000715,-0.00065829,-
 0.00041385,0.00050631,-0.00101911,-0.00044233,0.00029024,0.06192536,0.
 10675086,0.14234161,-0.00001169,0.00001246,-0.00001538,0.00018528,-0.0
 0013823,-0.00011438,-0.00350266,0.00405647,-0.01950422,-0.00000474,0.0
 0000933,0.00000027,-0.00880496,-0.00990170,0.03938504,0.00364168,0.002
 88327,0.00466717,0.00013612,0.00005003,0.00011391,0.00032871,-0.001262
 07,0.00014048,-0.05823071,0.00654828,-0.05122835,-0.00042866,-0.000289
 63,-0.00039094,-0.00046404,0.00004986,0.00013588,0.00139525,-0.0001591
 9,-0.00027403,-0.00002005,0.00003705,-0.00000491,-0.00001447,-0.000003
 87,0.00000909,-0.00001195,-0.00001030,0.00000088,-0.00182769,0.0031515
 0,0.00046528,-0.00000845,-0.00000662,0.00000424,0.00000371,0.00000088,
 -0.00000240,0.00003275,0.00019508,-0.00022835,0.00024483,0.00052704,-0
 .00136981,0.00006795,0.00004241,0.00003111,-0.00001554,0.00000867,-0.0
 0001228,0.00031560,0.00020084,0.00048607,-0.00010185,-0.00009618,0.000
 22737,-0.00013577,0.00008216,-0.00006780,0.00020287,-0.00019668,-0.000
 10899,-0.00001876,-0.00000459,0.00000484,-0.00000112,-0.00000709,0.000
 01080,0.00000741,0.00000516,0.00000386,0.06802414,0.00001663,-0.000021
 98,0.00000969,-0.00003010,-0.00017856,0.00003764,0.00825429,-0.0069549
 8,0.02911071,0.00000650,-0.00001033,0.00000144,-0.00329127,0.00188983,
 0.00325507,0.00044119,0.00018438,0.00242108,-0.00012604,-0.00001989,-0
 .00011330,-0.00016176,0.00179067,0.00119685,0.00714230,-0.06186259,0.0
 3843912,-0.00003583,-0.00029853,-0.00013018,0.00036561,0.00007587,-0.0
 0023275,-0.00212782,0.00113581,-0.00045046,0.00001242,-0.00001959,0.00
 000389,0.00001520,0.00000536,-0.00000942,0.00000940,0.00000967,-0.0000
 0015,0.00290474,-0.00370049,0.00025947,0.00000513,0.00000534,-0.000004
 95,-0.00000356,-0.00000373,-0.00000044,0.00002173,0.00000991,-0.000142
 93,-0.00001073,0.00011688,-0.00013882,-0.00003053,-0.00006646,-0.00002
 068,0.00001076,-0.00001225,0.00001060,-0.00001734,-0.00031935,-0.00054
 105,0.00004389,0.00026622,-0.00040686,0.00000650,0.00007543,-0.0001142
 1,-0.00004520,-0.00001002,-0.00001411,0.00001540,0.00000383,-0.0000028
 8,0.00000064,0.00000739,-0.00000660,0.00000409,-0.00000495,-0.00000892
 ,-0.00919510,0.06184908,0.00000156,0.00001014,0.00000200,-0.00011058,-
 0.00006229,0.00026986,-0.00121006,0.00054453,-0.00644375,-0.00000643,0
 .00000696,0.00001134,0.01409089,0.00509433,-0.02073075,-0.00227901,-0.
 00244616,0.00094644,0.00006704,-0.00003890,0.00001684,0.00022260,-0.00
 052025,0.00065049,-0.04896776,0.04111276,-0.27664791,0.00039354,0.0001
 3436,0.00012045,0.00011662,-0.00010789,0.00007151,-0.00048800,-0.00052
 513,0.00130320,-0.00004096,0.00007805,-0.00002101,-0.00000860,0.000000
 33,0.00000501,-0.00000368,-0.00000202,-0.00000314,-0.00007492,0.000890
 19,0.00073086,-0.00000877,-0.00000609,-0.00000156,0.00000303,0.0000004
 2,-0.00000384,0.00027127,0.00002167,0.00051449,0.00078056,0.00114448,0
 .00068806,0.00002165,0.00001897,0.00001961,-0.00000725,0.00000855,-0.0
 0000529,0.00043399,0.00053194,0.00031254,-0.00008415,0.00002577,0.0002
 1312,-0.00013683,-0.00007287,-0.00013548,-0.00001526,0.00016925,0.0000
 0729,-0.00003548,-0.00000977,0.00001336,-0.00000093,-0.00000014,0.0000
 0038,-0.00002022,0.00002821,-0.00000409,0.04056735,-0.04845548,0.30920
 621,0.00000545,-0.00001997,-0.00000225,0.00017154,0.00003575,-0.000037
 78,0.00914541,0.01503720,0.00875351,-0.00001273,0.00000772,0.00000325,
 -0.02570240,-0.02948948,-0.01100262,-0.00303579,0.00208591,0.00492461,
 -0.00002966,0.00005650,0.00004106,-0.00264074,0.00298595,-0.00031635,-
 0.09750920,-0.08833839,-0.04922681,-0.00074122,-0.00035062,-0.00016038
 ,0.00001760,-0.00007655,-0.00000054,0.00171627,-0.00049002,-0.00071888
 ,-0.00000225,-0.00004788,-0.00001306,0.00000532,0.00000217,-0.00000314
 ,-0.00000077,0.00000041,0.00000081,0.00084450,-0.00085274,-0.00008686,
 -0.00000034,-0.00000115,-0.00000234,0.00001452,-0.00001316,-0.00000482
 ,-0.00095743,-0.00151725,-0.00038212,0.00009768,0.00015104,-0.00012230
 ,0.00008140,-0.00010603,-0.00000470,0.00001096,-0.00000870,-0.00000295
 ,-0.00005081,-0.00005691,0.00001975,0.00052403,0.00112077,0.00036105,0
 .00009616,-0.00002339,-0.00000787,0.00020621,-0.00022705,-0.00001344,0
 .00001317,0.00000687,-0.00000552,-0.00000108,-0.00000085,-0.00000117,0
 .00002058,-0.00001047,-0.00002815,-0.00098321,-0.00420112,-0.00347122,
 0.11869682,0.00000612,0.00001232,0.00000928,0.00017271,0.00031301,0.00
 018015,-0.01263403,-0.02305166,-0.01305000,0.00000967,-0.00000827,-0.0
 0001805,-0.00513785,-0.00089698,0.00102276,0.00102554,0.00187124,0.001
 32742,-0.00001888,-0.00006208,-0.00008294,0.00460816,-0.00300760,0.001
 61531,-0.09398752,-0.21777037,-0.09023886,0.00037021,0.00039884,-0.000
 24709,0.00010685,0.00003150,0.00005495,-0.00064297,0.00171038,0.000487
 57,0.00006232,-0.00005183,0.00003293,-0.00000041,0.00000004,-0.0000000
 8,0.00000800,0.00000486,0.00000204,-0.00045620,0.00128923,0.00037763,0
 .00000634,0.00000921,0.00000477,0.00001127,-0.00000691,-0.00000476,-0.
 00007659,-0.00007135,-0.00016597,-0.00003892,-0.00007621,-0.00021209,0
 .00004802,-0.00003278,0.00001897,0.00000189,0.00000428,0.00000947,0.00
 003564,0.00013584,-0.00010515,-0.00091033,-0.00138178,-0.00062051,-0.0
 0006802,0.00000281,0.00009030,-0.00011406,-0.00002433,-0.00000379,0.00
 002409,0.00000039,-0.00001168,-0.00000348,0.00000073,-0.00000033,-0.00
 015977,0.00014078,0.00007142,0.00341076,0.00605803,0.00242611,0.104341
 45,0.23445865,0.00000287,-0.00001334,0.00000219,0.00001970,0.00012247,
 -0.00004416,0.00077636,0.00587469,0.00210941,0.00000244,-0.00000902,-0
 .00000209,0.01289757,0.01680853,0.00818727,0.00209178,0.00006087,-0.00
 137834,-0.00002630,0.00004088,0.00000535,-0.00018798,0.00000951,0.0006
 9448,-0.05653007,-0.09640880,-0.10453472,0.00029532,0.00020044,-0.0000
 3687,0.00002491,-0.00000430,-0.00001212,0.00052021,-0.00044727,-0.0001
 5049,0.00001789,-0.00003278,-0.00000471,0.00000556,0.00000285,-0.00000
 523,0.00000198,0.00000144,0.00000028,0.00074993,-0.00017989,0.00060297
 ,-0.00000006,0.00000463,-0.00000077,0.00000391,0.00000375,0.00000016,0
 .00045814,0.00040180,0.00047209,0.00029183,0.00015673,0.00049551,0.000
 05784,-0.00006963,-0.00000166,0.00000488,-0.00000362,0.00000199,0.0001
 6590,0.00038531,0.00033394,-0.00010212,-0.00002927,0.00028376,-0.00000
 076,-0.00002273,-0.00001751,-0.00012555,0.00005791,-0.00001161,0.00000
 993,0.00000749,-0.00000337,-0.00000122,-0.00000017,-0.00000284,-0.0000
 0431,0.00000266,0.00000568,-0.01293181,-0.02395135,-0.01110624,0.05151
 122,0.09703022,0.10411764\\-0.00000266,-0.00000467,-0.00000667,0.00034
 125,0.00016011,0.00068033,0.00064725,-0.00048797,0.00086569,-0.0000060
 0,-0.00000186,0.00000522,-0.00000473,0.00000016,0.00000267,0.00001171,
 0.00000411,0.00000441,0.00000929,0.00000922,-0.00000202,-0.00035133,0.
 00040395,-0.00041596,-0.00000301,-0.00000577,0.00000465,0.00000063,0.0
 0000297,0.00000096,-0.00001678,0.00001318,-0.00002871,-0.00062750,-0.0
 0008802,-0.00109868,0.00000654,0.00000018,-0.00000661,0.00000206,-0.00
 000152,0.00000080,-0.00000108,0.00000366,-0.00000105,0.,-0.00000270,0.
 00001169,0.00000621,0.00000098,0.00000368,0.00000022,0.00000071,0.0000
 0058,-0.00000205,-0.00000023,0.00000269,-0.00000218,0.00000006,-0.0000
 0557,-0.00000398,0.00000091,0.00000144,0.00000197,-0.00000512,-0.00000
 164,-0.00000068,0.00000136,-0.00000372,0.00000267,-0.00000328,0.000001
 44,0.00000109,-0.00000084,0.00000015,0.00000115,-0.00000125,-0.0000041
 9,0.00000103,0.00000230,-0.00000221,-0.00000240,0.00000206,0.00000177,
 -0.00000823,-0.00000443,-0.00000788,-0.00000089,0.00000025,-0.00000620
 ,0.00000044,0.00000149,0.00000295\\\@


 The best way to pay for a lovely moment is to enjoy it.
 -- Richard Bach
 Job cpu time:       0 days 17 hours 28 minutes  8.7 seconds.
 Elapsed time:       0 days  1 hours  5 minutes 32.3 seconds.
 File lengths (MBytes):  RWF=    686 Int=      0 D2E=      0 Chk=     33 Scr=      1
 Normal termination of Gaussian 16 at Sun Nov  4 23:04:46 2018.
