 Entering Gaussian System, Link 0=g16
 Initial command:
 /apps/gaussian/g16a03/g16/l1.exe "/jobfs/local/2011958.r-man2/Gau-1043.inp" -scrdir="/jobfs/local/2011958.r-man2/"
 Entering Link 1 = /apps/gaussian/g16a03/g16/l1.exe PID=      1044.
  
 Copyright (c) 1988,1990,1992,1993,1995,1998,2003,2009,2016,
            Gaussian, Inc.  All Rights Reserved.
  
 This is part of the Gaussian(R) 16 program.  It is based on
 the Gaussian(R) 09 system (copyright 2009, Gaussian, Inc.),
 the Gaussian(R) 03 system (copyright 2003, Gaussian, Inc.),
 the Gaussian(R) 98 system (copyright 1998, Gaussian, Inc.),
 the Gaussian(R) 94 system (copyright 1995, Gaussian, Inc.),
 the Gaussian 92(TM) system (copyright 1992, Gaussian, Inc.),
 the Gaussian 90(TM) system (copyright 1990, Gaussian, Inc.),
 the Gaussian 88(TM) system (copyright 1988, Gaussian, Inc.),
 the Gaussian 86(TM) system (copyright 1986, Carnegie Mellon
 University), and the Gaussian 82(TM) system (copyright 1983,
 Carnegie Mellon University). Gaussian is a federally registered
 trademark of Gaussian, Inc.
  
 This software contains proprietary and confidential information,
 including trade secrets, belonging to Gaussian, Inc.
  
 This software is provided under written license and may be
 used, copied, transmitted, or stored only in accord with that
 written license.
  
 The following legend is applicable only to US Government
 contracts under FAR:
  
                    RESTRICTED RIGHTS LEGEND
  
 Use, reproduction and disclosure by the US Government is
 subject to restrictions as set forth in subparagraphs (a)
 and (c) of the Commercial Computer Software - Restricted
 Rights clause in FAR 52.227-19.
  
 Gaussian, Inc.
 340 Quinnipiac St., Bldg. 40, Wallingford CT 06492
  
  
 ---------------------------------------------------------------
 Warning -- This program may not be used in any manner that
 competes with the business of Gaussian, Inc. or will provide
 assistance to any competitor of Gaussian, Inc.  The licensee
 of this program is prohibited from giving any competitor of
 Gaussian, Inc. access to this program.  By using this program,
 the user acknowledges that Gaussian, Inc. is engaged in the
 business of creating and licensing software in the field of
 computational chemistry and represents and warrants to the
 licensee that it is not a competitor of Gaussian, Inc. and that
 it will not use this program in any manner prohibited above.
 ---------------------------------------------------------------
  

 Cite this work as:
 Gaussian 16, Revision A.03,
 M. J. Frisch, G. W. Trucks, H. B. Schlegel, G. E. Scuseria, 
 M. A. Robb, J. R. Cheeseman, G. Scalmani, V. Barone, 
 G. A. Petersson, H. Nakatsuji, X. Li, M. Caricato, A. V. Marenich, 
 J. Bloino, B. G. Janesko, R. Gomperts, B. Mennucci, H. P. Hratchian, 
 J. V. Ortiz, A. F. Izmaylov, J. L. Sonnenberg, D. Williams-Young, 
 F. Ding, F. Lipparini, F. Egidi, J. Goings, B. Peng, A. Petrone, 
 T. Henderson, D. Ranasinghe, V. G. Zakrzewski, J. Gao, N. Rega, 
 G. Zheng, W. Liang, M. Hada, M. Ehara, K. Toyota, R. Fukuda, 
 J. Hasegawa, M. Ishida, T. Nakajima, Y. Honda, O. Kitao, H. Nakai, 
 T. Vreven, K. Throssell, J. A. Montgomery, Jr., J. E. Peralta, 
 F. Ogliaro, M. J. Bearpark, J. J. Heyd, E. N. Brothers, K. N. Kudin, 
 V. N. Staroverov, T. A. Keith, R. Kobayashi, J. Normand, 
 K. Raghavachari, A. P. Rendell, J. C. Burant, S. S. Iyengar, 
 J. Tomasi, M. Cossi, J. M. Millam, M. Klene, C. Adamo, R. Cammi, 
 J. W. Ochterski, R. L. Martin, K. Morokuma, O. Farkas, 
 J. B. Foresman, and D. J. Fox, Gaussian, Inc., Wallingford CT, 2016.
 
 ******************************************
 Gaussian 16:  ES64L-G16RevA.03 25-Dec-2016
                 4-Nov-2018 
 ******************************************
 %mem=6000mb
 %nproc=24
 Will use up to   24 processors via shared memory.
 %chk=D_1a_4e_D_PSI.inp_extract_14.chk
 ----------------------------------------------------------------------
 #M062X/6-311++G(2d,2p) opt=ModRedundant freq=noraman SCRF=(Solvent=Wat
 er)
 ----------------------------------------------------------------------
 1/18=120,19=15,26=3,38=1/1,3;
 2/9=110,12=2,17=6,18=5,40=1/2;
 3/5=4,6=6,7=1212,11=2,25=1,30=1,70=2201,71=1,72=1,74=-55/1,2,3;
 4//1;
 5/5=2,38=5,53=1/2;
 6/7=2,8=2,9=2,10=2,28=1/1;
 7//1,2,3,16;
 1/18=20,19=15,26=3/3(2);
 2/9=110/2;
 99//99;
 2/9=110/2;
 3/5=4,6=6,7=1212,11=2,25=1,30=1,70=2205,71=1,72=1,74=-55/1,2,3;
 4/5=5,16=3,69=1/1;
 5/5=2,38=5,53=1/2;
 7//1,2,3,16;
 1/18=20,19=15,26=3/3(-5);
 2/9=110/2;
 6/7=2,8=2,9=2,10=2,19=2,28=1/1;
 99/9=1/99;
 ----------------------------
 D_1a_4e_D_PSI.inp_extract_14
 ----------------------------
 Symbolic Z-matrix:
 Charge =  0 Multiplicity = 1
 C                    -3.50487  -0.58222   0.7113 
 C                    -1.26603   0.32422  -0.88781 
 C                     1.0919    0.39724  -0.36156 
 C                    -3.17614   0.90981   0.66389 
 O                     2.83337  -1.275    -0.38004 
 C                     3.70469  -0.50359   0.42604 
 C                    -2.25237  -1.40214   0.45119 
 C                     1.98951   1.31808   0.45389 
 C                     1.46565  -1.0613   -0.10164 
 C                     3.46183   0.98083   0.21187 
 O                    -1.62854  -1.02694  -0.7701 
 O                    -0.24813   0.66674   0.00827 
 C                    -2.46083   1.23571  -0.64793 
 H                    -4.25119  -0.81898  -0.0435 
 H                    -3.91697  -0.86194   1.67673 
 H                     1.2145    0.60891  -1.41978 
 H                    -4.0811    1.5038    0.74672 
 H                    -2.54559   1.17272   1.50919 
 H                     4.70987  -0.78597   0.14427 
 H                     3.55239  -0.77101   1.46936 
 H                    -1.54567  -1.28925   1.26623 
 H                    -2.48133  -2.45382   0.34824 
 H                     1.75231   1.188     1.50738 
 H                     1.78242   2.35224   0.19772 
 H                     3.74192   1.24389  -0.80506 
 H                     4.09659   1.55235   0.8823 
 H                    -3.14751   1.09343  -1.47798 
 H                    -2.12619   2.26699  -0.67465 
 H                    -0.90039   0.42903  -1.89954 
 H                     1.25634  -1.31615   0.9348 
 H                     0.91591  -1.73245  -0.7429 
 
 The following ModRedundant input section has been read:
 D       8       3      12       2 F                                           
 

 GradGradGradGradGradGradGradGradGradGradGradGradGradGradGradGradGradGrad
 Berny optimization.
 Initialization pass.
                           ----------------------------
                           !    Initial Parameters    !
                           ! (Angstroms and Degrees)  !
 --------------------------                            --------------------------
 ! Name  Definition              Value          Derivative Info.                !
 --------------------------------------------------------------------------------
 ! R1    R(1,4)                  1.5285         estimate D2E/DX2                !
 ! R2    R(1,7)                  1.5194         estimate D2E/DX2                !
 ! R3    R(1,14)                 1.0876         estimate D2E/DX2                !
 ! R4    R(1,15)                 1.0863         estimate D2E/DX2                !
 ! R5    R(2,11)                 1.4039         estimate D2E/DX2                !
 ! R6    R(2,12)                 1.3987         estimate D2E/DX2                !
 ! R7    R(2,13)                 1.5218         estimate D2E/DX2                !
 ! R8    R(2,29)                 1.0809         estimate D2E/DX2                !
 ! R9    R(3,8)                  1.5227         estimate D2E/DX2                !
 ! R10   R(3,9)                  1.5279         estimate D2E/DX2                !
 ! R11   R(3,12)                 1.416          estimate D2E/DX2                !
 ! R12   R(3,16)                 1.0861         estimate D2E/DX2                !
 ! R13   R(4,13)                 1.5293         estimate D2E/DX2                !
 ! R14   R(4,17)                 1.0856         estimate D2E/DX2                !
 ! R15   R(4,18)                 1.0869         estimate D2E/DX2                !
 ! R16   R(5,6)                  1.4156         estimate D2E/DX2                !
 ! R17   R(5,9)                  1.412          estimate D2E/DX2                !
 ! R18   R(6,10)                 1.5193         estimate D2E/DX2                !
 ! R19   R(6,19)                 1.0814         estimate D2E/DX2                !
 ! R20   R(6,20)                 1.0878         estimate D2E/DX2                !
 ! R21   R(7,11)                 1.4218         estimate D2E/DX2                !
 ! R22   R(7,21)                 1.0846         estimate D2E/DX2                !
 ! R23   R(7,22)                 1.0812         estimate D2E/DX2                !
 ! R24   R(8,10)                 1.5297         estimate D2E/DX2                !
 ! R25   R(8,23)                 1.0877         estimate D2E/DX2                !
 ! R26   R(8,24)                 1.0854         estimate D2E/DX2                !
 ! R27   R(9,30)                 1.0876         estimate D2E/DX2                !
 ! R28   R(9,31)                 1.0788         estimate D2E/DX2                !
 ! R29   R(10,25)                1.0871         estimate D2E/DX2                !
 ! R30   R(10,26)                1.0858         estimate D2E/DX2                !
 ! R31   R(13,27)                1.0866         estimate D2E/DX2                !
 ! R32   R(13,28)                1.0845         estimate D2E/DX2                !
 ! A1    A(4,1,7)              110.1296         estimate D2E/DX2                !
 ! A2    A(4,1,14)             109.7891         estimate D2E/DX2                !
 ! A3    A(4,1,15)             111.1305         estimate D2E/DX2                !
 ! A4    A(7,1,14)             109.2312         estimate D2E/DX2                !
 ! A5    A(7,1,15)             109.0195         estimate D2E/DX2                !
 ! A6    A(14,1,15)            107.4822         estimate D2E/DX2                !
 ! A7    A(11,2,12)            111.708          estimate D2E/DX2                !
 ! A8    A(11,2,13)            111.1314         estimate D2E/DX2                !
 ! A9    A(11,2,29)            105.0202         estimate D2E/DX2                !
 ! A10   A(12,2,13)            108.8874         estimate D2E/DX2                !
 ! A11   A(12,2,29)            109.2526         estimate D2E/DX2                !
 ! A12   A(13,2,29)            110.7976         estimate D2E/DX2                !
 ! A13   A(8,3,9)              109.9973         estimate D2E/DX2                !
 ! A14   A(8,3,12)             107.6315         estimate D2E/DX2                !
 ! A15   A(8,3,16)             109.7174         estimate D2E/DX2                !
 ! A16   A(9,3,12)             111.6375         estimate D2E/DX2                !
 ! A17   A(9,3,16)             108.9151         estimate D2E/DX2                !
 ! A18   A(12,3,16)            108.9167         estimate D2E/DX2                !
 ! A19   A(1,4,13)             109.5854         estimate D2E/DX2                !
 ! A20   A(1,4,17)             110.6362         estimate D2E/DX2                !
 ! A21   A(1,4,18)             109.6802         estimate D2E/DX2                !
 ! A22   A(13,4,17)            109.8003         estimate D2E/DX2                !
 ! A23   A(13,4,18)            110.1344         estimate D2E/DX2                !
 ! A24   A(17,4,18)            106.9722         estimate D2E/DX2                !
 ! A25   A(6,5,9)              113.6684         estimate D2E/DX2                !
 ! A26   A(5,6,10)             110.7166         estimate D2E/DX2                !
 ! A27   A(5,6,19)             106.3463         estimate D2E/DX2                !
 ! A28   A(5,6,20)             109.0268         estimate D2E/DX2                !
 ! A29   A(10,6,19)            111.528          estimate D2E/DX2                !
 ! A30   A(10,6,20)            110.6722         estimate D2E/DX2                !
 ! A31   A(19,6,20)            108.4123         estimate D2E/DX2                !
 ! A32   A(1,7,11)             111.4893         estimate D2E/DX2                !
 ! A33   A(1,7,21)             110.6271         estimate D2E/DX2                !
 ! A34   A(1,7,22)             111.5079         estimate D2E/DX2                !
 ! A35   A(11,7,21)            109.3971         estimate D2E/DX2                !
 ! A36   A(11,7,22)            105.5337         estimate D2E/DX2                !
 ! A37   A(21,7,22)            108.1046         estimate D2E/DX2                !
 ! A38   A(3,8,10)             110.4456         estimate D2E/DX2                !
 ! A39   A(3,8,23)             108.5314         estimate D2E/DX2                !
 ! A40   A(3,8,24)             109.7144         estimate D2E/DX2                !
 ! A41   A(10,8,23)            109.6806         estimate D2E/DX2                !
 ! A42   A(10,8,24)            110.8774         estimate D2E/DX2                !
 ! A43   A(23,8,24)            107.5146         estimate D2E/DX2                !
 ! A44   A(3,9,5)              110.3563         estimate D2E/DX2                !
 ! A45   A(3,9,30)             109.7976         estimate D2E/DX2                !
 ! A46   A(3,9,31)             111.5979         estimate D2E/DX2                !
 ! A47   A(5,9,30)             109.8056         estimate D2E/DX2                !
 ! A48   A(5,9,31)             106.3941         estimate D2E/DX2                !
 ! A49   A(30,9,31)            108.8194         estimate D2E/DX2                !
 ! A50   A(6,10,8)             110.3002         estimate D2E/DX2                !
 ! A51   A(6,10,25)            109.0931         estimate D2E/DX2                !
 ! A52   A(6,10,26)            109.4978         estimate D2E/DX2                !
 ! A53   A(8,10,25)            110.0375         estimate D2E/DX2                !
 ! A54   A(8,10,26)            110.4215         estimate D2E/DX2                !
 ! A55   A(25,10,26)           107.4333         estimate D2E/DX2                !
 ! A56   A(2,11,7)             116.0596         estimate D2E/DX2                !
 ! A57   A(2,12,3)             118.3442         estimate D2E/DX2                !
 ! A58   A(2,13,4)             112.0126         estimate D2E/DX2                !
 ! A59   A(2,13,27)            107.2962         estimate D2E/DX2                !
 ! A60   A(2,13,28)            108.869          estimate D2E/DX2                !
 ! A61   A(4,13,27)            109.3755         estimate D2E/DX2                !
 ! A62   A(4,13,28)            111.598          estimate D2E/DX2                !
 ! A63   A(27,13,28)           107.4978         estimate D2E/DX2                !
 ! D1    D(7,1,4,13)            52.966          estimate D2E/DX2                !
 ! D2    D(7,1,4,17)           174.1768         estimate D2E/DX2                !
 ! D3    D(7,1,4,18)           -68.0504         estimate D2E/DX2                !
 ! D4    D(14,1,4,13)          -67.346          estimate D2E/DX2                !
 ! D5    D(14,1,4,17)           53.8648         estimate D2E/DX2                !
 ! D6    D(14,1,4,18)          171.6376         estimate D2E/DX2                !
 ! D7    D(15,1,4,13)          173.8813         estimate D2E/DX2                !
 ! D8    D(15,1,4,17)          -64.9078         estimate D2E/DX2                !
 ! D9    D(15,1,4,18)           52.8649         estimate D2E/DX2                !
 ! D10   D(4,1,7,11)           -54.7143         estimate D2E/DX2                !
 ! D11   D(4,1,7,21)            67.2619         estimate D2E/DX2                !
 ! D12   D(4,1,7,22)          -172.3919         estimate D2E/DX2                !
 ! D13   D(14,1,7,11)           65.9336         estimate D2E/DX2                !
 ! D14   D(14,1,7,21)         -172.0903         estimate D2E/DX2                !
 ! D15   D(14,1,7,22)          -51.744          estimate D2E/DX2                !
 ! D16   D(15,1,7,11)         -176.8864         estimate D2E/DX2                !
 ! D17   D(15,1,7,21)          -54.9103         estimate D2E/DX2                !
 ! D18   D(15,1,7,22)           65.436          estimate D2E/DX2                !
 ! D19   D(12,2,11,7)           66.7955         estimate D2E/DX2                !
 ! D20   D(13,2,11,7)          -55.0348         estimate D2E/DX2                !
 ! D21   D(29,2,11,7)         -174.8919         estimate D2E/DX2                !
 ! D22   D(11,2,12,3)           83.5032         estimate D2E/DX2                !
 ! D23   D(13,2,12,3)         -153.3823         estimate D2E/DX2                !
 ! D24   D(29,2,12,3)          -32.2511         estimate D2E/DX2                !
 ! D25   D(11,2,13,4)           51.9557         estimate D2E/DX2                !
 ! D26   D(11,2,13,27)         -68.0894         estimate D2E/DX2                !
 ! D27   D(11,2,13,28)         175.8565         estimate D2E/DX2                !
 ! D28   D(12,2,13,4)          -71.5033         estimate D2E/DX2                !
 ! D29   D(12,2,13,27)         168.4515         estimate D2E/DX2                !
 ! D30   D(12,2,13,28)          52.3975         estimate D2E/DX2                !
 ! D31   D(29,2,13,4)          168.3156         estimate D2E/DX2                !
 ! D32   D(29,2,13,27)          48.2704         estimate D2E/DX2                !
 ! D33   D(29,2,13,28)         -67.7836         estimate D2E/DX2                !
 ! D34   D(9,3,8,10)            52.3026         estimate D2E/DX2                !
 ! D35   D(9,3,8,23)           -67.9651         estimate D2E/DX2                !
 ! D36   D(9,3,8,24)           174.8229         estimate D2E/DX2                !
 ! D37   D(12,3,8,10)          174.1322         estimate D2E/DX2                !
 ! D38   D(12,3,8,23)           53.8645         estimate D2E/DX2                !
 ! D39   D(12,3,8,24)          -63.3475         estimate D2E/DX2                !
 ! D40   D(16,3,8,10)          -67.491          estimate D2E/DX2                !
 ! D41   D(16,3,8,23)          172.2413         estimate D2E/DX2                !
 ! D42   D(16,3,8,24)           55.0293         estimate D2E/DX2                !
 ! D43   D(8,3,9,5)            -55.9859         estimate D2E/DX2                !
 ! D44   D(8,3,9,30)            65.1897         estimate D2E/DX2                !
 ! D45   D(8,3,9,31)          -174.0631         estimate D2E/DX2                !
 ! D46   D(12,3,9,5)          -175.4004         estimate D2E/DX2                !
 ! D47   D(12,3,9,30)          -54.2247         estimate D2E/DX2                !
 ! D48   D(12,3,9,31)           66.5224         estimate D2E/DX2                !
 ! D49   D(16,3,9,5)            64.2941         estimate D2E/DX2                !
 ! D50   D(16,3,9,30)         -174.5302         estimate D2E/DX2                !
 ! D51   D(16,3,9,31)          -53.7831         estimate D2E/DX2                !
 ! D52   D(8,3,12,2)           157.7593         Frozen                          !
 ! D53   D(9,3,12,2)           -81.4361         estimate D2E/DX2                !
 ! D54   D(16,3,12,2)           38.8685         estimate D2E/DX2                !
 ! D55   D(1,4,13,2)           -52.1008         estimate D2E/DX2                !
 ! D56   D(1,4,13,27)           66.723          estimate D2E/DX2                !
 ! D57   D(1,4,13,28)         -174.4602         estimate D2E/DX2                !
 ! D58   D(17,4,13,2)         -173.8148         estimate D2E/DX2                !
 ! D59   D(17,4,13,27)         -54.991          estimate D2E/DX2                !
 ! D60   D(17,4,13,28)          63.8259         estimate D2E/DX2                !
 ! D61   D(18,4,13,2)           68.6405         estimate D2E/DX2                !
 ! D62   D(18,4,13,27)        -172.5357         estimate D2E/DX2                !
 ! D63   D(18,4,13,28)         -53.7189         estimate D2E/DX2                !
 ! D64   D(9,5,6,10)           -60.8788         estimate D2E/DX2                !
 ! D65   D(9,5,6,19)           177.8041         estimate D2E/DX2                !
 ! D66   D(9,5,6,20)            61.1037         estimate D2E/DX2                !
 ! D67   D(6,5,9,3)             61.2977         estimate D2E/DX2                !
 ! D68   D(6,5,9,30)           -59.8733         estimate D2E/DX2                !
 ! D69   D(6,5,9,31)          -177.4768         estimate D2E/DX2                !
 ! D70   D(5,6,10,8)            54.8613         estimate D2E/DX2                !
 ! D71   D(5,6,10,25)          -66.112          estimate D2E/DX2                !
 ! D72   D(5,6,10,26)          176.5728         estimate D2E/DX2                !
 ! D73   D(19,6,10,8)          173.0681         estimate D2E/DX2                !
 ! D74   D(19,6,10,25)          52.0948         estimate D2E/DX2                !
 ! D75   D(19,6,10,26)         -65.2205         estimate D2E/DX2                !
 ! D76   D(20,6,10,8)          -66.1517         estimate D2E/DX2                !
 ! D77   D(20,6,10,25)         172.875          estimate D2E/DX2                !
 ! D78   D(20,6,10,26)          55.5597         estimate D2E/DX2                !
 ! D79   D(1,7,11,2)            57.1776         estimate D2E/DX2                !
 ! D80   D(21,7,11,2)          -65.5063         estimate D2E/DX2                !
 ! D81   D(22,7,11,2)          178.4018         estimate D2E/DX2                !
 ! D82   D(3,8,10,6)           -51.8945         estimate D2E/DX2                !
 ! D83   D(3,8,10,25)           68.5133         estimate D2E/DX2                !
 ! D84   D(3,8,10,26)         -173.0572         estimate D2E/DX2                !
 ! D85   D(23,8,10,6)           67.6814         estimate D2E/DX2                !
 ! D86   D(23,8,10,25)        -171.9107         estimate D2E/DX2                !
 ! D87   D(23,8,10,26)         -53.4812         estimate D2E/DX2                !
 ! D88   D(24,8,10,6)         -173.7313         estimate D2E/DX2                !
 ! D89   D(24,8,10,25)         -53.3234         estimate D2E/DX2                !
 ! D90   D(24,8,10,26)          65.1061         estimate D2E/DX2                !
 --------------------------------------------------------------------------------
 Trust Radius=3.00D-01 FncErr=1.00D-07 GrdErr=1.00D-06 EigMax=2.50D+02 EigMin=1.00D-04
 Number of steps in this run=    186 maximum allowed number of steps=    186.
 GradGradGradGradGradGradGradGradGradGradGradGradGradGradGradGradGradGrad

                          Input orientation:                          
 ---------------------------------------------------------------------
 Center     Atomic      Atomic             Coordinates (Angstroms)
 Number     Number       Type             X           Y           Z
 ---------------------------------------------------------------------
      1          6           0       -3.504872   -0.582216    0.711304
      2          6           0       -1.266034    0.324224   -0.887813
      3          6           0        1.091903    0.397242   -0.361562
      4          6           0       -3.176145    0.909806    0.663890
      5          8           0        2.833373   -1.274995   -0.380044
      6          6           0        3.704686   -0.503594    0.426041
      7          6           0       -2.252374   -1.402142    0.451190
      8          6           0        1.989514    1.318075    0.453893
      9          6           0        1.465653   -1.061303   -0.101640
     10          6           0        3.461830    0.980833    0.211869
     11          8           0       -1.628538   -1.026937   -0.770097
     12          8           0       -0.248128    0.666739    0.008266
     13          6           0       -2.460825    1.235705   -0.647929
     14          1           0       -4.251186   -0.818984   -0.043495
     15          1           0       -3.916974   -0.861944    1.676734
     16          1           0        1.214499    0.608912   -1.419781
     17          1           0       -4.081095    1.503803    0.746723
     18          1           0       -2.545586    1.172721    1.509190
     19          1           0        4.709872   -0.785973    0.144268
     20          1           0        3.552386   -0.771013    1.469357
     21          1           0       -1.545667   -1.289251    1.266227
     22          1           0       -2.481325   -2.453821    0.348238
     23          1           0        1.752313    1.187997    1.507382
     24          1           0        1.782415    2.352244    0.197719
     25          1           0        3.741920    1.243893   -0.805058
     26          1           0        4.096591    1.552353    0.882302
     27          1           0       -3.147506    1.093426   -1.477977
     28          1           0       -2.126192    2.266987   -0.674650
     29          1           0       -0.900389    0.429030   -1.899544
     30          1           0        1.256341   -1.316150    0.934804
     31          1           0        0.915906   -1.732453   -0.742898
 ---------------------------------------------------------------------
                    Distance matrix (angstroms):
                    1          2          3          4          5
     1  C    0.000000
     2  C    2.896758   0.000000
     3  C    4.820863   2.417052   0.000000
     4  C    1.528542   2.529666   4.419333   0.000000
     5  O    6.468720   4.429500   2.414422   6.479001   0.000000
     6  C    7.215628   5.207644   2.873753   7.028521   1.415634
     7  C    1.519437   2.397110   3.883624   2.498739   5.154798
     8  C    5.819420   3.658758   1.522697   5.186021   2.851589
     9  C    5.059300   3.162257   1.527940   5.100745   1.412031
    10  C    7.157338   4.898279   2.507181   6.653727   2.415384
    11  O    2.431657   1.403888   3.097739   2.863980   4.485791
    12  O    3.558164   1.398716   1.416010   3.010350   3.662890
    13  C    2.498477   1.521797   3.661544   1.529301   5.865485
    14  H    1.087550   3.306196   5.488986   2.155185   7.107193
    15  H    1.086338   3.874452   5.552391   2.171124   7.068814
    16  H    5.313452   2.552857   1.086122   4.869289   2.692752
    17  H    2.164431   3.462323   5.404876   1.085646   7.536656
    18  H    2.153289   2.846546   4.163221   1.086858   6.204331
    19  H    8.236812   6.165159   3.839995   8.083003   2.008804
    20  H    7.100365   5.474757   3.281929   6.981909   2.047257
    21  H    2.155533   2.705806   3.528559   2.803055   4.678291
    22  H    2.163879   3.274491   4.626050   3.449115   5.492362
    23  H    5.604051   3.948858   2.134101   5.007851   3.285939
    24  H    6.068791   3.818938   2.147472   5.185100   3.820365
    25  H    7.625616   5.092371   2.817108   7.080187   2.711253
    26  H    7.897333   5.779217   3.451033   7.304332   3.344119
    27  H    2.780007   2.116578   4.438879   2.149914   6.525779
    28  H    3.455370   2.135331   3.734984   2.176242   6.101616
    29  H    3.823935   1.080870   2.517067   3.461417   4.376478
    30  H    4.822630   3.517831   2.154836   4.967414   2.053667
    31  H    4.793853   3.001963   2.170713   5.070056   2.004398
                    6          7          8          9         10
     6  C    0.000000
     7  C    6.024499   0.000000
     8  C    2.502213   5.039167   0.000000
     9  C    2.367014   3.774323   2.498897   0.000000
    10  C    1.519333   6.195803   1.529713   2.872861   0.000000
    11  O    5.490711   1.421792   4.481912   3.165760   5.559428
    12  O    4.143544   2.914353   2.372733   2.436238   3.728793
    13  C    6.495545   2.865266   4.585446   4.581693   5.990163
    14  H    7.975953   2.140102   6.615191   5.722268   7.924340
    15  H    7.731905   2.136508   6.413612   5.672304   7.745218
    16  H    3.293290   4.423130   2.148072   2.142473   2.801982
    17  H    8.046792   3.446168   6.080505   6.169757   7.579926
    18  H    6.561185   2.799153   4.658531   4.865766   6.148895
    19  H    1.081449   6.996194   3.453004   3.265155   2.164205
    20  H    1.087758   5.927076   2.799647   2.628070   2.158342
    21  H    5.374884   1.084649   4.467162   3.315278   5.598212
    22  H    6.486615   1.081224   5.850364   4.209529   6.865605
    23  H    2.800453   4.884862   1.087669   2.780373   2.154929
    24  H    3.450082   5.517172   1.085367   3.441258   2.168272
    25  H    2.137920   6.671673   2.159025   3.315135   1.087102
    26  H    2.142121   7.016000   2.162913   3.836818   1.085835
    27  H    7.288916   3.278842   5.492865   5.274315   6.822872
    28  H    6.548800   3.840045   4.371851   4.930234   5.802249
    29  H    5.242599   3.272156   3.831528   3.324411   4.877654
    30  H    2.629350   3.542931   2.776321   1.087646   3.265417
    31  H    3.264017   3.401904   3.448284   1.078831   3.841254
                   11         12         13         14         15
    11  O    0.000000
    12  O    2.319465   0.000000
    13  C    2.413954   2.377045   0.000000
    14  H    2.729373   4.270190   2.791501   0.000000
    15  H    3.354272   4.310579   3.453196   1.752921   0.000000
    16  H    3.343793   2.044979   3.807444   5.814358   6.171210
    17  H    3.836720   3.992196   2.154578   2.459414   2.547276
    18  H    3.297669   2.790538   2.159702   3.047424   2.459398
    19  H    6.408554   5.168233   7.492240   8.963086   8.762231
    20  H    5.650011   4.318081   6.683451   7.949010   7.472791
    21  H    2.054822   2.663075   3.298016   3.042426   2.444219
    22  H    2.003476   3.852356   3.821697   2.441015   2.521916
    23  H    4.639288   2.553590   4.732671   6.517299   6.030900
    24  H    4.897972   2.645737   4.468430   6.820499   6.708318
    25  H    5.830927   4.112795   6.204740   8.290065   8.321809
    26  H    6.493093   4.519384   6.741037   8.727297   8.406972
    27  H    2.702646   3.285936   1.086625   2.633089   3.790482
    28  H    3.332672   2.560135   1.084544   3.799628   4.304197
    29  H    1.981336   2.030194   2.156902   4.028684   4.853469
    30  H    3.363459   2.655889   4.778528   5.615790   5.245946
    31  H    2.640585   2.770441   4.496809   5.293622   5.474407
                   16         17         18         19         20
    16  H    0.000000
    17  H    5.791190   0.000000
    18  H    4.799478   1.746070   0.000000
    19  H    4.075486   9.104237   7.638139   0.000000
    20  H    3.964471   7.997938   6.400387   1.759505   0.000000
    21  H    4.293737   3.807812   2.668366   6.375253   5.128350
    22  H    5.115207   4.287288   3.808378   7.384892   6.363523
    23  H    3.031974   5.891263   4.297927   3.808122   2.660720
    24  H    2.445003   5.949959   4.673631   4.292000   3.808490
    25  H    2.677488   7.979670   6.700264   2.441005   3.044459
    26  H    3.807377   8.178954   6.682486   2.527563   2.457402
    27  H    4.389217   2.447302   3.048239   8.240280   7.553242
    28  H    3.803242   2.534639   2.478400   7.531465   6.787670
    29  H    2.176070   4.274898   3.857359   6.093310   5.711112
    30  H    3.041658   6.039514   4.580289   3.582305   2.419658
    31  H    2.455467   6.136965   5.049145   4.009622   3.573439
                   21         22         23         24         25
    21  H    0.000000
    22  H    1.753392   0.000000
    23  H    4.131778   5.703520   0.000000
    24  H    5.047606   6.426538   1.752596   0.000000
    25  H    6.218168   7.330209   3.051072   2.464480   0.000000
    26  H    6.329075   7.720339   2.453389   2.542418   1.751606
    27  H    3.971611   4.044975   5.738426   5.356930   6.923847
    28  H    4.092779   4.843392   4.579114   4.005684   5.958059
    29  H    3.659369   3.982802   4.384062   3.910844   4.838691
    30  H    2.821669   3.950760   2.616216   3.778513   3.969766
    31  H    3.208170   3.640347   3.780524   4.280228   4.104736
                   26         27         28         29         30
    26  H    0.000000
    27  H    7.632724   0.000000
    28  H    6.454288   1.750903   0.000000
    29  H    5.828407   2.380898   2.526073   0.000000
    30  H    4.037089   5.569689   5.183700   3.966190   0.000000
    31  H    4.852626   5.003724   5.025389   3.051027   1.761786
                   31
    31  H    0.000000
 Stoichiometry    C10H18O3
 Framework group  C1[X(C10H18O3)]
 Deg. of freedom    87
 Full point group                 C1      NOp   1
 Largest Abelian subgroup         C1      NOp   1
 Largest concise Abelian subgroup C1      NOp   1
                         Standard orientation:                         
 ---------------------------------------------------------------------
 Center     Atomic      Atomic             Coordinates (Angstroms)
 Number     Number       Type             X           Y           Z
 ---------------------------------------------------------------------
      1          6           0       -3.504872    0.582216   -0.711304
      2          6           0       -1.266034   -0.324224    0.887813
      3          6           0        1.091903   -0.397242    0.361562
      4          6           0       -3.176145   -0.909806   -0.663890
      5          8           0        2.833373    1.274995    0.380044
      6          6           0        3.704686    0.503594   -0.426041
      7          6           0       -2.252374    1.402142   -0.451190
      8          6           0        1.989514   -1.318075   -0.453893
      9          6           0        1.465653    1.061303    0.101640
     10          6           0        3.461830   -0.980833   -0.211869
     11          8           0       -1.628538    1.026937    0.770097
     12          8           0       -0.248128   -0.666739   -0.008266
     13          6           0       -2.460825   -1.235705    0.647929
     14          1           0       -4.251186    0.818984    0.043495
     15          1           0       -3.916974    0.861944   -1.676734
     16          1           0        1.214499   -0.608912    1.419781
     17          1           0       -4.081095   -1.503803   -0.746723
     18          1           0       -2.545586   -1.172721   -1.509190
     19          1           0        4.709872    0.785973   -0.144268
     20          1           0        3.552386    0.771013   -1.469357
     21          1           0       -1.545667    1.289251   -1.266227
     22          1           0       -2.481325    2.453821   -0.348238
     23          1           0        1.752313   -1.187997   -1.507382
     24          1           0        1.782415   -2.352244   -0.197719
     25          1           0        3.741920   -1.243893    0.805058
     26          1           0        4.096591   -1.552353   -0.882302
     27          1           0       -3.147506   -1.093426    1.477977
     28          1           0       -2.126192   -2.266987    0.674650
     29          1           0       -0.900389   -0.429030    1.899544
     30          1           0        1.256341    1.316150   -0.934804
     31          1           0        0.915906    1.732453    0.742898
 ---------------------------------------------------------------------
 Rotational constants (GHZ):           1.9089793           0.4154840           0.3767953
 Standard basis: 6-311++G(2d,2p) (5D, 7F)
 There are   557 symmetry adapted cartesian basis functions of A   symmetry.
 There are   531 symmetry adapted basis functions of A   symmetry.
   531 basis functions,   762 primitive gaussians,   557 cartesian basis functions
    51 alpha electrons       51 beta electrons
       nuclear repulsion energy       893.3112891700 Hartrees.
 NAtoms=   31 NActive=   31 NUniq=   31 SFac= 1.00D+00 NAtFMM=   60 NAOKFM=F Big=F
 Integral buffers will be    131072 words long.
 Raffenetti 2 integral format.
 Two-electron integral symmetry is turned on.
 ------------------------------------------------------------------------------
 Polarizable Continuum Model (PCM)
 =================================
 Model                : PCM.
 Atomic radii         : UFF (Universal Force Field).
 Polarization charges : Total charges.
 Charge compensation  : None.
 Solution method      : On-the-fly selection.
 Cavity type          : Scaled VdW (van der Waals Surface) (Alpha=1.100).
 Cavity algorithm     : GePol (No added spheres)
                        Default sphere list used, NSphG=   31.
                        Lebedev-Laikov grids with approx.  5.0 points / Ang**2.
                        Smoothing algorithm: York/Karplus (Gamma=1.0000).
                        Polarization charges: spherical gaussians, with
                                              point-specific exponents (IZeta= 3).
                        Self-potential: point-specific (ISelfS= 7).
                        Self-field    : sphere-specific E.n sum rule (ISelfD= 2).
 1st derivatives      : Analytical E(r).r(x)/FMM algorithm (CHGder, D1EAlg=3).
                        Cavity 1st derivative terms included.
 Solvent              : Water, Eps=  78.355300 Eps(inf)=   1.777849
 ------------------------------------------------------------------------------
 One-electron integrals computed using PRISM.
 NBasis=   531 RedAO= T EigKep=  4.64D-06  NBF=   531
 NBsUse=   531 1.00D-06 EigRej= -1.00D+00 NBFU=   531
 ExpMin= 3.60D-02 ExpMax= 8.59D+03 ExpMxC= 1.30D+03 IAcc=3 IRadAn=         5 AccDes= 0.00D+00
 Harris functional with IExCor= 1009 and IRadAn=       5 diagonalized for initial guess.
 HarFok:  IExCor= 1009 AccDes= 0.00D+00 IRadAn=         5 IDoV= 1 UseB2=F ITyADJ=14
 ICtDFT=  3500011 ScaDFX=  1.000000  1.000000  1.000000  1.000000
 FoFCou: FMM=F IPFlag=           0 FMFlag=      100000 FMFlg1=           0
         NFxFlg=           0 DoJE=T BraDBF=F KetDBF=T FulRan=T
         wScrn=  0.000000 ICntrl=       500 IOpCl=  0 I1Cent=   200000004 NGrid=           0
         NMat0=    1 NMatS0=      1 NMatT0=    0 NMatD0=    1 NMtDS0=    0 NMtDT0=    0
 Petite list used in FoFCou.
 Requested convergence on RMS density matrix=1.00D-08 within 128 cycles.
 Requested convergence on MAX density matrix=1.00D-06.
 Requested convergence on             energy=1.00D-06.
 No special actions if energy rises.
 Inv3:  Mode=1 IEnd=    12706092.
 Iteration    1 A*A^-1 deviation from unit magnitude is 4.33D-15 for   2054.
 Iteration    1 A*A^-1 deviation from orthogonality  is 3.72D-15 for   2028    882.
 Iteration    1 A^-1*A deviation from unit magnitude is 4.77D-15 for   2038.
 Iteration    1 A^-1*A deviation from orthogonality  is 1.55D-12 for   1656   1630.
 Error on total polarization charges =  0.01491
 SCF Done:  E(RM062X) =  -617.502119111     A.U. after   12 cycles
            NFock= 12  Conv=0.49D-08     -V/T= 2.0035

 **********************************************************************

            Population analysis using the SCF density.

 **********************************************************************

 Orbital symmetries:
       Occupied  (A) (A) (A) (A) (A) (A) (A) (A) (A) (A) (A) (A)
                 (A) (A) (A) (A) (A) (A) (A) (A) (A) (A) (A) (A)
                 (A) (A) (A) (A) (A) (A) (A) (A) (A) (A) (A) (A)
                 (A) (A) (A) (A) (A) (A) (A) (A) (A) (A) (A) (A)
                 (A) (A) (A)
       Virtual   (A) (A) (A) (A) (A) (A) (A) (A) (A) (A) (A) (A)
                 (A) (A) (A) (A) (A) (A) (A) (A) (A) (A) (A) (A)
                 (A) (A) (A) (A) (A) (A) (A) (A) (A) (A) (A) (A)
                 (A) (A) (A) (A) (A) (A) (A) (A) (A) (A) (A) (A)
                 (A) (A) (A) (A) (A) (A) (A) (A) (A) (A) (A) (A)
                 (A) (A) (A) (A) (A) (A) (A) (A) (A) (A) (A) (A)
                 (A) (A) (A) (A) (A) (A) (A) (A) (A) (A) (A) (A)
                 (A) (A) (A) (A) (A) (A) (A) (A) (A) (A) (A) (A)
                 (A) (A) (A) (A) (A) (A) (A) (A) (A) (A) (A) (A)
                 (A) (A) (A) (A) (A) (A) (A) (A) (A) (A) (A) (A)
                 (A) (A) (A) (A) (A) (A) (A) (A) (A) (A) (A) (A)
                 (A) (A) (A) (A) (A) (A) (A) (A) (A) (A) (A) (A)
                 (A) (A) (A) (A) (A) (A) (A) (A) (A) (A) (A) (A)
                 (A) (A) (A) (A) (A) (A) (A) (A) (A) (A) (A) (A)
                 (A) (A) (A) (A) (A) (A) (A) (A) (A) (A) (A) (A)
                 (A) (A) (A) (A) (A) (A) (A) (A) (A) (A) (A) (A)
                 (A) (A) (A) (A) (A) (A) (A) (A) (A) (A) (A) (A)
                 (A) (A) (A) (A) (A) (A) (A) (A) (A) (A) (A) (A)
                 (A) (A) (A) (A) (A) (A) (A) (A) (A) (A) (A) (A)
                 (A) (A) (A) (A) (A) (A) (A) (A) (A) (A) (A) (A)
                 (A) (A) (A) (A) (A) (A) (A) (A) (A) (A) (A) (A)
                 (A) (A) (A) (A) (A) (A) (A) (A) (A) (A) (A) (A)
                 (A) (A) (A) (A) (A) (A) (A) (A) (A) (A) (A) (A)
                 (A) (A) (A) (A) (A) (A) (A) (A) (A) (A) (A) (A)
                 (A) (A) (A) (A) (A) (A) (A) (A) (A) (A) (A) (A)
                 (A) (A) (A) (A) (A) (A) (A) (A) (A) (A) (A) (A)
                 (A) (A) (A) (A) (A) (A) (A) (A) (A) (A) (A) (A)
                 (A) (A) (A) (A) (A) (A) (A) (A) (A) (A) (A) (A)
                 (A) (A) (A) (A) (A) (A) (A) (A) (A) (A) (A) (A)
                 (A) (A) (A) (A) (A) (A) (A) (A) (A) (A) (A) (A)
                 (A) (A) (A) (A) (A) (A) (A) (A) (A) (A) (A) (A)
                 (A) (A) (A) (A) (A) (A) (A) (A) (A) (A) (A) (A)
                 (A) (A) (A) (A) (A) (A) (A) (A) (A) (A) (A) (A)
                 (A) (A) (A) (A) (A) (A) (A) (A) (A) (A) (A) (A)
                 (A) (A) (A) (A) (A) (A) (A) (A) (A) (A) (A) (A)
                 (A) (A) (A) (A) (A) (A) (A) (A) (A) (A) (A) (A)
                 (A) (A) (A) (A) (A) (A) (A) (A) (A) (A) (A) (A)
                 (A) (A) (A) (A) (A) (A) (A) (A) (A) (A) (A) (A)
                 (A) (A) (A) (A) (A) (A) (A) (A) (A) (A) (A) (A)
                 (A) (A) (A) (A) (A) (A) (A) (A) (A) (A) (A) (A)
 The electronic state is 1-A.
 Alpha  occ. eigenvalues --  -19.63175 -19.62818 -19.62653 -10.63428 -10.58788
 Alpha  occ. eigenvalues --  -10.57802 -10.57604 -10.57594 -10.53154 -10.53099
 Alpha  occ. eigenvalues --  -10.52968 -10.52913 -10.52745  -1.20180  -1.16646
 Alpha  occ. eigenvalues --   -1.13709  -0.91007  -0.89787  -0.87407  -0.84655
 Alpha  occ. eigenvalues --   -0.74734  -0.74191  -0.73162  -0.71270  -0.65963
 Alpha  occ. eigenvalues --   -0.64081  -0.60188  -0.58774  -0.57340  -0.56022
 Alpha  occ. eigenvalues --   -0.54165  -0.53406  -0.52677  -0.51065  -0.50039
 Alpha  occ. eigenvalues --   -0.48107  -0.46985  -0.45829  -0.45209  -0.44787
 Alpha  occ. eigenvalues --   -0.43958  -0.43290  -0.40706  -0.40144  -0.39376
 Alpha  occ. eigenvalues --   -0.38517  -0.37713  -0.36519  -0.35538  -0.33100
 Alpha  occ. eigenvalues --   -0.31671
 Alpha virt. eigenvalues --   -0.00046   0.00749   0.00793   0.01138   0.02165
 Alpha virt. eigenvalues --    0.02461   0.02613   0.03396   0.03661   0.04390
 Alpha virt. eigenvalues --    0.04607   0.04646   0.05429   0.06108   0.07195
 Alpha virt. eigenvalues --    0.07240   0.07724   0.08059   0.08879   0.09822
 Alpha virt. eigenvalues --    0.10110   0.10481   0.11032   0.11516   0.11940
 Alpha virt. eigenvalues --    0.12221   0.12608   0.12847   0.13219   0.13444
 Alpha virt. eigenvalues --    0.13723   0.13982   0.14258   0.14650   0.14770
 Alpha virt. eigenvalues --    0.15011   0.15266   0.15372   0.15653   0.16274
 Alpha virt. eigenvalues --    0.16725   0.17029   0.17488   0.17638   0.18039
 Alpha virt. eigenvalues --    0.18093   0.18366   0.18988   0.19108   0.19468
 Alpha virt. eigenvalues --    0.19609   0.19732   0.20656   0.21048   0.21772
 Alpha virt. eigenvalues --    0.22189   0.22621   0.23229   0.23512   0.24015
 Alpha virt. eigenvalues --    0.24475   0.25648   0.25902   0.26275   0.27112
 Alpha virt. eigenvalues --    0.27422   0.28309   0.28531   0.29205   0.29637
 Alpha virt. eigenvalues --    0.29770   0.30489   0.30777   0.31494   0.31690
 Alpha virt. eigenvalues --    0.32617   0.32950   0.33623   0.33935   0.34492
 Alpha virt. eigenvalues --    0.34808   0.35191   0.35284   0.35621   0.36133
 Alpha virt. eigenvalues --    0.36561   0.36818   0.37370   0.37621   0.37865
 Alpha virt. eigenvalues --    0.38012   0.38415   0.39407   0.40517   0.41178
 Alpha virt. eigenvalues --    0.41354   0.42329   0.43186   0.44141   0.45749
 Alpha virt. eigenvalues --    0.46080   0.47014   0.49753   0.50010   0.50552
 Alpha virt. eigenvalues --    0.51522   0.51751   0.53411   0.53810   0.54829
 Alpha virt. eigenvalues --    0.55563   0.57129   0.58221   0.58874   0.59223
 Alpha virt. eigenvalues --    0.59954   0.60614   0.61084   0.61286   0.61849
 Alpha virt. eigenvalues --    0.62087   0.62685   0.63234   0.64006   0.64204
 Alpha virt. eigenvalues --    0.64573   0.65564   0.65993   0.66424   0.67290
 Alpha virt. eigenvalues --    0.68235   0.68690   0.69883   0.70099   0.70554
 Alpha virt. eigenvalues --    0.70934   0.70941   0.71768   0.71856   0.73289
 Alpha virt. eigenvalues --    0.73870   0.73912   0.74557   0.75206   0.75655
 Alpha virt. eigenvalues --    0.76349   0.76462   0.77302   0.77878   0.78800
 Alpha virt. eigenvalues --    0.80130   0.81652   0.82094   0.84946   0.85518
 Alpha virt. eigenvalues --    0.86184   0.87179   0.88345   0.88772   0.89985
 Alpha virt. eigenvalues --    0.90842   0.91214   0.92405   0.93954   0.95419
 Alpha virt. eigenvalues --    0.96730   0.98620   1.00026   1.01070   1.01188
 Alpha virt. eigenvalues --    1.03018   1.04275   1.04650   1.05684   1.06908
 Alpha virt. eigenvalues --    1.08145   1.08297   1.10236   1.11086   1.11780
 Alpha virt. eigenvalues --    1.12988   1.14154   1.14561   1.16411   1.17586
 Alpha virt. eigenvalues --    1.18023   1.18446   1.18791   1.20011   1.20746
 Alpha virt. eigenvalues --    1.21386   1.22022   1.22732   1.23529   1.23869
 Alpha virt. eigenvalues --    1.25120   1.25600   1.26026   1.26801   1.26998
 Alpha virt. eigenvalues --    1.27471   1.28519   1.29643   1.30530   1.31348
 Alpha virt. eigenvalues --    1.32227   1.33057   1.33582   1.34074   1.34673
 Alpha virt. eigenvalues --    1.35132   1.35643   1.36235   1.36837   1.37611
 Alpha virt. eigenvalues --    1.38261   1.38890   1.40084   1.40837   1.41203
 Alpha virt. eigenvalues --    1.41850   1.43224   1.43886   1.44541   1.45619
 Alpha virt. eigenvalues --    1.46002   1.46280   1.46539   1.47735   1.48262
 Alpha virt. eigenvalues --    1.49103   1.49505   1.51352   1.51729   1.52302
 Alpha virt. eigenvalues --    1.52995   1.53206   1.54552   1.54805   1.55194
 Alpha virt. eigenvalues --    1.56498   1.57219   1.57731   1.57820   1.58548
 Alpha virt. eigenvalues --    1.59463   1.60674   1.60946   1.61349   1.62037
 Alpha virt. eigenvalues --    1.63551   1.64318   1.64955   1.65723   1.66311
 Alpha virt. eigenvalues --    1.67208   1.67962   1.69777   1.70804   1.72750
 Alpha virt. eigenvalues --    1.73966   1.74726   1.75741   1.76796   1.77609
 Alpha virt. eigenvalues --    1.77848   1.79592   1.80951   1.82176   1.83962
 Alpha virt. eigenvalues --    1.87533   1.88076   1.90186   1.94445   2.01043
 Alpha virt. eigenvalues --    2.02092   2.06478   2.11471   2.15137   2.21156
 Alpha virt. eigenvalues --    2.24107   2.26953   2.28605   2.34591   2.39228
 Alpha virt. eigenvalues --    2.40854   2.45313   2.46898   2.49017   2.52006
 Alpha virt. eigenvalues --    2.59336   2.75597   2.76946   2.78422   2.81465
 Alpha virt. eigenvalues --    2.84133   2.89298   2.92862   2.93698   2.94251
 Alpha virt. eigenvalues --    2.95461   2.97432   3.00783   3.02041   3.04071
 Alpha virt. eigenvalues --    3.05707   3.07503   3.08903   3.09650   3.12640
 Alpha virt. eigenvalues --    3.14050   3.15738   3.17206   3.19239   3.20044
 Alpha virt. eigenvalues --    3.23597   3.29232   3.31480   3.33087   3.34507
 Alpha virt. eigenvalues --    3.34850   3.36905   3.38555   3.40108   3.40871
 Alpha virt. eigenvalues --    3.41928   3.43825   3.44542   3.45575   3.46514
 Alpha virt. eigenvalues --    3.47592   3.49287   3.49724   3.50803   3.51238
 Alpha virt. eigenvalues --    3.52638   3.53318   3.54555   3.55312   3.57029
 Alpha virt. eigenvalues --    3.57356   3.57716   3.58512   3.58898   3.59585
 Alpha virt. eigenvalues --    3.60615   3.62213   3.62514   3.64014   3.64250
 Alpha virt. eigenvalues --    3.65251   3.66679   3.67228   3.68569   3.68905
 Alpha virt. eigenvalues --    3.71042   3.71315   3.72185   3.72765   3.73482
 Alpha virt. eigenvalues --    3.74212   3.74948   3.76188   3.77095   3.77406
 Alpha virt. eigenvalues --    3.78104   3.78850   3.79951   3.81150   3.82929
 Alpha virt. eigenvalues --    3.86697   3.87628   3.89115   3.90153   3.91781
 Alpha virt. eigenvalues --    3.92294   3.94416   3.94654   3.97091   3.97616
 Alpha virt. eigenvalues --    3.99719   4.01258   4.02403   4.03759   4.04376
 Alpha virt. eigenvalues --    4.04860   4.05915   4.06752   4.07317   4.07946
 Alpha virt. eigenvalues --    4.08215   4.09338   4.09733   4.10845   4.11376
 Alpha virt. eigenvalues --    4.11875   4.12647   4.13498   4.15548   4.16403
 Alpha virt. eigenvalues --    4.17043   4.17181   4.18181   4.18939   4.19615
 Alpha virt. eigenvalues --    4.20692   4.22273   4.25510   4.26186   4.28315
 Alpha virt. eigenvalues --    4.28737   4.29581   4.30472   4.31435   4.32459
 Alpha virt. eigenvalues --    4.32515   4.33944   4.35645   4.37167   4.38724
 Alpha virt. eigenvalues --    4.40163   4.43941   4.45477   4.46691   4.49171
 Alpha virt. eigenvalues --    4.57739   4.61190   4.75274   4.77356   4.82724
 Alpha virt. eigenvalues --    4.85272   4.92635   4.95504   4.98641   5.00570
 Alpha virt. eigenvalues --    5.06360   5.07034   5.08049   5.08746   5.12081
 Alpha virt. eigenvalues --    5.12311   5.14069   5.14924   5.30834   5.38756
 Alpha virt. eigenvalues --    5.39711   5.57890   5.59368   5.64000   5.85942
 Alpha virt. eigenvalues --    5.89513   6.07582   7.01389   7.05025   7.05883
 Alpha virt. eigenvalues --    7.09580   7.10322   7.12855   7.14517   7.20218
 Alpha virt. eigenvalues --    7.27385   7.37745   7.40532   7.44909   7.53398
 Alpha virt. eigenvalues --    7.55376   7.66120  23.95667  23.97324  24.06114
 Alpha virt. eigenvalues --   24.08067  24.11093  24.11622  24.14246  24.14986
 Alpha virt. eigenvalues --   24.15542  24.20528  50.16846  50.18546  50.24802
          Condensed to atoms (all electrons):
               1          2          3          4          5          6
     1  C    5.715559   0.208260  -0.001700   0.057631   0.000814  -0.001633
     2  C    0.208260   7.029525  -0.696669  -0.122721   0.005962  -0.000962
     3  C   -0.001700  -0.696669   7.115442   0.006185   0.018576   0.194392
     4  C    0.057631  -0.122721   0.006185   5.585932   0.000205  -0.002668
     5  O    0.000814   0.005962   0.018576   0.000205   8.332001   0.063868
     6  C   -0.001633  -0.000962   0.194392  -0.002668   0.063868   5.394862
     7  C   -0.117612  -0.378981   0.052789   0.004302   0.000570   0.004326
     8  C    0.011249   0.181466  -1.038481  -0.017700  -0.044744  -0.211279
     9  C    0.013318   0.077097  -0.287752   0.001918   0.198894  -0.225238
    10  C    0.004470  -0.062632   0.014254  -0.001652  -0.029368   0.104943
    11  O   -0.074037   0.320867  -0.026767  -0.009308   0.000231   0.005995
    12  O   -0.015573   0.227295   0.170613  -0.028832   0.008619   0.016554
    13  C   -0.152229  -1.022453   0.146175   0.019466   0.000123   0.011864
    14  H    0.496136   0.014197  -0.005807  -0.022629   0.000006  -0.000023
    15  H    0.431090  -0.003882   0.004345  -0.045303   0.000004  -0.000033
    16  H   -0.001049  -0.007512   0.468193   0.009496  -0.008804   0.015203
    17  H   -0.014637   0.013361   0.004884   0.407153  -0.000008   0.000001
    18  H   -0.060500  -0.023446  -0.001003   0.512889  -0.000006   0.000035
    19  H    0.000011  -0.001109  -0.001282  -0.000045  -0.072537   0.440141
    20  H   -0.000143   0.002189   0.037195   0.000010  -0.038304   0.475414
    21  H   -0.076857  -0.014021  -0.023239   0.009257   0.000707  -0.001578
    22  H   -0.024270  -0.009137   0.009147   0.009968   0.000172   0.000306
    23  H    0.000199  -0.019298  -0.012912   0.001016   0.001151  -0.017402
    24  H   -0.000725   0.001248  -0.012198   0.000427  -0.001202   0.003955
    25  H    0.000169  -0.004209  -0.036221  -0.000088  -0.003632  -0.085434
    26  H   -0.000038  -0.000623   0.003167  -0.000294   0.006659  -0.037249
    27  H   -0.010652  -0.156783   0.001159  -0.012644   0.000035   0.000451
    28  H   -0.010823  -0.025588   0.006261  -0.038352  -0.000149  -0.000301
    29  H    0.020941   0.499194   0.004564  -0.030111   0.000833  -0.002731
    30  H    0.001415  -0.004622   0.039873  -0.006524  -0.038715   0.018427
    31  H   -0.006210   0.008666  -0.080046   0.000332  -0.070045  -0.003768
               7          8          9         10         11         12
     1  C   -0.117612   0.011249   0.013318   0.004470  -0.074037  -0.015573
     2  C   -0.378981   0.181466   0.077097  -0.062632   0.320867   0.227295
     3  C    0.052789  -1.038481  -0.287752   0.014254  -0.026767   0.170613
     4  C    0.004302  -0.017700   0.001918  -0.001652  -0.009308  -0.028832
     5  O    0.000570  -0.044744   0.198894  -0.029368   0.000231   0.008619
     6  C    0.004326  -0.211279  -0.225238   0.104943   0.005995   0.016554
     7  C    5.504310  -0.036877  -0.000480  -0.004493   0.111382   0.021928
     8  C   -0.036877   6.717235   0.210998  -0.004623  -0.009610  -0.197922
     9  C   -0.000480   0.210998   5.821911   0.067664   0.006853  -0.133084
    10  C   -0.004493  -0.004623   0.067664   5.537587  -0.000256  -0.007485
    11  O    0.111382  -0.009610   0.006853  -0.000256   8.216783  -0.051356
    12  O    0.021928  -0.197922  -0.133084  -0.007485  -0.051356   8.323650
    13  C    0.165744  -0.138144  -0.032116  -0.010595  -0.044118  -0.018514
    14  H   -0.092144   0.000248   0.000406   0.000068  -0.003476  -0.000491
    15  H   -0.026750  -0.000874  -0.000337   0.000064   0.011155   0.000359
    16  H    0.002601   0.000059  -0.100374  -0.016902  -0.002614  -0.037927
    17  H    0.008906  -0.001708  -0.000721  -0.000112  -0.003861   0.000272
    18  H   -0.007013   0.000331   0.000586  -0.000205   0.002566  -0.001856
    19  H   -0.000031   0.013030   0.010381  -0.051693   0.000250   0.000890
    20  H   -0.000168  -0.020478  -0.033867  -0.049871  -0.000412  -0.000015
    21  H    0.472058   0.017930  -0.004338  -0.002135  -0.034053   0.009964
    22  H    0.436866  -0.002884  -0.000252  -0.000257  -0.070395   0.000702
    23  H    0.001065   0.501343  -0.032074  -0.053830   0.000205  -0.003003
    24  H    0.001603   0.399234   0.007856  -0.008081  -0.000006  -0.002575
    25  H   -0.000116  -0.002282   0.006881   0.497198  -0.000304   0.000274
    26  H   -0.000079  -0.041150   0.001089   0.434199   0.000071  -0.002806
    27  H    0.008350  -0.000585   0.000168   0.000187  -0.007941   0.011374
    28  H    0.010691  -0.003960  -0.002255  -0.002631   0.009740  -0.007942
    29  H   -0.028697   0.012704   0.009519   0.002412  -0.054060  -0.020252
    30  H    0.005483  -0.105450   0.366622   0.007738  -0.001656   0.018349
    31  H    0.004028   0.055920   0.454390   0.007696  -0.009178  -0.007241
              13         14         15         16         17         18
     1  C   -0.152229   0.496136   0.431090  -0.001049  -0.014637  -0.060500
     2  C   -1.022453   0.014197  -0.003882  -0.007512   0.013361  -0.023446
     3  C    0.146175  -0.005807   0.004345   0.468193   0.004884  -0.001003
     4  C    0.019466  -0.022629  -0.045303   0.009496   0.407153   0.512889
     5  O    0.000123   0.000006   0.000004  -0.008804  -0.000008  -0.000006
     6  C    0.011864  -0.000023  -0.000033   0.015203   0.000001   0.000035
     7  C    0.165744  -0.092144  -0.026750   0.002601   0.008906  -0.007013
     8  C   -0.138144   0.000248  -0.000874   0.000059  -0.001708   0.000331
     9  C   -0.032116   0.000406  -0.000337  -0.100374  -0.000721   0.000586
    10  C   -0.010595   0.000068   0.000064  -0.016902  -0.000112  -0.000205
    11  O   -0.044118  -0.003476   0.011155  -0.002614  -0.003861   0.002566
    12  O   -0.018514  -0.000491   0.000359  -0.037927   0.000272  -0.001856
    13  C    6.689760  -0.018916   0.001283   0.014220  -0.041223  -0.038517
    14  H   -0.018916   0.482763  -0.011928  -0.000289  -0.002210   0.001690
    15  H    0.001283  -0.011928   0.488978   0.000075  -0.006905  -0.004560
    16  H    0.014220  -0.000289   0.000075   0.460001  -0.000329  -0.000255
    17  H   -0.041223  -0.002210  -0.006905  -0.000329   0.468522  -0.003714
    18  H   -0.038517   0.001690  -0.004560  -0.000255  -0.003714   0.459524
    19  H    0.000693   0.000002  -0.000006  -0.000668   0.000001   0.000007
    20  H   -0.000950  -0.000005   0.000009   0.000265  -0.000006   0.000036
    21  H    0.022195   0.002570  -0.000436   0.002481  -0.001688  -0.003445
    22  H   -0.002754  -0.006599  -0.008757   0.000197   0.001365  -0.002438
    23  H    0.006402  -0.000039   0.000027   0.003337   0.000156  -0.000796
    24  H   -0.003014  -0.000052   0.000060  -0.005701   0.000095   0.000050
    25  H    0.001394   0.000006  -0.000005  -0.007528   0.000025   0.000006
    26  H   -0.001258   0.000002  -0.000003  -0.001750  -0.000021   0.000050
    27  H    0.545899  -0.001712  -0.002587   0.002318  -0.002200   0.002351
    28  H    0.428573  -0.002034   0.001410  -0.000235  -0.010013  -0.002727
    29  H   -0.094301   0.000841   0.000879  -0.011380   0.002431  -0.001433
    30  H    0.007218   0.000585   0.000220  -0.005006   0.000110   0.001575
    31  H   -0.020129  -0.000059   0.000162  -0.005946  -0.000181  -0.000071
              19         20         21         22         23         24
     1  C    0.000011  -0.000143  -0.076857  -0.024270   0.000199  -0.000725
     2  C   -0.001109   0.002189  -0.014021  -0.009137  -0.019298   0.001248
     3  C   -0.001282   0.037195  -0.023239   0.009147  -0.012912  -0.012198
     4  C   -0.000045   0.000010   0.009257   0.009968   0.001016   0.000427
     5  O   -0.072537  -0.038304   0.000707   0.000172   0.001151  -0.001202
     6  C    0.440141   0.475414  -0.001578   0.000306  -0.017402   0.003955
     7  C   -0.000031  -0.000168   0.472058   0.436866   0.001065   0.001603
     8  C    0.013030  -0.020478   0.017930  -0.002884   0.501343   0.399234
     9  C    0.010381  -0.033867  -0.004338  -0.000252  -0.032074   0.007856
    10  C   -0.051693  -0.049871  -0.002135  -0.000257  -0.053830  -0.008081
    11  O    0.000250  -0.000412  -0.034053  -0.070395   0.000205  -0.000006
    12  O    0.000890  -0.000015   0.009964   0.000702  -0.003003  -0.002575
    13  C    0.000693  -0.000950   0.022195  -0.002754   0.006402  -0.003014
    14  H    0.000002  -0.000005   0.002570  -0.006599  -0.000039  -0.000052
    15  H   -0.000006   0.000009  -0.000436  -0.008757   0.000027   0.000060
    16  H   -0.000668   0.000265   0.002481   0.000197   0.003337  -0.005701
    17  H    0.000001  -0.000006  -0.001688   0.001365   0.000156   0.000095
    18  H    0.000007   0.000036  -0.003445  -0.002438  -0.000796   0.000050
    19  H    0.469156  -0.004302  -0.000015   0.000010  -0.001456   0.001052
    20  H   -0.004302   0.492832   0.000265  -0.000040  -0.004285  -0.000409
    21  H   -0.000015   0.000265   0.519814  -0.015907   0.000286  -0.000297
    22  H    0.000010  -0.000040  -0.015907   0.484447   0.000279   0.000067
    23  H   -0.001456  -0.004285   0.000286   0.000279   0.446774  -0.012458
    24  H    0.001052  -0.000409  -0.000297   0.000067  -0.012458   0.475612
    25  H   -0.002480   0.001723   0.000018  -0.000016   0.003305  -0.004129
    26  H   -0.008960   0.003721   0.000063  -0.000036  -0.004602  -0.011122
    27  H    0.000029  -0.000027  -0.000925   0.000561   0.000195  -0.000311
    28  H   -0.000042   0.000054   0.000327   0.001069   0.000459  -0.000449
    29  H   -0.000356   0.000242  -0.002295  -0.000048  -0.000803  -0.000665
    30  H   -0.002020   0.005460  -0.010622  -0.000515  -0.003368  -0.001283
    31  H    0.002809  -0.004164   0.001814  -0.002235  -0.001036  -0.000326
              25         26         27         28         29         30
     1  C    0.000169  -0.000038  -0.010652  -0.010823   0.020941   0.001415
     2  C   -0.004209  -0.000623  -0.156783  -0.025588   0.499194  -0.004622
     3  C   -0.036221   0.003167   0.001159   0.006261   0.004564   0.039873
     4  C   -0.000088  -0.000294  -0.012644  -0.038352  -0.030111  -0.006524
     5  O   -0.003632   0.006659   0.000035  -0.000149   0.000833  -0.038715
     6  C   -0.085434  -0.037249   0.000451  -0.000301  -0.002731   0.018427
     7  C   -0.000116  -0.000079   0.008350   0.010691  -0.028697   0.005483
     8  C   -0.002282  -0.041150  -0.000585  -0.003960   0.012704  -0.105450
     9  C    0.006881   0.001089   0.000168  -0.002255   0.009519   0.366622
    10  C    0.497198   0.434199   0.000187  -0.002631   0.002412   0.007738
    11  O   -0.000304   0.000071  -0.007941   0.009740  -0.054060  -0.001656
    12  O    0.000274  -0.002806   0.011374  -0.007942  -0.020252   0.018349
    13  C    0.001394  -0.001258   0.545899   0.428573  -0.094301   0.007218
    14  H    0.000006   0.000002  -0.001712  -0.002034   0.000841   0.000585
    15  H   -0.000005  -0.000003  -0.002587   0.001410   0.000879   0.000220
    16  H   -0.007528  -0.001750   0.002318  -0.000235  -0.011380  -0.005006
    17  H    0.000025  -0.000021  -0.002200  -0.010013   0.002431   0.000110
    18  H    0.000006   0.000050   0.002351  -0.002727  -0.001433   0.001575
    19  H   -0.002480  -0.008960   0.000029  -0.000042  -0.000356  -0.002020
    20  H    0.001723   0.003721  -0.000027   0.000054   0.000242   0.005460
    21  H    0.000018   0.000063  -0.000925   0.000327  -0.002295  -0.010622
    22  H   -0.000016  -0.000036   0.000561   0.001069  -0.000048  -0.000515
    23  H    0.003305  -0.004602   0.000195   0.000459  -0.000803  -0.003368
    24  H   -0.004129  -0.011122  -0.000311  -0.000449  -0.000665  -0.001283
    25  H    0.472985  -0.006177  -0.000023   0.000005   0.000983   0.000472
    26  H   -0.006177   0.485639  -0.000012  -0.000024   0.000194  -0.002171
    27  H   -0.000023  -0.000012   0.454407  -0.004849  -0.011900   0.000059
    28  H    0.000005  -0.000024  -0.004849   0.476687  -0.010240  -0.000579
    29  H    0.000983   0.000194  -0.011900  -0.010240   0.458498   0.003531
    30  H    0.000472  -0.002171   0.000059  -0.000579   0.003531   0.514041
    31  H   -0.000902   0.002785  -0.000774   0.000388  -0.003024  -0.027217
              31
     1  C   -0.006210
     2  C    0.008666
     3  C   -0.080046
     4  C    0.000332
     5  O   -0.070045
     6  C   -0.003768
     7  C    0.004028
     8  C    0.055920
     9  C    0.454390
    10  C    0.007696
    11  O   -0.009178
    12  O   -0.007241
    13  C   -0.020129
    14  H   -0.000059
    15  H    0.000162
    16  H   -0.005946
    17  H   -0.000181
    18  H   -0.000071
    19  H    0.002809
    20  H   -0.004164
    21  H    0.001814
    22  H   -0.002235
    23  H   -0.001036
    24  H   -0.000326
    25  H   -0.000902
    26  H    0.002785
    27  H   -0.000774
    28  H    0.000388
    29  H   -0.003024
    30  H   -0.027217
    31  H    0.483509
 Mulliken charges:
               1
     1  C   -0.392572
     2  C   -0.034678
     3  C   -0.073137
     4  C   -0.287315
     5  O   -0.331917
     6  C   -0.160439
     7  C   -0.123563
     8  C   -0.242995
     9  C   -0.403664
    10  C   -0.371659
    11  O   -0.282686
    12  O   -0.273968
    13  C   -0.421779
    14  H    0.168893
    15  H    0.172247
    16  H    0.235822
    17  H    0.182256
    18  H    0.170291
    19  H    0.208539
    20  H    0.138032
    21  H    0.132102
    22  H    0.201384
    23  H    0.201164
    24  H    0.173743
    25  H    0.168100
    26  H    0.180738
    27  H    0.186383
    28  H    0.187528
    29  H    0.254530
    30  H    0.218569
    31  H    0.220053
 Sum of Mulliken charges =  -0.00000
 Mulliken charges with hydrogens summed into heavy atoms:
               1
     1  C   -0.051432
     2  C    0.219852
     3  C    0.162685
     4  C    0.065232
     5  O   -0.331917
     6  C    0.186132
     7  C    0.209923
     8  C    0.131911
     9  C    0.034957
    10  C   -0.022820
    11  O   -0.282686
    12  O   -0.273968
    13  C   -0.047868
 Electronic spatial extent (au):  <R**2>=           3076.3543
 Charge=             -0.0000 electrons
 Dipole moment (field-independent basis, Debye):
    X=             -0.6284    Y=             -2.0407    Z=             -1.3392  Tot=              2.5205
 Quadrupole moment (field-independent basis, Debye-Ang):
   XX=            -72.7327   YY=            -82.5296   ZZ=            -79.3889
   XY=             -4.8075   XZ=             -2.1396   YZ=             -5.0999
 Traceless Quadrupole moment (field-independent basis, Debye-Ang):
   XX=              5.4844   YY=             -4.3125   ZZ=             -1.1718
   XY=             -4.8075   XZ=             -2.1396   YZ=             -5.0999
 Octapole moment (field-independent basis, Debye-Ang**2):
  XXX=              3.9085  YYY=              0.9561  ZZZ=              3.1592  XYY=             -8.9640
  XXY=            -16.1655  XXZ=            -16.9919  XZZ=              1.0754  YZZ=             -1.6438
  YYZ=             -2.7812  XYZ=              1.3460
 Hexadecapole moment (field-independent basis, Debye-Ang**3):
 XXXX=          -3024.7749 YYYY=           -620.5005 ZZZZ=           -293.8918 XXXY=            -31.3147
 XXXZ=            -34.7956 YYYX=            -21.5178 YYYZ=             -3.9149 ZZZX=             -2.5953
 ZZZY=             -4.2620 XXYY=           -651.1891 XXZZ=           -582.3647 YYZZ=           -158.1772
 XXYZ=            -21.3311 YYXZ=             -2.2921 ZZXY=              0.4442
 N-N= 8.933112891700D+02 E-N=-3.228486676714D+03  KE= 6.153484682096D+02
 D1PCM: PCM CHGder 1st derivatives, ID1Alg=3 FixD1E=F DoIter=F DoCFld=F I1PDM=0.
 Calling FoFJK, ICntrl=      2127 FMM=F ISym2X=0 I1Cent= 0 IOpClX= 0 NMat=1 NMatS=1 NMatT=0.
 ***** Axes restored to original set *****
 -------------------------------------------------------------------
 Center     Atomic                   Forces (Hartrees/Bohr)
 Number     Number              X              Y              Z
 -------------------------------------------------------------------
      1        6           0.002340970    0.001119893    0.000946830
      2        6          -0.003002526   -0.000329600    0.006825197
      3        6          -0.001957003   -0.002324949    0.004839445
      4        6           0.001251060   -0.002648030   -0.002620016
      5        8           0.003668817   -0.005886659   -0.006390419
      6        6          -0.005056407    0.003801189   -0.002561941
      7        6          -0.002549845    0.006065886   -0.001446260
      8        6           0.002260316   -0.002812396   -0.003354029
      9        6           0.004873396    0.005493057   -0.001326154
     10        6          -0.001788508   -0.000992560    0.002121682
     11        8           0.002098946   -0.007707288   -0.008510740
     12        8          -0.002210107    0.006429672    0.009523797
     13        6           0.000726623   -0.000536062    0.002574808
     14        1          -0.001748970   -0.000647009   -0.002779268
     15        1          -0.001289448   -0.000456663    0.002484155
     16        1           0.002069570    0.000677534   -0.006408495
     17        1          -0.002187685    0.001369707    0.000124186
     18        1           0.002899314    0.000391710    0.002125171
     19        1           0.004060533   -0.001042257   -0.001235481
     20        1          -0.000907559   -0.000328709    0.006135711
     21        1           0.003895332    0.001671227    0.004939769
     22        1          -0.001054294   -0.004260647   -0.000496463
     23        1          -0.001431553   -0.001363995    0.003400118
     24        1          -0.001066200    0.002654045   -0.000809182
     25        1           0.000552211    0.000166648   -0.003158364
     26        1           0.001593935    0.001907316    0.001708421
     27        1          -0.002129701   -0.001077414   -0.002489294
     28        1           0.001177525    0.002900677    0.000198242
     29        1           0.002301527    0.000133345   -0.007546484
     30        1          -0.002822073    0.000216230    0.006401373
     31        1          -0.004568194   -0.002583899   -0.003216316
 -------------------------------------------------------------------
 Cartesian Forces:  Max     0.009523797 RMS     0.003408648

 GradGradGradGradGradGradGradGradGradGradGradGradGradGradGradGradGradGrad
 Berny optimization.
 FormGI is forming the generalized inverse of G from B-inverse, IUseBI=4.
 Internal  Forces:  Max     0.012787034 RMS     0.002097602
 Search for a local minimum.
 Step number   1 out of a maximum of  186
 All quantities printed in internal units (Hartrees-Bohrs-Radians)
 Mixed Optimization -- RFO/linear search
 Second derivative matrix not updated -- first step.
 ITU=  0
     Eigenvalues ---    0.00627   0.00652   0.00724   0.00725   0.01410
     Eigenvalues ---    0.01442   0.01709   0.02700   0.02795   0.03077
     Eigenvalues ---    0.03133   0.04092   0.04231   0.04651   0.04746
     Eigenvalues ---    0.04863   0.04889   0.05105   0.05140   0.05163
     Eigenvalues ---    0.05263   0.05691   0.05708   0.06122   0.06173
     Eigenvalues ---    0.06293   0.06526   0.06982   0.07588   0.07844
     Eigenvalues ---    0.07952   0.07955   0.07974   0.08093   0.08244
     Eigenvalues ---    0.08825   0.09251   0.09314   0.10841   0.11611
     Eigenvalues ---    0.11611   0.11693   0.11766   0.12407   0.12498
     Eigenvalues ---    0.14595   0.14726   0.16349   0.16503   0.17404
     Eigenvalues ---    0.19171   0.21161   0.21967   0.25000   0.28311
     Eigenvalues ---    0.28649   0.28783   0.28859   0.28947   0.29305
     Eigenvalues ---    0.30113   0.30311   0.35073   0.35083   0.35086
     Eigenvalues ---    0.35097   0.35150   0.35178   0.35206   0.35239
     Eigenvalues ---    0.35265   0.35298   0.35321   0.35354   0.35438
     Eigenvalues ---    0.35451   0.35820   0.35847   0.35889   0.36136
     Eigenvalues ---    0.40822   0.41522   0.42162   0.43067   0.43455
     Eigenvalues ---    0.458341000.000001000.000001000.000001000.00000
     Eigenvalues --- 1000.000001000.000001000.000001000.000001000.00000
     Eigenvalues --- 1000.000001000.000001000.000001000.000001000.00000
     Eigenvalues --- 1000.000001000.000001000.000001000.000001000.00000
     Eigenvalues --- 1000.000001000.000001000.000001000.000001000.00000
     Eigenvalues --- 1000.000001000.000001000.000001000.000001000.00000
     Eigenvalues --- 1000.000001000.000001000.000001000.000001000.00000
     Eigenvalues --- 1000.000001000.000001000.000001000.000001000.00000
     Eigenvalues --- 1000.000001000.000001000.000001000.000001000.00000
     Eigenvalues --- 1000.000001000.000001000.000001000.000001000.00000
     Eigenvalues --- 1000.000001000.000001000.000001000.000001000.00000
     Eigenvalues --- 1000.000001000.000001000.000001000.000001000.00000
     Eigenvalues --- 1000.000001000.000001000.000001000.000001000.00000
     Eigenvalues --- 1000.000001000.000001000.000001000.000001000.00000
     Eigenvalues --- 1000.000001000.000001000.000001000.000001000.00000
     Eigenvalues --- 1000.000001000.000001000.000001000.000001000.00000
     Eigenvalues --- 1000.000001000.000001000.000001000.000001000.00000
     Eigenvalues --- 1000.000001000.000001000.000001000.000001000.00000
     Eigenvalues --- 1000.000001000.000001000.000001000.000001000.00000
     Eigenvalues --- 1000.000001000.000001000.000001000.000001000.00000
 RFO step:  Lambda=-3.76205606D-03 EMin= 6.26511405D-03
 Linear search not attempted -- first point.
 Iteration  1 RMS(Cart)=  0.07915089 RMS(Int)=  0.00135113
 Iteration  2 RMS(Cart)=  0.00372334 RMS(Int)=  0.00005774
 Iteration  3 RMS(Cart)=  0.00000407 RMS(Int)=  0.00005769
 Iteration  4 RMS(Cart)=  0.00000000 RMS(Int)=  0.00005769
 Iteration  1 RMS(Cart)=  0.00001384 RMS(Int)=  0.00000327
 Iteration  2 RMS(Cart)=  0.00000766 RMS(Int)=  0.00000365
 Iteration  3 RMS(Cart)=  0.00000424 RMS(Int)=  0.00000413
 Iteration  4 RMS(Cart)=  0.00000235 RMS(Int)=  0.00000446
 Iteration  5 RMS(Cart)=  0.00000130 RMS(Int)=  0.00000465
 Iteration  6 RMS(Cart)=  0.00000072 RMS(Int)=  0.00000476
 Variable       Old X    -DE/DX   Delta X   Delta X   Delta X     New X
                                 (Linear)    (Quad)   (Total)
    R1        2.88852  -0.00069   0.00000  -0.00168  -0.00169   2.88683
    R2        2.87132   0.00025   0.00000   0.00107   0.00109   2.87241
    R3        2.05517   0.00327   0.00000   0.00922   0.00922   2.06439
    R4        2.05288   0.00281   0.00000   0.00790   0.00790   2.06079
    R5        2.65296   0.00389   0.00000   0.00817   0.00818   2.66115
    R6        2.64319   0.00262   0.00000   0.00566   0.00566   2.64885
    R7        2.87578  -0.00064   0.00000  -0.00240  -0.00242   2.87336
    R8        2.04255   0.00785   0.00000   0.02166   0.02166   2.06421
    R9        2.87748  -0.00213   0.00000  -0.00749  -0.00753   2.86995
   R10        2.88739  -0.00090   0.00000  -0.00293  -0.00293   2.88446
   R11        2.67587   0.00098   0.00000   0.00227   0.00227   2.67814
   R12        2.05247   0.00661   0.00000   0.01855   0.01855   2.07102
   R13        2.88996  -0.00138   0.00000  -0.00448  -0.00448   2.88548
   R14        2.05157   0.00258   0.00000   0.00724   0.00724   2.05881
   R15        2.05386   0.00343   0.00000   0.00965   0.00965   2.06352
   R16        2.67516   0.00335   0.00000   0.00807   0.00810   2.68326
   R17        2.66835   0.00380   0.00000   0.00847   0.00849   2.67684
   R18        2.87112   0.00082   0.00000   0.00262   0.00262   2.87374
   R19        2.04364   0.00437   0.00000   0.01207   0.01207   2.05571
   R20        2.05556   0.00609   0.00000   0.01719   0.01719   2.07275
   R21        2.68680   0.00277   0.00000   0.00638   0.00639   2.69318
   R22        2.04969   0.00642   0.00000   0.01794   0.01794   2.06763
   R23        2.04322   0.00441   0.00000   0.01218   0.01218   2.05540
   R24        2.89074  -0.00071   0.00000  -0.00219  -0.00221   2.88853
   R25        2.05540   0.00377   0.00000   0.01063   0.01063   2.06602
   R26        2.05105   0.00292   0.00000   0.00818   0.00818   2.05922
   R27        2.05535   0.00659   0.00000   0.01859   0.01859   2.07394
   R28        2.03869   0.00585   0.00000   0.01602   0.01602   2.05471
   R29        2.05433   0.00314   0.00000   0.00883   0.00883   2.06316
   R30        2.05193   0.00299   0.00000   0.00838   0.00838   2.06031
   R31        2.05342   0.00339   0.00000   0.00952   0.00952   2.06294
   R32        2.04949   0.00312   0.00000   0.00870   0.00870   2.05819
    A1        1.92212  -0.00096   0.00000  -0.00455  -0.00475   1.91737
    A2        1.91618   0.00090   0.00000   0.00138   0.00146   1.91764
    A3        1.93959  -0.00052   0.00000  -0.00172  -0.00169   1.93791
    A4        1.90644   0.00003   0.00000  -0.00178  -0.00172   1.90472
    A5        1.90275   0.00057   0.00000   0.00351   0.00356   1.90631
    A6        1.87592   0.00000   0.00000   0.00335   0.00332   1.87924
    A7        1.94967  -0.00022   0.00000  -0.00579  -0.00563   1.94404
    A8        1.93961   0.00346   0.00000   0.01328   0.01307   1.95268
    A9        1.83295  -0.00236   0.00000  -0.01236  -0.01237   1.82057
   A10        1.90044  -0.00269   0.00000  -0.01265  -0.01256   1.88788
   A11        1.90682   0.00167   0.00000   0.01162   0.01161   1.91843
   A12        1.93378   0.00022   0.00000   0.00648   0.00655   1.94033
   A13        1.91982   0.00049   0.00000   0.00208   0.00208   1.92189
   A14        1.87852   0.00042   0.00000   0.00680   0.00680   1.88533
   A15        1.91493   0.00023   0.00000  -0.00209  -0.00213   1.91280
   A16        1.94844  -0.00150   0.00000  -0.01144  -0.01143   1.93701
   A17        1.90093  -0.00046   0.00000  -0.00541  -0.00538   1.89555
   A18        1.90096   0.00084   0.00000   0.01033   0.01028   1.91124
   A19        1.91263   0.00199   0.00000  -0.00097  -0.00097   1.91166
   A20        1.93097  -0.00025   0.00000   0.00195   0.00201   1.93297
   A21        1.91428  -0.00089   0.00000  -0.00176  -0.00186   1.91242
   A22        1.91638  -0.00056   0.00000   0.00175   0.00174   1.91812
   A23        1.92221  -0.00099   0.00000  -0.00647  -0.00647   1.91573
   A24        1.86702   0.00064   0.00000   0.00556   0.00557   1.87259
   A25        1.98389  -0.00439   0.00000  -0.02751  -0.02743   1.95646
   A26        1.93237   0.00180   0.00000   0.01016   0.01019   1.94256
   A27        1.85609  -0.00119   0.00000  -0.00401  -0.00401   1.85209
   A28        1.90288   0.00076   0.00000   0.00672   0.00675   1.90963
   A29        1.94653  -0.00031   0.00000  -0.00340  -0.00342   1.94311
   A30        1.93159  -0.00159   0.00000  -0.01008  -0.01012   1.92147
   A31        1.89215   0.00057   0.00000   0.00099   0.00095   1.89311
   A32        1.94586   0.00224   0.00000   0.00566   0.00562   1.95147
   A33        1.93081  -0.00147   0.00000  -0.00629  -0.00633   1.92447
   A34        1.94618  -0.00026   0.00000  -0.00176  -0.00169   1.94449
   A35        1.90934   0.00006   0.00000   0.00044   0.00050   1.90984
   A36        1.84191  -0.00129   0.00000  -0.00201  -0.00202   1.83989
   A37        1.88678   0.00070   0.00000   0.00422   0.00421   1.89099
   A38        1.92764   0.00105   0.00000  -0.00454  -0.00461   1.92303
   A39        1.89423  -0.00108   0.00000  -0.00828  -0.00827   1.88596
   A40        1.91488  -0.00045   0.00000  -0.00108  -0.00103   1.91384
   A41        1.91429  -0.00022   0.00000   0.00314   0.00311   1.91740
   A42        1.93518   0.00029   0.00000   0.00660   0.00660   1.94178
   A43        1.87648   0.00036   0.00000   0.00408   0.00404   1.88052
   A44        1.92608   0.00146   0.00000   0.00939   0.00946   1.93554
   A45        1.91633  -0.00266   0.00000  -0.01982  -0.01995   1.89638
   A46        1.94775  -0.00127   0.00000  -0.01247  -0.01262   1.93513
   A47        1.91647   0.00172   0.00000   0.01355   0.01360   1.93007
   A48        1.85693   0.00010   0.00000   0.01209   0.01212   1.86905
   A49        1.89926   0.00079   0.00000  -0.00140  -0.00175   1.89751
   A50        1.92510  -0.00089   0.00000  -0.00461  -0.00463   1.92047
   A51        1.90403  -0.00024   0.00000  -0.00328  -0.00330   1.90074
   A52        1.91110   0.00076   0.00000   0.00479   0.00481   1.91591
   A53        1.92052   0.00085   0.00000   0.00126   0.00126   1.92178
   A54        1.92722  -0.00044   0.00000  -0.00074  -0.00074   1.92648
   A55        1.87507  -0.00002   0.00000   0.00277   0.00277   1.87784
   A56        2.02562  -0.00571   0.00000  -0.03685  -0.03675   1.98887
   A57        2.06550  -0.01279   0.00000  -0.05039  -0.05039   2.01511
   A58        1.95499  -0.00184   0.00000  -0.01572  -0.01584   1.93915
   A59        1.87267   0.00009   0.00000   0.00380   0.00380   1.87647
   A60        1.90012   0.00088   0.00000   0.00006   0.00008   1.90021
   A61        1.90896   0.00126   0.00000   0.00726   0.00735   1.91631
   A62        1.94775  -0.00028   0.00000  -0.00137  -0.00147   1.94629
   A63        1.87619  -0.00002   0.00000   0.00707   0.00704   1.88323
    D1        0.92443  -0.00011   0.00000   0.00738   0.00737   0.93181
    D2        3.03996   0.00033   0.00000   0.01018   0.01021   3.05017
    D3       -1.18770   0.00042   0.00000   0.01709   0.01712  -1.17059
    D4       -1.17541  -0.00012   0.00000   0.01158   0.01157  -1.16384
    D5        0.94012   0.00032   0.00000   0.01438   0.01440   0.95452
    D6        2.99564   0.00041   0.00000   0.02129   0.02131   3.01695
    D7        3.03480  -0.00037   0.00000   0.00761   0.00757   3.04237
[...]
 0.02994229,-0.28900160,0.00006994,0.00005483,0.00001263,0.00013191,-0.
 00001057,0.00035110,0.00001783,0.00001559,0.00002170,0.00000292,-0.000
 00091,0.00000134,0.00000271,0.00000037,-0.00000250,0.00031311,0.000382
 38,0.00026717,0.00000418,-0.00000019,-0.00000352,-0.00000192,0.0000012
 4,0.00000153,-0.00030047,0.00020388,0.00057965,-0.00036553,0.00174154,
 0.00085421,-0.00000532,-0.00000240,0.00000421,0.00000376,0.00000428,-0
 .00000175,0.00068045,-0.00034547,0.00115344,0.00027259,-0.00026128,0.0
 0041796,-0.07141166,-0.03414762,0.31316567,0.00001046,0.00000354,0.000
 02032,0.00035380,0.00051727,0.00106360,-0.00222651,0.00461051,0.003169
 40,-0.00000276,0.00002640,-0.00003515,0.00159393,0.00110575,-0.0000270
 9,0.00116901,0.00127323,0.00275835,0.00011123,0.00006921,-0.00014859,-
 0.02073761,-0.01845997,-0.01779330,-0.00004695,0.00083153,-0.00011679,
 -0.14864807,-0.09094048,-0.09373084,-0.00029975,-0.00044158,-0.0000489
 7,-0.00308500,-0.00118343,-0.00151965,-0.00011969,-0.00012110,-0.00018
 439,-0.00000893,0.00000094,-0.00000657,-0.00001505,-0.00000488,0.00001
 263,0.00008797,0.00006803,-0.00020972,-0.00002610,-0.00000156,0.000020
 84,0.00000871,-0.00000818,-0.00001020,-0.00003579,-0.00064388,0.000216
 13,0.00021930,-0.00025160,0.00008665,0.00000392,0.00001320,-0.00000316
 ,-0.00001876,-0.00002284,0.00001063,0.00135762,-0.00035029,0.00034485,
 0.00131407,0.00026674,-0.00022223,0.00536969,0.00549978,0.00423524,0.1
 6356597,-0.00000481,-0.00000627,-0.00000934,0.00008620,-0.00014361,-0.
 00019459,0.00198200,-0.00072148,-0.00066011,-0.00000451,-0.00000617,0.
 00000467,-0.00234361,-0.00972546,0.00084701,-0.02038639,-0.01142759,-0
 .01998664,0.00001189,0.00000617,0.00001555,0.00766494,0.00720317,0.007
 58564,0.00232598,-0.00040742,-0.00029417,-0.09099950,-0.12842670,-0.08
 077214,-0.00004147,0.00010715,0.00000740,0.00097781,0.00058941,0.00030
 249,0.00003836,0.00002550,0.00005075,-0.00000387,0.00000314,0.00000129
 ,-0.00000043,0.00000179,0.00000065,-0.00010226,-0.00013719,-0.00006492
 ,0.00000201,0.00000226,-0.00000237,-0.00000058,0.00000169,0.00000103,0
 .00076991,0.00083626,-0.00024534,-0.00006589,0.00123914,0.00062849,0.0
 0000987,-0.00000606,-0.00001737,0.00000026,0.00000022,-0.00000255,-0.0
 0064361,0.00024934,-0.00006824,-0.00076629,0.00041825,0.00033888,0.003
 67894,0.00229597,0.00235731,0.09833456,0.13777783,0.00000079,-0.000000
 15,0.00000056,0.00017297,0.00000689,0.00007330,0.00107029,-0.00038903,
 0.00048804,-0.00000047,0.00000120,-0.00000068,0.00023736,0.00214797,0.
 00147980,0.00643525,0.00417365,0.00364372,0.00000725,0.00000319,-0.000
 00578,0.00483473,0.00417106,0.00279688,-0.00015801,0.00012565,-0.00019
 382,-0.09524556,-0.08260879,-0.13397787,-0.00002601,-0.00002128,-0.000
 00021,0.00002334,-0.00006606,0.00026658,0.00001084,-0.00000081,0.00000
 523,-0.00000087,0.00000006,-0.00000039,-0.00000069,-0.00000022,0.00000
 093,0.00018649,0.00027538,0.00029014,-0.00000231,0.00000020,-0.0000002
 6,0.00000077,-0.00000038,-0.00000257,-0.00010303,-0.00042514,0.0001900
 5,0.00015257,-0.00076099,0.00020351,-0.00000030,0.00000134,-0.00000170
 ,-0.00000161,-0.00000152,-0.00000059,-0.00038099,0.00041241,0.00057625
 ,-0.00044401,0.00003550,-0.00007985,-0.01887189,-0.01703860,-0.0163513
 0,0.10211023,0.09004561,0.14066186,0.00056946,0.00062173,-0.00011969,-
 0.01631965,-0.00740889,-0.02162097,0.00106574,-0.00008365,-0.00170381,
 0.00985486,0.00187158,0.01179281,-0.00034642,0.00032657,-0.00006507,0.
 00009764,0.00002178,0.00011710,-0.00017160,0.00007007,0.00003984,-0.00
 042127,0.00030860,0.00023138,-0.00022161,-0.00038312,0.00019507,-0.000
 02044,-0.00018925,-0.00015783,0.00183115,-0.00058827,0.00085307,-0.008
 31662,0.00346883,0.00122055,-0.16315365,-0.02344299,-0.12723856,-0.000
 19133,0.00015183,-0.00026657,-0.00005400,0.00022828,-0.00007669,-0.000
 10909,0.00002111,0.00016861,0.00084455,0.00040978,-0.00071342,-0.00034
 028,-0.00138216,0.00298376,-0.00002553,0.00001247,-0.00001014,0.000002
 87,-0.00000622,-0.00002430,-0.00003045,-0.00006609,0.00004287,0.000043
 65,0.00001674,-0.00001230,0.00002257,0.00000718,-0.00001321,0.00001367
 ,-0.00003115,-0.00000200,-0.00000844,0.00000688,0.00001527,-0.00010101
 ,0.00002062,0.00000016,0.17964441,0.00089199,0.00058975,0.00057180,0.0
 1096130,0.00100630,0.01414044,0.00011548,0.00051120,0.00063092,0.00631
 211,0.00055801,0.00672199,0.00005850,-0.00006194,0.00000301,-0.0000243
 8,0.00000760,-0.00002659,0.00016867,-0.00007205,0.00014016,0.00023382,
 -0.00015613,-0.00013043,-0.00004314,0.00011149,-0.00000845,0.00002891,
 0.00008820,0.00006917,-0.00036808,0.00076719,-0.00045397,0.00364700,-0
 .00095698,-0.00068331,-0.02714936,-0.05617881,-0.02988369,-0.00027006,
 0.00002074,-0.00001312,-0.00007324,0.00008774,-0.00013192,0.00003737,-
 0.00000739,-0.00004281,-0.00006091,0.00025973,-0.00060413,-0.00052933,
 0.00029937,0.00168029,0.00000536,-0.00000555,0.00000124,-0.00000174,0.
 00000039,0.00000593,-0.00005840,0.00003361,-0.00006218,-0.00000312,-0.
 00000365,-0.00000505,-0.00001119,-0.00000712,0.00000652,-0.00000285,0.
 00001373,-0.00000594,0.00000038,-0.00000110,-0.00000496,0.00004299,-0.
 00001164,-0.00000085,0.02726556,0.05544413,-0.00073621,-0.00104111,0.0
 0105917,0.00483421,0.00071730,0.00380602,0.00023653,-0.00014392,0.0004
 8100,-0.01882765,-0.00416972,-0.02424254,0.00003956,-0.00005236,-0.000
 00286,-0.00001297,-0.00000025,-0.00001186,0.00021584,0.00017326,-0.000
 24328,0.00007147,-0.00003502,-0.00003871,0.00005447,0.00005670,-0.0000
 3467,0.00001073,0.00002597,0.00001214,0.00013784,0.00049362,0.00026289
 ,0.00229647,-0.00096833,0.00108541,-0.13012140,-0.02837625,-0.18893494
 ,0.00029256,0.00073788,0.00030680,0.00039835,-0.00010969,0.00027038,-0
 .00004191,0.00001685,-0.00004790,0.00004017,-0.00046521,0.00130815,0.0
 0295517,0.00226202,-0.00430578,0.00000162,-0.00000127,0.00000067,-0.00
 000080,0.00000025,0.00000242,0.00007030,-0.00006282,-0.00001054,-0.000
 08273,0.00005379,0.00004362,-0.00000220,-0.00000522,-0.00000211,-0.000
 00009,0.00000434,0.00000031,0.00000195,-0.00000118,-0.00000137,0.00001
 261,-0.00000093,0.00000031,0.13799025,0.03095070,0.20900058,-0.0004598
 6,-0.00028250,0.00332689,0.00759533,0.02492840,-0.00110528,0.00018718,
 -0.00012836,0.00010534,-0.00353793,-0.01264013,-0.00184652,-0.00002330
 ,-0.00005316,-0.00000511,-0.00000026,0.00001117,0.00000812,-0.00097325
 ,-0.00045150,0.00145737,0.00001489,-0.00004209,-0.00000944,0.00010637,
 0.00007542,0.00001142,-0.00000016,0.00001055,0.00000879,-0.00387761,0.
 00719233,0.00053872,0.00105735,0.00008927,0.00020367,-0.06517479,-0.06
 601312,-0.00179107,0.00010019,0.00048462,0.00003056,0.00022088,-0.0011
 2498,0.00018696,0.00001552,-0.00000409,0.00000490,0.00004325,0.0001219
 6,-0.00060936,0.00057609,0.00052195,-0.00005699,-0.00000349,-0.0000041
 2,-0.00000073,0.00000084,-0.00000114,-0.00000019,0.00006846,0.00001383
 ,-0.00017010,0.00017949,0.00000799,-0.00019815,0.00000083,-0.00000018,
 0.00000402,-0.00000687,-0.00000991,-0.00000147,-0.00000058,0.00000064,
 -0.00000093,0.00000452,-0.00000424,-0.00000106,-0.00474287,-0.02057347
 ,0.00037371,0.06795867,-0.00064099,0.00128952,0.00201321,-0.00778799,-
 0.01705123,0.00015248,0.00023709,0.00044025,-0.00010669,-0.00152206,-0
 .00652814,-0.00014837,0.00003885,0.00010912,0.00001852,0.00000537,-0.0
 0001730,-0.00001251,0.00006705,0.00097769,-0.00129760,0.00005423,-0.00
 003088,-0.00000718,-0.00021171,-0.00009829,0.00001360,0.00000890,0.000
 01338,0.00000903,0.00376322,-0.00359981,-0.00067232,-0.00122758,0.0016
 1487,-0.00006280,-0.06116131,-0.30201530,-0.00582239,-0.00001890,0.000
 09713,-0.00009338,0.00004478,-0.00055925,-0.00016004,-0.00003250,-0.00
 001030,0.00002214,-0.00023961,0.00035398,0.00020612,0.00017502,0.00030
 988,0.00016057,0.00000634,0.00000405,0.00000224,-0.00000186,0.00000057
 ,0.00000140,0.00002068,-0.00003755,0.00018206,-0.00003662,-0.00008636,
 0.00006945,0.00000459,-0.00000020,-0.00000058,0.00000619,0.00000835,-0
 .00000536,-0.00000048,-0.00000012,-0.00000072,0.00000558,0.00000027,-0
 .00000010,-0.00080786,-0.00283595,-0.00058320,0.06888803,0.32720163,0.
 00247467,0.00041377,-0.00566391,-0.00420994,-0.00559361,-0.00155485,-0
 .00003918,0.00009683,-0.00002631,0.00642933,0.03009410,0.00137161,0.00
 002860,0.00000577,0.00001488,-0.00000011,-0.00000275,-0.00000955,0.000
 76758,-0.00013548,-0.00083958,0.00001334,-0.00001342,-0.00000570,-0.00
 003338,-0.00002339,-0.00003059,0.00000227,0.00000715,0.00000896,0.0017
 8476,-0.00263071,0.00118834,-0.00041927,0.00036410,0.00027199,-0.00102
 081,-0.00726679,-0.04791346,0.00016307,0.00011370,0.00014871,0.0002474
 8,0.00184678,0.00002543,0.00001576,-0.00001199,-0.00002433,-0.00025302
 ,-0.00078837,0.00118286,-0.00083410,-0.00040172,0.00122027,0.00000309,
 -0.00000084,0.00000131,-0.00000071,0.00000027,0.00000177,-0.00008432,-
 0.00002233,0.00012437,-0.00012890,-0.00001871,0.00018448,-0.00000055,0
 .00000202,-0.00000256,0.00000042,0.00000118,0.00000261,0.00000181,-0.0
 0000078,-0.00000225,0.00000600,-0.00000071,-0.00000046,-0.00398988,-0.
 02272719,-0.00037936,-0.00059692,0.00630612,0.05073981,0.00036944,0.00
 035116,-0.00030005,-0.08180186,-0.01132765,0.08403179,0.00447498,-0.00
 070028,-0.00559922,-0.00312501,0.00401904,-0.00063297,-0.00010912,0.00
 017741,0.00003355,0.00001031,0.00000259,0.00000033,0.00163047,-0.00053
 973,-0.00093385,-0.00007797,-0.00012754,-0.00035952,-0.00039780,0.0000
 9353,0.00039031,0.00001491,-0.00000563,0.00008303,-0.00008077,-0.00569
 290,0.00660068,-0.00385260,0.00037743,-0.03211668,-0.00824849,-0.00424
 896,0.02437378,-0.00008124,-0.00007719,-0.00008481,0.00001522,-0.00011
 761,-0.00000383,-0.00014180,-0.00010616,0.00094065,-0.00070731,-0.0004
 9264,0.00138675,0.00007437,0.00002282,0.00019765,-0.00000039,0.0000036
 6,-0.00000109,0.00000261,-0.00000357,-0.00000405,-0.00016550,-0.000145
 65,0.00028568,-0.00005012,-0.00016434,0.00024692,-0.00017125,-0.000026
 02,0.00017352,0.00000347,-0.00000033,0.00001912,-0.00004556,0.00001883
 ,0.00001835,0.00000621,-0.00000672,0.00000657,0.00057669,-0.00060719,-
 0.00021623,0.00064171,0.00040290,-0.00032497,0.09123033,0.00001676,-0.
 00059515,0.00038917,-0.00683268,-0.05362807,0.03478084,0.00144600,-0.0
 0059990,-0.00009386,0.00283601,-0.00208331,0.00023688,-0.00004442,0.00
 013743,0.00000371,0.00003312,-0.00000460,0.00002276,0.00066081,-0.0047
 1041,-0.00352807,0.00001120,0.00001035,-0.00005042,-0.00005682,-0.0001
 0887,0.00011707,0.00001398,-0.00002689,-0.00000125,-0.01853685,-0.0246
 3218,0.03917564,-0.00293999,0.00511359,-0.01237121,0.00651189,0.005897
 45,-0.01638688,-0.00005503,0.00010332,-0.00002868,-0.00024373,0.000335
 64,0.00005537,0.00010731,-0.00005173,0.00045032,0.00053156,0.00040583,
 -0.00100996,-0.00016153,-0.00005862,0.00002797,-0.00000365,0.00000674,
 -0.00000020,0.00000028,-0.00000226,-0.00000605,0.00004904,-0.00009685,
 0.00042843,-0.00072863,-0.00071981,0.00157511,0.00000305,-0.00000858,0
 .00000314,0.00000010,-0.00001901,0.00000851,-0.00000800,0.00000656,0.0
 0000174,-0.00001942,0.00000409,-0.00000330,-0.00049161,0.00052612,0.00
 052816,-0.00095226,0.00037627,0.00035457,0.01897577,0.07439570,-0.0001
 2545,-0.00007511,-0.00002613,0.07889855,0.04343392,-0.26797873,0.00486
 230,-0.00113991,0.00038190,0.00047050,-0.00074807,0.00126195,-0.000415
 29,0.00030251,-0.00003351,0.00008956,0.00005241,0.00010819,-0.00056796
 ,-0.00035121,0.00311429,-0.00039542,0.00008846,0.00074982,-0.00017498,
 -0.00018903,0.00017781,-0.00007278,-0.00014456,-0.00010130,0.00318661,
 0.00536388,-0.00109420,-0.00901667,-0.00247096,-0.03278415,0.00237121,
 0.00048726,-0.00336617,0.00002525,0.00001764,0.00000773,-0.00000341,0.
 00000077,-0.00006068,-0.00136374,0.00030271,0.00090067,0.00004500,0.00
 016503,-0.00031033,-0.00011948,0.00000619,0.00011285,-0.00002845,0.000
 00692,-0.00001033,0.00000433,-0.00000830,-0.00002330,-0.00006751,-0.00
 015277,0.00007894,0.00012744,0.00006488,-0.00026057,0.00020299,0.00015
 221,0.00015779,0.00001109,-0.00000679,-0.00002202,-0.00003029,0.000003
 19,0.00000313,-0.00007674,0.00001417,-0.00001295,0.00038072,-0.0001447
 5,0.00061353,0.00015776,-0.00020983,-0.00004569,-0.07841617,-0.0447051
 7,0.29849682,-0.00002280,-0.00003786,0.00007747,-0.00000416,-0.0001447
 3,-0.00022422,0.00215336,0.00042587,-0.00494482,0.00001147,0.00001277,
 -0.00001124,-0.02652700,0.00078163,0.03622392,0.00357541,0.00225890,0.
 00576316,-0.00034585,-0.00007787,-0.00017047,-0.00000523,-0.00035944,0
 .00042152,-0.05356807,-0.00761236,0.03072188,-0.00046755,-0.00024699,-
 0.00055083,0.00001316,0.00012967,0.00043413,0.00113135,-0.00082073,-0.
 00022052,0.00000051,0.00002131,0.00000523,0.00001997,-0.00001563,-0.00
 000512,-0.00001493,0.00000168,0.00000056,-0.00003499,0.00155326,0.0000
 0189,-0.00000009,-0.00000840,0.00000478,-0.00000136,0.00000484,0.00000
 682,0.00014350,0.00013191,-0.00038327,0.00043422,0.00001935,-0.0014353
 3,-0.00106070,-0.00004814,-0.00006675,0.00000880,-0.00001720,0.0000378
 6,0.00002910,-0.00011553,0.00017456,-0.00005179,0.00000834,-0.00000824
 ,-0.00000821,0.00013130,-0.00008580,0.00009008,-0.00028063,-0.00004672
 ,0.00000179,0.00000574,0.00000570,-0.00000536,0.00000116,0.00000611,-0
 .00000873,-0.00004162,0.00006212,0.06924484,-0.00001216,-0.00001995,0.
 00005882,0.00009542,-0.00005569,0.00003052,-0.00484956,-0.00639456,0.0
 3400486,0.00002479,-0.00002410,0.00000310,0.00709636,0.00311844,-0.011
 69407,-0.00157329,-0.00058891,0.00036596,0.00009771,0.00002019,-0.0000
 1940,0.00036256,0.00179934,0.00112488,-0.00671321,-0.05494593,0.024186
 25,0.00006172,-0.00016636,0.00010018,-0.00026570,0.00021262,-0.0000346
 0,-0.00127138,0.00219533,-0.00162898,0.00002072,0.00006397,-0.00003591
 ,0.00001127,-0.00001002,-0.00000537,-0.00001030,0.00000639,0.00000181,
 0.00103120,-0.00556307,0.00147818,0.00000690,0.00000184,-0.00001044,-0
 .00000435,-0.00000233,0.00000403,0.00002186,-0.00006804,0.00002371,-0.
 00003298,0.00005721,0.00043206,-0.00003880,0.00015383,0.00002361,-0.00
 001763,-0.00000191,-0.00000321,-0.00001819,-0.00039475,-0.00066158,0.0
 0025072,0.00023012,-0.00042329,0.00007260,0.00000870,-0.00009147,-0.00
 006476,0.00010443,-0.00002080,0.00000788,-0.00000850,0.00000494,-0.000
 00977,-0.00000194,0.00000741,-0.00010458,-0.00002896,-0.00016090,0.001
 76863,0.05679728,0.00009890,0.00010474,0.00029434,0.00029984,0.0001734
 0,0.00018139,0.00230590,0.00060379,-0.01284266,0.00000236,0.00003637,-
 0.00003164,0.01245274,-0.00285734,-0.00436301,-0.00216063,-0.00076728,
 0.00186130,0.00015288,0.00002435,-0.00098448,-0.00022737,-0.00101992,0
 .00060085,0.03437085,0.02547689,-0.28566883,0.00023729,-0.00005673,0.0
 0008775,-0.00077575,-0.00011533,0.00020194,-0.00142411,-0.00030368,0.0
 0123255,-0.00004269,-0.00003899,-0.00002202,0.00010958,-0.00006672,-0.
 00001499,-0.00001766,0.00000641,0.00000139,-0.00013352,0.00213986,0.00
 042381,-0.00000346,-0.00002411,0.00001380,-0.00001301,0.00000616,0.000
 00211,0.00014521,0.00003102,0.00048715,0.00112617,0.00089128,0.0004358
 8,0.00002122,0.00002099,0.00057911,0.00006043,0.00004986,0.00007941,0.
 00046503,0.00031301,0.00062573,-0.00017518,0.00004341,0.00029213,-0.00
 014490,0.00000426,-0.00019346,0.00008715,0.00007841,-0.00000984,-0.000
 02264,0.00000578,0.00000268,-0.00000147,-0.00000547,0.00000622,0.00011
 060,0.00000117,0.00004838,-0.04927581,-0.02735991,0.31097461,-0.000024
 61,0.00004043,0.00001251,0.00019589,0.00118282,-0.00022388,0.00509728,
 0.00308514,0.00376079,0.00005807,0.00001297,0.00002165,-0.03261920,-0.
 02025667,-0.01870494,-0.00315535,0.00355582,0.00385412,-0.00083797,0.0
 0002250,0.00011265,0.00010066,0.00222110,-0.00048274,-0.12832227,-0.09
 658750,-0.07568212,-0.00054276,-0.00002337,-0.00033234,-0.00458145,0.0
 0023655,-0.00103461,0.00076552,-0.00171654,0.00016439,-0.00008016,-0.0
 0007289,-0.00005498,0.00005383,-0.00002205,0.00002552,0.00004655,0.000
 00038,-0.00002954,0.00013346,-0.00033295,-0.00008869,0.00001321,-0.000
 03278,-0.00001699,-0.00001031,-0.00000003,-0.00000566,-0.00119354,-0.0
 0100840,-0.00076200,0.00009817,0.00004045,-0.00028434,0.00017494,0.000
 01329,0.00017735,0.00004578,-0.00009895,-0.00002588,-0.00011142,-0.000
 12382,-0.00018395,0.00051370,0.00051072,0.00010750,0.00004933,-0.00002
 801,0.00002958,0.00010548,-0.00024855,0.00003389,0.00000521,0.00000130
 ,0.00000265,0.00003476,-0.00004050,-0.00000824,0.00001479,-0.00008061,
 -0.00002109,0.00526925,0.00405629,0.00237206,0.15870317,-0.00003474,-0
 .00010265,0.00011302,0.00022805,-0.00225842,-0.00027009,-0.01944108,-0
 .01940286,-0.01815729,-0.00001930,-0.00003226,-0.00005042,0.00806418,0
 .00962208,0.00718621,0.00259680,0.00008114,-0.00006454,0.00070602,0.00
 056028,-0.00088448,0.00251552,-0.00519646,0.00333954,-0.10225016,-0.16
 718722,-0.09481950,0.00075098,0.00018639,0.00004052,-0.00203611,0.0014
 1594,0.00019695,0.00124856,0.00221474,0.00076878,0.00015618,0.00017323
 ,0.00014590,-0.00002169,0.00001575,-0.00000813,-0.00006598,0.00003425,
 0.00004919,0.00006952,0.00159028,0.00020401,-0.00001854,0.00001684,0.0
 0001422,0.00000592,0.00000154,0.00001237,0.00049335,0.00038305,0.00014
 729,-0.00004005,-0.00009158,-0.00008426,0.00021409,-0.00004668,0.00002
 775,0.00001307,-0.00011991,0.00002368,0.00017426,0.00019046,0.00000674
 ,-0.00135659,-0.00131965,-0.00090858,-0.00010374,0.00005375,0.00004250
 ,-0.00015530,0.00015352,-0.00006209,0.00004378,-0.00001849,-0.00000929
 ,-0.00005117,0.00007568,0.00002501,0.00004956,0.00005610,0.00004523,0.
 00257077,0.00350533,0.00260432,0.10569386,0.17544582,-0.00002389,-0.00
 001493,-0.00016288,-0.00013339,-0.00054659,0.00018346,0.00649264,0.008
 81870,0.00599848,-0.00001778,-0.00003410,-0.00001183,0.00672476,0.0060
 9097,0.00599482,0.00104012,-0.00004382,0.00016736,0.00057660,0.0000798
 9,-0.00006505,-0.00064219,0.00149500,-0.00003999,-0.08406258,-0.096480
 24,-0.13242774,0.00011563,0.00008455,0.00002031,-0.00235441,0.00072769
 ,-0.00022735,0.00049853,-0.00084786,-0.00000240,0.00001450,0.00009657,
 -0.00002289,-0.00006434,0.00004641,0.00001031,-0.00000224,0.00000740,0
 .00002031,0.00037512,-0.00077599,0.00072472,-0.00000272,0.00002827,-0.
 00000023,0.00000679,-0.00000129,-0.00000051,0.00009212,-0.00002408,0.0
 0039795,0.00020987,0.00013897,0.00054026,0.00006709,-0.00015841,-0.000
 36959,0.00003757,-0.00000544,0.00000172,0.00011519,0.00025169,0.000371
 64,0.00011826,0.00037883,0.00043989,0.00001497,-0.00003489,-0.00001662
 ,-0.00002126,0.00004009,-0.00003891,0.00000561,0.00000141,-0.00000016,
 -0.00002343,0.00003161,0.00000495,0.00009414,0.00002450,-0.00008375,-0
 .01651857,-0.01970037,-0.01430158,0.08726732,0.10032546,0.13289529\\-0
 .00000120,-0.00000381,-0.00000034,-0.00015308,-0.00120928,0.00075814,-
 0.00008823,0.00051227,-0.00099228,0.00000029,-0.00000487,-0.00000005,-
 0.00000542,0.00000374,0.00000226,-0.00000167,0.00000540,0.00000641,0.0
 0000479,0.00000623,0.00000216,0.00000379,-0.00079596,0.00099034,0.0000
 0815,-0.00000082,0.00000826,-0.00000057,-0.00000159,0.00000197,-0.0000
 0636,-0.00001931,-0.00000665,0.00025265,0.00151703,-0.00075272,0.00000
 246,-0.00001271,-0.00000638,0.00000069,-0.00000331,-0.00000171,-0.0000
 0187,0.00000185,-0.00000036,-0.00000440,0.00000044,0.00000099,-0.00000
 413,-0.00000205,-0.00000355,-0.00000256,-0.00000177,-0.00000127,0.0000
 0001,0.00000303,0.00000035,-0.00000013,0.00000305,-0.00000044,0.000000
 54,-0.00000099,0.00000180,0.00000330,0.00000021,-0.00000180,-0.0000016
 2,0.00000193,0.00000071,-0.00000079,-0.00000037,-0.00000263,0.00000048
 ,0.00000225,0.00000078,-0.00000352,0.00000557,0.00000104,-0.00000094,-
 0.00000162,-0.00000231,-0.00000474,-0.00000051,0.00000137,-0.00000036,
 -0.00000674,-0.00000496,0.00000049,0.00000111,0.00000080,0.00000394,0.
 00000160,0.00000006\\\@


 ANYONE WHO IS NOT SHOCKED BY QUANTUM THEORY HAS
 NOT UNDERSTOOD IT. -- NIELS BOHR(1885-1962)
 Job cpu time:       0 days 14 hours 37 minutes 46.2 seconds.
 Elapsed time:       0 days  0 hours 54 minutes 52.8 seconds.
 File lengths (MBytes):  RWF=    685 Int=      0 D2E=      0 Chk=     33 Scr=      1
 Normal termination of Gaussian 16 at Sun Nov  4 22:58:21 2018.
