 Entering Gaussian System, Link 0=g16
 Initial command:
 /apps/gaussian/g16a03/g16/l1.exe "/jobfs/local/2011964.r-man2/Gau-12382.inp" -scrdir="/jobfs/local/2011964.r-man2/"
 Entering Link 1 = /apps/gaussian/g16a03/g16/l1.exe PID=     12383.
  
 Copyright (c) 1988,1990,1992,1993,1995,1998,2003,2009,2016,
            Gaussian, Inc.  All Rights Reserved.
  
 This is part of the Gaussian(R) 16 program.  It is based on
 the Gaussian(R) 09 system (copyright 2009, Gaussian, Inc.),
 the Gaussian(R) 03 system (copyright 2003, Gaussian, Inc.),
 the Gaussian(R) 98 system (copyright 1998, Gaussian, Inc.),
 the Gaussian(R) 94 system (copyright 1995, Gaussian, Inc.),
 the Gaussian 92(TM) system (copyright 1992, Gaussian, Inc.),
 the Gaussian 90(TM) system (copyright 1990, Gaussian, Inc.),
 the Gaussian 88(TM) system (copyright 1988, Gaussian, Inc.),
 the Gaussian 86(TM) system (copyright 1986, Carnegie Mellon
 University), and the Gaussian 82(TM) system (copyright 1983,
 Carnegie Mellon University). Gaussian is a federally registered
 trademark of Gaussian, Inc.
  
 This software contains proprietary and confidential information,
 including trade secrets, belonging to Gaussian, Inc.
  
 This software is provided under written license and may be
 used, copied, transmitted, or stored only in accord with that
 written license.
  
 The following legend is applicable only to US Government
 contracts under FAR:
  
                    RESTRICTED RIGHTS LEGEND
  
 Use, reproduction and disclosure by the US Government is
 subject to restrictions as set forth in subparagraphs (a)
 and (c) of the Commercial Computer Software - Restricted
 Rights clause in FAR 52.227-19.
  
 Gaussian, Inc.
 340 Quinnipiac St., Bldg. 40, Wallingford CT 06492
  
  
 ---------------------------------------------------------------
 Warning -- This program may not be used in any manner that
 competes with the business of Gaussian, Inc. or will provide
 assistance to any competitor of Gaussian, Inc.  The licensee
 of this program is prohibited from giving any competitor of
 Gaussian, Inc. access to this program.  By using this program,
 the user acknowledges that Gaussian, Inc. is engaged in the
 business of creating and licensing software in the field of
 computational chemistry and represents and warrants to the
 licensee that it is not a competitor of Gaussian, Inc. and that
 it will not use this program in any manner prohibited above.
 ---------------------------------------------------------------
  

 Cite this work as:
 Gaussian 16, Revision A.03,
 M. J. Frisch, G. W. Trucks, H. B. Schlegel, G. E. Scuseria, 
 M. A. Robb, J. R. Cheeseman, G. Scalmani, V. Barone, 
 G. A. Petersson, H. Nakatsuji, X. Li, M. Caricato, A. V. Marenich, 
 J. Bloino, B. G. Janesko, R. Gomperts, B. Mennucci, H. P. Hratchian, 
 J. V. Ortiz, A. F. Izmaylov, J. L. Sonnenberg, D. Williams-Young, 
 F. Ding, F. Lipparini, F. Egidi, J. Goings, B. Peng, A. Petrone, 
 T. Henderson, D. Ranasinghe, V. G. Zakrzewski, J. Gao, N. Rega, 
 G. Zheng, W. Liang, M. Hada, M. Ehara, K. Toyota, R. Fukuda, 
 J. Hasegawa, M. Ishida, T. Nakajima, Y. Honda, O. Kitao, H. Nakai, 
 T. Vreven, K. Throssell, J. A. Montgomery, Jr., J. E. Peralta, 
 F. Ogliaro, M. J. Bearpark, J. J. Heyd, E. N. Brothers, K. N. Kudin, 
 V. N. Staroverov, T. A. Keith, R. Kobayashi, J. Normand, 
 K. Raghavachari, A. P. Rendell, J. C. Burant, S. S. Iyengar, 
 J. Tomasi, M. Cossi, J. M. Millam, M. Klene, C. Adamo, R. Cammi, 
 J. W. Ochterski, R. L. Martin, K. Morokuma, O. Farkas, 
 J. B. Foresman, and D. J. Fox, Gaussian, Inc., Wallingford CT, 2016.
 
 ******************************************
 Gaussian 16:  ES64L-G16RevA.03 25-Dec-2016
                 4-Nov-2018 
 ******************************************
 %mem=6000mb
 %nproc=24
 Will use up to   24 processors via shared memory.
 %chk=D_1a_4e_D_PSI.inp_extract_19.chk
 ----------------------------------------------------------------------
 #M062X/6-311++G(2d,2p) opt=ModRedundant freq=noraman SCRF=(Solvent=Wat
 er)
 ----------------------------------------------------------------------
 1/18=120,19=15,26=3,38=1/1,3;
 2/9=110,12=2,17=6,18=5,40=1/2;
 3/5=4,6=6,7=1212,11=2,25=1,30=1,70=2201,71=1,72=1,74=-55/1,2,3;
 4//1;
 5/5=2,38=5,53=1/2;
 6/7=2,8=2,9=2,10=2,28=1/1;
 7//1,2,3,16;
 1/18=20,19=15,26=3/3(2);
 2/9=110/2;
 99//99;
 2/9=110/2;
 3/5=4,6=6,7=1212,11=2,25=1,30=1,70=2205,71=1,72=1,74=-55/1,2,3;
 4/5=5,16=3,69=1/1;
 5/5=2,38=5,53=1/2;
 7//1,2,3,16;
 1/18=20,19=15,26=3/3(-5);
 2/9=110/2;
 6/7=2,8=2,9=2,10=2,19=2,28=1/1;
 99/9=1/99;
 ----------------------------
 D_1a_4e_D_PSI.inp_extract_19
 ----------------------------
 Symbolic Z-matrix:
 Charge =  0 Multiplicity = 1
 C                    -3.39031   0.93171   0.43024 
 C                    -1.19216  -0.9227    0.07403 
 C                     1.09686  -0.35375  -0.70075 
 C                    -3.2868    0.13932  -0.8726 
 O                     3.04192  -0.99013   0.54415 
 C                     3.58605   0.31744   0.55453 
 C                    -2.01127   1.11444   1.04093 
 C                     1.62185   1.07414  -0.79309 
 C                     1.6303   -1.02141   0.56948 
 C                     3.14702   1.08959  -0.67784 
 O                    -1.35223  -0.13211   1.22393 
 O                    -0.32086  -0.3259   -0.84165 
 C                    -2.52567  -1.1625   -0.62038 
 H                    -4.0271    0.40134   1.13455 
 H                    -3.83436   1.90849   0.26046 
 H                     1.47313  -0.92536  -1.54261 
 H                    -4.27447  -0.08309  -1.26472 
 H                    -2.77392   0.73438  -1.6235 
 H                     4.66025   0.19816   0.58877 
 H                     3.2674    0.82632   1.46134 
 H                    -1.40009   1.75716   0.41704 
 H                    -2.06933   1.55764   2.02546 
 H                     1.18491   1.65902   0.0126 
 H                     1.30254   1.51892  -1.73046 
 H                     3.59153   0.63506  -1.55963 
 H                     3.51404   2.10975  -0.61734 
 H                    -3.11552  -1.80403   0.02878 
 H                    -2.34801  -1.70648  -1.54161 
 H                    -0.78785  -1.85631   0.42965 
 H                     1.27258  -0.51858   1.46164 
 H                     1.35828  -2.06497   0.62093 
 
 The following ModRedundant input section has been read:
 D       8       3      12       2 F                                           
 

 GradGradGradGradGradGradGradGradGradGradGradGradGradGradGradGradGradGrad
 Berny optimization.
 Initialization pass.
                           ----------------------------
                           !    Initial Parameters    !
                           ! (Angstroms and Degrees)  !
 --------------------------                            --------------------------
 ! Name  Definition              Value          Derivative Info.                !
 --------------------------------------------------------------------------------
 ! R1    R(1,4)                  1.5284         estimate D2E/DX2                !
 ! R2    R(1,7)                  1.5192         estimate D2E/DX2                !
 ! R3    R(1,14)                 1.0876         estimate D2E/DX2                !
 ! R4    R(1,15)                 1.0863         estimate D2E/DX2                !
 ! R5    R(2,11)                 1.4046         estimate D2E/DX2                !
 ! R6    R(2,12)                 1.3978         estimate D2E/DX2                !
 ! R7    R(2,13)                 1.5225         estimate D2E/DX2                !
 ! R8    R(2,29)                 1.0778         estimate D2E/DX2                !
 ! R9    R(3,8)                  1.5241         estimate D2E/DX2                !
 ! R10   R(3,9)                  1.5309         estimate D2E/DX2                !
 ! R11   R(3,12)                 1.425          estimate D2E/DX2                !
 ! R12   R(3,16)                 1.0849         estimate D2E/DX2                !
 ! R13   R(4,13)                 1.5289         estimate D2E/DX2                !
 ! R14   R(4,17)                 1.0857         estimate D2E/DX2                !
 ! R15   R(4,18)                 1.0867         estimate D2E/DX2                !
 ! R16   R(5,6)                  1.4163         estimate D2E/DX2                !
 ! R17   R(5,9)                  1.4122         estimate D2E/DX2                !
 ! R18   R(6,10)                 1.5191         estimate D2E/DX2                !
 ! R19   R(6,19)                 1.0813         estimate D2E/DX2                !
 ! R20   R(6,20)                 1.0876         estimate D2E/DX2                !
 ! R21   R(7,11)                 1.4219         estimate D2E/DX2                !
 ! R22   R(7,21)                 1.0844         estimate D2E/DX2                !
 ! R23   R(7,22)                 1.0812         estimate D2E/DX2                !
 ! R24   R(8,10)                 1.5296         estimate D2E/DX2                !
 ! R25   R(8,23)                 1.0873         estimate D2E/DX2                !
 ! R26   R(8,24)                 1.0856         estimate D2E/DX2                !
 ! R27   R(9,30)                 1.0848         estimate D2E/DX2                !
 ! R28   R(9,31)                 1.0797         estimate D2E/DX2                !
 ! R29   R(10,25)                1.0871         estimate D2E/DX2                !
 ! R30   R(10,26)                1.0859         estimate D2E/DX2                !
 ! R31   R(13,27)                1.0867         estimate D2E/DX2                !
 ! R32   R(13,28)                1.0845         estimate D2E/DX2                !
 ! A1    A(4,1,7)              110.0926         estimate D2E/DX2                !
 ! A2    A(4,1,14)             109.8067         estimate D2E/DX2                !
 ! A3    A(4,1,15)             111.1387         estimate D2E/DX2                !
 ! A4    A(7,1,14)             109.2572         estimate D2E/DX2                !
 ! A5    A(7,1,15)             109.0093         estimate D2E/DX2                !
 ! A6    A(14,1,15)            107.479          estimate D2E/DX2                !
 ! A7    A(11,2,12)            111.5321         estimate D2E/DX2                !
 ! A8    A(11,2,13)            111.2374         estimate D2E/DX2                !
 ! A9    A(11,2,29)            105.0814         estimate D2E/DX2                !
 ! A10   A(12,2,13)            108.3266         estimate D2E/DX2                !
 ! A11   A(12,2,29)            110.6201         estimate D2E/DX2                !
 ! A12   A(13,2,29)            110.0376         estimate D2E/DX2                !
 ! A13   A(8,3,9)              109.8051         estimate D2E/DX2                !
 ! A14   A(8,3,12)             108.5659         estimate D2E/DX2                !
 ! A15   A(8,3,16)             109.0943         estimate D2E/DX2                !
 ! A16   A(9,3,12)             115.9269         estimate D2E/DX2                !
 ! A17   A(9,3,16)             107.0499         estimate D2E/DX2                !
 ! A18   A(12,3,16)            106.1776         estimate D2E/DX2                !
 ! A19   A(1,4,13)             109.5438         estimate D2E/DX2                !
 ! A20   A(1,4,17)             110.6387         estimate D2E/DX2                !
 ! A21   A(1,4,18)             109.6988         estimate D2E/DX2                !
 ! A22   A(13,4,17)            109.7565         estimate D2E/DX2                !
 ! A23   A(13,4,18)            110.198          estimate D2E/DX2                !
 ! A24   A(17,4,18)            106.9751         estimate D2E/DX2                !
 ! A25   A(6,5,9)              113.8507         estimate D2E/DX2                !
 ! A26   A(5,6,10)             110.6271         estimate D2E/DX2                !
 ! A27   A(5,6,19)             106.263          estimate D2E/DX2                !
 ! A28   A(5,6,20)             108.9973         estimate D2E/DX2                !
 ! A29   A(10,6,19)            111.6452         estimate D2E/DX2                !
 ! A30   A(10,6,20)            110.7264         estimate D2E/DX2                !
 ! A31   A(19,6,20)            108.4374         estimate D2E/DX2                !
 ! A32   A(1,7,11)             111.5318         estimate D2E/DX2                !
 ! A33   A(1,7,21)             110.5868         estimate D2E/DX2                !
 ! A34   A(1,7,22)             111.5044         estimate D2E/DX2                !
 ! A35   A(11,7,21)            109.4166         estimate D2E/DX2                !
 ! A36   A(11,7,22)            105.4893         estimate D2E/DX2                !
 ! A37   A(21,7,22)            108.1315         estimate D2E/DX2                !
 ! A38   A(3,8,10)             110.3863         estimate D2E/DX2                !
 ! A39   A(3,8,23)             108.7019         estimate D2E/DX2                !
 ! A40   A(3,8,24)             109.5634         estimate D2E/DX2                !
 ! A41   A(10,8,23)            109.8431         estimate D2E/DX2                !
 ! A42   A(10,8,24)            110.7454         estimate D2E/DX2                !
 ! A43   A(23,8,24)            107.5326         estimate D2E/DX2                !
 ! A44   A(3,9,5)              108.8898         estimate D2E/DX2                !
 ! A45   A(3,9,30)             111.4275         estimate D2E/DX2                !
 ! A46   A(3,9,31)             111.9181         estimate D2E/DX2                !
 ! A47   A(5,9,30)             109.5182         estimate D2E/DX2                !
 ! A48   A(5,9,31)             105.9093         estimate D2E/DX2                !
 ! A49   A(30,9,31)            109.0115         estimate D2E/DX2                !
 ! A50   A(6,10,8)             110.1306         estimate D2E/DX2                !
 ! A51   A(6,10,25)            109.1074         estimate D2E/DX2                !
 ! A52   A(6,10,26)            109.551          estimate D2E/DX2                !
 ! A53   A(8,10,25)            110.0222         estimate D2E/DX2                !
 ! A54   A(8,10,26)            110.5305         estimate D2E/DX2                !
 ! A55   A(25,10,26)           107.4466         estimate D2E/DX2                !
 ! A56   A(2,11,7)             116.1617         estimate D2E/DX2                !
 ! A57   A(2,12,3)             123.1649         estimate D2E/DX2                !
 ! A58   A(2,13,4)             112.1578         estimate D2E/DX2                !
 ! A59   A(2,13,27)            107.2142         estimate D2E/DX2                !
 ! A60   A(2,13,28)            108.8419         estimate D2E/DX2                !
 ! A61   A(4,13,27)            109.3291         estimate D2E/DX2                !
 ! A62   A(4,13,28)            111.6234         estimate D2E/DX2                !
 ! A63   A(27,13,28)           107.4715         estimate D2E/DX2                !
 ! D1    D(7,1,4,13)            53.1559         estimate D2E/DX2                !
 ! D2    D(7,1,4,17)           174.2864         estimate D2E/DX2                !
 ! D3    D(7,1,4,18)           -67.9243         estimate D2E/DX2                !
 ! D4    D(14,1,4,13)          -67.1761         estimate D2E/DX2                !
 ! D5    D(14,1,4,17)           53.9544         estimate D2E/DX2                !
 ! D6    D(14,1,4,18)          171.7437         estimate D2E/DX2                !
 ! D7    D(15,1,4,13)          174.0389         estimate D2E/DX2                !
 ! D8    D(15,1,4,17)          -64.8306         estimate D2E/DX2                !
 ! D9    D(15,1,4,18)           52.9587         estimate D2E/DX2                !
 ! D10   D(4,1,7,11)           -54.903          estimate D2E/DX2                !
 ! D11   D(4,1,7,21)            67.0991         estimate D2E/DX2                !
 ! D12   D(4,1,7,22)          -172.5502         estimate D2E/DX2                !
 ! D13   D(14,1,7,11)           65.7599         estimate D2E/DX2                !
 ! D14   D(14,1,7,21)         -172.238          estimate D2E/DX2                !
 ! D15   D(14,1,7,22)          -51.8873         estimate D2E/DX2                !
 ! D16   D(15,1,7,11)         -177.055          estimate D2E/DX2                !
 ! D17   D(15,1,7,21)          -55.0529         estimate D2E/DX2                !
 ! D18   D(15,1,7,22)           65.2978         estimate D2E/DX2                !
 ! D19   D(12,2,11,7)           66.6043         estimate D2E/DX2                !
 ! D20   D(13,2,11,7)          -54.4591         estimate D2E/DX2                !
 ! D21   D(29,2,11,7)         -173.5004         estimate D2E/DX2                !
 ! D22   D(11,2,12,3)           78.3414         estimate D2E/DX2                !
 ! D23   D(13,2,12,3)         -158.9133         estimate D2E/DX2                !
 ! D24   D(29,2,12,3)          -38.2304         estimate D2E/DX2                !
 ! D25   D(11,2,13,4)           51.4871         estimate D2E/DX2                !
 ! D26   D(11,2,13,27)         -68.534          estimate D2E/DX2                !
 ! D27   D(11,2,13,28)         175.5003         estimate D2E/DX2                !
 ! D28   D(12,2,13,4)          -71.4371         estimate D2E/DX2                !
 ! D29   D(12,2,13,27)         168.5419         estimate D2E/DX2                !
 ! D30   D(12,2,13,28)          52.5762         estimate D2E/DX2                !
 ! D31   D(29,2,13,4)          167.519          estimate D2E/DX2                !
 ! D32   D(29,2,13,27)          47.498          estimate D2E/DX2                !
 ! D33   D(29,2,13,28)         -68.4677         estimate D2E/DX2                !
 ! D34   D(9,3,8,10)            53.5826         estimate D2E/DX2                !
 ! D35   D(9,3,8,23)           -66.9557         estimate D2E/DX2                !
 ! D36   D(9,3,8,24)           175.7976         estimate D2E/DX2                !
 ! D37   D(12,3,8,10)         -178.7425         estimate D2E/DX2                !
 ! D38   D(12,3,8,23)           60.7192         estimate D2E/DX2                !
 ! D39   D(12,3,8,24)          -56.5275         estimate D2E/DX2                !
 ! D40   D(16,3,8,10)          -63.4466         estimate D2E/DX2                !
 ! D41   D(16,3,8,23)          176.0151         estimate D2E/DX2                !
 ! D42   D(16,3,8,24)           58.7684         estimate D2E/DX2                !
 ! D43   D(8,3,9,5)            -57.6869         estimate D2E/DX2                !
 ! D44   D(8,3,9,30)            63.2192         estimate D2E/DX2                !
 ! D45   D(8,3,9,31)          -174.4288         estimate D2E/DX2                !
 ! D46   D(12,3,9,5)           178.8527         estimate D2E/DX2                !
 ! D47   D(12,3,9,30)          -60.2412         estimate D2E/DX2                !
 ! D48   D(12,3,9,31)           62.1109         estimate D2E/DX2                !
 ! D49   D(16,3,9,5)            60.6149         estimate D2E/DX2                !
 ! D50   D(16,3,9,30)         -178.479          estimate D2E/DX2                !
 ! D51   D(16,3,9,31)          -56.1269         estimate D2E/DX2                !
 ! D52   D(8,3,12,2)          -127.2405         Frozen                          !
 ! D53   D(9,3,12,2)            -3.1356         estimate D2E/DX2                !
 ! D54   D(16,3,12,2)          115.582          estimate D2E/DX2                !
 ! D55   D(1,4,13,2)           -52.0033         estimate D2E/DX2                !
 ! D56   D(1,4,13,27)           66.7785         estimate D2E/DX2                !
 ! D57   D(1,4,13,28)         -174.4515         estimate D2E/DX2                !
 ! D58   D(17,4,13,2)         -173.6655         estimate D2E/DX2                !
 ! D59   D(17,4,13,27)         -54.8838         estimate D2E/DX2                !
 ! D60   D(17,4,13,28)          63.8863         estimate D2E/DX2                !
 ! D61   D(18,4,13,2)           68.7746         estimate D2E/DX2                !
 ! D62   D(18,4,13,27)        -172.4436         estimate D2E/DX2                !
 ! D63   D(18,4,13,28)         -53.6736         estimate D2E/DX2                !
 ! D64   D(9,5,6,10)           -61.7213         estimate D2E/DX2                !
 ! D65   D(9,5,6,19)           176.9223         estimate D2E/DX2                !
 ! D66   D(9,5,6,20)            60.2518         estimate D2E/DX2                !
 ! D67   D(6,5,9,3)             62.9456         estimate D2E/DX2                !
 ! D68   D(6,5,9,30)           -59.1243         estimate D2E/DX2                !
 ! D69   D(6,5,9,31)          -176.5387         estimate D2E/DX2                !
 ! D70   D(5,6,10,8)            54.1852         estimate D2E/DX2                !
 ! D71   D(5,6,10,25)          -66.6723         estimate D2E/DX2                !
 ! D72   D(5,6,10,26)          175.9578         estimate D2E/DX2                !
 ! D73   D(19,6,10,8)          172.3044         estimate D2E/DX2                !
 ! D74   D(19,6,10,25)          51.4469         estimate D2E/DX2                !
 ! D75   D(19,6,10,26)         -65.9231         estimate D2E/DX2                !
 ! D76   D(20,6,10,8)          -66.767          estimate D2E/DX2                !
 ! D77   D(20,6,10,25)         172.3755         estimate D2E/DX2                !
 ! D78   D(20,6,10,26)          55.0055         estimate D2E/DX2                !
 ! D79   D(1,7,11,2)            56.9646         estimate D2E/DX2                !
 ! D80   D(21,7,11,2)          -65.7103         estimate D2E/DX2                !
 ! D81   D(22,7,11,2)          178.1806         estimate D2E/DX2                !
 ! D82   D(3,8,10,6)           -51.6824         estimate D2E/DX2                !
 ! D83   D(3,8,10,25)           68.625          estimate D2E/DX2                !
 ! D84   D(3,8,10,26)         -172.8715         estimate D2E/DX2                !
 ! D85   D(23,8,10,6)           68.1701         estimate D2E/DX2                !
 ! D86   D(23,8,10,25)        -171.5225         estimate D2E/DX2                !
 ! D87   D(23,8,10,26)         -53.019          estimate D2E/DX2                !
 ! D88   D(24,8,10,6)         -173.1995         estimate D2E/DX2                !
 ! D89   D(24,8,10,25)         -52.8921         estimate D2E/DX2                !
 ! D90   D(24,8,10,26)          65.6114         estimate D2E/DX2                !
 --------------------------------------------------------------------------------
 Trust Radius=3.00D-01 FncErr=1.00D-07 GrdErr=1.00D-06 EigMax=2.50D+02 EigMin=1.00D-04
 Number of steps in this run=    186 maximum allowed number of steps=    186.
 GradGradGradGradGradGradGradGradGradGradGradGradGradGradGradGradGradGrad

                          Input orientation:                          
 ---------------------------------------------------------------------
 Center     Atomic      Atomic             Coordinates (Angstroms)
 Number     Number       Type             X           Y           Z
 ---------------------------------------------------------------------
      1          6           0       -3.390306    0.931713    0.430235
      2          6           0       -1.192161   -0.922700    0.074029
      3          6           0        1.096864   -0.353749   -0.700748
      4          6           0       -3.286801    0.139322   -0.872597
      5          8           0        3.041922   -0.990126    0.544145
      6          6           0        3.586053    0.317441    0.554526
      7          6           0       -2.011267    1.114443    1.040931
      8          6           0        1.621850    1.074138   -0.793093
      9          6           0        1.630298   -1.021410    0.569477
     10          6           0        3.147021    1.089586   -0.677844
     11          8           0       -1.352225   -0.132114    1.223931
     12          8           0       -0.320859   -0.325904   -0.841652
     13          6           0       -2.525669   -1.162497   -0.620376
     14          1           0       -4.027097    0.401338    1.134553
     15          1           0       -3.834364    1.908494    0.260455
     16          1           0        1.473128   -0.925357   -1.542605
     17          1           0       -4.274467   -0.083092   -1.264715
     18          1           0       -2.773919    0.734377   -1.623495
     19          1           0        4.660254    0.198162    0.588774
     20          1           0        3.267396    0.826317    1.461338
     21          1           0       -1.400089    1.757158    0.417041
     22          1           0       -2.069332    1.557643    2.025455
     23          1           0        1.184906    1.659019    0.012600
     24          1           0        1.302537    1.518919   -1.730456
     25          1           0        3.591532    0.635055   -1.559625
     26          1           0        3.514040    2.109753   -0.617336
     27          1           0       -3.115517   -1.804032    0.028779
     28          1           0       -2.348012   -1.706483   -1.541612
     29          1           0       -0.787850   -1.856309    0.429651
     30          1           0        1.272583   -0.518577    1.461641
     31          1           0        1.358279   -2.064966    0.620929
 ---------------------------------------------------------------------
                    Distance matrix (angstroms):
                    1          2          3          4          5
     1  C    0.000000
     2  C    2.897856   0.000000
     3  C    4.802731   2.482664   0.000000
     4  C    1.528387   2.532096   4.414654   0.000000
     5  O    6.714164   4.260635   2.395409   6.582974   0.000000
     6  C    7.004453   4.959854   2.867450   7.021718   1.416304
     7  C    1.519239   2.399122   3.853506   2.497887   5.496428
     8  C    5.161252   3.557797   1.524139   4.997505   2.840070
     9  C    5.388928   2.867314   1.530946   5.254021   1.412198
    10  C    6.632451   4.841808   2.507366   6.506535   2.414437
    11  O    2.432171   1.404607   3.122747   2.865605   4.528446
    12  O    3.552577   1.397786   1.424980   3.002367   3.697286
    13  C    2.497418   1.522480   3.712584   1.528944   5.690685
    14  H    1.087596   3.303733   5.494858   2.155305   7.228816
    15  H    1.086330   3.877067   5.509870   2.171083   7.467649
    16  H    5.567207   3.117255   1.084912   4.923350   2.611481
    17  H    2.164353   3.463782   5.407634   1.085683   7.591063
    18  H    2.153295   2.851219   4.125341   1.086732   6.441784
    19  H    8.085465   5.980974   3.829520   8.080517   2.008238
    20  H    6.737899   4.987117   3.283044   6.991188   2.047327
    21  H    2.154646   2.709710   3.455453   2.800043   5.224480
    22  H    2.163675   3.275606   4.594605   3.448561   5.900027
    23  H    4.651447   3.509914   2.137253   4.805124   3.278569
    24  H    5.199632   3.929528   2.146971   4.868391   3.807174
    25  H    7.265921   5.289532   2.817583   6.930312   2.714615
    26  H    7.082032   5.641107   3.452324   7.085139   3.343828
    27  H    2.778665   2.116150   4.514386   2.149056   6.232343
    28  H    3.454654   2.135557   3.795275   2.176213   5.823653
    29  H    3.813901   1.077757   2.662261   3.452991   3.928172
    30  H    4.990959   2.857227   2.175769   5.164250   2.048101
    31  H    5.618319   2.847563   2.177942   5.354089   1.998957
                    6          7          8          9         10
     6  C    0.000000
     7  C    5.674662   0.000000
     8  C    2.499352   4.069989   0.000000
     9  C    2.370174   4.247956   2.499598   0.000000
    10  C    1.519109   5.437163   1.529597   2.883151   0.000000
    11  O    5.003678   1.421875   3.790587   3.180346   5.035128
    12  O    4.198472   2.911391   2.395119   2.506397   3.749218
    13  C    6.397168   2.865136   4.715324   4.325242   6.103654
    14  H    7.635674   2.140293   6.006586   5.860857   7.431449
    15  H    7.594769   2.136198   5.619287   6.208250   7.091597
    16  H    3.225982   4.793376   2.140530   2.120099   2.758573
    17  H    8.078232   3.445601   6.027285   6.253875   7.536450
    18  H    6.735492   2.797366   4.486401   5.223891   6.006493
    19  H    1.081346   6.749312   3.450911   3.266246   2.165371
    20  H    1.087568   5.303211   2.802088   2.624805   2.158680
    21  H    5.191657   1.084371   3.326117   4.114234   4.724472
    22  H    5.973702   1.081242   4.669348   4.739056   5.893831
    23  H    2.803395   3.401404   1.087266   2.773659   2.156586
    24  H    3.446612   4.338834   1.085560   3.442440   2.166666
    25  H    2.137883   6.195487   2.158706   3.335175   1.087072
    26  H    2.142622   5.854016   2.164202   3.842030   1.085866
    27  H    7.048979   3.280444   5.603747   4.840208   6.934820
    28  H    6.610839   3.839342   4.904278   4.555543   6.225712
    29  H    4.885879   3.270440   3.986136   2.562040   5.038656
    30  H    2.621818   3.691534   2.782545   1.084785   3.267584
    31  H    3.262399   4.651761   3.452956   1.079653   3.851962
                   11         12         13         14         15
    11  O    0.000000
    12  O    2.316874   0.000000
    13  C    2.416636   2.368552   0.000000
    14  H    2.729011   4.262683   2.789201   0.000000
    15  H    3.354606   4.307191   3.452467   1.752915   0.000000
    16  H    4.033060   2.017193   4.110611   6.259375   6.281020
    17  H    3.838653   3.983586   2.153737   2.460153   2.546812
    18  H    3.298463   2.784417   2.160094   3.047655   2.460155
    19  H    6.054949   5.208863   7.412889   8.706849   8.671307
    20  H    4.723966   4.416667   6.469043   7.314166   7.283421
    21  H    2.054924   2.662366   3.296597   3.042079   2.443996
    22  H    2.002988   3.850352   3.822019   2.442047   2.520647
    23  H    3.333544   2.633817   4.704251   5.477729   5.031574
    24  H    4.301404   2.613189   4.803897   6.153232   5.522974
    25  H    5.725161   4.092155   6.444651   8.084351   7.751017
    26  H    5.665401   4.548537   6.869186   7.928212   7.403382
    27  H    2.707932   3.279120   1.086688   2.630090   3.788570
    28  H    3.334435   2.550547   1.084508   3.797907   4.304038
    29  H    1.980467   2.043632   2.145681   4.010808   4.845990
    30  H    2.663734   2.807372   4.379058   5.388862   5.780522
    31  H    3.383247   2.825418   4.176163   5.945481   6.548425
                   16         17         18         19         20
    16  H    0.000000
    17  H    5.815624   0.000000
    18  H    4.560556   1.746031   0.000000
    19  H    3.995353   9.129281   7.774869   0.000000
    20  H    3.912983   8.070817   6.783962   1.759545   0.000000
    21  H    4.392206   3.804849   2.664072   6.260009   4.872621
    22  H    5.607617   4.287173   3.806448   7.014240   5.416062
    23  H    3.029973   5.871221   4.382244   3.813676   2.670019
    24  H    2.457412   5.821196   4.152643   4.289230   3.811551
    25  H    2.631123   7.904217   6.366546   2.438988   3.044316
    26  H    3.772710   8.117174   6.514787   2.534302   2.455387
    27  H    4.929197   2.444980   3.047986   8.048912   7.050712
    28  H    3.900163   2.534423   2.479092   7.568488   6.853145
    29  H    3.141415   4.262825   3.856363   5.824775   4.970501
    30  H    3.038286   6.196162   5.240433   3.570984   2.405830
    31  H    2.448015   6.261893   5.472552   4.003226   3.565183
                   21         22         23         24         25
    21  H    0.000000
    22  H    1.753479   0.000000
    23  H    2.618282   3.827784   0.000000
    24  H    3.460157   5.047561   1.752629   0.000000
    25  H    5.484761   6.763826   3.051597   2.459654   0.000000
    26  H    5.034175   6.201872   2.454556   2.545362   1.751756
    27  H    3.971840   4.047478   5.521469   5.801389   7.311407
    28  H    4.090439   4.843155   5.120907   4.874976   6.384458
    29  H    3.664988   3.980434   4.052558   4.519728   5.416927
    30  H    3.662422   3.974540   2.617123   3.787053   3.979502
    31  H    4.717923   5.181168   3.777325   4.286765   4.127027
                   26         27         28         29         30
    26  H    0.000000
    27  H    7.725685   0.000000
    28  H    7.055607   1.750631   0.000000
    29  H    5.944080   2.362512   2.518418   0.000000
    30  H    4.031674   4.791754   4.851738   2.664566   0.000000
    31  H    4.858897   4.520352   4.306006   2.164716   1.762231
                   31
    31  H    0.000000
 Stoichiometry    C10H18O3
 Framework group  C1[X(C10H18O3)]
 Deg. of freedom    87
 Full point group                 C1      NOp   1
 Largest Abelian subgroup         C1      NOp   1
 Largest concise Abelian subgroup C1      NOp   1
                         Standard orientation:                         
 ---------------------------------------------------------------------
 Center     Atomic      Atomic             Coordinates (Angstroms)
 Number     Number       Type             X           Y           Z
 ---------------------------------------------------------------------
      1          6           0       -3.390306    0.931713    0.430235
      2          6           0       -1.192161   -0.922700    0.074029
      3          6           0        1.096864   -0.353749   -0.700748
      4          6           0       -3.286801    0.139322   -0.872597
      5          8           0        3.041922   -0.990126    0.544145
      6          6           0        3.586053    0.317441    0.554526
      7          6           0       -2.011267    1.114443    1.040931
      8          6           0        1.621850    1.074138   -0.793093
      9          6           0        1.630298   -1.021410    0.569477
     10          6           0        3.147021    1.089586   -0.677844
     11          8           0       -1.352225   -0.132114    1.223931
     12          8           0       -0.320859   -0.325904   -0.841652
     13          6           0       -2.525669   -1.162497   -0.620376
     14          1           0       -4.027097    0.401338    1.134553
     15          1           0       -3.834364    1.908494    0.260455
     16          1           0        1.473128   -0.925357   -1.542605
     17          1           0       -4.274467   -0.083092   -1.264715
     18          1           0       -2.773919    0.734377   -1.623495
     19          1           0        4.660254    0.198162    0.588774
     20          1           0        3.267396    0.826317    1.461338
     21          1           0       -1.400089    1.757158    0.417041
     22          1           0       -2.069332    1.557643    2.025455
     23          1           0        1.184906    1.659019    0.012600
     24          1           0        1.302537    1.518919   -1.730456
     25          1           0        3.591532    0.635055   -1.559625
     26          1           0        3.514040    2.109753   -0.617336
     27          1           0       -3.115517   -1.804032    0.028779
     28          1           0       -2.348012   -1.706483   -1.541612
     29          1           0       -0.787850   -1.856309    0.429651
     30          1           0        1.272583   -0.518577    1.461641
     31          1           0        1.358279   -2.064966    0.620929
 ---------------------------------------------------------------------
 Rotational constants (GHZ):           1.8716993           0.4185286           0.4092752
 Standard basis: 6-311++G(2d,2p) (5D, 7F)
 There are   557 symmetry adapted cartesian basis functions of A   symmetry.
 There are   531 symmetry adapted basis functions of A   symmetry.
   531 basis functions,   762 primitive gaussians,   557 cartesian basis functions
    51 alpha electrons       51 beta electrons
       nuclear repulsion energy       898.8320281111 Hartrees.
 NAtoms=   31 NActive=   31 NUniq=   31 SFac= 1.00D+00 NAtFMM=   60 NAOKFM=F Big=F
 Integral buffers will be    131072 words long.
 Raffenetti 2 integral format.
 Two-electron integral symmetry is turned on.
 ------------------------------------------------------------------------------
 Polarizable Continuum Model (PCM)
 =================================
 Model                : PCM.
 Atomic radii         : UFF (Universal Force Field).
 Polarization charges : Total charges.
 Charge compensation  : None.
 Solution method      : On-the-fly selection.
 Cavity type          : Scaled VdW (van der Waals Surface) (Alpha=1.100).
 Cavity algorithm     : GePol (No added spheres)
                        Default sphere list used, NSphG=   31.
                        Lebedev-Laikov grids with approx.  5.0 points / Ang**2.
                        Smoothing algorithm: York/Karplus (Gamma=1.0000).
                        Polarization charges: spherical gaussians, with
                                              point-specific exponents (IZeta= 3).
                        Self-potential: point-specific (ISelfS= 7).
                        Self-field    : sphere-specific E.n sum rule (ISelfD= 2).
 1st derivatives      : Analytical E(r).r(x)/FMM algorithm (CHGder, D1EAlg=3).
                        Cavity 1st derivative terms included.
 Solvent              : Water, Eps=  78.355300 Eps(inf)=   1.777849
 ------------------------------------------------------------------------------
 One-electron integrals computed using PRISM.
 NBasis=   531 RedAO= T EigKep=  4.98D-06  NBF=   531
 NBsUse=   531 1.00D-06 EigRej= -1.00D+00 NBFU=   531
 ExpMin= 3.60D-02 ExpMax= 8.59D+03 ExpMxC= 1.30D+03 IAcc=3 IRadAn=         5 AccDes= 0.00D+00
 Harris functional with IExCor= 1009 and IRadAn=       5 diagonalized for initial guess.
 HarFok:  IExCor= 1009 AccDes= 0.00D+00 IRadAn=         5 IDoV= 1 UseB2=F ITyADJ=14
 ICtDFT=  3500011 ScaDFX=  1.000000  1.000000  1.000000  1.000000
 FoFCou: FMM=F IPFlag=           0 FMFlag=      100000 FMFlg1=           0
         NFxFlg=           0 DoJE=T BraDBF=F KetDBF=T FulRan=T
         wScrn=  0.000000 ICntrl=       500 IOpCl=  0 I1Cent=   200000004 NGrid=           0
         NMat0=    1 NMatS0=      1 NMatT0=    0 NMatD0=    1 NMtDS0=    0 NMtDT0=    0
 Petite list used in FoFCou.
 Requested convergence on RMS density matrix=1.00D-08 within 128 cycles.
 Requested convergence on MAX density matrix=1.00D-06.
 Requested convergence on             energy=1.00D-06.
 No special actions if energy rises.
 Inv3:  Mode=1 IEnd=    12460332.
 Iteration    1 A*A^-1 deviation from unit magnitude is 4.77D-15 for   2024.
 Iteration    1 A*A^-1 deviation from orthogonality  is 2.14D-15 for   2018    823.
 Iteration    1 A^-1*A deviation from unit magnitude is 4.77D-15 for   2024.
 Iteration    1 A^-1*A deviation from orthogonality  is 1.76D-15 for   1740    698.
 Error on total polarization charges =  0.01469
 SCF Done:  E(RM062X) =  -617.495047711     A.U. after   12 cycles
            NFock= 12  Conv=0.60D-08     -V/T= 2.0035

 **********************************************************************

            Population analysis using the SCF density.

 **********************************************************************

 Orbital symmetries:
       Occupied  (A) (A) (A) (A) (A) (A) (A) (A) (A) (A) (A) (A)
                 (A) (A) (A) (A) (A) (A) (A) (A) (A) (A) (A) (A)
                 (A) (A) (A) (A) (A) (A) (A) (A) (A) (A) (A) (A)
                 (A) (A) (A) (A) (A) (A) (A) (A) (A) (A) (A) (A)
                 (A) (A) (A)
       Virtual   (A) (A) (A) (A) (A) (A) (A) (A) (A) (A) (A) (A)
                 (A) (A) (A) (A) (A) (A) (A) (A) (A) (A) (A) (A)
                 (A) (A) (A) (A) (A) (A) (A) (A) (A) (A) (A) (A)
                 (A) (A) (A) (A) (A) (A) (A) (A) (A) (A) (A) (A)
                 (A) (A) (A) (A) (A) (A) (A) (A) (A) (A) (A) (A)
                 (A) (A) (A) (A) (A) (A) (A) (A) (A) (A) (A) (A)
                 (A) (A) (A) (A) (A) (A) (A) (A) (A) (A) (A) (A)
                 (A) (A) (A) (A) (A) (A) (A) (A) (A) (A) (A) (A)
                 (A) (A) (A) (A) (A) (A) (A) (A) (A) (A) (A) (A)
                 (A) (A) (A) (A) (A) (A) (A) (A) (A) (A) (A) (A)
                 (A) (A) (A) (A) (A) (A) (A) (A) (A) (A) (A) (A)
                 (A) (A) (A) (A) (A) (A) (A) (A) (A) (A) (A) (A)
                 (A) (A) (A) (A) (A) (A) (A) (A) (A) (A) (A) (A)
                 (A) (A) (A) (A) (A) (A) (A) (A) (A) (A) (A) (A)
                 (A) (A) (A) (A) (A) (A) (A) (A) (A) (A) (A) (A)
                 (A) (A) (A) (A) (A) (A) (A) (A) (A) (A) (A) (A)
                 (A) (A) (A) (A) (A) (A) (A) (A) (A) (A) (A) (A)
                 (A) (A) (A) (A) (A) (A) (A) (A) (A) (A) (A) (A)
                 (A) (A) (A) (A) (A) (A) (A) (A) (A) (A) (A) (A)
                 (A) (A) (A) (A) (A) (A) (A) (A) (A) (A) (A) (A)
                 (A) (A) (A) (A) (A) (A) (A) (A) (A) (A) (A) (A)
                 (A) (A) (A) (A) (A) (A) (A) (A) (A) (A) (A) (A)
                 (A) (A) (A) (A) (A) (A) (A) (A) (A) (A) (A) (A)
                 (A) (A) (A) (A) (A) (A) (A) (A) (A) (A) (A) (A)
                 (A) (A) (A) (A) (A) (A) (A) (A) (A) (A) (A) (A)
                 (A) (A) (A) (A) (A) (A) (A) (A) (A) (A) (A) (A)
                 (A) (A) (A) (A) (A) (A) (A) (A) (A) (A) (A) (A)
                 (A) (A) (A) (A) (A) (A) (A) (A) (A) (A) (A) (A)
                 (A) (A) (A) (A) (A) (A) (A) (A) (A) (A) (A) (A)
                 (A) (A) (A) (A) (A) (A) (A) (A) (A) (A) (A) (A)
                 (A) (A) (A) (A) (A) (A) (A) (A) (A) (A) (A) (A)
                 (A) (A) (A) (A) (A) (A) (A) (A) (A) (A) (A) (A)
                 (A) (A) (A) (A) (A) (A) (A) (A) (A) (A) (A) (A)
                 (A) (A) (A) (A) (A) (A) (A) (A) (A) (A) (A) (A)
                 (A) (A) (A) (A) (A) (A) (A) (A) (A) (A) (A) (A)
                 (A) (A) (A) (A) (A) (A) (A) (A) (A) (A) (A) (A)
                 (A) (A) (A) (A) (A) (A) (A) (A) (A) (A) (A) (A)
                 (A) (A) (A) (A) (A) (A) (A) (A) (A) (A) (A) (A)
                 (A) (A) (A) (A) (A) (A) (A) (A) (A) (A) (A) (A)
                 (A) (A) (A) (A) (A) (A) (A) (A) (A) (A) (A) (A)
 The electronic state is 1-A.
 Alpha  occ. eigenvalues --  -19.63010 -19.62754 -19.62610 -10.63483 -10.58890
 Alpha  occ. eigenvalues --  -10.58127 -10.57861 -10.57552 -10.53077 -10.53008
 Alpha  occ. eigenvalues --  -10.52931 -10.52893 -10.52712  -1.19829  -1.16832
 Alpha  occ. eigenvalues --   -1.13307  -0.90965  -0.89733  -0.87359  -0.84957
 Alpha  occ. eigenvalues --   -0.75438  -0.74151  -0.73074  -0.70889  -0.66525
 Alpha  occ. eigenvalues --   -0.63110  -0.60408  -0.58623  -0.57474  -0.56028
 Alpha  occ. eigenvalues --   -0.54155  -0.53405  -0.51677  -0.51444  -0.49766
 Alpha  occ. eigenvalues --   -0.49052  -0.47153  -0.45811  -0.45437  -0.44962
 Alpha  occ. eigenvalues --   -0.43926  -0.42031  -0.41627  -0.40282  -0.39934
 Alpha  occ. eigenvalues --   -0.38439  -0.37806  -0.36082  -0.33750  -0.33194
 Alpha  occ. eigenvalues --   -0.32211
 Alpha virt. eigenvalues --   -0.00099   0.00749   0.00886   0.01009   0.02172
 Alpha virt. eigenvalues --    0.02509   0.02620   0.03304   0.03569   0.04382
 Alpha virt. eigenvalues --    0.04760   0.04856   0.05473   0.05869   0.07053
 Alpha virt. eigenvalues --    0.07438   0.07781   0.08226   0.08836   0.09422
 Alpha virt. eigenvalues --    0.10258   0.10459   0.11111   0.11685   0.11841
 Alpha virt. eigenvalues --    0.12368   0.12897   0.13110   0.13313   0.13362
 Alpha virt. eigenvalues --    0.13527   0.14105   0.14328   0.14618   0.14905
 Alpha virt. eigenvalues --    0.15085   0.15232   0.15922   0.16081   0.16253
 Alpha virt. eigenvalues --    0.16401   0.16829   0.16898   0.17456   0.17595
 Alpha virt. eigenvalues --    0.17814   0.18063   0.18697   0.18993   0.19791
 Alpha virt. eigenvalues --    0.20070   0.20565   0.20743   0.20822   0.21263
 Alpha virt. eigenvalues --    0.21706   0.22355   0.22946   0.23569   0.24311
 Alpha virt. eigenvalues --    0.24496   0.25227   0.26183   0.26650   0.27172
 Alpha virt. eigenvalues --    0.27819   0.28107   0.28691   0.29194   0.29394
 Alpha virt. eigenvalues --    0.29957   0.30376   0.31045   0.31304   0.31767
 Alpha virt. eigenvalues --    0.32105   0.33241   0.33453   0.34502   0.34734
 Alpha virt. eigenvalues --    0.34808   0.35169   0.35274   0.35758   0.36175
 Alpha virt. eigenvalues --    0.36253   0.37043   0.37540   0.38016   0.38311
 Alpha virt. eigenvalues --    0.38800   0.39267   0.39571   0.39782   0.41013
 Alpha virt. eigenvalues --    0.42059   0.42198   0.42874   0.43645   0.44339
 Alpha virt. eigenvalues --    0.46298   0.47549   0.49828   0.50488   0.50965
 Alpha virt. eigenvalues --    0.51750   0.52580   0.53246   0.54612   0.54722
 Alpha virt. eigenvalues --    0.56665   0.57341   0.58028   0.59125   0.59774
 Alpha virt. eigenvalues --    0.59941   0.60326   0.60879   0.61675   0.62080
 Alpha virt. eigenvalues --    0.62400   0.62843   0.63082   0.63664   0.64003
 Alpha virt. eigenvalues --    0.64657   0.65587   0.65758   0.66642   0.66863
 Alpha virt. eigenvalues --    0.68119   0.68508   0.69518   0.70262   0.71048
 Alpha virt. eigenvalues --    0.71060   0.71632   0.72124   0.72803   0.73511
 Alpha virt. eigenvalues --    0.73811   0.74015   0.74727   0.75144   0.75606
 Alpha virt. eigenvalues --    0.76214   0.76530   0.78569   0.78702   0.79442
 Alpha virt. eigenvalues --    0.79789   0.81143   0.83642   0.85232   0.85774
 Alpha virt. eigenvalues --    0.86747   0.87265   0.88630   0.89110   0.89811
 Alpha virt. eigenvalues --    0.90174   0.91759   0.92093   0.93271   0.94368
 Alpha virt. eigenvalues --    0.97077   0.97992   0.99956   1.00656   1.02271
 Alpha virt. eigenvalues --    1.03622   1.03907   1.04500   1.05765   1.07422
 Alpha virt. eigenvalues --    1.08246   1.09119   1.10048   1.10830   1.12401
 Alpha virt. eigenvalues --    1.13709   1.14181   1.14842   1.16182   1.16935
 Alpha virt. eigenvalues --    1.17089   1.17968   1.18465   1.19502   1.20503
 Alpha virt. eigenvalues --    1.21533   1.22132   1.23244   1.23682   1.24614
 Alpha virt. eigenvalues --    1.25181   1.25811   1.26485   1.26997   1.27992
 Alpha virt. eigenvalues --    1.28530   1.28881   1.29124   1.31037   1.32127
 Alpha virt. eigenvalues --    1.32537   1.33423   1.33762   1.34315   1.35102
 Alpha virt. eigenvalues --    1.35890   1.35939   1.36856   1.37729   1.38147
 Alpha virt. eigenvalues --    1.38670   1.40126   1.41009   1.41415   1.41980
 Alpha virt. eigenvalues --    1.42819   1.43622   1.44311   1.44707   1.45474
 Alpha virt. eigenvalues --    1.45615   1.46358   1.46707   1.47977   1.48238
 Alpha virt. eigenvalues --    1.48582   1.49232   1.50140   1.51832   1.52217
 Alpha virt. eigenvalues --    1.52769   1.53539   1.54545   1.54700   1.55070
 Alpha virt. eigenvalues --    1.56505   1.56982   1.57823   1.58269   1.58870
 Alpha virt. eigenvalues --    1.59333   1.59743   1.61200   1.61371   1.62859
 Alpha virt. eigenvalues --    1.63280   1.63700   1.64919   1.65399   1.66507
 Alpha virt. eigenvalues --    1.67958   1.68738   1.69244   1.70849   1.72562
 Alpha virt. eigenvalues --    1.74088   1.74953   1.76712   1.77248   1.77688
 Alpha virt. eigenvalues --    1.78175   1.80069   1.81377   1.81705   1.84646
 Alpha virt. eigenvalues --    1.86631   1.89505   1.90969   1.93586   1.98921
 Alpha virt. eigenvalues --    2.01586   2.06656   2.11691   2.17618   2.19444
 Alpha virt. eigenvalues --    2.23780   2.27339   2.33376   2.34625   2.39787
 Alpha virt. eigenvalues --    2.41179   2.43627   2.46572   2.49142   2.55517
 Alpha virt. eigenvalues --    2.60629   2.76088   2.76902   2.79465   2.82746
 Alpha virt. eigenvalues --    2.83451   2.90065   2.93137   2.93297   2.93624
 Alpha virt. eigenvalues --    2.96139   2.97206   3.01367   3.03232   3.04722
 Alpha virt. eigenvalues --    3.05944   3.06422   3.07848   3.09795   3.10580
 Alpha virt. eigenvalues --    3.13361   3.15879   3.17134   3.18784   3.21457
 Alpha virt. eigenvalues --    3.25054   3.26239   3.31782   3.33723   3.34355
 Alpha virt. eigenvalues --    3.36044   3.37675   3.37973   3.40002   3.40916
 Alpha virt. eigenvalues --    3.41974   3.43933   3.44063   3.45964   3.47460
 Alpha virt. eigenvalues --    3.48305   3.49026   3.50662   3.51759   3.52612
 Alpha virt. eigenvalues --    3.53027   3.53794   3.54416   3.55130   3.56420
 Alpha virt. eigenvalues --    3.57239   3.57868   3.58424   3.59562   3.59835
 Alpha virt. eigenvalues --    3.60949   3.62431   3.63317   3.64525   3.65393
 Alpha virt. eigenvalues --    3.65758   3.67191   3.67526   3.68898   3.69148
 Alpha virt. eigenvalues --    3.70695   3.71151   3.71743   3.73116   3.73568
 Alpha virt. eigenvalues --    3.74490   3.75686   3.76147   3.77456   3.78314
 Alpha virt. eigenvalues --    3.78574   3.79264   3.80610   3.81749   3.83977
 Alpha virt. eigenvalues --    3.87760   3.88217   3.89979   3.90421   3.92203
 Alpha virt. eigenvalues --    3.93287   3.94212   3.94760   3.95238   3.98589
 Alpha virt. eigenvalues --    4.00167   4.01330   4.02834   4.03412   4.03587
 Alpha virt. eigenvalues --    4.05232   4.05483   4.06304   4.07376   4.07620
 Alpha virt. eigenvalues --    4.08436   4.09404   4.09897   4.10360   4.11624
 Alpha virt. eigenvalues --    4.12844   4.13743   4.14242   4.15017   4.16831
 Alpha virt. eigenvalues --    4.17009   4.17485   4.18675   4.19234   4.20182
 Alpha virt. eigenvalues --    4.21028   4.23997   4.26454   4.26839   4.27408
 Alpha virt. eigenvalues --    4.28203   4.30256   4.31547   4.32125   4.32682
 Alpha virt. eigenvalues --    4.33174   4.34107   4.36598   4.37427   4.39770
 Alpha virt. eigenvalues --    4.41190   4.44060   4.45159   4.47317   4.48517
 Alpha virt. eigenvalues --    4.58138   4.61175   4.75623   4.77176   4.82783
 Alpha virt. eigenvalues --    4.85450   4.92893   4.95299   4.99006   5.01140
 Alpha virt. eigenvalues --    5.06891   5.07156   5.07800   5.08764   5.12252
 Alpha virt. eigenvalues --    5.12349   5.14121   5.15719   5.30870   5.38685
 Alpha virt. eigenvalues --    5.40178   5.57731   5.59099   5.64417   5.85283
 Alpha virt. eigenvalues --    5.90670   6.03336   7.01768   7.05529   7.06223
 Alpha virt. eigenvalues --    7.07213   7.11522   7.13296   7.17287   7.19098
 Alpha virt. eigenvalues --    7.30304   7.36987   7.41163   7.44760   7.52892
 Alpha virt. eigenvalues --    7.54588   7.64327  23.95467  23.97258  24.06644
 Alpha virt. eigenvalues --   24.07899  24.11044  24.11427  24.14286  24.15252
 Alpha virt. eigenvalues --   24.16365  24.20017  50.16468  50.18833  50.28548
          Condensed to atoms (all electrons):
               1          2          3          4          5          6
     1  C    5.770523   0.314814   0.031422  -0.060429  -0.000462   0.004214
     2  C    0.314814   7.541395  -1.114885  -0.289744  -0.001236   0.019945
     3  C    0.031422  -1.114885   8.156184   0.080230  -0.021037   0.071632
     4  C   -0.060429  -0.289744   0.080230   5.760521   0.000979  -0.003706
     5  O   -0.000462  -0.001236  -0.021037   0.000979   8.357859   0.091974
     6  C    0.004214   0.019945   0.071632  -0.003706   0.091974   5.418707
     7  C   -0.063163  -0.391111   0.009486   0.007145   0.001953  -0.005167
     8  C   -0.035653   0.332359  -1.646894  -0.011725  -0.007475  -0.040135
     9  C    0.003335   0.283811  -0.621910  -0.007013   0.193847  -0.190157
    10  C    0.006693  -0.073137   0.198916  -0.002827  -0.051872   0.040852
    11  O   -0.093800   0.260791   0.100359   0.010535  -0.000068  -0.003975
    12  O   -0.017211   0.305914  -0.078515  -0.010903   0.005901   0.002258
    13  C   -0.185084  -1.430232   0.279005  -0.029977  -0.000713  -0.013403
    14  H    0.464426   0.001028  -0.001903  -0.000636  -0.000027   0.000090
    15  H    0.453334   0.015703  -0.003195  -0.058080   0.000028   0.000170
    16  H   -0.000479  -0.047483   0.569049   0.003509  -0.000391  -0.000600
    17  H   -0.028241   0.018291   0.009269   0.419020   0.000007  -0.000182
    18  H   -0.074230  -0.019727  -0.001912   0.529408   0.000016   0.000191
    19  H    0.000278  -0.001193   0.008951  -0.000104  -0.074205   0.429069
    20  H   -0.001314   0.000195   0.017531   0.000458  -0.037536   0.464031
    21  H   -0.090084  -0.017355  -0.027930   0.017590  -0.000377  -0.003664
    22  H   -0.004365  -0.006578  -0.003088   0.005475   0.000276  -0.000289
    23  H   -0.006408  -0.025190   0.054330   0.004798  -0.001363  -0.007011
    24  H    0.001435   0.009113  -0.038133  -0.003921  -0.000508   0.010187
    25  H   -0.000611  -0.005807  -0.019593   0.000891  -0.005215  -0.084847
    26  H    0.000067  -0.001961   0.010423   0.000011   0.007312  -0.033214
    27  H   -0.013779  -0.162818   0.021485   0.005728   0.000013  -0.000183
    28  H   -0.004405   0.001342  -0.033955  -0.037292   0.000277   0.000262
    29  H    0.028979   0.552164  -0.055629  -0.041294  -0.000378   0.005479
    30  H   -0.001792  -0.041793   0.120159  -0.004431  -0.032016   0.007547
    31  H   -0.000533  -0.004902  -0.034589   0.007867  -0.077880  -0.000259
               7          8          9         10         11         12
     1  C   -0.063163  -0.035653   0.003335   0.006693  -0.093800  -0.017211
     2  C   -0.391111   0.332359   0.283811  -0.073137   0.260791   0.305914
     3  C    0.009486  -1.646894  -0.621910   0.198916   0.100359  -0.078515
     4  C    0.007145  -0.011725  -0.007013  -0.002827   0.010535  -0.010903
     5  O    0.001953  -0.007475   0.193847  -0.051872  -0.000068   0.005901
     6  C   -0.005167  -0.040135  -0.190157   0.040852  -0.003975   0.002258
     7  C    5.473406   0.018159  -0.005575   0.001881   0.145491   0.006467
     8  C    0.018159   6.922119   0.450581  -0.222653  -0.067704  -0.056811
     9  C   -0.005575   0.450581   5.803814  -0.036679  -0.020609   0.013529
    10  C    0.001881  -0.222653  -0.036679   5.702538   0.004015  -0.012834
    11  O    0.145491  -0.067704  -0.020609   0.004015   8.207913  -0.039578
    12  O    0.006467  -0.056811   0.013529  -0.012834  -0.039578   8.409230
    13  C    0.156684  -0.105740  -0.154993   0.016063  -0.065927  -0.113959
    14  H   -0.082000  -0.001338  -0.000572  -0.000276  -0.000212  -0.000399
    15  H   -0.037797   0.002840   0.001040   0.000264   0.010094   0.000523
    16  H   -0.001412  -0.106289  -0.090397   0.020186   0.001154  -0.069522
    17  H    0.014688  -0.002268  -0.001629   0.000122  -0.005097  -0.000301
    18  H    0.007832  -0.000852  -0.001735  -0.001550   0.001769  -0.003496
    19  H   -0.000119  -0.003364   0.013015  -0.032626   0.000040   0.000624
    20  H   -0.000196   0.006248  -0.024784  -0.058023   0.001051  -0.000725
    21  H    0.444907   0.034485  -0.001803  -0.009362  -0.032408   0.010735
    22  H    0.425630   0.004053   0.002578   0.000445  -0.066953   0.000341
    23  H    0.009728   0.425746  -0.043358  -0.032675   0.002735   0.002065
    24  H   -0.000925   0.418063   0.011278  -0.017423   0.000098  -0.007403
    25  H    0.000614  -0.011560   0.007578   0.486195   0.000051   0.000078
    26  H    0.000046  -0.043463  -0.003367   0.435267  -0.000282  -0.003555
    27  H    0.016312  -0.007497  -0.003517   0.000767  -0.008710   0.009763
    28  H    0.004139   0.016097   0.005770  -0.001022   0.011344  -0.001243
    29  H   -0.040785   0.018454   0.017414  -0.013388  -0.069509  -0.023569
    30  H   -0.002484  -0.110477   0.385070   0.007858  -0.012188  -0.005837
    31  H    0.005085  -0.004250   0.437656   0.024213   0.001322   0.002508
              13         14         15         16         17         18
     1  C   -0.185084   0.464426   0.453334  -0.000479  -0.028241  -0.074230
     2  C   -1.430232   0.001028   0.015703  -0.047483   0.018291  -0.019727
     3  C    0.279005  -0.001903  -0.003195   0.569049   0.009269  -0.001912
     4  C   -0.029977  -0.000636  -0.058080   0.003509   0.419020   0.529408
     5  O   -0.000713  -0.000027   0.000028  -0.000391   0.000007   0.000016
     6  C   -0.013403   0.000090   0.000170  -0.000600  -0.000182   0.000191
     7  C    0.156684  -0.082000  -0.037797  -0.001412   0.014688   0.007832
     8  C   -0.105740  -0.001338   0.002840  -0.106289  -0.002268  -0.000852
     9  C   -0.154993  -0.000572   0.001040  -0.090397  -0.001629  -0.001735
    10  C    0.016063  -0.000276   0.000264   0.020186   0.000122  -0.001550
    11  O   -0.065927  -0.000212   0.010094   0.001154  -0.005097   0.001769
    12  O   -0.113959  -0.000399   0.000523  -0.069522  -0.000301  -0.003496
    13  C    7.389310  -0.012182  -0.013068   0.011896  -0.050050  -0.052784
    14  H   -0.012182   0.488311  -0.013638   0.000015  -0.002053   0.001837
    15  H   -0.013068  -0.013638   0.489966  -0.000161  -0.006805  -0.004720
    16  H    0.011896   0.000015  -0.000161   0.467053   0.000422   0.000118
    17  H   -0.050050  -0.002053  -0.006805   0.000422   0.464322  -0.006222
    18  H   -0.052784   0.001837  -0.004720   0.000118  -0.006222   0.458001
    19  H   -0.000273   0.000002   0.000005  -0.001082  -0.000003   0.000008
    20  H    0.001246   0.000010  -0.000056   0.001497   0.000001  -0.000033
    21  H    0.031805   0.005663  -0.002899   0.001148  -0.000883  -0.003192
    22  H   -0.003291  -0.006788  -0.009437  -0.000161   0.001342  -0.001650
    23  H    0.003766   0.000375   0.000032   0.007721   0.000285   0.001713
    24  H    0.000008   0.000008  -0.000026  -0.010487  -0.000167  -0.000911
    25  H    0.000297  -0.000008  -0.000001  -0.001238   0.000026  -0.000031
    26  H   -0.000053  -0.000018   0.000017  -0.002783   0.000004  -0.000065
    27  H    0.522738  -0.003240  -0.002170   0.000221  -0.004644   0.002893
    28  H    0.404605  -0.001244   0.001194  -0.002210  -0.008955  -0.002016
    29  H   -0.088348   0.000614   0.001394  -0.002345   0.002819  -0.003979
    30  H   -0.011289   0.000039   0.000212   0.006752   0.000037  -0.000429
    31  H    0.003356  -0.000288   0.000060  -0.005470  -0.000118   0.000274
              19         20         21         22         23         24
     1  C    0.000278  -0.001314  -0.090084  -0.004365  -0.006408   0.001435
     2  C   -0.001193   0.000195  -0.017355  -0.006578  -0.025190   0.009113
     3  C    0.008951   0.017531  -0.027930  -0.003088   0.054330  -0.038133
     4  C   -0.000104   0.000458   0.017590   0.005475   0.004798  -0.003921
     5  O   -0.074205  -0.037536  -0.000377   0.000276  -0.001363  -0.000508
     6  C    0.429069   0.464031  -0.003664  -0.000289  -0.007011   0.010187
     7  C   -0.000119  -0.000196   0.444907   0.425630   0.009728  -0.000925
     8  C   -0.003364   0.006248   0.034485   0.004053   0.425746   0.418063
     9  C    0.013015  -0.024784  -0.001803   0.002578  -0.043358   0.011278
    10  C   -0.032626  -0.058023  -0.009362   0.000445  -0.032675  -0.017423
    11  O    0.000040   0.001051  -0.032408  -0.066953   0.002735   0.000098
    12  O    0.000624  -0.000725   0.010735   0.000341   0.002065  -0.007403
    13  C   -0.000273   0.001246   0.031805  -0.003291   0.003766   0.000008
    14  H    0.000002   0.000010   0.005663  -0.006788   0.000375   0.000008
    15  H    0.000005  -0.000056  -0.002899  -0.009437   0.000032  -0.000026
    16  H   -0.001082   0.001497   0.001148  -0.000161   0.007721  -0.010487
    17  H   -0.000003   0.000001  -0.000883   0.001342   0.000285  -0.000167
    18  H    0.000008  -0.000033  -0.003192  -0.001650   0.001713  -0.000911
    19  H    0.467909  -0.007839  -0.000358  -0.000020  -0.000690   0.000681
    20  H   -0.007839   0.496617   0.002879  -0.000364  -0.011097   0.000269
    21  H   -0.000358   0.002879   0.547082  -0.022482  -0.006329   0.000466
    22  H   -0.000020  -0.000364  -0.022482   0.481132   0.000056   0.000267
    23  H   -0.000690  -0.011097  -0.006329   0.000056   0.477749  -0.020389
    24  H    0.000681   0.000269   0.000466   0.000267  -0.020389   0.481382
    25  H   -0.003305   0.002294   0.000609  -0.000061  -0.000350  -0.006399
    26  H   -0.009609   0.005673   0.000362   0.000098  -0.006097  -0.008589
    27  H    0.000022  -0.000079  -0.002776   0.001610   0.000191   0.000037
    28  H   -0.000064   0.000151   0.000505   0.000670  -0.000519   0.000261
    29  H    0.000128  -0.001003   0.001061  -0.001527  -0.002328   0.001146
    30  H   -0.001801   0.003934   0.004160  -0.001658  -0.002579  -0.001150
    31  H    0.003157  -0.002676  -0.001811   0.000582   0.000640  -0.001365
              25         26         27         28         29         30
     1  C   -0.000611   0.000067  -0.013779  -0.004405   0.028979  -0.001792
     2  C   -0.005807  -0.001961  -0.162818   0.001342   0.552164  -0.041793
     3  C   -0.019593   0.010423   0.021485  -0.033955  -0.055629   0.120159
     4  C    0.000891   0.000011   0.005728  -0.037292  -0.041294  -0.004431
     5  O   -0.005215   0.007312   0.000013   0.000277  -0.000378  -0.032016
     6  C   -0.084847  -0.033214  -0.000183   0.000262   0.005479   0.007547
     7  C    0.000614   0.000046   0.016312   0.004139  -0.040785  -0.002484
     8  C   -0.011560  -0.043463  -0.007497   0.016097   0.018454  -0.110477
     9  C    0.007578  -0.003367  -0.003517   0.005770   0.017414   0.385070
    10  C    0.486195   0.435267   0.000767  -0.001022  -0.013388   0.007858
    11  O    0.000051  -0.000282  -0.008710   0.011344  -0.069509  -0.012188
    12  O    0.000078  -0.003555   0.009763  -0.001243  -0.023569  -0.005837
    13  C    0.000297  -0.000053   0.522738   0.404605  -0.088348  -0.011289
    14  H   -0.000008  -0.000018  -0.003240  -0.001244   0.000614   0.000039
    15  H   -0.000001   0.000017  -0.002170   0.001194   0.001394   0.000212
    16  H   -0.001238  -0.002783   0.000221  -0.002210  -0.002345   0.006752
    17  H    0.000026   0.000004  -0.004644  -0.008955   0.002819   0.000037
    18  H   -0.000031  -0.000065   0.002893  -0.002016  -0.003979  -0.000429
    19  H   -0.003305  -0.009609   0.000022  -0.000064   0.000128  -0.001801
    20  H    0.002294   0.005673  -0.000079   0.000151  -0.001003   0.003934
    21  H    0.000609   0.000362  -0.002776   0.000505   0.001061   0.004160
    22  H   -0.000061   0.000098   0.001610   0.000670  -0.001527  -0.001658
    23  H   -0.000350  -0.006097   0.000191  -0.000519  -0.002328  -0.002579
    24  H   -0.006399  -0.008589   0.000037   0.000261   0.001146  -0.001150
    25  H    0.476531  -0.008595  -0.000035   0.000008  -0.000648   0.000090
    26  H   -0.008595   0.494463   0.000009   0.000031  -0.000265  -0.001534
    27  H   -0.000035   0.000009   0.455282  -0.002770  -0.021143  -0.000582
    28  H    0.000008   0.000031  -0.002770   0.473831  -0.011317   0.000014
    29  H   -0.000648  -0.000265  -0.021143  -0.011317   0.487177   0.000883
    30  H    0.000090  -0.001534  -0.000582   0.000014   0.000883   0.475300
    31  H   -0.001026   0.002029   0.002245   0.000068  -0.018581  -0.028278
              31
     1  C   -0.000533
     2  C   -0.004902
     3  C   -0.034589
     4  C    0.007867
     5  O   -0.077880
     6  C   -0.000259
     7  C    0.005085
     8  C   -0.004250
     9  C    0.437656
    10  C    0.024213
    11  O    0.001322
    12  O    0.002508
    13  C    0.003356
    14  H   -0.000288
    15  H    0.000060
    16  H   -0.005470
    17  H   -0.000118
    18  H    0.000274
    19  H    0.003157
    20  H   -0.002676
    21  H   -0.001811
    22  H    0.000582
    23  H    0.000640
    24  H   -0.001365
    25  H   -0.001026
    26  H    0.002029
    27  H    0.002245
    28  H    0.000068
    29  H   -0.018581
    30  H   -0.028278
    31  H    0.487091
 Mulliken charges:
               1
     1  C   -0.397476
     2  C   -0.021711
     3  C   -0.035263
     4  C   -0.292086
     5  O   -0.347683
     6  C   -0.179816
     7  C   -0.118921
     8  C   -0.163057
     9  C   -0.422221
    10  C   -0.379928
    11  O   -0.271744
    12  O   -0.324075
    13  C   -0.489412
    14  H    0.164403
    15  H    0.175176
    16  H    0.251770
    17  H    0.186962
    18  H    0.175474
    19  H    0.212763
    20  H    0.141642
    21  H    0.120257
    22  H    0.204156
    23  H    0.174452
    24  H    0.183100
    25  H    0.174068
    26  H    0.167637
    27  H    0.194627
    28  H    0.186444
    29  H    0.278324
    30  H    0.248265
    31  H    0.203873
 Sum of Mulliken charges =  -0.00000
 Mulliken charges with hydrogens summed into heavy atoms:
               1
     1  C   -0.057896
     2  C    0.256613
     3  C    0.216506
     4  C    0.070351
     5  O   -0.347683
     6  C    0.174589
     7  C    0.205492
     8  C    0.194494
     9  C    0.029917
    10  C   -0.038223
    11  O   -0.271744
    12  O   -0.324075
    13  C   -0.108340
 Electronic spatial extent (au):  <R**2>=           2963.3713
 Charge=             -0.0000 electrons
 Dipole moment (field-independent basis, Debye):
    X=             -1.0481    Y=              1.6642    Z=             -0.5965  Tot=              2.0552
 Quadrupole moment (field-independent basis, Debye-Ang):
   XX=            -76.0550   YY=            -77.1255   ZZ=            -83.1449
   XY=              6.0021   XZ=             -0.9185   YZ=              2.1682
 Traceless Quadrupole moment (field-independent basis, Debye-Ang):
   XX=              2.7201   YY=              1.6497   ZZ=             -4.3698
   XY=              6.0021   XZ=             -0.9185   YZ=              2.1682
 Octapole moment (field-independent basis, Debye-Ang**2):
  XXX=            -12.4131  YYY=             -4.8648  ZZZ=              0.1130  XYY=             -8.3430
  XXY=             25.7904  XXZ=             -4.1871  XZZ=              4.9777  YZZ=              2.6799
  YYZ=              1.8173  XYZ=              0.0079
 Hexadecapole moment (field-independent basis, Debye-Ang**3):
 XXXX=          -2929.7813 YYYY=           -504.4319 ZZZZ=           -425.1306 XXXY=             77.3156
 XXXZ=             -5.6877 YYYX=              1.2366 YYYZ=             -1.0560 ZZZX=             -3.2489
 ZZZY=              8.6558 XXYY=           -601.0321 XXZZ=           -576.3539 YYZZ=           -153.9068
 XXYZ=             18.9234 YYXZ=             -7.0463 ZZXY=             -3.8964
 N-N= 8.988320281111D+02 E-N=-3.239496154868D+03  KE= 6.153306332308D+02
 D1PCM: PCM CHGder 1st derivatives, ID1Alg=3 FixD1E=F DoIter=F DoCFld=F I1PDM=0.
 Calling FoFJK, ICntrl=      2127 FMM=F ISym2X=0 I1Cent= 0 IOpClX= 0 NMat=1 NMatS=1 NMatT=0.
 ***** Axes restored to original set *****
 -------------------------------------------------------------------
 Center     Atomic                   Forces (Hartrees/Bohr)
 Number     Number              X              Y              Z
 -------------------------------------------------------------------
      1        6           0.002126750    0.000140740   -0.001899490
      2        6          -0.001339799    0.006255191   -0.002694766
      3        6          -0.003197412    0.001767694    0.007090163
      4        6           0.001869980   -0.000850609    0.003443666
      5        8           0.005725393   -0.008055235   -0.000343242
      6        6          -0.005374512   -0.000344179   -0.004641474
      7        6          -0.003394361   -0.004351934   -0.003941742
      8        6           0.003509021   -0.003530644    0.000350069
      9        6           0.002990074    0.005252790   -0.005019050
     10        6          -0.001828268    0.000424938    0.002128991
     11        8           0.003850493   -0.003648104    0.010560577
     12        8          -0.004892785    0.005324870   -0.009272993
     13        6           0.000456828    0.002450543   -0.001021807
     14        1          -0.001403373   -0.002056285    0.002212322
     15        1          -0.001405588    0.002402150   -0.000644151
     16        1           0.003792515   -0.002963923   -0.004067841
     17        1          -0.002374488   -0.000584977   -0.000844097
     18        1           0.002636798    0.001614006   -0.001864096
     19        1           0.004340961   -0.000515563   -0.000012024
     20        1          -0.002074193    0.003818186    0.004436371
     21        1           0.003255122    0.003504252   -0.004708223
     22        1          -0.000352841    0.001757775    0.004046208
     23        1          -0.002259931    0.001260370    0.003685469
     24        1          -0.001426518    0.000865078   -0.002566602
     25        1           0.001150880   -0.001946527   -0.002303757
     26        1           0.000879522    0.002872486   -0.000178296
     27        1          -0.001770722   -0.001578978    0.002487696
     28        1           0.000730693   -0.001287238   -0.002788388
     29        1           0.002751769   -0.006876852    0.003879258
     30        1          -0.005011236    0.004049671    0.004561135
     31        1          -0.001960773   -0.005169694   -0.000069886
 -------------------------------------------------------------------
 Cartesian Forces:  Max     0.010560577 RMS     0.003508748

 GradGradGradGradGradGradGradGradGradGradGradGradGradGradGradGradGradGrad
 Berny optimization.
 FormGI is forming the generalized inverse of G from B-inverse, IUseBI=4.
 Internal  Forces:  Max     0.016951286 RMS     0.002291497
 Search for a local minimum.
 Step number   1 out of a maximum of  186
 All quantities printed in internal units (Hartrees-Bohrs-Radians)
 Mixed Optimization -- RFO/linear search
 Second derivative matrix not updated -- first step.
 ITU=  0
     Eigenvalues ---    0.00628   0.00650   0.00715   0.00723   0.01403
     Eigenvalues ---    0.01444   0.01721   0.02699   0.02744   0.03077
     Eigenvalues ---    0.03105   0.03974   0.04088   0.04632   0.04749
     Eigenvalues ---    0.04858   0.04893   0.05109   0.05143   0.05200
     Eigenvalues ---    0.05299   0.05665   0.05696   0.06028   0.06179
     Eigenvalues ---    0.06251   0.06569   0.07018   0.07597   0.07838
     Eigenvalues ---    0.07938   0.07948   0.07957   0.08062   0.08266
     Eigenvalues ---    0.08844   0.09184   0.09378   0.10706   0.11580
     Eigenvalues ---    0.11609   0.11689   0.11768   0.12403   0.12498
     Eigenvalues ---    0.14711   0.14720   0.16499   0.16531   0.17552
     Eigenvalues ---    0.19119   0.21361   0.21962   0.25000   0.28154
     Eigenvalues ---    0.28643   0.28782   0.28874   0.28961   0.29167
     Eigenvalues ---    0.30064   0.30293   0.35092   0.35095   0.35131
     Eigenvalues ---    0.35153   0.35193   0.35198   0.35240   0.35295
     Eigenvalues ---    0.35316   0.35331   0.35407   0.35422   0.35455
     Eigenvalues ---    0.35471   0.35832   0.35845   0.36036   0.36267
     Eigenvalues ---    0.40814   0.41427   0.41719   0.42104   0.43359
     Eigenvalues ---    0.459901000.000001000.000001000.000001000.00000
     Eigenvalues --- 1000.000001000.000001000.000001000.000001000.00000
     Eigenvalues --- 1000.000001000.000001000.000001000.000001000.00000
     Eigenvalues --- 1000.000001000.000001000.000001000.000001000.00000
     Eigenvalues --- 1000.000001000.000001000.000001000.000001000.00000
     Eigenvalues --- 1000.000001000.000001000.000001000.000001000.00000
     Eigenvalues --- 1000.000001000.000001000.000001000.000001000.00000
     Eigenvalues --- 1000.000001000.000001000.000001000.000001000.00000
     Eigenvalues --- 1000.000001000.000001000.000001000.000001000.00000
     Eigenvalues --- 1000.000001000.000001000.000001000.000001000.00000
     Eigenvalues --- 1000.000001000.000001000.000001000.000001000.00000
     Eigenvalues --- 1000.000001000.000001000.000001000.000001000.00000
     Eigenvalues --- 1000.000001000.000001000.000001000.000001000.00000
     Eigenvalues --- 1000.000001000.000001000.000001000.000001000.00000
     Eigenvalues --- 1000.000001000.000001000.000001000.000001000.00000
     Eigenvalues --- 1000.000001000.000001000.000001000.000001000.00000
     Eigenvalues --- 1000.000001000.000001000.000001000.000001000.00000
     Eigenvalues --- 1000.000001000.000001000.000001000.000001000.00000
     Eigenvalues --- 1000.000001000.000001000.000001000.000001000.00000
     Eigenvalues --- 1000.000001000.000001000.000001000.000001000.00000
 RFO step:  Lambda=-4.41273290D-03 EMin= 6.27716477D-03
 Linear search not attempted -- first point.
 Iteration  1 RMS(Cart)=  0.09217496 RMS(Int)=  0.00162254
 Iteration  2 RMS(Cart)=  0.00476346 RMS(Int)=  0.00006563
 Iteration  3 RMS(Cart)=  0.00000607 RMS(Int)=  0.00006556
 Iteration  4 RMS(Cart)=  0.00000000 RMS(Int)=  0.00006556
 Iteration  1 RMS(Cart)=  0.00001964 RMS(Int)=  0.00000456
 Iteration  2 RMS(Cart)=  0.00001090 RMS(Int)=  0.00000510
 Iteration  3 RMS(Cart)=  0.00000604 RMS(Int)=  0.00000577
 Iteration  4 RMS(Cart)=  0.00000335 RMS(Int)=  0.00000622
 Iteration  5 RMS(Cart)=  0.00000186 RMS(Int)=  0.00000649
 Iteration  6 RMS(Cart)=  0.00000103 RMS(Int)=  0.00000664
 Iteration  7 RMS(Cart)=  0.00000057 RMS(Int)=  0.00000673
 Variable       Old X    -DE/DX   Delta X   Delta X   Delta X     New X
                                 (Linear)    (Quad)   (Total)
    R1        2.88823  -0.00084   0.00000  -0.00216  -0.00217   2.88607
    R2        2.87095   0.00022   0.00000   0.00093   0.00096   2.87190
    R3        2.05526   0.00326   0.00000   0.00916   0.00916   2.06442
    R4        2.05287   0.00284   0.00000   0.00795   0.00795   2.06081
    R5        2.65432   0.00387   0.00000   0.00811   0.00812   2.66244
    R6        2.64143   0.00189   0.00000   0.00406   0.00406   2.64549
    R7        2.87707  -0.00053   0.00000  -0.00198  -0.00200   2.87507
    R8        2.03667   0.00827   0.00000   0.02253   0.02253   2.05919
    R9        2.88020  -0.00204   0.00000  -0.00648  -0.00646   2.87374
   R10        2.89307  -0.00135   0.00000  -0.00400  -0.00397   2.88910
   R11        2.69282  -0.00039   0.00000  -0.00094  -0.00094   2.69189
   R12        2.05019   0.00603   0.00000   0.01683   0.01683   2.06702
   R13        2.88929  -0.00146   0.00000  -0.00461  -0.00461   2.88467
   R14        2.05164   0.00259   0.00000   0.00723   0.00723   2.05888
   R15        2.05363   0.00342   0.00000   0.00959   0.00959   2.06321
   R16        2.67643   0.00349   0.00000   0.00789   0.00787   2.68430
   R17        2.66867   0.00357   0.00000   0.00815   0.00818   2.67685
   R18        2.87070   0.00058   0.00000   0.00135   0.00132   2.87202
   R19        2.04345   0.00437   0.00000   0.01204   0.01204   2.05549
   R20        2.05521   0.00610   0.00000   0.01715   0.01715   2.07236
   R21        2.68696   0.00287   0.00000   0.00655   0.00655   2.69351
   R22        2.04916   0.00662   0.00000   0.01844   0.01844   2.06760
   R23        2.04325   0.00442   0.00000   0.01219   0.01219   2.05544
   R24        2.89052  -0.00085   0.00000  -0.00295  -0.00298   2.88754
   R25        2.05463   0.00432   0.00000   0.01213   0.01213   2.06677
   R26        2.05141   0.00299   0.00000   0.00836   0.00836   2.05977
   R27        2.04995   0.00728   0.00000   0.02031   0.02031   2.07026
   R28        2.04025   0.00549   0.00000   0.01504   0.01504   2.05529
   R29        2.05427   0.00315   0.00000   0.00886   0.00886   2.06313
   R30        2.05199   0.00299   0.00000   0.00836   0.00836   2.06034
   R31        2.05354   0.00338   0.00000   0.00949   0.00949   2.06303
   R32        2.04942   0.00313   0.00000   0.00873   0.00873   2.05815
    A1        1.92148  -0.00095   0.00000  -0.00429  -0.00450   1.91698
    A2        1.91649   0.00092   0.00000   0.00155   0.00164   1.91813
    A3        1.93974  -0.00055   0.00000  -0.00212  -0.00210   1.93764
    A4        1.90690   0.00005   0.00000  -0.00155  -0.00148   1.90542
    A5        1.90257   0.00057   0.00000   0.00331   0.00337   1.90594
    A6        1.87586   0.00000   0.00000   0.00329   0.00326   1.87912
    A7        1.94660  -0.00023   0.00000  -0.00672  -0.00656   1.94004
    A8        1.94146   0.00357   0.00000   0.01309   0.01285   1.95431
    A9        1.83402  -0.00253   0.00000  -0.01429  -0.01430   1.81972
   A10        1.89066  -0.00294   0.00000  -0.01389  -0.01380   1.87685
   A11        1.93068   0.00197   0.00000   0.01533   0.01531   1.94600
   A12        1.92052   0.00031   0.00000   0.00741   0.00749   1.92801
   A13        1.91646   0.00029   0.00000  -0.00409  -0.00426   1.91220
   A14        1.89483  -0.00021   0.00000  -0.00664  -0.00693   1.88790
   A15        1.90405   0.00029   0.00000   0.00292   0.00296   1.90701
   A16        2.02331  -0.00185   0.00000  -0.01941  -0.01952   2.00378
   A17        1.86837  -0.00002   0.00000   0.00438   0.00445   1.87282
   A18        1.85315   0.00164   0.00000   0.02508   0.02517   1.87832
   A19        1.91190   0.00205   0.00000  -0.00051  -0.00049   1.91141
   A20        1.93101  -0.00025   0.00000   0.00190   0.00196   1.93297
   A21        1.91460  -0.00092   0.00000  -0.00189  -0.00198   1.91262
   A22        1.91561  -0.00059   0.00000   0.00161   0.00159   1.91720
   A23        1.92332  -0.00101   0.00000  -0.00667  -0.00668   1.91663
   A24        1.86707   0.00066   0.00000   0.00560   0.00561   1.87268
   A25        1.98707  -0.00465   0.00000  -0.02697  -0.02688   1.96019
   A26        1.93081   0.00215   0.00000   0.00953   0.00955   1.94036
   A27        1.85464  -0.00132   0.00000  -0.00430  -0.00428   1.85036
   A28        1.90236   0.00064   0.00000   0.00712   0.00714   1.90950
   A29        1.94858  -0.00034   0.00000  -0.00331  -0.00333   1.94525
   A30        1.93254  -0.00170   0.00000  -0.00975  -0.00978   1.92276
   A31        1.89259   0.00060   0.00000   0.00112   0.00108   1.89367
   A32        1.94660   0.00232   0.00000   0.00579   0.00573   1.95233
   A33        1.93010  -0.00154   0.00000  -0.00661  -0.00666   1.92344
   A34        1.94612  -0.00026   0.00000  -0.00181  -0.00173   1.94438
   A35        1.90968   0.00006   0.00000   0.00047   0.00054   1.91022
   A36        1.84114  -0.00131   0.00000  -0.00180  -0.00181   1.83932
   A37        1.88725   0.00072   0.00000   0.00425   0.00424   1.89149
   A38        1.92660   0.00114   0.00000  -0.00153  -0.00151   1.92509
   A39        1.89721  -0.00117   0.00000  -0.00984  -0.00984   1.88737
   A40        1.91224  -0.00058   0.00000  -0.00278  -0.00281   1.90944
   A41        1.91712  -0.00013   0.00000   0.00297   0.00291   1.92003
   A42        1.93287   0.00034   0.00000   0.00750   0.00750   1.94038
   A43        1.87680   0.00036   0.00000   0.00348   0.00344   1.88023
   A44        1.90049   0.00146   0.00000   0.01081   0.01093   1.91141
   A45        1.94478  -0.00305   0.00000  -0.02182  -0.02197   1.92281
   A46        1.95334  -0.00037   0.00000  -0.00716  -0.00731   1.94603
   A47        1.91145   0.00215   0.00000   0.02009   0.02018   1.93164
   A48        1.84847  -0.00072   0.00000   0.00194   0.00193   1.85039
   A49        1.90261   0.00074   0.00000  -0.00180  -0.00207   1.90054
   A50        1.92214  -0.00127   0.00000  -0.00756  -0.00763   1.91451
   A51        1.90428  -0.00004   0.00000  -0.00158  -0.00156   1.90273
   A52        1.91203   0.00080   0.00000   0.00446   0.00446   1.91648
   A53        1.92025   0.00089   0.00000   0.00193   0.00193   1.92218
   A54        1.92912  -0.00026   0.00000  -0.00011  -0.00008   1.92904
   A55        1.87530  -0.00008   0.00000   0.00315   0.00314   1.87843
   A56        2.02740  -0.00588   0.00000  -0.03751  -0.03741   1.98999
   A57        2.14963  -0.01695   0.00000  -0.06663  -0.06663   2.08300
   A58        1.95752  -0.00192   0.00000  -0.01585  -0.01599   1.94153
   A59        1.87124   0.00013   0.00000   0.00438   0.00437   1.87561
   A60        1.89965   0.00090   0.00000  -0.00018  -0.00016   1.89949
   A61        1.90815   0.00128   0.00000   0.00750   0.00759   1.91575
   A62        1.94820  -0.00027   0.00000  -0.00173  -0.00183   1.94637
   A63        1.87573  -0.00003   0.00000   0.00708   0.00705   1.88279
    D1        0.92775  -0.00010   0.00000   0.00619   0.00618   0.93393
    D2        3.04187   0.00035   0.00000   0.00908   0.00911   3.05098
    D3       -1.18550   0.00044   0.00000   0.01594   0.01596  -1.16954
    D4       -1.17244  -0.00013   0.00000   0.00983   0.00981  -1.16263
    D5        0.94168   0.00031   0.00000   0.01271   0.01274   0.95442
    D6        2.99749   0.00040   0.00000   0.01958   0.01960   3.01709
    D7        3.03755  -0.00038   0.00000   0.00608   0.00604   3.04359
[...]
 .00006637,0.00000951,0.00000240,-0.00001549,-0.00000230,-0.00000016,-0
 .00000064,0.00000144,-0.00000077,0.00000018,0.00021504,0.00029256,-0.0
 0010441,0.00000179,-0.00000176,0.00000014,-0.00000033,0.00000055,-0.00
 000026,-0.00019707,-0.00013492,0.00130535,-0.00156701,0.00340628,-0.00
 400992,0.00000549,-0.00000632,0.00000120,0.00000001,-0.00000114,0.0000
 0158,-0.00124747,-0.00022070,0.00095992,0.00054183,0.00023873,0.000588
 30,-0.09460400,0.09971165,0.22793192,0.00000682,0.00001063,-0.00001532
 ,0.00033514,0.00004247,-0.00139267,-0.00416338,0.00419122,-0.00102187,
 -0.00000313,-0.00003885,-0.00000572,0.00130307,0.00233684,-0.00238214,
 0.00207809,0.00800232,0.00276164,0.00010570,-0.00012071,-0.00000262,-0
 .01159426,-0.03395319,-0.00037380,-0.00076563,0.00038992,-0.00060764,-
 0.07266255,-0.08027477,-0.00345711,-0.00015010,0.00021949,0.00033528,-
 0.00285669,-0.00229957,0.00113633,-0.00011650,-0.00010370,0.00025789,-
 0.00000678,-0.00000684,0.00000411,-0.00001377,0.00001286,0.00000120,0.
 00019622,-0.00013415,-0.00019020,-0.00002596,0.00001727,-0.00000598,0.
 00001048,-0.00000339,0.00001091,-0.00008036,-0.00043406,0.00064325,0.0
 0031390,-0.00026381,0.00016605,0.00000589,-0.00001335,-0.00001034,-0.0
 0001658,0.00001890,0.00001707,0.00143887,0.00034138,0.00046924,0.00146
 238,0.00045851,-0.00029074,0.00420195,0.01325854,-0.00062837,0.0808314
 1,0.00000020,0.00000554,0.00000209,0.00022731,0.00008337,-0.00027566,0
 .00069871,0.00156396,0.00013270,-0.00000765,-0.00001218,-0.00000341,0.
 00003249,-0.00271036,0.00443823,-0.00537142,-0.01318734,-0.00438677,0.
 00004061,-0.00005020,-0.00001574,0.00074752,0.00207971,-0.00026130,0.0
 0135295,0.00032631,-0.00029360,-0.08119092,-0.28871241,-0.00815506,-0.
 00011817,0.00006722,0.00008727,-0.00024294,-0.00016207,0.00021808,-0.0
 0000604,-0.00000262,0.00004489,-0.00000594,-0.00000293,0.00000018,-0.0
 0000738,0.00000502,-0.00000167,0.00006238,0.00018236,-0.00000854,-0.00
 001038,0.00000545,-0.00000205,0.00000337,-0.00000252,0.00000465,0.0003
 9442,0.00022068,-0.00002579,-0.00007884,0.00061909,0.00024399,0.000006
 93,-0.00001338,0.00000036,-0.00000865,0.00000644,0.00001021,-0.0004048
 9,0.00041312,0.00009530,-0.00046609,0.00020212,-0.00019424,-0.00379089
 ,-0.01264622,-0.00027046,0.08846252,0.31180522,0.00000147,-0.00000617,
 0.00000374,-0.00006779,0.00008836,-0.00022697,-0.00077114,0.00031482,0
 .00044019,0.00000321,-0.00000425,0.00000336,-0.00043424,0.00657456,-0.
 00524146,0.01108352,0.02415149,0.00443841,0.00000412,0.00001606,-0.000
 01273,-0.00013650,-0.00370304,-0.00108737,-0.00172003,-0.00026610,-0.0
 0018782,-0.00392966,-0.01022763,-0.04987024,0.00003124,0.00000213,0.00
 006081,-0.00042358,-0.00047110,0.00054089,-0.00002199,-0.00003650,0.00
 005333,-0.00000320,-0.00000169,-0.00000099,0.00000031,0.00000123,0.000
 00096,0.00003116,0.00049711,-0.00001574,-0.00000154,0.00000143,-0.0000
 0164,0.00000195,0.00000063,0.00000092,-0.00043198,-0.00060049,0.000789
 76,0.00054979,-0.00107982,0.00076912,0.00000357,-0.00000965,0.00000463
 ,-0.00000180,-0.00000014,0.00000248,-0.00000340,0.00042481,0.00025916,
 0.00031565,-0.00030584,-0.00003403,-0.00876337,-0.02385773,-0.00024460
 ,0.00429278,0.00860906,0.04945013,0.00048250,-0.00059165,-0.00047457,-
 0.01418812,-0.01596717,0.02115936,0.00136922,-0.00136065,0.00040896,0.
 00915850,0.01040221,-0.01055939,-0.00028734,0.00003714,-0.00021732,0.0
 0005203,0.00009805,0.00008231,-0.00023574,0.00003011,-0.00003896,-0.00
 074135,0.00024085,-0.00006013,0.00002961,-0.00018490,0.00035333,0.0000
 4569,-0.00031335,0.00000769,0.00178755,0.00113469,-0.00015989,-0.00960
 461,-0.00109249,-0.00179933,-0.13009810,-0.08240798,0.08751194,-0.0001
 7565,-0.00029295,0.00013527,-0.00010281,-0.00020144,-0.00012720,-0.000
 30469,0.00002910,0.00005155,0.00085257,-0.00085659,-0.00007944,-0.0007
 3840,0.00357856,-0.00020625,-0.00002561,-0.00000152,-0.00001793,0.0000
 0966,-0.00001646,-0.00001503,-0.00003034,0.00007245,0.00003192,0.00005
 295,-0.00001910,-0.00001147,0.00002215,-0.00000723,-0.00001847,0.00002
 701,0.00000094,0.00002418,-0.00000794,0.00001445,0.00000762,-0.0001269
 1,-0.00002331,-0.00002206,0.14406813,-0.00101004,0.00112241,0.00084242
 ,-0.00152639,-0.00410354,0.00287800,0.00025841,0.00022044,0.00019322,-
 0.01589080,-0.01843350,0.01869187,-0.00004248,-0.00000594,-0.00002838,
 0.00000689,0.00001630,0.00000676,0.00009583,-0.00032048,-0.00002442,0.
 00003441,0.00002344,0.00000926,0.00001393,-0.00001297,0.00004564,0.000
 00983,-0.00000720,0.00000091,0.00026969,0.00044737,-0.00025464,-0.0004
 2641,0.00121809,-0.00031969,-0.08310127,-0.12913727,0.08777871,0.00027
 503,-0.00012924,-0.00073507,0.00035983,0.00033916,-0.00009765,-0.00009
 291,-0.00001262,-0.00000982,0.00001960,0.00144881,-0.00030162,0.002999
 34,-0.00465466,0.00047730,-0.00000311,-0.00000159,-0.00000147,0.000000
 57,-0.00000271,-0.00000134,0.00009608,0.00005946,0.00003316,-0.0000755
 0,0.00000538,-0.00005122,0.00000144,-0.00000556,0.00000151,0.00000159,
 -0.00000970,0.00000185,0.00000048,0.00000123,0.00000010,-0.00000317,-0
 .00000040,-0.00000148,0.08792897,0.14179784,-0.00032819,-0.00084897,0.
 00063833,-0.00789923,-0.00894880,0.00681976,-0.00029149,-0.00031610,0.
 00053465,0.00234464,0.00377278,-0.00443652,-0.00001551,0.00000700,-0.0
 0001864,0.00000982,0.00000293,0.00001208,-0.00021598,0.00005004,0.0000
 6701,-0.00013956,0.00004622,-0.00001063,0.00007692,-0.00002495,0.00004
 438,-0.00000325,-0.00006241,-0.00000447,-0.00000288,0.00050670,0.00070
 139,-0.00301815,-0.00048649,0.00011060,0.09224274,0.08934177,-0.149020
 13,0.00014631,0.00011051,0.00039452,-0.00013112,0.00000669,0.00007976,
 -0.00009736,-0.00001816,-0.00001295,-0.00008851,-0.00005155,0.00008740
 ,-0.00094015,0.00096183,0.00099724,-0.00000236,0.00000235,-0.00000273,
 0.00000019,-0.00000125,-0.00000156,0.00001414,0.00003643,-0.00004151,0
 .00004481,-0.00000036,0.00002568,-0.00000018,-0.00000627,-0.00000755,0
 .00000276,0.00000314,0.00000329,0.00000404,0.00000221,0.00000078,-0.00
 002432,-0.00000560,-0.00000695,-0.09745251,-0.09981314,0.15804119,-0.0
 0094211,0.00330645,-0.00141440,0.00532783,-0.01521093,-0.02358595,0.00
 013977,0.00026929,0.00015512,-0.00195310,0.00618496,0.01405642,-0.0000
 3602,-0.00001786,0.00005135,0.00000228,0.00001717,-0.00000880,-0.00112
 985,0.00169142,-0.00025686,0.00008049,-0.00001766,-0.00000816,0.000073
 80,0.00000658,-0.00011387,0.00000697,0.00002771,0.00000053,-0.00534079
 ,-0.00384005,-0.00607350,0.00128457,0.00026679,-0.00039502,-0.05315208
 ,0.01694167,0.03030730,0.00002921,-0.00022536,-0.00041437,0.00031611,0
 .00084194,0.00090082,-0.00004780,0.00001172,0.00003244,0.00015592,-0.0
 0070413,0.00025018,0.00060062,-0.00043704,-0.00043010,-0.00000247,-0.0
 0000288,0.00000040,0.00000172,-0.00000034,0.00000095,0.00009083,-0.000
 17583,0.00008166,0.00021779,-0.00019400,0.00007181,0.00000736,0.000012
 21,0.00000431,-0.00000341,0.00000190,-0.00000051,-0.00000263,-0.000000
 44,-0.00000074,0.00001016,0.00000007,0.00000215,-0.00205385,0.00969507
 ,0.01512718,0.05552944,0.00304587,-0.00465090,0.00296948,0.00031244,-0
 .00382787,-0.00353320,-0.00014028,0.00006812,0.00017618,0.00251377,-0.
 01414422,-0.02554233,0.00000610,-0.00001821,0.00003804,-0.00000330,0.0
 0000133,-0.00000191,0.00066622,0.00037687,0.00042444,0.00005116,-0.000
 01044,-0.00001480,0.00005431,0.00003043,-0.00005513,0.00000117,0.00001
 862,0.00000175,-0.00070408,0.00120089,-0.00050793,0.00031950,0.0004888
 1,0.00026035,0.01533366,-0.11308144,-0.11367074,0.00012445,0.00012607,
 -0.00015876,-0.00004698,-0.00089070,-0.00162645,-0.00001916,-0.0000190
 6,-0.00001783,-0.00006354,0.00116635,0.00025911,-0.00082321,0.00107717
 ,0.00005442,-0.00000054,-0.00000116,0.00000074,0.00000058,0.00000065,0
 .00000110,-0.00008143,-0.00000136,0.00001075,-0.00010182,0.00007852,-0
 .00007463,0.00000511,0.00000476,0.00000723,-0.00000400,-0.00000299,0.0
 0000245,-0.00000176,0.00000033,-0.00000050,0.00000601,0.00000056,0.000
 00041,-0.00083597,0.00965218,0.01562510,-0.01913415,0.12235047,-0.0005
 9847,0.00128289,0.00075681,0.00564142,-0.00612070,-0.01273407,-0.00024
 690,0.00021907,0.00028570,-0.00048891,0.00417963,0.00734262,-0.0000635
 4,-0.00002131,0.00004651,0.00000310,0.00002673,-0.00000580,-0.00032893
 ,0.00143380,-0.00005591,0.00007051,-0.00000895,-0.00000845,0.00007621,
 0.00002676,-0.00010029,-0.00000063,0.00001518,-0.00000424,-0.00380773,
 -0.00191809,-0.00205460,0.00125052,0.00080609,0.00135575,0.02594196,-0
 .11557909,-0.24851975,-0.00006086,0.00011457,0.00019753,-0.00017093,0.
 00024343,0.00025323,-0.00004414,-0.00003723,-0.00002168,0.00037142,-0.
 00061467,0.00023618,0.00030348,-0.00058723,0.00048570,-0.00000458,-0.0
 0000490,0.00000021,0.00000308,-0.00000214,-0.00000015,0.00003030,-0.00
 018034,0.00006490,0.00007073,-0.00014217,-0.00001416,0.00000885,0.0000
 0847,0.00000621,-0.00000454,-0.00000244,0.00000285,-0.00000141,0.00000
 107,0.00000137,0.00000394,-0.00000361,0.00000059,0.00129234,-0.0088266
 4,-0.01560227,-0.02907576,0.12537705,0.26776707,0.00034630,-0.00046510
 ,-0.00022454,-0.09511074,0.09389387,-0.03325953,0.00327361,-0.00088758
 ,0.00014941,-0.00396099,-0.00301435,-0.00263911,0.00033138,-0.00017602
 ,0.00019205,-0.00010174,-0.00010824,0.00005853,0.00138347,-0.00071088,
 0.00007330,-0.00063099,0.00004826,-0.00025698,-0.00255743,0.00031160,-
 0.00055253,0.00001785,-0.00011432,0.00001135,0.00208810,0.00298331,0.0
 0119723,0.00442159,-0.02472543,0.01578552,-0.01177419,0.02526385,-0.00
 867014,-0.00004450,-0.00001660,0.00012872,0.00005855,0.00007675,0.0001
 1968,0.00012758,0.00009130,0.00023966,-0.00084838,0.00155547,-0.000223
 61,0.00008765,0.00012466,-0.00014857,-0.00000213,0.00000781,-0.0000321
 8,-0.00000063,0.00001230,-0.00000476,-0.00013700,0.00023509,0.00001426
 ,0.00003376,0.00008735,0.00003027,0.00003495,0.00004394,0.00000342,0.0
 0002873,0.00016625,-0.00008618,-0.00000820,0.00000722,0.00000273,-0.00
 005410,-0.00000221,-0.00000026,0.00077046,0.00009941,0.00065007,0.0007
 5524,-0.00049565,-0.00020447,0.10497581,-0.00011880,-0.00034037,-0.000
 09233,0.08519236,-0.24756146,0.06450971,0.00303374,0.00018725,0.000729
 14,-0.00126068,0.00048725,-0.00078669,0.00029026,0.00099242,-0.0002869
 4,0.00015307,-0.00026412,0.00002924,-0.00143602,0.00261420,-0.00409529
 ,-0.00041364,0.00004454,-0.00031651,0.00008383,-0.00167877,0.00031383,
 0.00001687,-0.00013041,0.00002305,0.01226823,-0.02696854,-0.00501921,-
 0.00392788,-0.01366111,0.01485895,-0.00174053,0.00661584,-0.00067973,0
 .00004736,0.00003483,0.00001874,0.00015030,0.00003267,0.00017744,-0.00
 048962,-0.00015561,-0.00011613,-0.00026806,0.00027852,-0.00004817,-0.0
 0004999,0.00008112,-0.00007797,0.00003950,0.00010629,-0.00002013,-0.00
 000694,0.00001675,0.00000203,-0.00008838,-0.00007017,0.00017658,0.0005
 3993,-0.00110778,0.00011954,0.00005250,0.00000538,0.00001961,0.0000154
 4,0.00013804,-0.00004995,-0.00002237,0.00000711,-0.00000202,-0.0000771
 0,0.00000016,-0.00003097,0.00056547,0.00048615,0.00008332,0.00068305,0
 .00001071,0.00031592,-0.09406578,0.27834834,-0.00003882,-0.00044176,-0
 .00025563,-0.03444112,0.07274013,-0.06890980,-0.00363895,-0.00062803,-
 0.00026215,-0.00222203,-0.00150787,-0.00052495,0.00015146,-0.00037230,
 0.00024377,-0.00008412,-0.00002200,-0.00006025,-0.00135904,-0.00104605
 ,-0.00429717,0.00057773,-0.00016474,0.00009914,-0.00039566,0.00039746,
 0.00005842,-0.00004376,0.00019288,0.00000959,0.01467054,-0.03781024,-0
 .00010180,0.00301398,0.02813443,-0.01486568,-0.00637333,0.01245030,-0.
 00157116,0.00005372,0.00007706,0.00004530,0.00022365,0.00013436,0.0001
 9104,0.00042433,-0.00014612,-0.00016942,-0.00039514,0.00084335,-0.0000
 7121,0.00021095,-0.00012900,0.00000499,0.00000988,-0.00003360,0.000022
 73,-0.00000217,0.00000756,0.00000878,0.00008444,-0.00052771,0.00006282
 ,0.00059674,-0.00137270,0.00007710,-0.00004571,-0.00003087,0.00001319,
 -0.00002990,-0.00009778,0.00005480,0.00002324,-0.00001135,-0.00000256,
 0.00009962,0.00002017,0.00001689,0.00027143,-0.00048498,0.00063265,0.0
 0067723,-0.00002326,0.00025908,0.02858175,-0.06965761,0.08876873,-0.00
 003233,-0.00001591,-0.00001355,0.00021335,-0.00056826,-0.00102669,0.00
 643075,-0.00610533,-0.00927745,0.00003969,0.00004422,0.00000067,-0.034
 17249,0.01519077,0.02738731,0.00216657,0.00568879,0.00197773,-0.000309
 88,0.00033654,0.00015986,-0.00005816,-0.00053569,0.00038466,-0.0734890
 7,0.03851829,0.06578353,-0.00028241,-0.00065202,-0.00020991,-0.0032914
 5,0.00099492,0.00067077,0.00068920,0.00011031,0.00173945,-0.00008801,-
 0.00009688,0.00017991,0.00001903,0.00000900,0.00000090,0.00002506,-0.0
 0001207,0.00000023,-0.00057372,0.00147413,-0.00245485,0.00002129,-0.00
 001470,0.00001274,-0.00000784,-0.00000328,0.00000041,0.00020973,-0.000
 11977,-0.00045180,0.00045119,-0.00098019,-0.00095295,0.00007278,-0.000
 03631,-0.00000614,0.00000253,-0.00002187,-0.00001329,-0.00002720,0.000
 13115,0.00028393,-0.00007379,0.00000014,0.00005197,-0.00003182,0.00005
 902,-0.00009871,0.00015237,-0.00016893,0.00015666,-0.00001997,-0.00000
 020,-0.00001046,0.00004313,0.00001308,0.00004016,0.00026123,-0.0001405
 4,0.00007489,0.09719591,0.00003770,-0.00012516,0.00004930,-0.00003179,
 0.00014005,-0.00047232,-0.00423991,0.00643356,0.01179070,0.00000458,0.
 00001007,-0.00001811,0.00196029,0.00272919,0.00114464,-0.00174965,0.00
 203123,0.00252575,-0.00006146,0.00042246,-0.00003244,-0.00034646,0.001
 41041,0.00063054,0.04096894,-0.12085493,-0.10237818,0.00007481,-0.0002
 3871,0.00010901,0.00192321,-0.00027136,0.00007775,-0.00043327,-0.00015
 638,-0.00102465,-0.00001188,-0.00000896,0.00000191,-0.00001471,0.00000
 342,-0.00000689,0.00003721,-0.00000572,0.00002031,0.00056991,-0.000246
 80,0.00250820,0.00000560,-0.00000628,0.00000604,0.00000004,-0.00000782
 ,0.00000525,0.00006602,0.00016079,0.00014016,0.00067624,0.00079303,-0.
 00036206,-0.00007936,-0.00006931,0.00003964,-0.00000523,-0.00002461,-0
 .00001434,0.00028826,0.00003552,-0.00007131,0.00002556,0.00003614,-0.0
 0019073,-0.00000304,-0.00013284,-0.00019536,0.00003882,-0.00001871,-0.
 00003452,-0.00000166,0.00000244,0.00000152,0.00001509,0.00001044,0.000
 01806,0.00030314,-0.00013158,0.00001087,-0.04984780,0.12147973,0.00007
 217,-0.00021607,0.00001677,-0.00053767,-0.00053766,-0.00193053,0.01075
 007,-0.01583931,-0.02514645,0.00002015,0.00000863,-0.00005675,0.003028
 19,0.00133888,0.00618122,-0.00044872,0.00081097,0.00080896,-0.00021332
 ,0.00081734,0.00008630,0.00023535,-0.00172435,0.00127576,0.06648856,-0
 .10081726,-0.21314679,0.00008561,0.00010097,-0.00005146,0.00275132,-0.
 00025799,0.00092281,-0.00128989,-0.00001726,0.00186721,-0.00010398,-0.
 00002800,0.00020414,0.00000298,0.00001298,-0.00000081,0.00008205,-0.00
 001438,0.00004917,-0.00160324,0.00287151,-0.00413445,0.00001141,0.0000
 0044,0.00001989,-0.00000386,-0.00001033,0.00001240,-0.00004747,0.00025
 516,0.00021203,0.00071610,0.00068572,-0.00039509,-0.00006807,-0.000040
 35,0.00000677,0.00001776,-0.00004458,-0.00004115,0.00001430,0.00111998
 ,0.00028798,-0.00037158,0.00009537,0.00043138,-0.00012432,-0.00011197,
 -0.00004434,0.00010392,0.00000782,0.00002801,-0.00004754,-0.00000814,-
 0.00000964,0.00005074,0.00001774,0.00005485,-0.00013183,-0.00002804,-0
 .00005355,-0.07778143,0.10999605,0.22920504,0.00000788,-0.00005824,0.0
 0001510,-0.00164231,0.00007680,-0.00027043,0.00506557,0.01079695,0.001
 53860,0.00001397,0.,-0.00001353,-0.02325543,-0.04212461,0.00115135,-0.
 00539028,0.00350570,0.00056699,0.00002127,0.00019522,-0.00003744,-0.00
 091166,0.00106329,-0.00289019,-0.05741716,-0.04965130,0.00451924,-0.00
 059094,-0.00058162,-0.00020491,0.00042928,-0.00067574,0.00003978,0.000
 49133,-0.00109423,0.00105179,-0.00000473,0.00001406,-0.00007563,-0.000
 00493,0.00000188,-0.00000338,0.00001921,-0.00000211,0.00000726,0.00043
 515,-0.00060166,0.00034878,0.00000882,-0.00000314,0.00000326,-0.000001
 25,0.00000568,-0.00000415,-0.00081868,-0.00172575,0.00015032,0.0001613
 7,-0.00015213,-0.00028410,0.00001251,-0.00002798,0.00002298,0.00000765
 ,-0.00002000,-0.00000733,-0.00004001,-0.00034994,-0.00003386,0.0004370
 0,0.00086095,-0.00032839,0.00006226,0.00002095,0.00004627,0.00018425,-
 0.00012483,0.00025497,0.00001342,0.00000586,-0.00000242,-0.00000913,0.
 00000244,-0.00000622,-0.00376523,0.00097442,-0.00067582,0.00446433,0.0
 0983081,-0.00165776,0.08201646,0.00001892,0.00000801,-0.00004218,-0.00
 106941,-0.00215129,0.00059746,-0.00270974,-0.01139156,-0.00079130,-0.0
 0018556,-0.00012409,-0.00008977,-0.00404884,0.00147741,-0.00061609,0.0
 0044438,0.00266353,0.00008415,-0.00001714,-0.00006049,0.00012475,0.001
 18778,0.00056132,0.00301684,-0.06094323,-0.30856490,0.01658648,0.00035
 027,0.00014825,-0.00020375,0.00039204,0.00037025,-0.00005490,0.0010271
 2,0.00031727,0.00002243,0.00003876,0.00068917,-0.00011899,0.00000285,-
 0.00000382,0.00000815,-0.00000821,0.00001067,0.00000817,0.00013611,0.0
 0095269,0.00022686,-0.00004427,0.00007950,-0.00001361,0.00000442,0.000
 02046,-0.00001311,-0.00011063,-0.00016030,0.00016787,0.00009965,0.0001
 7127,0.00009878,-0.00002737,0.00005359,-0.00002778,-0.00001088,0.00005
 228,-0.00000576,0.00003616,0.00038523,-0.00003673,-0.00051719,-0.00080
 799,0.00013062,-0.00005221,0.00001009,0.00002985,-0.00008104,-0.000065
 01,-0.00004498,0.00004143,-0.00000334,0.00002349,-0.00001244,-0.000014
 95,-0.00001920,-0.00052941,0.00158236,-0.00050059,-0.00325061,-0.01339
 932,0.00155614,0.06983828,0.32719372,-0.00000542,-0.00000994,0.0000071
 6,-0.00030293,-0.00021237,0.00013479,0.00820410,0.02982830,-0.00126686
 ,0.00004999,0.00003241,0.00001051,0.00020045,-0.00134284,0.00137935,-0
 .00081442,-0.00025013,0.00012524,-0.00004398,0.00006365,-0.00007743,-0
 .00261997,0.00076525,-0.00498449,0.00504729,0.01538511,-0.05467609,-0.
 00038549,-0.00017249,0.00005052,0.00019283,0.00018291,0.00000586,0.000
 31436,-0.00110773,0.00089797,-0.00001366,-0.00014555,0.00011630,-0.000
 00328,-0.00000191,-0.00000052,0.00000334,-0.00000131,0.00000080,0.0004
 9172,-0.00071551,0.00146730,0.00001278,-0.00001322,-0.00000240,-0.0000
 0430,0.00000469,-0.00000020,-0.00023281,-0.00014742,0.00032609,0.00002
 639,0.00045192,0.00022249,-0.00000526,-0.00001450,-0.00000077,0.000004
 51,-0.00001317,0.00000683,-0.00011857,0.00020058,0.00015588,0.00045483
 ,0.00173594,-0.00011744,0.00009782,-0.00004384,0.00001858,0.00010562,-
 0.00001150,0.00006717,-0.00003043,-0.00000098,-0.00001517,0.00000747,0
 .00000114,0.00000422,-0.00080328,-0.00006943,0.00057633,-0.00660854,-0
 .02427478,0.00334031,-0.00322115,-0.02010330,0.05222768\\0.00000285,0.
 00000455,0.00000494,0.00003791,-0.00028468,-0.00018902,-0.00001433,-0.
 00009720,0.00025741,-0.00000709,0.00000621,-0.00000588,-0.00000768,-0.
 00000220,-0.00000644,0.00000820,0.00000068,0.00000583,0.00000105,0.000
 01792,0.00000330,0.00003076,-0.00002601,-0.00025238,-0.00000782,-0.000
 00585,0.00000414,-0.00000185,0.00000785,0.00000149,-0.00001047,0.00000
 177,0.00000718,-0.00003788,0.00038681,0.00015844,0.00001161,0.00000794
 ,0.00000166,0.00000020,-0.00000150,0.00000333,0.00000068,-0.00000291,0
 .00000489,-0.00000784,0.00000519,-0.00000062,0.00000403,0.00000516,0.0
 0000132,0.00000090,0.00000715,0.00000063,-0.00000125,-0.00000494,0.000
 00063,-0.00000011,-0.00000934,-0.00000050,0.00000105,-0.00000495,0.000
 00450,-0.00000023,-0.00000118,0.00000244,0.00000368,0.00000110,0.00000
 211,-0.00000146,0.00000140,0.00000394,0.00000216,-0.00000184,-0.000001
 39,0.00000220,-0.00000488,-0.00000068,-0.00000161,-0.00000073,0.000000
 68,-0.00000677,0.00000621,-0.00000095,-0.00000332,-0.00000004,-0.00000
 393,0.00000448,-0.00000717,-0.00000221,-0.00000207,-0.00000451,-0.0000
 0488\\\@


 HEAVEN'S NET CASTS WIDE.
 THOUGH ITS MESHES ARE COARSE, NOTHING SLIPS THROUGH.

                                          -- LAO-TSU
 Job cpu time:       0 days 13 hours 56 minutes 15.8 seconds.
 Elapsed time:       0 days  0 hours 52 minutes 17.6 seconds.
 File lengths (MBytes):  RWF=    683 Int=      0 D2E=      0 Chk=     33 Scr=      1
 Normal termination of Gaussian 16 at Sun Nov  4 22:57:44 2018.
