 Entering Gaussian System, Link 0=g16
 Initial command:
 /apps/gaussian/g16a03/g16/l1.exe "/jobfs/local/2011971.r-man2/Gau-10928.inp" -scrdir="/jobfs/local/2011971.r-man2/"
 Entering Link 1 = /apps/gaussian/g16a03/g16/l1.exe PID=     10929.
  
 Copyright (c) 1988,1990,1992,1993,1995,1998,2003,2009,2016,
            Gaussian, Inc.  All Rights Reserved.
  
 This is part of the Gaussian(R) 16 program.  It is based on
 the Gaussian(R) 09 system (copyright 2009, Gaussian, Inc.),
 the Gaussian(R) 03 system (copyright 2003, Gaussian, Inc.),
 the Gaussian(R) 98 system (copyright 1998, Gaussian, Inc.),
 the Gaussian(R) 94 system (copyright 1995, Gaussian, Inc.),
 the Gaussian 92(TM) system (copyright 1992, Gaussian, Inc.),
 the Gaussian 90(TM) system (copyright 1990, Gaussian, Inc.),
 the Gaussian 88(TM) system (copyright 1988, Gaussian, Inc.),
 the Gaussian 86(TM) system (copyright 1986, Carnegie Mellon
 University), and the Gaussian 82(TM) system (copyright 1983,
 Carnegie Mellon University). Gaussian is a federally registered
 trademark of Gaussian, Inc.
  
 This software contains proprietary and confidential information,
 including trade secrets, belonging to Gaussian, Inc.
  
 This software is provided under written license and may be
 used, copied, transmitted, or stored only in accord with that
 written license.
  
 The following legend is applicable only to US Government
 contracts under FAR:
  
                    RESTRICTED RIGHTS LEGEND
  
 Use, reproduction and disclosure by the US Government is
 subject to restrictions as set forth in subparagraphs (a)
 and (c) of the Commercial Computer Software - Restricted
 Rights clause in FAR 52.227-19.
  
 Gaussian, Inc.
 340 Quinnipiac St., Bldg. 40, Wallingford CT 06492
  
  
 ---------------------------------------------------------------
 Warning -- This program may not be used in any manner that
 competes with the business of Gaussian, Inc. or will provide
 assistance to any competitor of Gaussian, Inc.  The licensee
 of this program is prohibited from giving any competitor of
 Gaussian, Inc. access to this program.  By using this program,
 the user acknowledges that Gaussian, Inc. is engaged in the
 business of creating and licensing software in the field of
 computational chemistry and represents and warrants to the
 licensee that it is not a competitor of Gaussian, Inc. and that
 it will not use this program in any manner prohibited above.
 ---------------------------------------------------------------
  

 Cite this work as:
 Gaussian 16, Revision A.03,
 M. J. Frisch, G. W. Trucks, H. B. Schlegel, G. E. Scuseria, 
 M. A. Robb, J. R. Cheeseman, G. Scalmani, V. Barone, 
 G. A. Petersson, H. Nakatsuji, X. Li, M. Caricato, A. V. Marenich, 
 J. Bloino, B. G. Janesko, R. Gomperts, B. Mennucci, H. P. Hratchian, 
 J. V. Ortiz, A. F. Izmaylov, J. L. Sonnenberg, D. Williams-Young, 
 F. Ding, F. Lipparini, F. Egidi, J. Goings, B. Peng, A. Petrone, 
 T. Henderson, D. Ranasinghe, V. G. Zakrzewski, J. Gao, N. Rega, 
 G. Zheng, W. Liang, M. Hada, M. Ehara, K. Toyota, R. Fukuda, 
 J. Hasegawa, M. Ishida, T. Nakajima, Y. Honda, O. Kitao, H. Nakai, 
 T. Vreven, K. Throssell, J. A. Montgomery, Jr., J. E. Peralta, 
 F. Ogliaro, M. J. Bearpark, J. J. Heyd, E. N. Brothers, K. N. Kudin, 
 V. N. Staroverov, T. A. Keith, R. Kobayashi, J. Normand, 
 K. Raghavachari, A. P. Rendell, J. C. Burant, S. S. Iyengar, 
 J. Tomasi, M. Cossi, J. M. Millam, M. Klene, C. Adamo, R. Cammi, 
 J. W. Ochterski, R. L. Martin, K. Morokuma, O. Farkas, 
 J. B. Foresman, and D. J. Fox, Gaussian, Inc., Wallingford CT, 2016.
 
 ******************************************
 Gaussian 16:  ES64L-G16RevA.03 25-Dec-2016
                 4-Nov-2018 
 ******************************************
 %mem=6000mb
 %nproc=24
 Will use up to   24 processors via shared memory.
 %chk=D_1a_4e_D_PSI.inp_extract_23.chk
 ----------------------------------------------------------------------
 #M062X/6-311++G(2d,2p) opt=ModRedundant freq=noraman SCRF=(Solvent=Wat
 er)
 ----------------------------------------------------------------------
 1/18=120,19=15,26=3,38=1/1,3;
 2/9=110,12=2,17=6,18=5,40=1/2;
 3/5=4,6=6,7=1212,11=2,25=1,30=1,70=2201,71=1,72=1,74=-55/1,2,3;
 4//1;
 5/5=2,38=5,53=1/2;
 6/7=2,8=2,9=2,10=2,28=1/1;
 7//1,2,3,16;
 1/18=20,19=15,26=3/3(2);
 2/9=110/2;
 99//99;
 2/9=110/2;
 3/5=4,6=6,7=1212,11=2,25=1,30=1,70=2205,71=1,72=1,74=-55/1,2,3;
 4/5=5,16=3,69=1/1;
 5/5=2,38=5,53=1/2;
 7//1,2,3,16;
 1/18=20,19=15,26=3/3(-5);
 2/9=110/2;
 6/7=2,8=2,9=2,10=2,19=2,28=1/1;
 99/9=1/99;
 ----------------------------
 D_1a_4e_D_PSI.inp_extract_23
 ----------------------------
 Symbolic Z-matrix:
 Charge =  0 Multiplicity = 1
 C                    -3.69718   0.52341  -0.1258 
 C                    -1.03113  -0.38697   0.549 
 C                     1.0999   -0.16921  -0.64434 
 C                    -3.25696  -0.87891  -0.54587 
 O                     3.23042  -1.11509  -0.08091 
 C                     3.72264   0.10617   0.4427 
 C                    -2.48857   1.43568   0.00052 
 C                     1.54939   1.20515  -0.16094 
 C                     1.83961  -1.27978   0.09964 
 C                     3.07608   1.29479  -0.25094 
 O                    -1.51465   0.89041   0.88056 
 O                    -0.30757  -0.34866  -0.64995 
 C                    -2.17288  -1.38341   0.40758 
 H                    -4.21158   0.47634   0.83131 
 H                    -4.3888    0.94918  -0.84726 
 H                     1.36626  -0.26249  -1.69017 
 H                    -4.10028  -1.56259  -0.53843 
 H                    -2.87777  -0.85409  -1.56405 
 H                     4.79276   0.09274   0.28798 
 H                     3.53066   0.13498   1.51286 
 H                    -2.03815   1.61116  -0.97058 
 H                    -2.7579    2.39348   0.42388 
 H                     1.23957   1.3542    0.86977 
 H                     1.08045   1.97849  -0.76069 
 H                     3.38601   1.30877  -1.29281 
 H                     3.4304    2.21393   0.20596 
 H                    -2.6008   -1.52865   1.39591 
 H                    -1.76865  -2.3363    0.0836 
 H                    -0.39094  -0.65901   1.37112 
 H                     1.61836  -1.27722   1.16186 
 H                     1.57945  -2.24758  -0.30714 
 
 The following ModRedundant input section has been read:
 D       8       3      12       2 F                                           
 

 GradGradGradGradGradGradGradGradGradGradGradGradGradGradGradGradGradGrad
 Berny optimization.
 Initialization pass.
                           ----------------------------
                           !    Initial Parameters    !
                           ! (Angstroms and Degrees)  !
 --------------------------                            --------------------------
 ! Name  Definition              Value          Derivative Info.                !
 --------------------------------------------------------------------------------
 ! R1    R(1,4)                  1.5286         estimate D2E/DX2                !
 ! R2    R(1,7)                  1.5195         estimate D2E/DX2                !
 ! R3    R(1,14)                 1.0876         estimate D2E/DX2                !
 ! R4    R(1,15)                 1.0863         estimate D2E/DX2                !
 ! R5    R(2,11)                 1.4055         estimate D2E/DX2                !
 ! R6    R(2,12)                 1.4009         estimate D2E/DX2                !
 ! R7    R(2,13)                 1.522          estimate D2E/DX2                !
 ! R8    R(2,29)                 1.0769         estimate D2E/DX2                !
 ! R9    R(3,8)                  1.5247         estimate D2E/DX2                !
 ! R10   R(3,9)                  1.5278         estimate D2E/DX2                !
 ! R11   R(3,12)                 1.4189         estimate D2E/DX2                !
 ! R12   R(3,16)                 1.0832         estimate D2E/DX2                !
 ! R13   R(4,13)                 1.5293         estimate D2E/DX2                !
 ! R14   R(4,17)                 1.0857         estimate D2E/DX2                !
 ! R15   R(4,18)                 1.0868         estimate D2E/DX2                !
 ! R16   R(5,6)                  1.417          estimate D2E/DX2                !
 ! R17   R(5,9)                  1.4121         estimate D2E/DX2                !
 ! R18   R(6,10)                 1.5205         estimate D2E/DX2                !
 ! R19   R(6,19)                 1.0813         estimate D2E/DX2                !
 ! R20   R(6,20)                 1.0876         estimate D2E/DX2                !
 ! R21   R(7,11)                 1.4214         estimate D2E/DX2                !
 ! R22   R(7,21)                 1.0848         estimate D2E/DX2                !
 ! R23   R(7,22)                 1.0813         estimate D2E/DX2                !
 ! R24   R(8,10)                 1.532          estimate D2E/DX2                !
 ! R25   R(8,23)                 1.0865         estimate D2E/DX2                !
 ! R26   R(8,24)                 1.0852         estimate D2E/DX2                !
 ! R27   R(9,30)                 1.085          estimate D2E/DX2                !
 ! R28   R(9,31)                 1.0816         estimate D2E/DX2                !
 ! R29   R(10,25)                1.0871         estimate D2E/DX2                !
 ! R30   R(10,26)                1.0859         estimate D2E/DX2                !
 ! R31   R(13,27)                1.0867         estimate D2E/DX2                !
 ! R32   R(13,28)                1.0846         estimate D2E/DX2                !
 ! A1    A(4,1,7)              110.1538         estimate D2E/DX2                !
 ! A2    A(4,1,14)             109.7755         estimate D2E/DX2                !
 ! A3    A(4,1,15)             111.1244         estimate D2E/DX2                !
 ! A4    A(7,1,14)             109.2089         estimate D2E/DX2                !
 ! A5    A(7,1,15)             109.044          estimate D2E/DX2                !
 ! A6    A(14,1,15)            107.4745         estimate D2E/DX2                !
 ! A7    A(11,2,12)            110.7767         estimate D2E/DX2                !
 ! A8    A(11,2,13)            111.0301         estimate D2E/DX2                !
 ! A9    A(11,2,29)            104.7146         estimate D2E/DX2                !
 ! A10   A(12,2,13)            109.0166         estimate D2E/DX2                !
 ! A11   A(12,2,29)            110.685          estimate D2E/DX2                !
 ! A12   A(13,2,29)            110.5793         estimate D2E/DX2                !
 ! A13   A(8,3,9)              110.9851         estimate D2E/DX2                !
 ! A14   A(8,3,12)             114.0605         estimate D2E/DX2                !
 ! A15   A(8,3,16)             108.1339         estimate D2E/DX2                !
 ! A16   A(9,3,12)             112.9717         estimate D2E/DX2                !
 ! A17   A(9,3,16)             106.7686         estimate D2E/DX2                !
 ! A18   A(12,3,16)            103.2505         estimate D2E/DX2                !
 ! A19   A(1,4,13)             109.5996         estimate D2E/DX2                !
 ! A20   A(1,4,17)             110.6164         estimate D2E/DX2                !
 ! A21   A(1,4,18)             109.693          estimate D2E/DX2                !
 ! A22   A(13,4,17)            109.7931         estimate D2E/DX2                !
 ! A23   A(13,4,18)            110.1387         estimate D2E/DX2                !
 ! A24   A(17,4,18)            106.9675         estimate D2E/DX2                !
 ! A25   A(6,5,9)              113.2907         estimate D2E/DX2                !
 ! A26   A(5,6,10)             110.944          estimate D2E/DX2                !
 ! A27   A(5,6,19)             106.2715         estimate D2E/DX2                !
 ! A28   A(5,6,20)             108.9714         estimate D2E/DX2                !
 ! A29   A(10,6,19)            111.4234         estimate D2E/DX2                !
 ! A30   A(10,6,20)            110.6762         estimate D2E/DX2                !
 ! A31   A(19,6,20)            108.4089         estimate D2E/DX2                !
 ! A32   A(1,7,11)             111.4785         estimate D2E/DX2                !
 ! A33   A(1,7,21)             110.6686         estimate D2E/DX2                !
 ! A34   A(1,7,22)             111.4839         estimate D2E/DX2                !
 ! A35   A(11,7,21)            109.3793         estimate D2E/DX2                !
 ! A36   A(11,7,22)            105.5496         estimate D2E/DX2                !
 ! A37   A(21,7,22)            108.0981         estimate D2E/DX2                !
 ! A38   A(3,8,10)             109.1424         estimate D2E/DX2                !
 ! A39   A(3,8,23)             109.8987         estimate D2E/DX2                !
 ! A40   A(3,8,24)             109.8615         estimate D2E/DX2                !
 ! A41   A(10,8,23)            109.3822         estimate D2E/DX2                !
 ! A42   A(10,8,24)            110.8836         estimate D2E/DX2                !
 ! A43   A(23,8,24)            107.6555         estimate D2E/DX2                !
 ! A44   A(3,9,5)              109.2587         estimate D2E/DX2                !
 ! A45   A(3,9,30)             112.1046         estimate D2E/DX2                !
 ! A46   A(3,9,31)             110.5395         estimate D2E/DX2                !
 ! A47   A(5,9,30)             109.0093         estimate D2E/DX2                !
 ! A48   A(5,9,31)             107.0485         estimate D2E/DX2                !
 ! A49   A(30,9,31)            108.7392         estimate D2E/DX2                !
 ! A50   A(6,10,8)             110.562          estimate D2E/DX2                !
 ! A51   A(6,10,25)            109.0282         estimate D2E/DX2                !
 ! A52   A(6,10,26)            109.329          estimate D2E/DX2                !
 ! A53   A(8,10,25)            109.9488         estimate D2E/DX2                !
 ! A54   A(8,10,26)            110.4864         estimate D2E/DX2                !
 ! A55   A(25,10,26)           107.4183         estimate D2E/DX2                !
 ! A56   A(2,11,7)             115.9968         estimate D2E/DX2                !
 ! A57   A(2,12,3)             120.8255         estimate D2E/DX2                !
 ! A58   A(2,13,4)             111.9456         estimate D2E/DX2                !
 ! A59   A(2,13,27)            107.3604         estimate D2E/DX2                !
 ! A60   A(2,13,28)            108.8658         estimate D2E/DX2                !
 ! A61   A(4,13,27)            109.3875         estimate D2E/DX2                !
 ! A62   A(4,13,28)            111.5797         estimate D2E/DX2                !
 ! A63   A(27,13,28)           107.5168         estimate D2E/DX2                !
 ! D1    D(7,1,4,13)            52.9233         estimate D2E/DX2                !
 ! D2    D(7,1,4,17)           174.1216         estimate D2E/DX2                !
 ! D3    D(7,1,4,18)           -68.1154         estimate D2E/DX2                !
 ! D4    D(14,1,4,13)          -67.3678         estimate D2E/DX2                !
 ! D5    D(14,1,4,17)           53.8306         estimate D2E/DX2                !
 ! D6    D(14,1,4,18)          171.5936         estimate D2E/DX2                !
 ! D7    D(15,1,4,13)          173.8815         estimate D2E/DX2                !
 ! D8    D(15,1,4,17)          -64.9201         estimate D2E/DX2                !
 ! D9    D(15,1,4,18)           52.8429         estimate D2E/DX2                !
 ! D10   D(4,1,7,11)           -54.6629         estimate D2E/DX2                !
 ! D11   D(4,1,7,21)            67.3121         estimate D2E/DX2                !
 ! D12   D(4,1,7,22)          -172.3378         estimate D2E/DX2                !
 ! D13   D(14,1,7,11)           65.9692         estimate D2E/DX2                !
 ! D14   D(14,1,7,21)         -172.0559         estimate D2E/DX2                !
 ! D15   D(14,1,7,22)          -51.7057         estimate D2E/DX2                !
 ! D16   D(15,1,7,11)         -176.8588         estimate D2E/DX2                !
 ! D17   D(15,1,7,21)          -54.8839         estimate D2E/DX2                !
 ! D18   D(15,1,7,22)           65.4663         estimate D2E/DX2                !
 ! D19   D(12,2,11,7)           65.9882         estimate D2E/DX2                !
 ! D20   D(13,2,11,7)          -55.2931         estimate D2E/DX2                !
 ! D21   D(29,2,11,7)         -174.6551         estimate D2E/DX2                !
 ! D22   D(11,2,12,3)           93.1136         estimate D2E/DX2                !
 ! D23   D(13,2,12,3)         -144.4248         estimate D2E/DX2                !
 ! D24   D(29,2,12,3)          -22.5852         estimate D2E/DX2                !
 ! D25   D(11,2,13,4)           52.1923         estimate D2E/DX2                !
 ! D26   D(11,2,13,27)         -67.8694         estimate D2E/DX2                !
 ! D27   D(11,2,13,28)         176.0216         estimate D2E/DX2                !
 ! D28   D(12,2,13,4)          -70.1167         estimate D2E/DX2                !
 ! D29   D(12,2,13,27)         169.8216         estimate D2E/DX2                !
 ! D30   D(12,2,13,28)          53.7126         estimate D2E/DX2                !
 ! D31   D(29,2,13,4)          167.9797         estimate D2E/DX2                !
 ! D32   D(29,2,13,27)          47.918          estimate D2E/DX2                !
 ! D33   D(29,2,13,28)         -68.191          estimate D2E/DX2                !
 ! D34   D(9,3,8,10)            53.1646         estimate D2E/DX2                !
 ! D35   D(9,3,8,23)           -66.7851         estimate D2E/DX2                !
 ! D36   D(9,3,8,24)           174.9398         estimate D2E/DX2                !
 ! D37   D(12,3,8,10)         -177.8564         estimate D2E/DX2                !
 ! D38   D(12,3,8,23)           62.1938         estimate D2E/DX2                !
 ! D39   D(12,3,8,24)          -56.0812         estimate D2E/DX2                !
 ! D40   D(16,3,8,10)          -63.6286         estimate D2E/DX2                !
 ! D41   D(16,3,8,23)          176.4217         estimate D2E/DX2                !
 ! D42   D(16,3,8,24)           58.1466         estimate D2E/DX2                !
 ! D43   D(8,3,9,5)            -57.5392         estimate D2E/DX2                !
 ! D44   D(8,3,9,30)            63.4118         estimate D2E/DX2                !
 ! D45   D(8,3,9,31)          -175.0908         estimate D2E/DX2                !
 ! D46   D(12,3,9,5)           172.9023         estimate D2E/DX2                !
 ! D47   D(12,3,9,30)          -66.1467         estimate D2E/DX2                !
 ! D48   D(12,3,9,31)           55.3507         estimate D2E/DX2                !
 ! D49   D(16,3,9,5)            60.0887         estimate D2E/DX2                !
 ! D50   D(16,3,9,30)         -178.9603         estimate D2E/DX2                !
 ! D51   D(16,3,9,31)          -57.4629         estimate D2E/DX2                !
 ! D52   D(8,3,12,2)           -67.2406         Frozen                          !
 ! D53   D(9,3,12,2)            60.7294         estimate D2E/DX2                !
 ! D54   D(16,3,12,2)          175.6742         estimate D2E/DX2                !
 ! D55   D(1,4,13,2)           -52.2089         estimate D2E/DX2                !
 ! D56   D(1,4,13,27)           66.6609         estimate D2E/DX2                !
 ! D57   D(1,4,13,28)         -174.5022         estimate D2E/DX2                !
 ! D58   D(17,4,13,2)         -173.9028         estimate D2E/DX2                !
 ! D59   D(17,4,13,27)         -55.033          estimate D2E/DX2                !
 ! D60   D(17,4,13,28)          63.8039         estimate D2E/DX2                !
 ! D61   D(18,4,13,2)           68.56           estimate D2E/DX2                !
 ! D62   D(18,4,13,27)        -172.5701         estimate D2E/DX2                !
 ! D63   D(18,4,13,28)         -53.7333         estimate D2E/DX2                !
 ! D64   D(9,5,6,10)           -61.3985         estimate D2E/DX2                !
 ! D65   D(9,5,6,19)           177.3275         estimate D2E/DX2                !
 ! D66   D(9,5,6,20)            60.6986         estimate D2E/DX2                !
 ! D67   D(6,5,9,3)             61.872          estimate D2E/DX2                !
 ! D68   D(6,5,9,30)           -60.9454         estimate D2E/DX2                !
 ! D69   D(6,5,9,31)          -178.4006         estimate D2E/DX2                !
 ! D70   D(5,6,10,8)            55.0893         estimate D2E/DX2                !
 ! D71   D(5,6,10,25)          -65.8966         estimate D2E/DX2                !
 ! D72   D(5,6,10,26)          176.9398         estimate D2E/DX2                !
 ! D73   D(19,6,10,8)          173.2829         estimate D2E/DX2                !
 ! D74   D(19,6,10,25)          52.297          estimate D2E/DX2                !
 ! D75   D(19,6,10,26)         -64.8666         estimate D2E/DX2                !
 ! D76   D(20,6,10,8)          -66.0088         estimate D2E/DX2                !
 ! D77   D(20,6,10,25)         173.0053         estimate D2E/DX2                !
 ! D78   D(20,6,10,26)          55.8417         estimate D2E/DX2                !
 ! D79   D(1,7,11,2)            57.2789         estimate D2E/DX2                !
 ! D80   D(21,7,11,2)          -65.4381         estimate D2E/DX2                !
 ! D81   D(22,7,11,2)          178.4778         estimate D2E/DX2                !
 ! D82   D(3,8,10,6)           -51.5661         estimate D2E/DX2                !
 ! D83   D(3,8,10,25)           68.8713         estimate D2E/DX2                !
 ! D84   D(3,8,10,26)         -172.7329         estimate D2E/DX2                !
 ! D85   D(23,8,10,6)           68.7015         estimate D2E/DX2                !
 ! D86   D(23,8,10,25)        -170.8611         estimate D2E/DX2                !
 ! D87   D(23,8,10,26)         -52.4653         estimate D2E/DX2                !
 ! D88   D(24,8,10,6)         -172.7211         estimate D2E/DX2                !
 ! D89   D(24,8,10,25)         -52.2837         estimate D2E/DX2                !
 ! D90   D(24,8,10,26)          66.1122         estimate D2E/DX2                !
 --------------------------------------------------------------------------------
 Trust Radius=3.00D-01 FncErr=1.00D-07 GrdErr=1.00D-06 EigMax=2.50D+02 EigMin=1.00D-04
 Number of steps in this run=    186 maximum allowed number of steps=    186.
 GradGradGradGradGradGradGradGradGradGradGradGradGradGradGradGradGradGrad

                          Input orientation:                          
 ---------------------------------------------------------------------
 Center     Atomic      Atomic             Coordinates (Angstroms)
 Number     Number       Type             X           Y           Z
 ---------------------------------------------------------------------
      1          6           0       -3.697183    0.523405   -0.125802
      2          6           0       -1.031130   -0.386970    0.548999
      3          6           0        1.099898   -0.169212   -0.644343
      4          6           0       -3.256960   -0.878911   -0.545865
      5          8           0        3.230419   -1.115093   -0.080907
      6          6           0        3.722641    0.106168    0.442696
      7          6           0       -2.488567    1.435682    0.000521
      8          6           0        1.549390    1.205146   -0.160936
      9          6           0        1.839606   -1.279782    0.099637
     10          6           0        3.076079    1.294785   -0.250936
     11          8           0       -1.514647    0.890405    0.880556
     12          8           0       -0.307572   -0.348658   -0.649951
     13          6           0       -2.172881   -1.383405    0.407578
     14          1           0       -4.211584    0.476343    0.831308
     15          1           0       -4.388803    0.949177   -0.847261
     16          1           0        1.366257   -0.262490   -1.690173
     17          1           0       -4.100280   -1.562587   -0.538426
     18          1           0       -2.877768   -0.854092   -1.564048
     19          1           0        4.792762    0.092735    0.287979
     20          1           0        3.530658    0.134983    1.512859
     21          1           0       -2.038150    1.611162   -0.970579
     22          1           0       -2.757896    2.393477    0.423881
     23          1           0        1.239569    1.354195    0.869767
     24          1           0        1.080447    1.978487   -0.760691
     25          1           0        3.386013    1.308772   -1.292812
     26          1           0        3.430399    2.213926    0.205962
     27          1           0       -2.600795   -1.528648    1.395907
     28          1           0       -1.768646   -2.336304    0.083604
     29          1           0       -0.390944   -0.659008    1.371118
     30          1           0        1.618363   -1.277219    1.161861
     31          1           0        1.579450   -2.247577   -0.307135
 ---------------------------------------------------------------------
                    Distance matrix (angstroms):
                    1          2          3          4          5
     1  C    0.000000
     2  C    2.896891   0.000000
     3  C    4.874483   2.452094   0.000000
     4  C    1.528640   2.528844   4.415380   0.000000
     5  O    7.118874   4.368952   2.398181   6.508307   0.000000
     6  C    7.453259   4.780463   2.852415   7.117757   1.417011
     7  C    1.519526   2.397292   3.983543   2.499261   6.262578
     8  C    5.290797   3.114149   1.524659   5.252853   2.866317
     9  C    5.827378   3.039764   1.527756   5.152898   1.412119
    10  C    6.818194   4.509696   2.490652   6.702188   2.420794
    11  O    2.431236   1.405491   3.206860   2.863706   5.240428
    12  O    3.539024   1.400887   1.418874   2.998482   3.664507
    13  C    2.498783   1.521998   3.645804   1.529312   5.431966
    14  H    1.087604   3.307612   5.550327   2.155139   7.664738
    15  H    1.086335   3.874119   5.605159   2.171132   7.931018
    16  H    5.357547   3.282811   1.083240   4.802453   2.606102
    17  H    2.164280   3.461828   5.384660   1.085660   7.358582
    18  H    2.153483   2.844862   4.139655   1.086784   6.291087
    19  H    8.510926   5.849442   3.817733   8.150915   2.008940
    20  H    7.421440   4.691628   3.264146   7.165060   2.047663
    21  H    2.156213   2.704762   3.622638   2.804700   5.998483
    22  H    2.163696   3.275402   4.753005   3.449347   6.958792
    23  H    5.104203   2.879344   2.152395   5.216277   3.311291
    24  H    5.034491   3.430661   2.150936   5.198459   3.828149
    25  H    7.221522   5.077299   2.798441   7.033703   2.714414
    26  H    7.332827   5.175671   3.440000   7.406190   3.347335
    27  H    2.780034   2.117671   4.439123   2.150160   6.029516
    28  H    3.455581   2.135515   3.668070   2.176075   5.148696
    29  H    3.817078   1.076904   2.554328   3.455030   3.928188
    30  H    5.758068   2.861461   2.181481   5.181096   2.041931
    31  H    5.962724   3.318125   2.159463   5.032008   2.014795
                    6          7          8          9         10
     6  C    0.000000
     7  C    6.367278   0.000000
     8  C    2.509013   4.047754   0.000000
     9  C    2.363127   5.110445   2.515351   0.000000
    10  C    1.520519   5.572106   1.531964   2.877527   0.000000
    11  O    5.313750   1.421376   3.251475   4.070695   4.745373
    12  O    4.200400   2.892010   2.470172   2.457488   3.782752
    13  C    6.080891   2.865764   4.569366   4.025620   5.929412
    14  H    7.952357   2.139936   5.891055   6.343202   7.412903
    15  H    8.256523   2.136895   5.983201   6.682661   7.496633
    16  H    3.199623   4.538932   2.127454   2.112430   2.723968
    17  H    8.058873   3.446404   6.302509   5.980748   7.729641
    18  H    6.965237   2.800432   5.080247   5.020227   6.464536
    19  H    1.081331   7.409716   3.458098   3.261964   2.163875
    20  H    1.087629   6.341140   2.805755   2.618857   2.159341
    21  H    6.119564   1.084760   3.700110   4.953777   5.174294
    22  H    6.872372   1.081269   4.506313   5.893640   5.974761
    23  H    2.811691   3.828998   1.086533   2.809089   2.152272
    24  H    3.454694   3.689437   1.085205   3.454389   2.170218
    25  H    2.138121   6.016603   2.159876   3.321280   1.087088
    26  H    2.141049   5.973444   2.165744   3.840302   1.085872
    27  H    6.600536   3.278254   5.207823   4.632430   6.550631
    28  H    6.020702   3.840972   4.859118   3.759784   6.063669
    29  H    4.285912   3.265928   3.096313   2.641473   4.297513
    30  H    2.618959   5.057214   2.813660   1.085023   3.276604
    31  H    3.270417   5.496345   3.455948   1.081560   3.845957
                   11         12         13         14         15
    11  O    0.000000
    12  O    2.309710   0.000000
    13  C    2.413958   2.380850   0.000000
    14  H    2.728982   4.256297   2.791867   0.000000
    15  H    3.354039   4.287161   3.453385   1.752875   0.000000
    16  H    4.029569   1.972610   4.264095   6.165716   5.941326
    17  H    3.836167   3.983804   2.154506   2.458820   2.547073
    18  H    3.298099   2.774337   2.159710   3.047434   2.459429
    19  H    6.385204   5.204608   7.121339   9.028876   9.291039
    20  H    5.140581   4.432117   6.004790   7.779675   8.303670
    21  H    2.054324   2.634122   3.299227   3.042766   2.445200
    22  H    2.003359   3.830993   3.821956   2.440207   2.522234
    23  H    2.793013   2.757335   4.399192   5.521519   5.898372
    24  H    3.257626   2.711911   4.821962   5.726822   5.565938
    25  H    5.377270   4.099136   6.406282   7.932736   7.795870
    26  H    5.163358   4.612142   6.661695   7.861944   7.990544
    27  H    2.701318   3.291927   1.086738   2.633135   3.790566
    28  H    3.333362   2.573631   1.084611   3.799736   4.304198
    29  H    1.975864   2.046457   2.151386   4.022152   4.846684
    30  H    3.820141   2.802519   3.867008   6.096928   6.714123
    31  H    4.564097   2.698938   3.916324   6.500144   6.791982
                   16         17         18         19         20
    16  H    0.000000
    17  H    5.735835   0.000000
    18  H    4.286916   1.745967   0.000000
    19  H    3.972431   9.083459   7.947548   0.000000
    20  H    3.886133   8.082124   7.177294   1.759268   0.000000
    21  H    3.952009   3.809438   2.671075   7.109919   6.273611
    22  H    5.341538   4.287012   3.809585   7.894575   6.769976
    23  H    3.030349   6.245367   5.268060   3.815094   2.673786
    24  H    2.442868   6.279215   4.933189   4.293839   3.817207
    25  H    2.589628   8.053470   6.632232   2.440612   3.044748
    26  H    3.740140   8.457381   7.234545   2.522342   2.457648
    27  H    5.183102   2.447703   3.048454   7.649907   6.354216
    28  H    4.156273   2.534182   2.478278   6.999577   6.019356
    29  H    3.551969   4.268722   3.851954   5.348749   4.003683
    30  H    3.037652   5.972879   5.274923   3.566126   2.402995
    31  H    2.428748   5.725560   4.836158   4.019527   3.577175
                   21         22         23         24         25
    21  H    0.000000
    22  H    1.753445   0.000000
    23  H    3.767804   4.154353   0.000000
    24  H    3.147162   4.038354   1.753127   0.000000
    25  H    5.442134   6.470799   3.047299   2.459127   0.000000
    26  H    5.626064   6.194733   2.445304   2.551886   1.751456
    27  H    3.971805   4.043832   4.830735   5.522903   7.149967
    28  H    4.094682   4.844093   4.825681   5.239044   6.461549
    29  H    3.653834   3.977108   2.638733   3.696753   5.023354
    30  H    5.124464   5.759363   2.674536   3.819055   3.979618
    31  H    5.330765   6.394242   3.804389   4.279525   4.108874
                   26         27         28         29         30
    26  H    0.000000
    27  H    7.197092   0.000000
    28  H    6.910111   1.751262   0.000000
    29  H    4.920772   2.374938   2.523703   0.000000
    30  H    4.047877   4.233118   3.708926   2.112650   0.000000
    31  H    4.857395   4.570739   3.371987   3.036863   1.760982
                   31
    31  H    0.000000
 Stoichiometry    C10H18O3
 Framework group  C1[X(C10H18O3)]
 Deg. of freedom    87
 Full point group                 C1      NOp   1
 Largest Abelian subgroup         C1      NOp   1
 Largest concise Abelian subgroup C1      NOp   1
                         Standard orientation:                         
 ---------------------------------------------------------------------
 Center     Atomic      Atomic             Coordinates (Angstroms)
 Number     Number       Type             X           Y           Z
 ---------------------------------------------------------------------
      1          6           0       -3.697183    0.523405   -0.125802
      2          6           0       -1.031130   -0.386970    0.548999
      3          6           0        1.099898   -0.169212   -0.644343
      4          6           0       -3.256960   -0.878911   -0.545865
      5          8           0        3.230419   -1.115093   -0.080907
      6          6           0        3.722641    0.106168    0.442696
      7          6           0       -2.488567    1.435682    0.000521
      8          6           0        1.549390    1.205146   -0.160936
      9          6           0        1.839606   -1.279782    0.099637
     10          6           0        3.076079    1.294785   -0.250936
     11          8           0       -1.514647    0.890405    0.880556
     12          8           0       -0.307572   -0.348658   -0.649951
     13          6           0       -2.172881   -1.383405    0.407578
     14          1           0       -4.211584    0.476343    0.831308
     15          1           0       -4.388803    0.949177   -0.847261
     16          1           0        1.366257   -0.262490   -1.690173
     17          1           0       -4.100280   -1.562587   -0.538426
     18          1           0       -2.877768   -0.854092   -1.564048
     19          1           0        4.792762    0.092735    0.287979
     20          1           0        3.530658    0.134983    1.512859
     21          1           0       -2.038150    1.611162   -0.970579
     22          1           0       -2.757896    2.393477    0.423881
     23          1           0        1.239569    1.354195    0.869767
     24          1           0        1.080447    1.978487   -0.760691
     25          1           0        3.386013    1.308772   -1.292812
     26          1           0        3.430399    2.213926    0.205962
     27          1           0       -2.600795   -1.528648    1.395907
     28          1           0       -1.768646   -2.336304    0.083604
     29          1           0       -0.390944   -0.659008    1.371118
     30          1           0        1.618363   -1.277219    1.161861
     31          1           0        1.579450   -2.247577   -0.307135
 ---------------------------------------------------------------------
 Rotational constants (GHZ):           2.0175461           0.4164534           0.3737982
 Standard basis: 6-311++G(2d,2p) (5D, 7F)
 There are   557 symmetry adapted cartesian basis functions of A   symmetry.
 There are   531 symmetry adapted basis functions of A   symmetry.
   531 basis functions,   762 primitive gaussians,   557 cartesian basis functions
    51 alpha electrons       51 beta electrons
       nuclear repulsion energy       894.9412885641 Hartrees.
 NAtoms=   31 NActive=   31 NUniq=   31 SFac= 1.00D+00 NAtFMM=   60 NAOKFM=F Big=F
 Integral buffers will be    131072 words long.
 Raffenetti 2 integral format.
 Two-electron integral symmetry is turned on.
 ------------------------------------------------------------------------------
 Polarizable Continuum Model (PCM)
 =================================
 Model                : PCM.
 Atomic radii         : UFF (Universal Force Field).
 Polarization charges : Total charges.
 Charge compensation  : None.
 Solution method      : On-the-fly selection.
 Cavity type          : Scaled VdW (van der Waals Surface) (Alpha=1.100).
 Cavity algorithm     : GePol (No added spheres)
                        Default sphere list used, NSphG=   31.
                        Lebedev-Laikov grids with approx.  5.0 points / Ang**2.
                        Smoothing algorithm: York/Karplus (Gamma=1.0000).
                        Polarization charges: spherical gaussians, with
                                              point-specific exponents (IZeta= 3).
                        Self-potential: point-specific (ISelfS= 7).
                        Self-field    : sphere-specific E.n sum rule (ISelfD= 2).
 1st derivatives      : Analytical E(r).r(x)/FMM algorithm (CHGder, D1EAlg=3).
                        Cavity 1st derivative terms included.
 Solvent              : Water, Eps=  78.355300 Eps(inf)=   1.777849
 ------------------------------------------------------------------------------
 One-electron integrals computed using PRISM.
 NBasis=   531 RedAO= T EigKep=  5.10D-06  NBF=   531
 NBsUse=   531 1.00D-06 EigRej= -1.00D+00 NBFU=   531
 ExpMin= 3.60D-02 ExpMax= 8.59D+03 ExpMxC= 1.30D+03 IAcc=3 IRadAn=         5 AccDes= 0.00D+00
 Harris functional with IExCor= 1009 and IRadAn=       5 diagonalized for initial guess.
 HarFok:  IExCor= 1009 AccDes= 0.00D+00 IRadAn=         5 IDoV= 1 UseB2=F ITyADJ=14
 ICtDFT=  3500011 ScaDFX=  1.000000  1.000000  1.000000  1.000000
 FoFCou: FMM=F IPFlag=           0 FMFlag=      100000 FMFlg1=           0
         NFxFlg=           0 DoJE=T BraDBF=F KetDBF=T FulRan=T
         wScrn=  0.000000 ICntrl=       500 IOpCl=  0 I1Cent=   200000004 NGrid=           0
         NMat0=    1 NMatS0=      1 NMatT0=    0 NMatD0=    1 NMtDS0=    0 NMtDT0=    0
 Petite list used in FoFCou.
 Requested convergence on RMS density matrix=1.00D-08 within 128 cycles.
 Requested convergence on MAX density matrix=1.00D-06.
 Requested convergence on             energy=1.00D-06.
 No special actions if energy rises.
 Inv3:  Mode=1 IEnd=    12767907.
 Iteration    1 A*A^-1 deviation from unit magnitude is 4.88D-15 for   2061.
 Iteration    1 A*A^-1 deviation from orthogonality  is 2.87D-15 for   2037    953.
 Iteration    1 A^-1*A deviation from unit magnitude is 4.88D-15 for   2061.
 Iteration    1 A^-1*A deviation from orthogonality  is 5.24D-15 for   2049    856.
 Error on total polarization charges =  0.01467
 SCF Done:  E(RM062X) =  -617.496962521     A.U. after   13 cycles
            NFock= 13  Conv=0.22D-08     -V/T= 2.0035

 **********************************************************************

            Population analysis using the SCF density.

 **********************************************************************

 Orbital symmetries:
       Occupied  (A) (A) (A) (A) (A) (A) (A) (A) (A) (A) (A) (A)
                 (A) (A) (A) (A) (A) (A) (A) (A) (A) (A) (A) (A)
                 (A) (A) (A) (A) (A) (A) (A) (A) (A) (A) (A) (A)
                 (A) (A) (A) (A) (A) (A) (A) (A) (A) (A) (A) (A)
                 (A) (A) (A)
       Virtual   (A) (A) (A) (A) (A) (A) (A) (A) (A) (A) (A) (A)
                 (A) (A) (A) (A) (A) (A) (A) (A) (A) (A) (A) (A)
                 (A) (A) (A) (A) (A) (A) (A) (A) (A) (A) (A) (A)
                 (A) (A) (A) (A) (A) (A) (A) (A) (A) (A) (A) (A)
                 (A) (A) (A) (A) (A) (A) (A) (A) (A) (A) (A) (A)
                 (A) (A) (A) (A) (A) (A) (A) (A) (A) (A) (A) (A)
                 (A) (A) (A) (A) (A) (A) (A) (A) (A) (A) (A) (A)
                 (A) (A) (A) (A) (A) (A) (A) (A) (A) (A) (A) (A)
                 (A) (A) (A) (A) (A) (A) (A) (A) (A) (A) (A) (A)
                 (A) (A) (A) (A) (A) (A) (A) (A) (A) (A) (A) (A)
                 (A) (A) (A) (A) (A) (A) (A) (A) (A) (A) (A) (A)
                 (A) (A) (A) (A) (A) (A) (A) (A) (A) (A) (A) (A)
                 (A) (A) (A) (A) (A) (A) (A) (A) (A) (A) (A) (A)
                 (A) (A) (A) (A) (A) (A) (A) (A) (A) (A) (A) (A)
                 (A) (A) (A) (A) (A) (A) (A) (A) (A) (A) (A) (A)
                 (A) (A) (A) (A) (A) (A) (A) (A) (A) (A) (A) (A)
                 (A) (A) (A) (A) (A) (A) (A) (A) (A) (A) (A) (A)
                 (A) (A) (A) (A) (A) (A) (A) (A) (A) (A) (A) (A)
                 (A) (A) (A) (A) (A) (A) (A) (A) (A) (A) (A) (A)
                 (A) (A) (A) (A) (A) (A) (A) (A) (A) (A) (A) (A)
                 (A) (A) (A) (A) (A) (A) (A) (A) (A) (A) (A) (A)
                 (A) (A) (A) (A) (A) (A) (A) (A) (A) (A) (A) (A)
                 (A) (A) (A) (A) (A) (A) (A) (A) (A) (A) (A) (A)
                 (A) (A) (A) (A) (A) (A) (A) (A) (A) (A) (A) (A)
                 (A) (A) (A) (A) (A) (A) (A) (A) (A) (A) (A) (A)
                 (A) (A) (A) (A) (A) (A) (A) (A) (A) (A) (A) (A)
                 (A) (A) (A) (A) (A) (A) (A) (A) (A) (A) (A) (A)
                 (A) (A) (A) (A) (A) (A) (A) (A) (A) (A) (A) (A)
                 (A) (A) (A) (A) (A) (A) (A) (A) (A) (A) (A) (A)
                 (A) (A) (A) (A) (A) (A) (A) (A) (A) (A) (A) (A)
                 (A) (A) (A) (A) (A) (A) (A) (A) (A) (A) (A) (A)
                 (A) (A) (A) (A) (A) (A) (A) (A) (A) (A) (A) (A)
                 (A) (A) (A) (A) (A) (A) (A) (A) (A) (A) (A) (A)
                 (A) (A) (A) (A) (A) (A) (A) (A) (A) (A) (A) (A)
                 (A) (A) (A) (A) (A) (A) (A) (A) (A) (A) (A) (A)
                 (A) (A) (A) (A) (A) (A) (A) (A) (A) (A) (A) (A)
                 (A) (A) (A) (A) (A) (A) (A) (A) (A) (A) (A) (A)
                 (A) (A) (A) (A) (A) (A) (A) (A) (A) (A) (A) (A)
                 (A) (A) (A) (A) (A) (A) (A) (A) (A) (A) (A) (A)
                 (A) (A) (A) (A) (A) (A) (A) (A) (A) (A) (A) (A)
 The electronic state is 1-A.
 Alpha  occ. eigenvalues --  -19.63020 -19.62960 -19.62492 -10.63388 -10.58869
 Alpha  occ. eigenvalues --  -10.58060 -10.57913 -10.57499 -10.53137 -10.53029
 Alpha  occ. eigenvalues --  -10.52935 -10.52885 -10.52694  -1.19893  -1.16847
 Alpha  occ. eigenvalues --   -1.13433  -0.90822  -0.89651  -0.87458  -0.84945
 Alpha  occ. eigenvalues --   -0.75140  -0.74252  -0.73315  -0.71109  -0.66864
 Alpha  occ. eigenvalues --   -0.62677  -0.60567  -0.58859  -0.56839  -0.55348
 Alpha  occ. eigenvalues --   -0.54698  -0.53305  -0.52562  -0.50767  -0.50186
 Alpha  occ. eigenvalues --   -0.49058  -0.46754  -0.46138  -0.45322  -0.44875
 Alpha  occ. eigenvalues --   -0.43936  -0.43182  -0.40741  -0.40328  -0.39633
 Alpha  occ. eigenvalues --   -0.38326  -0.37793  -0.37090  -0.34199  -0.33078
 Alpha  occ. eigenvalues --   -0.31696
 Alpha virt. eigenvalues --   -0.00074   0.00720   0.00826   0.01102   0.02166
 Alpha virt. eigenvalues --    0.02499   0.02615   0.03372   0.03545   0.04340
 Alpha virt. eigenvalues --    0.04552   0.04838   0.05595   0.05882   0.06823
 Alpha virt. eigenvalues --    0.07330   0.07735   0.07950   0.08933   0.09752
 Alpha virt. eigenvalues --    0.10102   0.10488   0.11211   0.11547   0.12086
 Alpha virt. eigenvalues --    0.12167   0.12625   0.12871   0.12993   0.13614
 Alpha virt. eigenvalues --    0.13707   0.14030   0.14386   0.14617   0.14927
 Alpha virt. eigenvalues --    0.15139   0.15283   0.15523   0.15776   0.15992
 Alpha virt. eigenvalues --    0.16579   0.16736   0.17237   0.17486   0.17768
 Alpha virt. eigenvalues --    0.18188   0.18435   0.18648   0.18860   0.19355
 Alpha virt. eigenvalues --    0.19884   0.19998   0.20386   0.20600   0.20850
 Alpha virt. eigenvalues --    0.21816   0.22286   0.23212   0.23872   0.24346
 Alpha virt. eigenvalues --    0.24715   0.25655   0.25784   0.26455   0.27459
 Alpha virt. eigenvalues --    0.27626   0.28030   0.28695   0.29111   0.29547
 Alpha virt. eigenvalues --    0.29614   0.30394   0.30889   0.31222   0.31839
 Alpha virt. eigenvalues --    0.32621   0.33074   0.33311   0.34006   0.34342
 Alpha virt. eigenvalues --    0.35045   0.35475   0.35506   0.36021   0.36165
 Alpha virt. eigenvalues --    0.37076   0.37267   0.37425   0.37790   0.37959
 Alpha virt. eigenvalues --    0.38920   0.39399   0.39976   0.40215   0.40742
 Alpha virt. eigenvalues --    0.40987   0.42080   0.42656   0.43859   0.44841
 Alpha virt. eigenvalues --    0.45522   0.46281   0.48732   0.49469   0.50547
 Alpha virt. eigenvalues --    0.51753   0.52189   0.53598   0.54315   0.54467
 Alpha virt. eigenvalues --    0.55431   0.56972   0.58414   0.58703   0.59226
 Alpha virt. eigenvalues --    0.60291   0.60601   0.61161   0.61481   0.61816
 Alpha virt. eigenvalues --    0.62487   0.62968   0.63606   0.63727   0.64146
 Alpha virt. eigenvalues --    0.64815   0.65508   0.65624   0.65922   0.67484
 Alpha virt. eigenvalues --    0.67832   0.68638   0.69107   0.69805   0.70282
 Alpha virt. eigenvalues --    0.71081   0.71387   0.71902   0.72009   0.72994
 Alpha virt. eigenvalues --    0.73930   0.74161   0.74645   0.74673   0.75477
 Alpha virt. eigenvalues --    0.76384   0.77383   0.77602   0.78092   0.78559
 Alpha virt. eigenvalues --    0.80867   0.81786   0.83423   0.84129   0.86042
 Alpha virt. eigenvalues --    0.86709   0.87279   0.87686   0.88728   0.89446
 Alpha virt. eigenvalues --    0.90387   0.90621   0.92913   0.93951   0.95823
 Alpha virt. eigenvalues --    0.96415   0.98772   0.99824   1.01300   1.02023
 Alpha virt. eigenvalues --    1.03196   1.04367   1.04683   1.06748   1.07061
 Alpha virt. eigenvalues --    1.07982   1.08818   1.09975   1.11202   1.12355
 Alpha virt. eigenvalues --    1.13491   1.14333   1.15334   1.15974   1.16635
 Alpha virt. eigenvalues --    1.17075   1.18396   1.18594   1.19474   1.19725
 Alpha virt. eigenvalues --    1.20757   1.21354   1.21955   1.23490   1.24134
 Alpha virt. eigenvalues --    1.24979   1.25795   1.26102   1.26959   1.27810
 Alpha virt. eigenvalues --    1.28843   1.29339   1.29633   1.30390   1.30804
 Alpha virt. eigenvalues --    1.31635   1.32800   1.33416   1.34398   1.35073
 Alpha virt. eigenvalues --    1.35324   1.36167   1.36681   1.37147   1.37446
 Alpha virt. eigenvalues --    1.38435   1.39516   1.40681   1.41096   1.42138
 Alpha virt. eigenvalues --    1.42779   1.43738   1.44102   1.44490   1.45489
 Alpha virt. eigenvalues --    1.46200   1.46916   1.47563   1.48098   1.48933
 Alpha virt. eigenvalues --    1.49550   1.49607   1.50380   1.51508   1.52414
 Alpha virt. eigenvalues --    1.52692   1.53555   1.54141   1.55468   1.55793
 Alpha virt. eigenvalues --    1.56505   1.57589   1.57775   1.58610   1.59165
 Alpha virt. eigenvalues --    1.59552   1.60095   1.60694   1.61420   1.62561
 Alpha virt. eigenvalues --    1.62722   1.64625   1.64884   1.66313   1.67380
 Alpha virt. eigenvalues --    1.67932   1.68778   1.69866   1.70736   1.72522
 Alpha virt. eigenvalues --    1.73167   1.74390   1.76157   1.76168   1.78424
 Alpha virt. eigenvalues --    1.79111   1.80928   1.81378   1.83990   1.85007
 Alpha virt. eigenvalues --    1.85985   1.87438   1.88399   1.95114   1.97681
 Alpha virt. eigenvalues --    2.01636   2.05936   2.13539   2.17108   2.21969
 Alpha virt. eigenvalues --    2.23611   2.26403   2.28959   2.33879   2.39491
 Alpha virt. eigenvalues --    2.40977   2.44193   2.46093   2.46475   2.55779
 Alpha virt. eigenvalues --    2.57054   2.75785   2.77039   2.79905   2.81214
 Alpha virt. eigenvalues --    2.83844   2.89345   2.92855   2.93735   2.94472
 Alpha virt. eigenvalues --    2.95209   2.98190   3.00759   3.01879   3.03805
 Alpha virt. eigenvalues --    3.06256   3.07125   3.07940   3.10899   3.11524
 Alpha virt. eigenvalues --    3.13924   3.14613   3.18425   3.19286   3.21442
 Alpha virt. eigenvalues --    3.25603   3.27815   3.30697   3.33007   3.34911
 Alpha virt. eigenvalues --    3.35487   3.36696   3.38333   3.40251   3.40534
 Alpha virt. eigenvalues --    3.43089   3.43946   3.44724   3.45159   3.46710
 Alpha virt. eigenvalues --    3.47789   3.49624   3.50331   3.50798   3.52652
 Alpha virt. eigenvalues --    3.53305   3.53415   3.55062   3.55955   3.56263
 Alpha virt. eigenvalues --    3.56339   3.57198   3.58699   3.59336   3.60471
 Alpha virt. eigenvalues --    3.60789   3.62243   3.63096   3.63811   3.64961
 Alpha virt. eigenvalues --    3.66601   3.67855   3.68370   3.68831   3.69210
 Alpha virt. eigenvalues --    3.70339   3.71051   3.72459   3.73424   3.74425
 Alpha virt. eigenvalues --    3.74793   3.75306   3.75953   3.77022   3.77656
 Alpha virt. eigenvalues --    3.79138   3.79765   3.81420   3.82356   3.85503
 Alpha virt. eigenvalues --    3.86738   3.87531   3.89341   3.89778   3.91166
 Alpha virt. eigenvalues --    3.93287   3.93791   3.94192   3.95596   3.97626
 Alpha virt. eigenvalues --    3.99982   4.01164   4.02681   4.03472   4.03953
 Alpha virt. eigenvalues --    4.05191   4.05445   4.06605   4.06884   4.07612
 Alpha virt. eigenvalues --    4.08345   4.09843   4.10048   4.10597   4.11688
 Alpha virt. eigenvalues --    4.12367   4.13284   4.14101   4.15035   4.16398
 Alpha virt. eigenvalues --    4.17081   4.17850   4.18306   4.19771   4.20109
 Alpha virt. eigenvalues --    4.21422   4.23304   4.26171   4.26576   4.27154
 Alpha virt. eigenvalues --    4.28277   4.30012   4.30999   4.32280   4.32717
 Alpha virt. eigenvalues --    4.33285   4.33856   4.35808   4.37442   4.40598
 Alpha virt. eigenvalues --    4.41226   4.43701   4.44110   4.47420   4.47683
 Alpha virt. eigenvalues --    4.57476   4.60947   4.74906   4.76425   4.83222
 Alpha virt. eigenvalues --    4.85949   4.92882   4.95410   4.98878   5.02002
 Alpha virt. eigenvalues --    5.06507   5.07003   5.07733   5.08521   5.11772
 Alpha virt. eigenvalues --    5.12311   5.13893   5.15839   5.30565   5.39318
 Alpha virt. eigenvalues --    5.41423   5.58421   5.59594   5.65705   5.85317
 Alpha virt. eigenvalues --    5.88387   6.00570   7.01942   7.04526   7.05437
 Alpha virt. eigenvalues --    7.08811   7.09623   7.13388   7.13953   7.18617
 Alpha virt. eigenvalues --    7.27820   7.36390   7.42255   7.45639   7.53856
 Alpha virt. eigenvalues --    7.54782   7.64934  23.96147  23.97005  24.06502
 Alpha virt. eigenvalues --   24.07912  24.11285  24.11791  24.13148  24.15822
 Alpha virt. eigenvalues --   24.16725  24.20915  50.17817  50.18467  50.26558
          Condensed to atoms (all electrons):
               1          2          3          4          5          6
     1  C    5.682865   0.434266  -0.083845   0.042382  -0.000119  -0.001658
     2  C    0.434266   7.307176  -0.863480  -0.269770  -0.006390  -0.006738
     3  C   -0.083845  -0.863480   8.019212   0.125529   0.013000   0.089666
     4  C    0.042382  -0.269770   0.125529   5.646009   0.000461  -0.001220
     5  O   -0.000119  -0.006390   0.013000   0.000461   8.349581   0.104331
     6  C   -0.001658  -0.006738   0.089666  -0.001220   0.104331   5.389243
     7  C   -0.087388  -0.545893   0.119250  -0.024066   0.000776   0.002815
     8  C    0.055438   0.245031  -1.201599  -0.017113  -0.047701  -0.092381
     9  C    0.006684   0.114462  -0.709127  -0.020932   0.151453  -0.188445
    10  C   -0.000428  -0.094215   0.158566   0.005697  -0.010334   0.130149
    11  O   -0.065320   0.230543  -0.055217  -0.000363   0.000015  -0.001777
    12  O   -0.001991   0.333723  -0.084021  -0.036872  -0.000480  -0.002374
    13  C   -0.305962  -0.992009  -0.032486   0.037621   0.004600   0.010249
    14  H    0.492412  -0.006369  -0.007638  -0.020677   0.000001  -0.000037
    15  H    0.437128   0.007422   0.006490  -0.050508  -0.000004  -0.000009
    16  H   -0.004048  -0.047020   0.627387   0.009092   0.005069   0.008522
    17  H   -0.012139   0.017658   0.007807   0.411770   0.000010   0.000118
    18  H   -0.072879  -0.030975  -0.012980   0.515901   0.000072  -0.000237
    19  H   -0.000100   0.000589  -0.003724  -0.000104  -0.073908   0.425622
    20  H    0.000117  -0.007085   0.031609   0.000410  -0.038938   0.455515
    21  H   -0.071988  -0.025507  -0.013113  -0.007248  -0.000067   0.000650
    22  H   -0.030809  -0.000367   0.004390   0.007506   0.000043  -0.000066
    23  H   -0.003800  -0.065796   0.157473   0.002657   0.000808  -0.011266
    24  H   -0.000147   0.034628  -0.061373  -0.004053  -0.002513   0.002239
    25  H   -0.000005  -0.007606  -0.011436   0.000573  -0.009432  -0.081444
    26  H    0.000526   0.000459   0.000368   0.000118   0.008454  -0.034283
    27  H   -0.022675  -0.136290  -0.003475  -0.010441   0.000056   0.000249
    28  H   -0.004501  -0.038564   0.007718  -0.039049   0.000579  -0.000100
    29  H    0.037722   0.503915   0.026999  -0.035500  -0.001068  -0.009704
    30  H   -0.006498  -0.051554   0.135959   0.015470  -0.040424  -0.000117
    31  H    0.003182   0.037944  -0.121405  -0.005326  -0.071324  -0.002731
               7          8          9         10         11         12
     1  C   -0.087388   0.055438   0.006684  -0.000428  -0.065320  -0.001991
     2  C   -0.545893   0.245031   0.114462  -0.094215   0.230543   0.333723
     3  C    0.119250  -1.201599  -0.709127   0.158566  -0.055217  -0.084021
     4  C   -0.024066  -0.017113  -0.020932   0.005697  -0.000363  -0.036872
     5  O    0.000776  -0.047701   0.151453  -0.010334   0.000015  -0.000480
     6  C    0.002815  -0.092381  -0.188445   0.130149  -0.001777  -0.002374
     7  C    5.540783  -0.036635  -0.017196  -0.002283   0.109737  -0.003224
     8  C   -0.036635   6.664985   0.410124  -0.444449   0.044125  -0.014113
     9  C   -0.017196   0.410124   5.900301  -0.099877   0.002847   0.020214
    10  C   -0.002283  -0.444449  -0.099877   6.020326   0.012036  -0.019296
    11  O    0.109737   0.044125   0.002847   0.012036   8.229634  -0.046994
    12  O   -0.003224  -0.014113   0.020214  -0.019296  -0.046994   8.312912
    13  C    0.251065  -0.023059  -0.019276   0.012274  -0.016457  -0.044979
    14  H   -0.089999   0.002662   0.000325   0.000046  -0.003068   0.000403
    15  H   -0.033377  -0.002422  -0.000151  -0.000181   0.010376  -0.000064
    16  H    0.006317  -0.089010  -0.121324   0.007108   0.003306  -0.096171
    17  H    0.008421  -0.001308  -0.002385   0.000466  -0.003399  -0.000133
    18  H    0.004001   0.001417   0.005314  -0.001039   0.001428  -0.001920
    19  H    0.000004   0.001513   0.018212  -0.031685   0.000002   0.000303
    20  H    0.000255  -0.023215  -0.023402  -0.033733   0.000416  -0.000278
    21  H    0.482513   0.001606  -0.000223  -0.002865  -0.035641   0.003433
    22  H    0.440696  -0.000248   0.000818   0.002718  -0.071519   0.000690
    23  H    0.013463   0.403528  -0.065938  -0.068375  -0.003831  -0.018745
    24  H   -0.005049   0.416438   0.018236  -0.002412  -0.012746   0.011135
    25  H    0.000884  -0.008263   0.004539   0.472270   0.000161  -0.000192
    26  H   -0.000758  -0.059353   0.001403   0.454093   0.000748  -0.001467
    27  H    0.020800   0.003069  -0.000660   0.001155  -0.004710   0.008984
    28  H    0.004258  -0.004436   0.005489  -0.001869   0.009915   0.001730
    29  H   -0.043733   0.034137  -0.007126  -0.005287  -0.080970  -0.029080
    30  H    0.005247  -0.135078   0.368955   0.036283  -0.001140  -0.014664
    31  H   -0.002711   0.026766   0.491205   0.005393  -0.000432   0.013666
              13         14         15         16         17         18
     1  C   -0.305962   0.492412   0.437128  -0.004048  -0.012139  -0.072879
     2  C   -0.992009  -0.006369   0.007422  -0.047020   0.017658  -0.030975
     3  C   -0.032486  -0.007638   0.006490   0.627387   0.007807  -0.012980
     4  C    0.037621  -0.020677  -0.050508   0.009092   0.411770   0.515901
     5  O    0.004600   0.000001  -0.000004   0.005069   0.000010   0.000072
     6  C    0.010249  -0.000037  -0.000009   0.008522   0.000118  -0.000237
     7  C    0.251065  -0.089999  -0.033377   0.006317   0.008421   0.004001
     8  C   -0.023059   0.002662  -0.002422  -0.089010  -0.001308   0.001417
     9  C   -0.019276   0.000325  -0.000151  -0.121324  -0.002385   0.005314
    10  C    0.012274   0.000046  -0.000181   0.007108   0.000466  -0.001039
    11  O   -0.016457  -0.003068   0.010376   0.003306  -0.003399   0.001428
    12  O   -0.044979   0.000403  -0.000064  -0.096171  -0.000133  -0.001920
    13  C    6.796856  -0.003259  -0.003450  -0.011162  -0.050414  -0.027228
    14  H   -0.003259   0.483438  -0.011258  -0.000354  -0.001494   0.001880
    15  H   -0.003450  -0.011258   0.488179   0.000265  -0.008057  -0.004909
    16  H   -0.011162  -0.000354   0.000265   0.442985   0.000363  -0.001213
    17  H   -0.050414  -0.001494  -0.008057   0.000363   0.465658  -0.004973
    18  H   -0.027228   0.001880  -0.004909  -0.001213  -0.004973   0.459109
    19  H    0.000480  -0.000000   0.000000  -0.002557   0.000002  -0.000021
    20  H    0.000453   0.000014  -0.000009   0.001987   0.000009   0.000037
    21  H    0.037930   0.003749   0.001059  -0.002793  -0.001120  -0.001366
    22  H   -0.008870  -0.004950  -0.009144   0.000449   0.000836  -0.002155
    23  H   -0.011950  -0.000493   0.000320   0.015024   0.000055  -0.000313
    24  H   -0.010411   0.000136   0.000203  -0.009709  -0.000055   0.000338
    25  H    0.001257   0.000002   0.000012   0.000788   0.000003  -0.000007
    26  H   -0.000226   0.000004  -0.000018  -0.000984   0.000007  -0.000030
    27  H    0.528597  -0.001397  -0.003053  -0.000216  -0.003165   0.003103
    28  H    0.422749  -0.001542   0.001683   0.001725  -0.010179  -0.002794
    29  H   -0.142380   0.001298   0.002056  -0.006008   0.001559  -0.004568
    30  H    0.014813  -0.000332  -0.000002   0.012180   0.000412   0.000258
    31  H   -0.013649   0.000023   0.000012  -0.011242  -0.000265  -0.000174
              19         20         21         22         23         24
     1  C   -0.000100   0.000117  -0.071988  -0.030809  -0.003800  -0.000147
     2  C    0.000589  -0.007085  -0.025507  -0.000367  -0.065796   0.034628
     3  C   -0.003724   0.031609  -0.013113   0.004390   0.157473  -0.061373
     4  C   -0.000104   0.000410  -0.007248   0.007506   0.002657  -0.004053
     5  O   -0.073908  -0.038938  -0.000067   0.000043   0.000808  -0.002513
     6  C    0.425622   0.455515   0.000650  -0.000066  -0.011266   0.002239
     7  C    0.000004   0.000255   0.482513   0.440696   0.013463  -0.005049
     8  C    0.001513  -0.023215   0.001606  -0.000248   0.403528   0.416438
     9  C    0.018212  -0.023402  -0.000223   0.000818  -0.065938   0.018236
    10  C   -0.031685  -0.033733  -0.002865   0.002718  -0.068375  -0.002412
    11  O    0.000002   0.000416  -0.035641  -0.071519  -0.003831  -0.012746
    12  O    0.000303  -0.000278   0.003433   0.000690  -0.018745   0.011135
    13  C    0.000480   0.000453   0.037930  -0.008870  -0.011950  -0.010411
    14  H   -0.000000   0.000014   0.003749  -0.004950  -0.000493   0.000136
    15  H    0.000000  -0.000009   0.001059  -0.009144   0.000320   0.000203
    16  H   -0.002557   0.001987  -0.002793   0.000449   0.015024  -0.009709
    17  H    0.000002   0.000009  -0.001120   0.000836   0.000055  -0.000055
    18  H   -0.000021   0.000037  -0.001366  -0.002155  -0.000313   0.000338
    19  H    0.467237  -0.007142  -0.000018   0.000014  -0.002081   0.001246
    20  H   -0.007142   0.496905  -0.000008  -0.000016  -0.003583  -0.000433
    21  H   -0.000018  -0.000008   0.494327  -0.011702  -0.000361  -0.001262
    22  H    0.000014  -0.000016  -0.011702   0.480920  -0.000008  -0.000650
    23  H   -0.002081  -0.003583  -0.000361  -0.000008   0.487846  -0.025131
    24  H    0.001246  -0.000433  -0.001262  -0.000650  -0.025131   0.485937
    25  H   -0.004111   0.001512   0.000001   0.000025   0.005038  -0.006653
    26  H   -0.009425   0.006035  -0.000046  -0.000022  -0.005435  -0.012127
    27  H    0.000025  -0.000040  -0.000525   0.000042  -0.000124  -0.000361
    28  H   -0.000010   0.000002  -0.000931   0.001172   0.000573   0.000035
    29  H   -0.000450   0.000044   0.000594   0.000468  -0.009434   0.005332
    30  H   -0.003703   0.005451  -0.000375  -0.000068   0.002556  -0.001752
    31  H    0.003716  -0.003238   0.000235   0.000087  -0.002364  -0.000515
              25         26         27         28         29         30
     1  C   -0.000005   0.000526  -0.022675  -0.004501   0.037722  -0.006498
     2  C   -0.007606   0.000459  -0.136290  -0.038564   0.503915  -0.051554
     3  C   -0.011436   0.000368  -0.003475   0.007718   0.026999   0.135959
     4  C    0.000573   0.000118  -0.010441  -0.039049  -0.035500   0.015470
     5  O   -0.009432   0.008454   0.000056   0.000579  -0.001068  -0.040424
     6  C   -0.081444  -0.034283   0.000249  -0.000100  -0.009704  -0.000117
     7  C    0.000884  -0.000758   0.020800   0.004258  -0.043733   0.005247
     8  C   -0.008263  -0.059353   0.003069  -0.004436   0.034137  -0.135078
     9  C    0.004539   0.001403  -0.000660   0.005489  -0.007126   0.368955
    10  C    0.472270   0.454093   0.001155  -0.001869  -0.005287   0.036283
    11  O    0.000161   0.000748  -0.004710   0.009915  -0.080970  -0.001140
    12  O   -0.000192  -0.001467   0.008984   0.001730  -0.029080  -0.014664
    13  C    0.001257  -0.000226   0.528597   0.422749  -0.142380   0.014813
    14  H    0.000002   0.000004  -0.001397  -0.001542   0.001298  -0.000332
    15  H    0.000012  -0.000018  -0.003053   0.001683   0.002056  -0.000002
    16  H    0.000788  -0.000984  -0.000216   0.001725  -0.006008   0.012180
    17  H    0.000003   0.000007  -0.003165  -0.010179   0.001559   0.000412
    18  H   -0.000007  -0.000030   0.003103  -0.002794  -0.004568   0.000258
    19  H   -0.004111  -0.009425   0.000025  -0.000010  -0.000450  -0.003703
    20  H    0.001512   0.006035  -0.000040   0.000002   0.000044   0.005451
    21  H    0.000001  -0.000046  -0.000525  -0.000931   0.000594  -0.000375
    22  H    0.000025  -0.000022   0.000042   0.001172   0.000468  -0.000068
    23  H    0.005038  -0.005435  -0.000124   0.000573  -0.009434   0.002556
    24  H   -0.006653  -0.012127  -0.000361   0.000035   0.005332  -0.001752
    25  H    0.477667  -0.010807  -0.000057   0.000088   0.000745  -0.001921
    26  H   -0.010807   0.493806   0.000052  -0.000066  -0.000443  -0.001207
    27  H   -0.000057   0.000052   0.456837  -0.005244  -0.020234   0.000997
    28  H    0.000088  -0.000066  -0.005244   0.489661  -0.004886  -0.000307
    29  H    0.000745  -0.000443  -0.020234  -0.004886   0.511222  -0.035936
    30  H   -0.001921  -0.001207   0.000997  -0.000307  -0.035936   0.541882
    31  H   -0.000935   0.001702   0.000299  -0.005713   0.004285  -0.036728
              31
     1  C    0.003182
     2  C    0.037944
     3  C   -0.121405
     4  C   -0.005326
     5  O   -0.071324
     6  C   -0.002731
     7  C   -0.002711
     8  C    0.026766
     9  C    0.491205
    10  C    0.005393
    11  O   -0.000432
    12  O    0.013666
    13  C   -0.013649
    14  H    0.000023
    15  H    0.000012
    16  H   -0.011242
    17  H   -0.000265
    18  H   -0.000174
    19  H    0.003716
    20  H   -0.003238
    21  H    0.000235
    22  H    0.000087
    23  H   -0.002364
    24  H   -0.000515
    25  H   -0.000935
    26  H    0.001702
    27  H    0.000299
    28  H   -0.005713
    29  H    0.004285
    30  H   -0.036728
    31  H    0.485547
 Mulliken charges:
               1
     1  C   -0.416424
     2  C   -0.072186
     3  C   -0.266502
     4  C   -0.277955
     5  O   -0.336607
     6  C   -0.184781
     7  C   -0.118977
     8  C   -0.110460
     9  C   -0.244519
    10  C   -0.500251
    11  O   -0.251707
    12  O   -0.290133
    13  C   -0.401718
    14  H    0.166474
    15  H    0.171409
    16  H    0.261243
    17  H    0.183932
    18  H    0.176923
    19  H    0.220072
    20  H    0.140348
    21  H    0.151060
    22  H    0.199717
    23  H    0.209685
    24  H    0.181451
    25  H    0.177302
    26  H    0.168920
    27  H    0.188404
    28  H    0.172813
    29  H    0.306431
    30  H    0.191345
    31  H    0.204690
 Sum of Mulliken charges =  -0.00000
 Mulliken charges with hydrogens summed into heavy atoms:
               1
     1  C   -0.078541
     2  C    0.234245
     3  C   -0.005259
     4  C    0.082900
     5  O   -0.336607
     6  C    0.175640
     7  C    0.231800
     8  C    0.280675
     9  C    0.151516
    10  C   -0.154029
    11  O   -0.251707
    12  O   -0.290133
    13  C   -0.040502
 Electronic spatial extent (au):  <R**2>=           3064.6641
 Charge=              0.0000 electrons
 Dipole moment (field-independent basis, Debye):
    X=             -0.9127    Y=              0.7439    Z=              0.5086  Tot=              1.2826
 Quadrupole moment (field-independent basis, Debye-Ang):
   XX=            -76.4746   YY=            -79.6001   ZZ=            -81.2095
   XY=              6.9621   XZ=              3.1685   YZ=             -3.3887
 Traceless Quadrupole moment (field-independent basis, Debye-Ang):
   XX=              2.6202   YY=             -0.5054   ZZ=             -2.1148
   XY=              6.9621   XZ=              3.1685   YZ=             -3.3887
 Octapole moment (field-independent basis, Debye-Ang**2):
  XXX=            -20.4561  YYY=              1.2594  ZZZ=             -0.7330  XYY=             -9.0249
  XXY=             29.1494  XXZ=              5.5092  XZZ=              6.3442  YZZ=             -2.2761
  YYZ=             -0.8322  XYZ=              2.3951
 Hexadecapole moment (field-independent basis, Debye-Ang**3):
 XXXX=          -3121.8719 YYYY=           -621.0401 ZZZZ=           -251.0023 XXXY=             76.2928
 XXXZ=             30.2505 YYYX=            -10.7070 YYYZ=              6.4304 ZZZX=             -1.8842
 ZZZY=             -4.2906 XXYY=           -652.9367 XXZZ=           -575.9354 YYZZ=           -150.6198
 XXYZ=             -8.4884 YYXZ=              0.2910 ZZXY=             -1.4612
 N-N= 8.949412885641D+02 E-N=-3.231674479795D+03  KE= 6.153383925075D+02
 D1PCM: PCM CHGder 1st derivatives, ID1Alg=3 FixD1E=F DoIter=F DoCFld=F I1PDM=0.
 Calling FoFJK, ICntrl=      2127 FMM=F ISym2X=0 I1Cent= 0 IOpClX= 0 NMat=1 NMatS=1 NMatT=0.
 ***** Axes restored to original set *****
 -------------------------------------------------------------------
 Center     Atomic                   Forces (Hartrees/Bohr)
 Number     Number              X              Y              Z
 -------------------------------------------------------------------
      1        6           0.002067061   -0.000589385   -0.001714971
      2        6          -0.004343118    0.004649009   -0.005486219
      3        6          -0.003262421    0.003987048    0.005671030
      4        6           0.001788149    0.002220772    0.002792484
      5        8           0.005578171   -0.006386414   -0.003936653
      6        6          -0.005682133    0.001409072   -0.003735629
      7        6          -0.001322320   -0.006631664    0.000294796
      8        6           0.003819572   -0.004116756    0.000415109
      9        6           0.002566174    0.006633966   -0.003431815
     10        6          -0.001349301   -0.000740251    0.002506604
     11        8           0.003354180    0.005267382    0.009481351
     12        8          -0.004286868   -0.006926600   -0.009032013
     13        6          -0.000217059    0.001108656   -0.002205651
     14        1          -0.000941888   -0.000282363    0.003190727
     15        1          -0.002002146    0.000796380   -0.001898370
     16        1           0.002736959   -0.000617197   -0.005314214
     17        1          -0.001998746   -0.001629776    0.000099141
     18        1           0.002218074    0.000538159   -0.002832243
     19        1           0.004310754   -0.000052561   -0.000715853
     20        1          -0.001480145    0.001280549    0.005908164
     21        1           0.002166896    0.000032778   -0.005876810
     22        1          -0.001225346    0.003844831    0.001863757
     23        1          -0.002236360   -0.000418729    0.004274091
     24        1          -0.002056465    0.001888384   -0.001670298
     25        1           0.000796557   -0.000665685   -0.003105447
     26        1           0.000863008    0.002750329    0.001020778
     27        1          -0.001471958    0.000102440    0.003150873
     28        1           0.001407144   -0.002706267   -0.001262245
     29        1           0.004868942   -0.001732311    0.006890440
     30        1          -0.002770794    0.001058269    0.006660185
     31        1          -0.001894575   -0.004072065   -0.002001100
 -------------------------------------------------------------------
 Cartesian Forces:  Max     0.009481351 RMS     0.003502301

 GradGradGradGradGradGradGradGradGradGradGradGradGradGradGradGradGradGrad
 Berny optimization.
 FormGI is forming the generalized inverse of G from B-inverse, IUseBI=4.
 Internal  Forces:  Max     0.014925690 RMS     0.002198152
 Search for a local minimum.
 Step number   1 out of a maximum of  186
 All quantities printed in internal units (Hartrees-Bohrs-Radians)
 Mixed Optimization -- RFO/linear search
 Second derivative matrix not updated -- first step.
 ITU=  0
     Eigenvalues ---    0.00626   0.00634   0.00720   0.00723   0.01409
     Eigenvalues ---    0.01440   0.01680   0.02614   0.02703   0.03075
     Eigenvalues ---    0.03127   0.03802   0.04095   0.04593   0.04746
     Eigenvalues ---    0.04856   0.04892   0.05137   0.05162   0.05223
     Eigenvalues ---    0.05257   0.05688   0.05713   0.06111   0.06170
     Eigenvalues ---    0.06345   0.06554   0.07001   0.07608   0.07749
     Eigenvalues ---    0.07846   0.07956   0.07993   0.08042   0.08232
     Eigenvalues ---    0.08832   0.09255   0.09523   0.10719   0.11576
     Eigenvalues ---    0.11602   0.11706   0.11765   0.12400   0.12524
     Eigenvalues ---    0.14694   0.14959   0.16469   0.16545   0.18058
     Eigenvalues ---    0.19120   0.21505   0.21948   0.25000   0.28310
     Eigenvalues ---    0.28599   0.28638   0.28852   0.28939   0.29144
     Eigenvalues ---    0.30042   0.30298   0.35088   0.35091   0.35151
     Eigenvalues ---    0.35187   0.35192   0.35216   0.35240   0.35294
     Eigenvalues ---    0.35319   0.35373   0.35394   0.35425   0.35443
     Eigenvalues ---    0.35606   0.35807   0.35834   0.35841   0.36371
     Eigenvalues ---    0.40878   0.41345   0.42141   0.42630   0.43209
     Eigenvalues ---    0.454741000.000001000.000001000.000001000.00000
     Eigenvalues --- 1000.000001000.000001000.000001000.000001000.00000
     Eigenvalues --- 1000.000001000.000001000.000001000.000001000.00000
     Eigenvalues --- 1000.000001000.000001000.000001000.000001000.00000
     Eigenvalues --- 1000.000001000.000001000.000001000.000001000.00000
     Eigenvalues --- 1000.000001000.000001000.000001000.000001000.00000
     Eigenvalues --- 1000.000001000.000001000.000001000.000001000.00000
     Eigenvalues --- 1000.000001000.000001000.000001000.000001000.00000
     Eigenvalues --- 1000.000001000.000001000.000001000.000001000.00000
     Eigenvalues --- 1000.000001000.000001000.000001000.000001000.00000
     Eigenvalues --- 1000.000001000.000001000.000001000.000001000.00000
     Eigenvalues --- 1000.000001000.000001000.000001000.000001000.00000
     Eigenvalues --- 1000.000001000.000001000.000001000.000001000.00000
     Eigenvalues --- 1000.000001000.000001000.000001000.000001000.00000
     Eigenvalues --- 1000.000001000.000001000.000001000.000001000.00000
     Eigenvalues --- 1000.000001000.000001000.000001000.000001000.00000
     Eigenvalues --- 1000.000001000.000001000.000001000.000001000.00000
     Eigenvalues --- 1000.000001000.000001000.000001000.000001000.00000
     Eigenvalues --- 1000.000001000.000001000.000001000.000001000.00000
     Eigenvalues --- 1000.000001000.000001000.000001000.000001000.00000
 RFO step:  Lambda=-3.59595302D-03 EMin= 6.26093222D-03
 Linear search not attempted -- first point.
 Iteration  1 RMS(Cart)=  0.06074625 RMS(Int)=  0.00073536
 Iteration  2 RMS(Cart)=  0.00220046 RMS(Int)=  0.00005070
 Iteration  3 RMS(Cart)=  0.00000149 RMS(Int)=  0.00005069
 Iteration  4 RMS(Cart)=  0.00000000 RMS(Int)=  0.00005069
 Iteration  1 RMS(Cart)=  0.00001110 RMS(Int)=  0.00000265
 Iteration  2 RMS(Cart)=  0.00000615 RMS(Int)=  0.00000296
 Iteration  3 RMS(Cart)=  0.00000341 RMS(Int)=  0.00000335
 Iteration  4 RMS(Cart)=  0.00000189 RMS(Int)=  0.00000361
 Iteration  5 RMS(Cart)=  0.00000105 RMS(Int)=  0.00000377
 Iteration  6 RMS(Cart)=  0.00000058 RMS(Int)=  0.00000386
 Variable       Old X    -DE/DX   Delta X   Delta X   Delta X     New X
                                 (Linear)    (Quad)   (Total)
    R1        2.88871  -0.00086   0.00000  -0.00227  -0.00229   2.88643
    R2        2.87149   0.00018   0.00000   0.00110   0.00113   2.87262
    R3        2.05527   0.00326   0.00000   0.00921   0.00921   2.06448
    R4        2.05288   0.00285   0.00000   0.00800   0.00800   2.06088
    R5        2.65599   0.00361   0.00000   0.00762   0.00763   2.66363
    R6        2.64729   0.00315   0.00000   0.00687   0.00687   2.65416
    R7        2.87616  -0.00038   0.00000  -0.00180  -0.00183   2.87433
    R8        2.03505   0.00859   0.00000   0.02339   0.02339   2.05844
    R9        2.88119  -0.00172   0.00000  -0.00603  -0.00604   2.87515
   R10        2.88704  -0.00028   0.00000  -0.00111  -0.00109   2.88595
   R11        2.68128   0.00020   0.00000   0.00045   0.00045   2.68174
   R12        2.04703   0.00586   0.00000   0.01628   0.01628   2.06331
   R13        2.88998  -0.00150   0.00000  -0.00503  -0.00503   2.88495
   R14        2.05160   0.00258   0.00000   0.00723   0.00723   2.05883
   R15        2.05372   0.00344   0.00000   0.00968   0.00968   2.06341
   R16        2.67776   0.00346   0.00000   0.00822   0.00824   2.68600
   R17        2.66852   0.00339   0.00000   0.00777   0.00779   2.67631
   R18        2.87336   0.00021   0.00000   0.00089   0.00087   2.87424
   R19        2.04342   0.00437   0.00000   0.01207   0.01207   2.05549
   R20        2.05532   0.00611   0.00000   0.01724   0.01724   2.07256
   R21        2.68601   0.00282   0.00000   0.00658   0.00659   2.69260
   R22        2.04990   0.00617   0.00000   0.01723   0.01723   2.06713
   R23        2.04330   0.00444   0.00000   0.01227   0.01227   2.05557
   R24        2.89499  -0.00046   0.00000  -0.00165  -0.00167   2.89332
   R25        2.05325   0.00464   0.00000   0.01303   0.01303   2.06628
   R26        2.05074   0.00316   0.00000   0.00883   0.00883   2.05957
   R27        2.05040   0.00709   0.00000   0.01982   0.01982   2.07022
   R28        2.04385   0.00485   0.00000   0.01342   0.01342   2.05727
   R29        2.05430   0.00319   0.00000   0.00899   0.00899   2.06329
   R30        2.05200   0.00304   0.00000   0.00853   0.00853   2.06053
   R31        2.05364   0.00343   0.00000   0.00965   0.00965   2.06328
   R32        2.04962   0.00328   0.00000   0.00916   0.00916   2.05878
    A1        1.92255  -0.00097   0.00000  -0.00521  -0.00542   1.91713
    A2        1.91594   0.00085   0.00000   0.00127   0.00135   1.91729
    A3        1.93949  -0.00050   0.00000  -0.00176  -0.00172   1.93776
    A4        1.90606   0.00007   0.00000  -0.00110  -0.00104   1.90502
    A5        1.90318   0.00058   0.00000   0.00357   0.00361   1.90679
    A6        1.87578   0.00000   0.00000   0.00346   0.00343   1.87922
    A7        1.93342   0.00066   0.00000   0.00163   0.00179   1.93521
    A8        1.93784   0.00320   0.00000   0.01231   0.01211   1.94996
    A9        1.82761  -0.00220   0.00000  -0.01013  -0.01013   1.81749
   A10        1.90270  -0.00313   0.00000  -0.01444  -0.01437   1.88833
   A11        1.93182   0.00152   0.00000   0.00860   0.00858   1.94040
   A12        1.92997   0.00010   0.00000   0.00277   0.00284   1.93281
   A13        1.93705  -0.00101   0.00000  -0.00650  -0.00658   1.93047
   A14        1.99073  -0.00173   0.00000  -0.01388  -0.01393   1.97680
   A15        1.88729   0.00176   0.00000   0.00496   0.00503   1.89232
   A16        1.97173   0.00092   0.00000   0.00013  -0.00004   1.97169
   A17        1.86346  -0.00069   0.00000   0.00113   0.00112   1.86458
   A18        1.80206   0.00104   0.00000   0.01737   0.01740   1.81946
   A19        1.91287   0.00184   0.00000  -0.00208  -0.00209   1.91078
   A20        1.93062  -0.00027   0.00000   0.00218   0.00225   1.93287
   A21        1.91450  -0.00078   0.00000  -0.00141  -0.00150   1.91300
   A22        1.91625  -0.00053   0.00000   0.00166   0.00165   1.91791
   A23        1.92228  -0.00095   0.00000  -0.00612  -0.00612   1.91616
   A24        1.86694   0.00062   0.00000   0.00588   0.00588   1.87282
   A25        1.97730  -0.00494   0.00000  -0.02697  -0.02691   1.95038
   A26        1.93634   0.00208   0.00000   0.00868   0.00871   1.94505
   A27        1.85479  -0.00121   0.00000  -0.00369  -0.00369   1.85110
   A28        1.90191   0.00056   0.00000   0.00684   0.00686   1.90877
   A29        1.94471  -0.00021   0.00000  -0.00255  -0.00256   1.94215
   A30        1.93166  -0.00175   0.00000  -0.00979  -0.00983   1.92184
   A31        1.89209   0.00056   0.00000   0.00089   0.00086   1.89295
   A32        1.94567   0.00233   0.00000   0.00635   0.00631   1.95198
   A33        1.93153  -0.00160   0.00000  -0.00746  -0.00751   1.92403
   A34        1.94576  -0.00031   0.00000  -0.00213  -0.00207   1.94369
   A35        1.90903   0.00015   0.00000   0.00164   0.00169   1.91072
   A36        1.84219  -0.00131   0.00000  -0.00224  -0.00225   1.83994
   A37        1.88667   0.00074   0.00000   0.00417   0.00416   1.89083
   A38        1.90489   0.00156   0.00000   0.00027   0.00026   1.90516
   A39        1.91809  -0.00135   0.00000  -0.01110  -0.01110   1.90700
   A40        1.91744  -0.00077   0.00000  -0.00385  -0.00386   1.91359
   A41        1.90908   0.00011   0.00000   0.00698   0.00697   1.91605
   A42        1.93528   0.00014   0.00000   0.00720   0.00719   1.94248
   A43        1.87894   0.00027   0.00000   0.00036   0.00028   1.87922
   A44        1.90692   0.00224   0.00000   0.01096   0.01103   1.91795
   A45        1.95659  -0.00203   0.00000  -0.01520  -0.01525   1.94135
   A46        1.92928  -0.00098   0.00000  -0.00683  -0.00693   1.92234
   A47        1.90257   0.00065   0.00000   0.00749   0.00753   1.91010
   A48        1.86835  -0.00059   0.00000   0.00395   0.00396   1.87231
   A49        1.89786   0.00078   0.00000   0.00064   0.00051   1.89837
   A50        1.92967  -0.00096   0.00000  -0.00603  -0.00608   1.92360
   A51        1.90290  -0.00006   0.00000  -0.00297  -0.00297   1.89993
   A52        1.90815   0.00061   0.00000   0.00481   0.00483   1.91298
   A53        1.91897   0.00067   0.00000   0.00042   0.00041   1.91938
   A54        1.92835  -0.00020   0.00000   0.00094   0.00095   1.92931
   A55        1.87480  -0.00003   0.00000   0.00307   0.00307   1.87787
   A56        2.02453  -0.00565   0.00000  -0.03625  -0.03616   1.98836
   A57        2.10880  -0.01493   0.00000  -0.05886  -0.05886   2.04995
   A58        1.95382  -0.00170   0.00000  -0.01592  -0.01606   1.93776
   A59        1.87379   0.00022   0.00000   0.00515   0.00515   1.87894
   A60        1.90007   0.00067   0.00000  -0.00098  -0.00096   1.89911
   A61        1.90917   0.00113   0.00000   0.00712   0.00722   1.91639
   A62        1.94743  -0.00023   0.00000  -0.00118  -0.00129   1.94614
   A63        1.87652  -0.00001   0.00000   0.00696   0.00693   1.88345
    D1        0.92369  -0.00008   0.00000   0.00974   0.00975   0.93343
    D2        3.03900   0.00030   0.00000   0.01185   0.01188   3.05088
    D3       -1.18884   0.00042   0.00000   0.01951   0.01954  -1.16930
    D4       -1.17579  -0.00010   0.00000   0.01358   0.01358  -1.16221
    D5        0.93952   0.00028   0.00000   0.01570   0.01572   0.95524
    D6        2.99487   0.00041   0.00000   0.02335   0.02338   3.01825
    D7        3.03481  -0.00033   0.00000   0.00957   0.00954   3.04434
[...]
 016724,0.06861101,-0.01256400,-0.28867721,0.00019783,-0.00000337,-0.00
 003602,0.00021031,0.00025114,0.00020748,-0.00000084,0.00000246,0.00000
 522,0.00000427,0.00000335,-0.00000160,0.00000803,0.00000101,0.00000404
 ,0.00009769,0.00051465,0.00011997,0.00000592,0.00000159,0.00000259,-0.
 00000235,0.00000008,-0.00000120,-0.00022538,-0.00014015,0.00082562,-0.
 00195652,0.00283543,-0.00067035,-0.00001072,0.00000148,-0.00001076,0.0
 0000740,-0.00000698,-0.00000184,0.00022368,-0.00008439,0.00123085,0.00
 042533,0.00004477,0.00056819,-0.07427020,0.01245882,0.31478990,0.00000
 076,0.00000246,-0.00001736,0.00066505,-0.00028199,-0.00121952,-0.00512
 736,0.00325765,0.00172167,0.00001245,-0.00003070,0.00002372,-0.0000474
 6,0.00520351,-0.00209822,0.00462190,0.01232926,0.00827262,0.00013558,-
 0.00008014,0.00006226,-0.00901418,-0.03227165,-0.01159864,-0.00129648,
 0.00028739,-0.00023286,-0.06253388,-0.05996408,-0.02461446,-0.00019597
 ,0.00035299,0.00016563,-0.00241852,-0.00295598,0.00008835,-0.00007910,
 0.00005760,0.00020101,-0.00000657,-0.00000250,0.00000776,-0.00001752,0
 .00000669,-0.00000639,0.00005512,0.00019824,-0.00015518,-0.00002861,0.
 00000266,-0.00000872,0.00001404,0.00000285,0.00001551,0.00006808,-0.00
 085383,0.00056436,0.00052449,-0.00054253,-0.00001845,0.00000923,-0.000
 02156,0.00000349,-0.00002399,0.00002216,0.00000516,0.00151306,0.000425
 88,0.00034686,0.00139028,0.00067264,-0.00038509,0.00154868,0.00825627,
 0.00235291,0.06987921,-0.00000041,0.00000350,-0.00000388,0.00027491,-0
 .00007593,-0.00036505,0.00006711,0.00191342,0.00058083,-0.00000251,-0.
 00001589,0.00000962,0.00204188,-0.00623101,0.00317717,-0.00820939,-0.0
 1777172,-0.01099713,0.00007440,-0.00004708,0.00003244,-0.00092839,-0.0
 0189368,-0.00052350,0.00163672,0.00090891,-0.00041416,-0.06004580,-0.2
 6551013,-0.08382875,-0.00017188,0.00011181,0.00005956,-0.00039719,-0.0
 0029736,0.00011582,-0.00001493,0.00002902,0.00004455,-0.00000576,-0.00
 000339,0.00000361,-0.00000929,0.00000208,-0.00000437,0.00008661,0.0000
 2239,-0.00003991,-0.00001391,0.00000061,-0.00000539,0.00000451,0.00000
 141,0.00000602,0.00040822,0.00052651,-0.00017277,-0.00030699,0.0008189
 2,0.00038727,0.00001045,-0.00000616,0.00000991,-0.00001195,0.00001171,
 0.00000135,-0.00015700,0.00021814,0.00020411,-0.00038858,0.00035721,0.
 00001954,0.00045302,-0.00034769,-0.00053766,0.06602155,0.28738674,-0.0
 0000164,0.00000258,-0.00000320,-0.00004255,-0.00005311,-0.00006383,0.0
 0050048,-0.00019077,0.00037682,0.00000191,-0.00000120,0.00000281,-0.00
 149956,0.00492989,-0.00041899,0.00649521,0.01429901,0.00613210,0.00002
 282,-0.00002019,0.00001068,0.00173877,0.00391080,0.00016312,-0.0009012
 0,-0.00025066,-0.00007735,-0.02495625,-0.08596670,-0.08238186,-0.00006
 369,-0.00001277,0.00000550,0.00005219,0.00006982,0.00046503,-0.0000084
 9,0.00000446,0.00003461,-0.00000125,-0.00000121,0.00000025,-0.00000307
 ,-0.00000008,-0.00000140,-0.00007331,0.00046073,0.00028001,-0.00000176
 ,-0.00000040,-0.00000137,-0.00000019,0.00000111,-0.00000094,-0.0000284
 0,-0.00061402,0.00044920,0.00062379,-0.00082561,0.00033067,0.00000030,
 -0.00000038,0.00000146,-0.00000161,0.00000289,0.00000103,-0.00037215,0
 .00030697,0.00041840,-0.00015582,-0.00025720,-0.00013995,-0.00785068,-
 0.02786895,-0.00988729,0.02632708,0.09215357,0.08432689,0.00090212,-0.
 00087560,-0.00008538,-0.01021212,-0.00025731,0.02557739,0.00152770,-0.
 00049679,0.00116055,0.00948549,0.00349744,-0.02145952,-0.00029022,0.00
 002596,-0.00013111,0.00005159,0.00007295,0.00009797,-0.00023490,-0.000
 01227,-0.00005673,-0.00048141,0.00009892,0.00011029,0.00017003,-0.0001
 9121,0.00016379,0.00005343,-0.00021506,-0.00012112,0.00146821,0.001047
 59,-0.00095251,-0.00852562,-0.00387575,0.00071955,-0.09845038,-0.01591
 495,0.10199131,-0.00018237,-0.00006147,0.00040607,-0.00010623,-0.00030
 360,0.00011674,-0.00051865,-0.00008838,0.00007061,0.00108144,-0.000695
 99,0.00065111,-0.00234269,0.00278593,-0.00299513,-0.00002702,-0.000002
 71,-0.00001198,0.00000612,-0.00000846,-0.00002087,-0.00006056,0.000052
 04,-0.00001804,0.00006998,-0.00000176,0.00000461,0.00000296,-0.0000186
 8,-0.00003075,0.00002054,-0.00000371,0.00001026,0.00000465,0.00000874,
 0.00000648,-0.00010289,-0.00003083,-0.00001093,0.11014207,-0.00091400,
 0.00056527,0.00071649,-0.00653378,-0.00357540,0.01701597,0.00031710,0.
 00016053,0.00074922,-0.00634216,-0.00257001,0.01325805,-0.00012409,0.0
 0003322,-0.00006679,0.00002315,0.00003209,0.00003458,-0.00004547,-0.00
 019378,0.00017581,-0.00003733,0.00004762,0.00002645,0.00002577,-0.0001
 3060,0.00010560,0.00001762,-0.00005281,-0.00003350,0.00034349,0.000870
 51,-0.00052982,-0.00420965,-0.00086583,-0.00017848,-0.01349872,-0.0539
 6134,0.02543861,0.00028496,-0.00017849,-0.00016211,0.00010620,0.000153
 37,-0.00019401,-0.00029271,-0.00004296,0.00003179,-0.00006588,0.000524
 18,-0.00069879,0.00182229,-0.00058691,0.00187140,-0.00000917,-0.000002
 29,-0.00000383,0.00000130,-0.00000403,-0.00000720,0.00004807,0.0000829
 4,-0.00005979,-0.00001553,-0.00001605,-0.00001553,0.00000053,-0.000012
 78,-0.00001519,0.00000172,-0.00000976,0.00000144,0.00000450,0.00000264
 ,-0.00000033,-0.00002831,-0.00000901,-0.00000567,0.01578447,0.05394965
 ,0.00061906,-0.00087826,0.00079000,-0.00264376,-0.00181327,0.00239174,
 -0.00051195,-0.00008652,0.00033863,0.00810686,0.00283888,-0.02057674,0
 .00005387,-0.00000403,0.00000876,-0.00000521,-0.00001243,-0.00001154,-
 0.00026286,0.00018323,-0.00007302,0.00008228,0.00000715,-0.00000191,0.
 00001994,0.00003800,-0.00002417,-0.00001558,0.00002468,0.00001031,-0.0
 0047078,0.00031565,0.00063763,-0.00056547,-0.00070659,0.00118731,0.105
 52313,0.02812624,-0.25579571,-0.00011500,0.00064518,0.00042936,-0.0002
 7094,-0.00010733,0.00025897,-0.00004568,0.00000532,-0.00000952,0.00001
 686,-0.00049072,0.00078718,-0.00325468,0.00219149,-0.00145462,0.000003
 48,0.00000067,0.00000170,-0.00000114,0.00000111,0.00000306,-0.00003899
 ,-0.00006099,-0.00002225,0.00007245,0.00005040,0.00003246,-0.00000421,
 -0.00000883,0.00000043,-0.00000489,-0.00000067,-0.00000101,0.00000316,
 -0.00000158,-0.00000412,0.00001120,0.00000193,-0.00000208,-0.11090802,
 -0.03182289,0.27952500,-0.00240733,0.00140552,-0.00410592,0.00879656,-
 0.02295890,-0.00808750,0.00004887,0.00020079,-0.00011649,-0.00527059,0
 .01872890,0.00903045,0.00000710,0.00002578,0.00002145,0.00000092,-0.00
 001771,-0.00000302,-0.00155640,0.00061322,-0.00108920,0.00004247,0.000
 00902,-0.00003929,-0.00001149,-0.00004580,-0.00005107,0.00000888,0.000
 03005,0.00002655,-0.00355595,-0.00764278,-0.00126288,0.00110749,0.0000
 2915,-0.00054651,-0.06829323,0.06635592,0.02656983,0.00007180,-0.00042
 433,-0.00011479,0.00002710,0.00160733,0.00025354,0.00001590,0.00001163
 ,0.00000704,0.00035503,-0.00053954,0.00071116,0.00088931,-0.00061158,-
 0.00001544,-0.00000117,0.00000506,-0.00000004,0.00000036,0.00000030,0.
 00000021,0.00013725,-0.00005214,0.00015374,0.00027039,-0.00004925,0.00
 017047,0.00003426,0.00001028,0.00003615,0.00000567,0.00000053,-0.00000
 824,-0.00001342,-0.00000008,0.00000420,0.00000557,0.00000053,0.0000004
 2,-0.00401852,0.01284507,0.00422930,0.07257262,0.00191768,0.00050135,0
 .00282439,0.00789695,-0.01628253,-0.00609746,-0.00026498,0.00036783,0.
 00010417,0.00304967,-0.01169738,-0.00445141,-0.00000405,0.00001062,0.0
 0002392,-0.00000521,-0.00001036,0.00000024,-0.00035750,0.00131789,-0.0
 0085503,0.00014345,-0.00001517,-0.00006663,-0.00006615,-0.00004816,-0.
 00005366,0.00000404,0.00007009,0.00005024,-0.00358584,-0.00371284,-0.0
 0107057,0.00098762,0.00171992,-0.00000500,0.06261137,-0.26520521,-0.08
 389436,0.00003450,0.00004896,-0.00013741,0.00003439,-0.00079847,-0.000
 42277,-0.00004684,-0.00000137,0.00000066,0.00013659,0.00053347,0.00008
 346,-0.00034957,0.00032964,0.00003756,-0.00000214,0.00000294,-0.000001
 19,0.00000177,0.00000010,0.00000046,0.00000879,-0.00007894,0.00015728,
 0.00003776,-0.00008664,0.00001168,0.00004383,0.00002621,0.00005476,0.0
 0000686,0.00000412,-0.00001988,-0.00001885,-0.00000098,0.00000347,0.00
 001796,0.00000107,-0.00000178,-0.00109017,0.00519755,0.00119299,-0.070
 69605,0.28742611,-0.00297178,0.00138266,-0.00286960,0.00366751,-0.0025
 6843,-0.00368064,-0.00010670,0.00012142,0.00006337,-0.00522256,0.02123
 470,0.00815621,-0.00001269,0.00000594,-0.00000099,0.00000242,-0.000001
 71,0.00000279,-0.00067809,0.00018250,-0.00058660,0.00001778,-0.0000006
 0,-0.00003531,-0.00001171,-0.00003421,-0.00001249,-0.00000188,0.000013
 71,0.00002213,-0.00133502,-0.00206973,0.00096254,0.00052908,0.00096001
 ,0.00027043,0.02478920,-0.08671044,-0.08101922,-0.00014733,0.00020322,
 0.00021992,-0.00033220,0.00117089,0.00044333,-0.00003590,-0.00000399,-
 0.00000022,0.00056242,-0.00077556,0.00067384,0.00088869,-0.00038394,0.
 00090376,-0.00000200,0.00000132,-0.00000114,0.00000098,-0.00000050,-0.
 00000130,0.00008715,-0.00005315,0.00009832,0.00012183,-0.00006458,0.00
 009891,0.00001337,0.00000994,0.00002398,0.00000369,0.00000004,-0.00000
 515,-0.00000705,-0.00000229,0.00000065,0.00000327,-0.00000156,-0.00000
 228,0.00592968,-0.02526874,-0.00909050,-0.02575852,0.09244449,0.085360
 25,0.00046465,-0.00032854,0.00006455,-0.14319808,0.05568542,-0.1149858
 7,0.00287266,-0.00079070,0.00033586,-0.00261632,-0.00445382,0.00058534
 ,0.00031300,-0.00022664,0.00042860,-0.00003653,-0.00011583,0.00001249,
 0.00185889,0.00025559,0.00150386,-0.00034304,0.00001571,0.00003463,-0.
 00204842,0.00048366,-0.00080270,-0.00002875,-0.00008307,-0.00006579,-0
 .00395675,0.00924586,-0.00472303,0.00949030,-0.00712799,0.02273863,-0.
 01521471,0.00909948,-0.01903913,-0.00005842,0.00004646,0.00010849,0.00
 000362,0.00009711,0.00001094,-0.00001811,0.00014720,-0.00026702,-0.001
 05071,0.00076775,-0.00098414,0.00007162,0.00001013,-0.00017924,0.00001
 532,0.00002287,-0.00000193,0.00000761,0.00001630,-0.00001149,-0.000162
 58,0.00014993,-0.00016859,-0.00020497,0.00026442,-0.00024509,0.0000774
 5,-0.00000866,-0.00013489,0.00003902,0.00007287,0.00001170,0.00002149,
 0.00000618,0.00000026,-0.00001969,0.00000326,-0.00000427,0.00059815,0.
 00049603,0.00039106,0.00071111,-0.00041496,0.00002666,0.15660612,0.000
 12746,-0.00066874,0.00019889,0.04751671,-0.08213185,0.06736399,0.00054
 821,-0.00038385,0.00071921,-0.00285271,-0.00258949,0.00012667,0.000334
 32,0.00006548,-0.00040716,-0.00007805,-0.00010741,-0.00002967,-0.00134
 420,-0.00320259,-0.00489525,-0.00006700,-0.00003243,0.00010538,0.00032
 027,0.00046959,0.00062294,-0.00003228,0.00002859,-0.00004953,0.0288744
 4,-0.03022313,0.02267257,-0.00044229,0.00481023,0.00196175,-0.01168268
 ,0.00976235,-0.01323375,0.00003687,0.00010862,0.00000543,0.00021868,0.
 00033271,0.00010193,-0.00007127,-0.00003056,-0.00008786,-0.00088166,0.
 00059542,-0.00073936,0.00013177,-0.00003588,-0.00007636,0.00000888,0.0
 0000248,-0.00000905,-0.00001496,0.00000156,0.00000303,0.00000357,-0.00
 012430,0.00033397,0.00112487,-0.00096767,0.00105975,-0.00000712,-0.000
 22432,-0.00001782,0.00004511,0.00003243,-0.00007857,0.00002505,0.00000
 135,-0.00000184,0.00000214,0.00001043,-0.00000286,0.00071931,0.0005795
 6,0.00036612,0.00109412,0.00039573,0.00020316,-0.06435284,0.10347295,0
 .00003316,-0.00014938,-0.00003062,-0.11139215,0.07435138,-0.18806821,-
 0.00489408,-0.00116693,0.00036647,-0.00014971,-0.00057183,0.00106432,-
 0.00044717,-0.00041838,0.00086641,0.00003167,0.00029377,0.00000977,0.0
 0034269,-0.00221492,0.00089484,0.00061198,-0.00004109,-0.00005795,0.00
 066066,0.00011097,-0.00119414,-0.00003929,0.00020907,0.00011800,0.0061
 7959,-0.00648961,0.00980024,-0.00354789,0.01119792,-0.03832335,-0.0026
 0462,0.00123580,-0.00071781,0.00000898,0.00003725,-0.00002152,0.000060
 46,0.00008448,-0.00003675,0.00033953,-0.00009135,0.00013846,-0.0000796
 6,0.00019530,-0.00016327,0.00019649,-0.00004075,0.00013441,-0.00000631
 ,-0.00005418,0.00000396,0.00003568,-0.00001110,-0.00001285,0.00019962,
 -0.00029067,0.00017164,0.00020029,-0.00026407,0.00020457,0.00007194,0.
 00024240,-0.00002667,-0.00006832,-0.00011294,0.00000961,-0.00001596,-0
 .00000825,0.00000223,0.00011082,0.00000751,0.00001367,-0.00014362,-0.0
 0033783,0.00068308,-0.00003409,0.00004203,-0.00000074,0.11455049,-0.07
 561433,0.21257283,0.00000679,-0.00001546,0.00002131,-0.00133570,-0.000
 16392,0.00063715,0.00689308,-0.00202700,-0.01818999,0.00004295,0.00002
 570,-0.00002713,-0.02890203,-0.00290889,0.03873560,0.00203317,0.005041
 15,0.00370862,0.00000430,0.00007810,-0.00007628,0.00028546,-0.00120534
 ,0.00021630,-0.05233720,0.00307559,0.03553824,-0.00028663,-0.00052125,
 -0.00046147,0.00005841,-0.00001327,0.00000428,0.00070641,-0.00065238,0
 .00187616,0.00004183,-0.00010632,0.00009773,-0.00000340,-0.00000105,-0
 .00000003,0.00000820,0.00000153,0.00000251,-0.00197042,0.00285273,-0.0
 0192378,0.00001389,-0.00000552,0.00000850,-0.00000217,0.00000406,-0.00
 000629,0.00006894,0.00009434,-0.00042128,0.00050764,-0.00034185,-0.001
 32557,-0.00000141,-0.00000130,0.00000151,0.00000680,-0.00000546,-0.000
 00390,0.00002217,0.00019788,0.00044815,-0.00013093,-0.00010094,0.00019
 081,-0.00008573,0.00006913,-0.00004737,0.00021963,-0.00021565,0.000057
 09,-0.00002032,-0.00000207,-0.00001152,-0.00001505,-0.00000442,-0.0000
 1224,-0.00444973,0.00077558,-0.00032410,0.07599295,-0.00000764,0.00000
 654,-0.00000891,0.00011951,0.00050983,-0.00053389,-0.00440817,0.002183
 92,0.02225219,-0.00003348,-0.00001235,0.00001949,-0.00414348,0.0022326
 8,0.00454303,-0.00087355,0.00112531,0.00326201,-0.00001567,-0.00004752
 ,0.00002372,-0.00049546,0.00165855,0.00082067,0.00478263,-0.05906015,-
 0.02655609,0.00006116,-0.00032493,-0.00006758,-0.00001286,-0.00012996,
 -0.00000020,0.00020365,0.00025596,-0.00077861,-0.00003981,0.00005234,-
 0.00010310,0.00000130,0.00000112,-0.00000165,-0.00000205,-0.00000232,-
 0.00000141,0.00200859,-0.00215228,0.00252296,-0.00000627,0.00000482,-0
 .00000285,0.00000363,-0.00000591,0.00000324,0.00010387,0.00004700,-0.0
 0003626,0.00025125,0.00039608,-0.00029433,0.00000283,0.00000233,0.0000
 0314,0.00000289,0.00000026,0.00000468,0.00023073,-0.00023050,-0.000375
 36,0.00008875,0.00014812,-0.00035016,0.00000775,0.00001417,-0.00020209
 ,0.00001323,-0.00003271,-0.00004352,0.00002905,0.00000123,0.00000635,0
 .00000859,-0.00000411,0.00000387,0.00084800,0.00032727,-0.00011435,-0.
 00443424,0.05405209,-0.00001239,0.00000160,0.00003506,0.00072579,0.000
 79946,-0.00251251,0.00455672,-0.00282716,-0.01923812,0.00015298,0.0001
 8696,-0.00003794,0.01186675,0.00099543,-0.00259344,-0.00148525,-0.0008
 6018,0.00162639,-0.00006211,-0.00002081,-0.00017403,0.00012442,-0.0012
 0238,0.00077747,0.03896991,-0.02484744,-0.28965358,0.00016121,0.000083
 83,0.00007593,0.00013789,-0.00023259,0.00044513,-0.00182289,0.00011150
 ,0.00112467,0.00007442,-0.00039519,0.00059454,-0.00000020,-0.00000082,
 -0.00000742,0.00001769,-0.00000700,0.00000301,-0.00179376,0.00262637,-
 0.00098757,0.00005993,-0.00003785,0.00005862,-0.00000237,-0.00000777,0
 .00002866,0.00004334,0.00020048,0.00045195,0.00054808,0.00126062,0.000
 04339,0.00000798,-0.00002277,0.00004291,0.00003267,-0.00004238,0.00003
 904,0.00018561,0.00079091,0.00050586,-0.00024714,0.00000534,0.00031431
 ,-0.00011745,-0.00013538,-0.00015820,0.00005866,0.00009118,-0.00001613
 ,-0.00006209,-0.00003021,-0.00001595,0.00001473,0.00003573,0.00000470,
 0.00103451,-0.00062885,0.00165049,-0.05383016,0.02483477,0.31499848,-0
 .00000530,0.00000405,0.00000792,-0.00007263,0.00001616,0.00009734,0.00
 374841,0.01650258,0.00648569,0.00000192,0.00000297,-0.00000062,-0.0168
 0866,-0.04051506,-0.01170306,-0.00544922,0.00211337,0.00267322,0.00001
 961,-0.00002370,-0.00003166,-0.00230212,0.00246522,-0.00278423,-0.0526
 6108,-0.03100254,-0.00921003,-0.00065583,-0.00061044,-0.00027601,-0.00
 000396,-0.00011497,-0.00001331,0.00209916,-0.00058366,0.00031703,-0.00
 001766,0.00000882,0.00005347,-0.00000236,-0.00000227,-0.00000072,-0.00
 000121,-0.00000271,-0.00000189,0.00056328,-0.00082165,0.00009017,0.000
 00306,-0.00000129,0.00000168,0.00000186,0.00000148,-0.00000207,-0.0006
 2272,-0.00180028,-0.00036991,0.00009163,0.00001939,-0.00027746,0.00001
 650,-0.00000004,0.00000694,0.00000471,-0.00000229,0.00000086,-0.000027
 87,-0.00030105,-0.00014432,0.00044764,0.00131879,0.00011872,0.00009603
 ,0.00000897,0.00003674,0.00024908,-0.00017274,0.00015676,-0.00001059,-
 0.00000342,-0.00000196,0.00003452,-0.00002651,-0.00000808,0.00025579,-
 0.00008029,0.00011293,0.00262809,0.00570523,0.00066254,0.06837993,0.00
 000247,-0.00000291,-0.00000095,0.00026480,-0.00016898,-0.00002653,-0.0
 0397419,-0.02089342,-0.00723364,0.00001328,0.00001926,-0.00000937,-0.0
 0624794,-0.00374769,-0.00097466,-0.00015241,0.00272525,0.00136016,-0.0
 0004994,0.00005080,-0.00000871,0.00279575,-0.00099581,0.00359146,-0.04
 108421,-0.28851245,-0.07504722,0.00036899,0.00025624,-0.00022024,0.000
 08917,0.00003226,0.00001033,0.00009865,0.00228204,-0.00047786,0.000069
 98,-0.00004482,-0.00002973,0.00000542,0.00000351,-0.00000233,0.0000078
 2,0.00000056,0.00000364,-0.00031182,0.00091135,0.00010893,0.00001120,-
 0.00000142,0.00000712,-0.00000339,-0.00000151,-0.00000305,-0.00007740,
 -0.00032027,-0.00007844,0.00008585,-0.00001210,-0.00006597,-0.00001685
 ,-0.00000178,-0.00001226,0.00000318,-0.00000840,0.00000069,0.00001465,
 0.00025753,0.00000625,-0.00039060,-0.00133897,-0.00028387,-0.00007844,
 0.00000651,0.00005542,-0.00009987,-0.00008210,-0.00002474,0.00002228,0
 .00001173,-0.00000131,0.00005635,-0.00001143,0.00000156,0.00016881,-0.
 00027454,-0.00001593,0.00051052,-0.00101689,-0.00072542,0.04789788,0.3
 1087846,-0.00000159,0.00000230,0.00000611,-0.00002837,0.00006411,0.000
 18111,0.00261618,0.02004427,0.00559751,0.00002049,0.00002264,0.0000022
 9,0.00205897,0.00625072,0.00273464,0.00035750,0.00026095,0.00007232,-0
 .00000130,0.00001088,-0.00001407,-0.00233144,0.00141210,-0.00173656,-0
 .01383400,-0.07889193,-0.07804162,-0.00010754,-0.00007957,0.00000427,-
 0.00003007,0.00000691,-0.00009463,0.00157314,-0.00141099,0.00041366,0.
 00001298,-0.00008679,0.00008105,-0.00000088,-0.00000148,-0.00000086,0.
 00000093,-0.00000104,0.00000029,0.00066830,-0.00048557,0.00094342,0.00
 000866,-0.00000469,0.00000410,0.00000023,-0.00000024,-0.00000490,-0.00
 002762,-0.00003568,0.00037901,0.00006244,0.00035868,0.00045159,0.00001
 072,0.00000283,0.00000421,0.00000094,-0.00000026,-0.00000478,-0.000055
 74,0.00029754,0.00026885,0.00005912,0.00099709,0.00040916,0.00006464,-
 0.00003014,-0.00000839,0.00001252,-0.00001188,-0.00001559,-0.00000862,
 0.00000529,-0.00000246,0.00000378,0.00000963,0.00000104,-0.00022489,0.
 00002745,-0.00005115,-0.00488282,-0.02882976,-0.00742571,0.01400333,0.
 08009664,0.07584610\\-0.00000436,-0.00000114,0.00000131,0.00039974,-0.
 00174269,0.00011699,0.00026437,-0.00145404,0.00227040,0.00000966,0.000
 00879,-0.00000193,0.00003218,-0.00000066,-0.00002087,-0.00000607,0.000
 00168,0.00001199,-0.00000369,-0.00000635,-0.00000895,-0.00006220,0.000
 44079,-0.00149629,-0.00002463,0.00000383,0.00001702,-0.00000329,-0.000
 00083,-0.00000398,-0.00001885,0.00002905,0.00003001,-0.00060967,0.0027
 1541,-0.00092120,0.00002710,0.00001392,0.00000653,-0.00000107,-0.00000
 081,0.00000136,-0.00000320,-0.00000531,-0.00000257,-0.00000150,0.00000
 361,0.00000455,-0.00000019,-0.00000502,0.00000164,0.00000057,0.0000015
 2,-0.00000507,0.00000004,-0.00000248,-0.00000144,-0.00000101,0.0000023
 0,0.00000194,0.00000419,-0.00000005,-0.00000134,0.00000381,-0.00000381
 ,0.00000645,-0.00000064,-0.00000406,-0.00000073,-0.00000210,0.00000384
 ,-0.00000296,0.00000413,0.00000297,0.00000217,-0.00000548,0.00000588,0
 .00000353,0.00000295,-0.00000573,0.00000051,-0.00000658,-0.00000618,-0
 .00001040,-0.00000169,0.00000179,0.00001029,-0.00000076,0.00000164,-0.
 00000421,0.00000828,0.00000213,-0.00000476\\\@


 REPARTEE - WHAT YOU THINK OF AFTER YOU BECOME A DEPARTEE.
 Job cpu time:       0 days 14 hours  3 minutes 21.7 seconds.
 Elapsed time:       0 days  0 hours 52 minutes 44.0 seconds.
 File lengths (MBytes):  RWF=    682 Int=      0 D2E=      0 Chk=     33 Scr=      1
 Normal termination of Gaussian 16 at Sun Nov  4 23:05:05 2018.
