 Entering Gaussian System, Link 0=g16
 Initial command:
 /apps/gaussian/g16a03/g16/l1.exe "/jobfs/local/2011873.r-man2/Gau-12872.inp" -scrdir="/jobfs/local/2011873.r-man2/"
 Entering Link 1 = /apps/gaussian/g16a03/g16/l1.exe PID=     12873.
  
 Copyright (c) 1988,1990,1992,1993,1995,1998,2003,2009,2016,
            Gaussian, Inc.  All Rights Reserved.
  
 This is part of the Gaussian(R) 16 program.  It is based on
 the Gaussian(R) 09 system (copyright 2009, Gaussian, Inc.),
 the Gaussian(R) 03 system (copyright 2003, Gaussian, Inc.),
 the Gaussian(R) 98 system (copyright 1998, Gaussian, Inc.),
 the Gaussian(R) 94 system (copyright 1995, Gaussian, Inc.),
 the Gaussian 92(TM) system (copyright 1992, Gaussian, Inc.),
 the Gaussian 90(TM) system (copyright 1990, Gaussian, Inc.),
 the Gaussian 88(TM) system (copyright 1988, Gaussian, Inc.),
 the Gaussian 86(TM) system (copyright 1986, Carnegie Mellon
 University), and the Gaussian 82(TM) system (copyright 1983,
 Carnegie Mellon University). Gaussian is a federally registered
 trademark of Gaussian, Inc.
  
 This software contains proprietary and confidential information,
 including trade secrets, belonging to Gaussian, Inc.
  
 This software is provided under written license and may be
 used, copied, transmitted, or stored only in accord with that
 written license.
  
 The following legend is applicable only to US Government
 contracts under FAR:
  
                    RESTRICTED RIGHTS LEGEND
  
 Use, reproduction and disclosure by the US Government is
 subject to restrictions as set forth in subparagraphs (a)
 and (c) of the Commercial Computer Software - Restricted
 Rights clause in FAR 52.227-19.
  
 Gaussian, Inc.
 340 Quinnipiac St., Bldg. 40, Wallingford CT 06492
  
  
 ---------------------------------------------------------------
 Warning -- This program may not be used in any manner that
 competes with the business of Gaussian, Inc. or will provide
 assistance to any competitor of Gaussian, Inc.  The licensee
 of this program is prohibited from giving any competitor of
 Gaussian, Inc. access to this program.  By using this program,
 the user acknowledges that Gaussian, Inc. is engaged in the
 business of creating and licensing software in the field of
 computational chemistry and represents and warrants to the
 licensee that it is not a competitor of Gaussian, Inc. and that
 it will not use this program in any manner prohibited above.
 ---------------------------------------------------------------
  

 Cite this work as:
 Gaussian 16, Revision A.03,
 M. J. Frisch, G. W. Trucks, H. B. Schlegel, G. E. Scuseria, 
 M. A. Robb, J. R. Cheeseman, G. Scalmani, V. Barone, 
 G. A. Petersson, H. Nakatsuji, X. Li, M. Caricato, A. V. Marenich, 
 J. Bloino, B. G. Janesko, R. Gomperts, B. Mennucci, H. P. Hratchian, 
 J. V. Ortiz, A. F. Izmaylov, J. L. Sonnenberg, D. Williams-Young, 
 F. Ding, F. Lipparini, F. Egidi, J. Goings, B. Peng, A. Petrone, 
 T. Henderson, D. Ranasinghe, V. G. Zakrzewski, J. Gao, N. Rega, 
 G. Zheng, W. Liang, M. Hada, M. Ehara, K. Toyota, R. Fukuda, 
 J. Hasegawa, M. Ishida, T. Nakajima, Y. Honda, O. Kitao, H. Nakai, 
 T. Vreven, K. Throssell, J. A. Montgomery, Jr., J. E. Peralta, 
 F. Ogliaro, M. J. Bearpark, J. J. Heyd, E. N. Brothers, K. N. Kudin, 
 V. N. Staroverov, T. A. Keith, R. Kobayashi, J. Normand, 
 K. Raghavachari, A. P. Rendell, J. C. Burant, S. S. Iyengar, 
 J. Tomasi, M. Cossi, J. M. Millam, M. Klene, C. Adamo, R. Cammi, 
 J. W. Ochterski, R. L. Martin, K. Morokuma, O. Farkas, 
 J. B. Foresman, and D. J. Fox, Gaussian, Inc., Wallingford CT, 2016.
 
 ******************************************
 Gaussian 16:  ES64L-G16RevA.03 25-Dec-2016
                 5-Nov-2018 
 ******************************************
 %mem=6000mb
 %nproc=24
 Will use up to   24 processors via shared memory.
 %chk=D_1a_4a_L_PHI.inp_extract_10.chk
 ----------------------------------------------------------------------
 #M062X/6-311++G(2d,2p) opt=ModRedundant freq=noraman SCRF=(Solvent=Wat
 er)
 ----------------------------------------------------------------------
 1/18=120,19=15,26=3,38=1/1,3;
 2/9=110,12=2,17=6,18=5,40=1/2;
 3/5=4,6=6,7=1212,11=2,25=1,30=1,70=2201,71=1,72=1,74=-55/1,2,3;
 4//1;
 5/5=2,38=5,53=1/2;
 6/7=2,8=2,9=2,10=2,28=1/1;
 7//1,2,3,16;
 1/18=20,19=15,26=3/3(2);
 2/9=110/2;
 99//99;
 2/9=110/2;
 3/5=4,6=6,7=1212,11=2,25=1,30=1,70=2205,71=1,72=1,74=-55/1,2,3;
 4/5=5,16=3,69=1/1;
 5/5=2,38=5,53=1/2;
 7//1,2,3,16;
 1/18=20,19=15,26=3/3(-5);
 2/9=110/2;
 6/7=2,8=2,9=2,10=2,19=2,28=1/1;
 99/9=1/99;
 ----------------------------
 D_1a_4a_L_PHI.inp_extract_10
 ----------------------------
 Symbolic Z-matrix:
 Charge =  0 Multiplicity = 1
 C                     3.45305   0.24224   0.75053 
 C                     1.11161  -0.41155  -0.82309 
 C                    -1.87877   1.5087   -0.00869 
 C                     2.55474  -0.91371   1.19049 
 C                    -3.38237  -0.33474   0.76894 
 O                    -2.58314  -1.25991   0.0544 
 C                     2.65006   1.25571  -0.04762 
 C                    -1.12156   0.46937  -0.82881 
 C                    -2.56352   0.87097   1.20234 
 C                    -2.02125  -0.723    -1.12369 
 O                     1.98359   0.64374  -1.14403 
 O                     0.02179   0.06276  -0.08913 
 C                     1.82883  -1.49094  -0.0257 
 H                     4.26476  -0.13674   0.13376 
 H                     3.89913   0.73945   1.60723 
 H                    -2.63124   1.95715  -0.65262 
 H                     3.14     -1.69047   1.673 
 H                     1.83386  -0.55885   1.92233 
 H                     1.92176   1.75115   0.5853 
 H                     3.2881    2.01277  -0.48228 
 H                    -1.82441   0.55723   1.93347 
 H                    -3.21523   1.59043   1.68961 
 H                    -2.81511  -0.41056  -1.79827 
 H                    -1.46843  -1.5236   -1.59491 
 H                     2.55119  -1.96004  -0.68833 
 H                     1.10921  -2.24955   0.26266 
 H                     0.77824  -0.79696  -1.77494 
 H                    -4.21383  -0.02591   0.13875 
 H                    -3.78073  -0.8701    1.61997 
 H                    -1.2003    2.29861   0.29555 
 H                    -0.79976   0.90501  -1.7684 
 
 The following ModRedundant input section has been read:
 D      11       2      12       8 F                                           
 

 GradGradGradGradGradGradGradGradGradGradGradGradGradGradGradGradGradGrad
 Berny optimization.
 Initialization pass.
                           ----------------------------
                           !    Initial Parameters    !
                           ! (Angstroms and Degrees)  !
 --------------------------                            --------------------------
 ! Name  Definition              Value          Derivative Info.                !
 --------------------------------------------------------------------------------
 ! R1    R(1,4)                  1.5286         estimate D2E/DX2                !
 ! R2    R(1,7)                  1.5195         estimate D2E/DX2                !
 ! R3    R(1,14)                 1.0876         estimate D2E/DX2                !
 ! R4    R(1,15)                 1.0863         estimate D2E/DX2                !
 ! R5    R(2,11)                 1.4061         estimate D2E/DX2                !
 ! R6    R(2,12)                 1.3969         estimate D2E/DX2                !
 ! R7    R(2,13)                 1.5216         estimate D2E/DX2                !
 ! R8    R(2,27)                 1.0797         estimate D2E/DX2                !
 ! R9    R(3,8)                  1.5252         estimate D2E/DX2                !
 ! R10   R(3,9)                  1.5304         estimate D2E/DX2                !
 ! R11   R(3,16)                 1.0872         estimate D2E/DX2                !
 ! R12   R(3,30)                 1.0848         estimate D2E/DX2                !
 ! R13   R(4,13)                 1.5295         estimate D2E/DX2                !
 ! R14   R(4,17)                 1.0857         estimate D2E/DX2                !
 ! R15   R(4,18)                 1.0868         estimate D2E/DX2                !
 ! R16   R(5,6)                  1.4161         estimate D2E/DX2                !
 ! R17   R(5,9)                  1.5206         estimate D2E/DX2                !
 ! R18   R(5,28)                 1.088          estimate D2E/DX2                !
 ! R19   R(5,29)                 1.0815         estimate D2E/DX2                !
 ! R20   R(6,10)                 1.4113         estimate D2E/DX2                !
 ! R21   R(7,11)                 1.4215         estimate D2E/DX2                !
 ! R22   R(7,19)                 1.0847         estimate D2E/DX2                !
 ! R23   R(7,20)                 1.0813         estimate D2E/DX2                !
 ! R24   R(8,10)                 1.5225         estimate D2E/DX2                !
 ! R25   R(8,12)                 1.4212         estimate D2E/DX2                !
 ! R26   R(8,31)                 1.0845         estimate D2E/DX2                !
 ! R27   R(9,21)                 1.0859         estimate D2E/DX2                !
 ! R28   R(9,22)                 1.0862         estimate D2E/DX2                !
 ! R29   R(10,23)                1.0876         estimate D2E/DX2                !
 ! R30   R(10,24)                1.081          estimate D2E/DX2                !
 ! R31   R(13,25)                1.0867         estimate D2E/DX2                !
 ! R32   R(13,26)                1.0847         estimate D2E/DX2                !
 ! A1    A(4,1,7)              110.1808         estimate D2E/DX2                !
 ! A2    A(4,1,14)             109.7732         estimate D2E/DX2                !
 ! A3    A(4,1,15)             111.1268         estimate D2E/DX2                !
 ! A4    A(7,1,14)             109.2042         estimate D2E/DX2                !
 ! A5    A(7,1,15)             109.0232         estimate D2E/DX2                !
 ! A6    A(14,1,15)            107.4717         estimate D2E/DX2                !
 ! A7    A(11,2,12)            110.421          estimate D2E/DX2                !
 ! A8    A(11,2,13)            111.0824         estimate D2E/DX2                !
 ! A9    A(11,2,27)            104.9617         estimate D2E/DX2                !
 ! A10   A(12,2,13)            109.4666         estimate D2E/DX2                !
 ! A11   A(12,2,27)            110.0915         estimate D2E/DX2                !
 ! A12   A(13,2,27)            110.7514         estimate D2E/DX2                !
 ! A13   A(8,3,9)              111.3258         estimate D2E/DX2                !
 ! A14   A(8,3,16)             107.8318         estimate D2E/DX2                !
 ! A15   A(8,3,30)             109.6634         estimate D2E/DX2                !
 ! A16   A(9,3,16)             109.3233         estimate D2E/DX2                !
 ! A17   A(9,3,30)             111.1817         estimate D2E/DX2                !
 ! A18   A(16,3,30)            107.3755         estimate D2E/DX2                !
 ! A19   A(1,4,13)             109.5994         estimate D2E/DX2                !
 ! A20   A(1,4,17)             110.6187         estimate D2E/DX2                !
 ! A21   A(1,4,18)             109.675          estimate D2E/DX2                !
 ! A22   A(13,4,17)            109.8301         estimate D2E/DX2                !
 ! A23   A(13,4,18)            110.1129         estimate D2E/DX2                !
 ! A24   A(17,4,18)            106.972          estimate D2E/DX2                !
 ! A25   A(6,5,9)              110.9734         estimate D2E/DX2                !
 ! A26   A(6,5,28)             108.9342         estimate D2E/DX2                !
 ! A27   A(6,5,29)             106.353          estimate D2E/DX2                !
 ! A28   A(9,5,28)             110.5818         estimate D2E/DX2                !
 ! A29   A(9,5,29)             111.5064         estimate D2E/DX2                !
 ! A30   A(28,5,29)            108.3493         estimate D2E/DX2                !
 ! A31   A(5,6,10)             113.4127         estimate D2E/DX2                !
 ! A32   A(1,7,11)             111.4538         estimate D2E/DX2                !
 ! A33   A(1,7,19)             110.6699         estimate D2E/DX2                !
 ! A34   A(1,7,20)             111.4872         estimate D2E/DX2                !
 ! A35   A(11,7,19)            109.3839         estimate D2E/DX2                !
 ! A36   A(11,7,20)            105.5464         estimate D2E/DX2                !
 ! A37   A(19,7,20)            108.1179         estimate D2E/DX2                !
 ! A38   A(3,8,10)             110.1477         estimate D2E/DX2                !
 ! A39   A(3,8,12)             108.3321         estimate D2E/DX2                !
 ! A40   A(3,8,31)             109.8429         estimate D2E/DX2                !
 ! A41   A(10,8,12)            110.6184         estimate D2E/DX2                !
 ! A42   A(10,8,31)            108.7911         estimate D2E/DX2                !
 ! A43   A(12,8,31)            109.0952         estimate D2E/DX2                !
 ! A44   A(3,9,5)              110.2324         estimate D2E/DX2                !
 ! A45   A(3,9,21)             110.4031         estimate D2E/DX2                !
 ! A46   A(3,9,22)             110.3299         estimate D2E/DX2                !
 ! A47   A(5,9,21)             109.2284         estimate D2E/DX2                !
 ! A48   A(5,9,22)             109.2675         estimate D2E/DX2                !
 ! A49   A(21,9,22)            107.3204         estimate D2E/DX2                !
 ! A50   A(6,10,8)             111.8092         estimate D2E/DX2                !
 ! A51   A(6,10,23)            109.6594         estimate D2E/DX2                !
 ! A52   A(6,10,24)            106.6015         estimate D2E/DX2                !
 ! A53   A(8,10,23)            109.0548         estimate D2E/DX2                !
 ! A54   A(8,10,24)            111.237          estimate D2E/DX2                !
 ! A55   A(23,10,24)           108.3998         estimate D2E/DX2                !
 ! A56   A(2,11,7)             115.9638         estimate D2E/DX2                !
 ! A57   A(2,12,8)             116.8296         estimate D2E/DX2                !
 ! A58   A(2,13,4)             111.8818         estimate D2E/DX2                !
 ! A59   A(2,13,25)            107.4574         estimate D2E/DX2                !
 ! A60   A(2,13,26)            108.828          estimate D2E/DX2                !
 ! A61   A(4,13,25)            109.4076         estimate D2E/DX2                !
 ! A62   A(4,13,26)            111.5583         estimate D2E/DX2                !
 ! A63   A(25,13,26)           107.5303         estimate D2E/DX2                !
 ! D1    D(7,1,4,13)            52.9718         estimate D2E/DX2                !
 ! D2    D(7,1,4,17)           174.2177         estimate D2E/DX2                !
 ! D3    D(7,1,4,18)           -68.0236         estimate D2E/DX2                !
 ! D4    D(14,1,4,13)          -67.329          estimate D2E/DX2                !
 ! D5    D(14,1,4,17)           53.9168         estimate D2E/DX2                !
 ! D6    D(14,1,4,18)          171.6756         estimate D2E/DX2                !
 ! D7    D(15,1,4,13)          173.9237         estimate D2E/DX2                !
 ! D8    D(15,1,4,17)          -64.8305         estimate D2E/DX2                !
 ! D9    D(15,1,4,18)           52.9283         estimate D2E/DX2                !
 ! D10   D(4,1,7,11)           -54.6646         estimate D2E/DX2                !
 ! D11   D(4,1,7,19)            67.3002         estimate D2E/DX2                !
 ! D12   D(4,1,7,20)          -172.3215         estimate D2E/DX2                !
 ! D13   D(14,1,7,11)           65.9785         estimate D2E/DX2                !
 ! D14   D(14,1,7,19)         -172.0567         estimate D2E/DX2                !
 ! D15   D(14,1,7,20)          -51.6785         estimate D2E/DX2                !
 ! D16   D(15,1,7,11)         -176.8672         estimate D2E/DX2                !
 ! D17   D(15,1,7,19)          -54.9025         estimate D2E/DX2                !
 ! D18   D(15,1,7,20)           65.4758         estimate D2E/DX2                !
 ! D19   D(12,2,11,7)           66.32           estimate D2E/DX2                !
 ! D20   D(13,2,11,7)          -55.3245         estimate D2E/DX2                !
 ! D21   D(27,2,11,7)         -175.0655         estimate D2E/DX2                !
 ! D22   D(11,2,12,8)           90.5421         Frozen                          !
 ! D23   D(13,2,12,8)         -146.8625         estimate D2E/DX2                !
 ! D24   D(27,2,12,8)          -24.8951         estimate D2E/DX2                !
 ! D25   D(11,2,13,4)           52.2441         estimate D2E/DX2                !
 ! D26   D(11,2,13,25)         -67.867          estimate D2E/DX2                !
 ! D27   D(11,2,13,26)         175.976          estimate D2E/DX2                !
 ! D28   D(12,2,13,4)          -69.9563         estimate D2E/DX2                !
 ! D29   D(12,2,13,25)         169.9326         estimate D2E/DX2                !
 ! D30   D(12,2,13,26)          53.7755         estimate D2E/DX2                !
 ! D31   D(27,2,13,4)          168.473          estimate D2E/DX2                !
 ! D32   D(27,2,13,25)          48.3619         estimate D2E/DX2                !
 ! D33   D(27,2,13,26)         -67.7951         estimate D2E/DX2                !
 ! D34   D(9,3,8,10)            49.9485         estimate D2E/DX2                !
 ! D35   D(9,3,8,12)           -71.1636         estimate D2E/DX2                !
 ! D36   D(9,3,8,31)           169.7616         estimate D2E/DX2                !
 ! D37   D(16,3,8,10)          -69.9675         estimate D2E/DX2                !
 ! D38   D(16,3,8,12)          168.9204         estimate D2E/DX2                !
 ! D39   D(16,3,8,31)           49.8456         estimate D2E/DX2                !
 ! D40   D(30,3,8,10)          173.4123         estimate D2E/DX2                !
 ! D41   D(30,3,8,12)           52.3002         estimate D2E/DX2                !
 ! D42   D(30,3,8,31)          -66.7746         estimate D2E/DX2                !
 ! D43   D(8,3,9,5)            -50.8342         estimate D2E/DX2                !
 ! D44   D(8,3,9,21)            69.9348         estimate D2E/DX2                !
 ! D45   D(8,3,9,22)          -171.6046         estimate D2E/DX2                !
 ! D46   D(16,3,9,5)            68.1947         estimate D2E/DX2                !
 ! D47   D(16,3,9,21)         -171.0363         estimate D2E/DX2                !
 ! D48   D(16,3,9,22)          -52.5756         estimate D2E/DX2                !
 ! D49   D(30,3,9,5)          -173.4284         estimate D2E/DX2                !
 ! D50   D(30,3,9,21)          -52.6594         estimate D2E/DX2                !
 ! D51   D(30,3,9,22)           65.8012         estimate D2E/DX2                !
 ! D52   D(1,4,13,2)           -52.2436         estimate D2E/DX2                !
 ! D53   D(1,4,13,25)           66.7204         estimate D2E/DX2                !
 ! D54   D(1,4,13,26)         -174.4264         estimate D2E/DX2                !
 ! D55   D(17,4,13,2)         -173.9639         estimate D2E/DX2                !
 ! D56   D(17,4,13,25)         -54.9999         estimate D2E/DX2                !
 ! D57   D(17,4,13,26)          63.8533         estimate D2E/DX2                !
 ! D58   D(18,4,13,2)           68.4866         estimate D2E/DX2                !
 ! D59   D(18,4,13,25)        -172.5495         estimate D2E/DX2                !
 ! D60   D(18,4,13,26)         -53.6962         estimate D2E/DX2                !
 ! D61   D(9,5,6,10)           -60.6214         estimate D2E/DX2                !
 ! D62   D(28,5,6,10)           61.3519         estimate D2E/DX2                !
 ! D63   D(29,5,6,10)          177.9357         estimate D2E/DX2                !
 ! D64   D(6,5,9,3)             54.9342         estimate D2E/DX2                !
 ! D65   D(6,5,9,21)           -66.536          estimate D2E/DX2                !
 ! D66   D(6,5,9,22)           176.3388         estimate D2E/DX2                !
 ! D67   D(28,5,9,3)           -66.073          estimate D2E/DX2                !
 ! D68   D(28,5,9,21)          172.4568         estimate D2E/DX2                !
 ! D69   D(28,5,9,22)           55.3317         estimate D2E/DX2                !
 ! D70   D(29,5,9,3)           173.3028         estimate D2E/DX2                !
 ! D71   D(29,5,9,21)           51.8327         estimate D2E/DX2                !
 ! D72   D(29,5,9,22)          -65.2925         estimate D2E/DX2                !
 ! D73   D(5,6,10,8)            60.1943         estimate D2E/DX2                !
 ! D74   D(5,6,10,23)          -60.8944         estimate D2E/DX2                !
 ! D75   D(5,6,10,24)         -178.0415         estimate D2E/DX2                !
 ! D76   D(1,7,11,2)            57.2334         estimate D2E/DX2                !
 ! D77   D(19,7,11,2)          -65.4718         estimate D2E/DX2                !
 ! D78   D(20,7,11,2)          178.4205         estimate D2E/DX2                !
 ! D79   D(3,8,10,6)           -53.7636         estimate D2E/DX2                !
 ! D80   D(3,8,10,23)           67.6749         estimate D2E/DX2                !
 ! D81   D(3,8,10,24)         -172.8199         estimate D2E/DX2                !
 ! D82   D(12,8,10,6)           65.9716         estimate D2E/DX2                !
 ! D83   D(12,8,10,23)        -172.5898         estimate D2E/DX2                !
 ! D84   D(12,8,10,24)         -53.0847         estimate D2E/DX2                !
 ! D85   D(31,8,10,6)         -174.212          estimate D2E/DX2                !
 ! D86   D(31,8,10,23)         -52.7734         estimate D2E/DX2                !
 ! D87   D(31,8,10,24)          66.7318         estimate D2E/DX2                !
 ! D88   D(3,8,12,2)          -153.6839         estimate D2E/DX2                !
 ! D89   D(10,8,12,2)           85.4954         estimate D2E/DX2                !
 ! D90   D(31,8,12,2)          -34.1382         estimate D2E/DX2                !
 --------------------------------------------------------------------------------
 Trust Radius=3.00D-01 FncErr=1.00D-07 GrdErr=1.00D-06 EigMax=2.50D+02 EigMin=1.00D-04
 Number of steps in this run=    186 maximum allowed number of steps=    186.
 GradGradGradGradGradGradGradGradGradGradGradGradGradGradGradGradGradGrad

                          Input orientation:                          
 ---------------------------------------------------------------------
 Center     Atomic      Atomic             Coordinates (Angstroms)
 Number     Number       Type             X           Y           Z
 ---------------------------------------------------------------------
      1          6           0        3.453054    0.242238    0.750525
      2          6           0        1.111611   -0.411551   -0.823088
      3          6           0       -1.878770    1.508704   -0.008689
      4          6           0        2.554739   -0.913711    1.190491
      5          6           0       -3.382374   -0.334742    0.768943
      6          8           0       -2.583135   -1.259914    0.054396
      7          6           0        2.650058    1.255711   -0.047622
      8          6           0       -1.121557    0.469368   -0.828805
      9          6           0       -2.563524    0.870970    1.202342
     10          6           0       -2.021251   -0.722999   -1.123689
     11          8           0        1.983588    0.643741   -1.144030
     12          8           0        0.021787    0.062762   -0.089131
     13          6           0        1.828829   -1.490943   -0.025699
     14          1           0        4.264762   -0.136741    0.133763
     15          1           0        3.899129    0.739452    1.607229
     16          1           0       -2.631235    1.957152   -0.652624
     17          1           0        3.139999   -1.690466    1.672995
     18          1           0        1.833863   -0.558848    1.922328
     19          1           0        1.921760    1.751153    0.585299
     20          1           0        3.288101    2.012767   -0.482282
     21          1           0       -1.824414    0.557228    1.933467
     22          1           0       -3.215232    1.590430    1.689605
     23          1           0       -2.815112   -0.410563   -1.798274
     24          1           0       -1.468432   -1.523595   -1.594913
     25          1           0        2.551194   -1.960040   -0.688326
     26          1           0        1.109213   -2.249548    0.262655
     27          1           0        0.778237   -0.796964   -1.774940
     28          1           0       -4.213834   -0.025914    0.138751
     29          1           0       -3.780731   -0.870102    1.619970
     30          1           0       -1.200301    2.298609    0.295554
     31          1           0       -0.799764    0.905007   -1.768395
 ---------------------------------------------------------------------
                    Distance matrix (angstroms):
                    1          2          3          4          5
     1  C    0.000000
     2  C    2.895868   0.000000
     3  C    5.532512   3.645957   0.000000
     4  C    1.528646   2.527703   5.192507   0.000000
     5  C    6.859761   4.768266   2.502764   5.980152   0.000000
     6  O    6.259124   3.891124   2.857509   5.273359   1.416087
     7  C    1.519529   2.397484   4.536056   2.499680   6.291785
     8  C    4.844888   2.400644   1.525182   4.416516   2.882826
     9  C    6.066189   4.387920   1.530421   5.420502   1.520556
    10  C    5.866206   3.162623   2.498805   5.131421   2.363357
    11  O    2.431023   1.406054   4.117641   2.863889   5.780177
    12  O    3.537065   1.396919   2.389422   3.001129   3.533074
    13  C    2.498909   1.521617   4.769115   1.529464   5.396748
    14  H    1.087608   3.306576   6.361664   2.155118   7.676024
    15  H    1.086345   3.873178   6.048724   2.171175   7.407895
    16  H    6.475209   4.432686   1.087181   6.207516   2.799614
    17  H    2.164324   3.461273   6.184722   1.085674   6.722845
    18  H    2.153286   2.842649   4.667681   1.086819   5.346929
    19  H    2.156151   2.705029   3.854300   2.805070   5.702501
    20  H    2.163746   3.275756   5.212957   3.449676   7.181337
    21  H    5.417586   4.142146   2.163384   4.678959   2.139852
    22  H    6.867717   5.389167   2.162640   6.309707   2.140524
    23  H    6.797973   4.046003   2.786205   6.166131   2.630235
    24  H    5.730643   2.913585   3.446639   4.931160   3.265633
    25  H    2.780948   2.118579   5.667334   2.150528   6.322377
    26  H    3.455518   2.134731   4.808963   2.175979   4.908886
    27  H    3.822638   1.079678   3.936424   3.458811   4.898538
    28  H    7.695930   5.425331   2.798091   6.907092   1.088045
    29  H    7.370270   5.487605   3.453796   6.350160   1.081455
    30  H    5.107776   3.733800   1.084820   5.021975   3.452546
    31  H    4.987051   2.506050   2.150644   4.828606   3.826870
                    6          7          8          9         10
     6  O    0.000000
     7  C    5.807330   0.000000
     8  C    2.430364   3.931115   0.000000
     9  C    2.420502   5.375116   2.523115   0.000000
    10  C    1.411338   5.185975   1.522546   2.871449   0.000000
    11  O    5.090686   1.421548   3.125972   5.121848   4.231681
    12  O    2.925011   2.886635   1.421155   3.000822   2.421102
    13  C    4.418735   2.866881   3.632159   5.136096   4.076572
    14  H    6.939849   2.139881   5.505119   6.984471   6.437301
    15  H    6.959059   2.136641   5.586993   6.476659   6.681884
    16  H    3.294193   5.361912   2.126892   2.150645   2.788762
    17  H    5.963179   3.446814   5.393028   6.269980   5.949448
    18  H    4.846704   2.799911   4.166590   4.679719   4.916001
    19  H    5.444489   1.084652   3.592275   4.612292   4.958770
    20  H    6.743135   1.081278   4.684788   6.195416   6.007082
    21  H    2.721869   4.943025   2.851644   1.085938   3.320230
    22  H    3.346329   6.126306   3.461596   1.086173   3.833036
    23  H    2.051243   5.975729   2.140625   3.272510   1.087610
    24  H    2.008061   5.203903   2.163133   3.841589   1.081025
    25  H    5.234801   3.280447   4.405775   6.144069   4.756791
    26  H    3.828339   3.841525   3.682407   4.910157   3.748614
    27  H    3.854817   3.271210   2.471434   4.776356   2.875192
    28  H    2.046717   6.985006   3.277750   2.158506   2.624329
    29  H    2.009281   6.975313   3.855112   2.165026   3.262679
    30  H    3.825372   4.003832   2.148606   2.172279   3.437779
    31  H    3.345125   3.871088   1.084510   3.455038   2.134966
                   11         12         13         14         15
    11  O    0.000000
    12  O    2.301958   0.000000
    13  C    2.414848   2.383993   0.000000
    14  H    2.728674   4.253507   2.791605   0.000000
    15  H    3.353787   4.285945   3.453586   1.752856   0.000000
    16  H    4.823186   3.308287   5.672263   7.249660   7.016793
    17  H    3.836853   3.987749   2.155119   2.459347   2.546587
    18  H    3.297149   2.777766   2.159545   3.047361   2.459714
    19  H    2.054450   2.629718   3.300476   3.042645   2.444968
    20  H    2.003471   3.824382   3.822817   2.440033   2.522051
    21  H    4.896872   2.782779   4.623799   6.387378   5.735728
    22  H    5.996118   3.996994   6.154647   7.832884   7.165548
    23  H    4.956522   3.345624   5.086790   7.343866   7.615840
    24  H    4.100864   2.646632   3.651771   6.146641   6.647240
    25  H    2.703612   3.293731   1.086710   2.633736   3.791274
    26  H    3.333829   2.579346   1.084655   3.799744   4.304141
    27  H    1.981552   2.037964   2.155271   4.029255   4.851763
    28  H    6.364119   4.242674   6.219898   8.479322   8.280240
    29  H    6.569535   4.272049   5.878846   8.214413   7.846724
    30  H    3.866282   2.576915   4.862051   5.985317   5.491416
    31  H    2.864462   2.050427   3.960690   5.509344   5.788078
                   16         17         18         19         20
    16  H    0.000000
    17  H    7.212542   0.000000
    18  H    5.735655   1.746058   0.000000
    19  H    4.722780   3.809453   2.670483   0.000000
    20  H    5.922048   4.287317   3.809221   1.753585   0.000000
    21  H    3.049363   5.455765   3.824754   4.156541   5.838857
    22  H    2.441634   7.152169   5.492442   5.256806   6.869411
    23  H    2.636740   7.010792   5.956327   5.726464   6.697281
    24  H    3.788881   5.651965   4.920048   5.193332   6.030623
    25  H    6.496402   2.448509   3.048511   3.973822   4.045823
    26  H    5.703070   2.534901   2.477519   4.095112   4.844565
    27  H    4.524295   4.273701   3.852381   3.656675   3.983086
    28  H    2.657714   7.694381   6.327701   6.403350   7.798778
    29  H    3.805179   6.969384   5.631338   6.360812   7.918256
    30  H    1.750202   6.053781   4.474104   3.182911   4.564262
    31  H    2.388774   5.839638   4.764483   3.696286   4.426269
                   21         22         23         24         25
    21  H    0.000000
    22  H    1.749671   0.000000
    23  H    3.980451   4.040961   0.000000
    24  H    4.111692   4.851445   1.758904   0.000000
    25  H    5.688267   7.177190   5.694744   4.143643   0.000000
    26  H    4.390418   5.956714   4.798919   3.259113   1.751425
    27  H    4.728627   5.800907   3.614140   2.368106   2.382615
    28  H    3.044731   2.452534   2.420009   3.575734   7.084526
    29  H    2.441870   2.525640   3.581618   4.013633   6.827113
    30  H    2.470766   2.550459   3.785676   4.272587   5.760020
    31  H    3.856766   4.273412   2.406916   2.524940   4.539159
                   26         27         28         29         30
    26  H    0.000000
    27  H    2.524151   0.000000
    28  H    5.770159   5.401621   0.000000
    29  H    5.258966   5.684624   1.759046   0.000000
    30  H    5.101046   4.217123   3.809117   4.295745   0.000000
    31  H    4.209581   2.320956   4.019912   4.849556   2.522388
                   31
    31  H    0.000000
 Stoichiometry    C10H18O3
 Framework group  C1[X(C10H18O3)]
 Deg. of freedom    87
 Full point group                 C1      NOp   1
 Largest Abelian subgroup         C1      NOp   1
 Largest concise Abelian subgroup C1      NOp   1
                         Standard orientation:                         
 ---------------------------------------------------------------------
 Center     Atomic      Atomic             Coordinates (Angstroms)
 Number     Number       Type             X           Y           Z
 ---------------------------------------------------------------------
      1          6           0        3.453054    0.242238    0.750525
      2          6           0        1.111611   -0.411551   -0.823088
      3          6           0       -1.878770    1.508704   -0.008689
      4          6           0        2.554739   -0.913711    1.190491
      5          6           0       -3.382374   -0.334742    0.768943
      6          8           0       -2.583135   -1.259914    0.054396
      7          6           0        2.650058    1.255711   -0.047622
      8          6           0       -1.121557    0.469368   -0.828805
      9          6           0       -2.563524    0.870970    1.202342
     10          6           0       -2.021251   -0.722999   -1.123689
     11          8           0        1.983588    0.643741   -1.144030
     12          8           0        0.021787    0.062762   -0.089131
     13          6           0        1.828829   -1.490943   -0.025699
     14          1           0        4.264762   -0.136741    0.133763
     15          1           0        3.899129    0.739452    1.607229
     16          1           0       -2.631235    1.957152   -0.652624
     17          1           0        3.139999   -1.690466    1.672995
     18          1           0        1.833863   -0.558848    1.922328
     19          1           0        1.921760    1.751153    0.585299
     20          1           0        3.288101    2.012767   -0.482282
     21          1           0       -1.824414    0.557228    1.933467
     22          1           0       -3.215232    1.590430    1.689605
     23          1           0       -2.815112   -0.410563   -1.798274
     24          1           0       -1.468432   -1.523595   -1.594913
     25          1           0        2.551194   -1.960040   -0.688326
     26          1           0        1.109213   -2.249548    0.262655
     27          1           0        0.778237   -0.796964   -1.774940
     28          1           0       -4.213834   -0.025914    0.138751
     29          1           0       -3.780731   -0.870102    1.619970
     30          1           0       -1.200301    2.298609    0.295554
     31          1           0       -0.799764    0.905007   -1.768395
 ---------------------------------------------------------------------
 Rotational constants (GHZ):           1.6477206           0.4507155           0.4348186
 Standard basis: 6-311++G(2d,2p) (5D, 7F)
 There are   557 symmetry adapted cartesian basis functions of A   symmetry.
 There are   531 symmetry adapted basis functions of A   symmetry.
   531 basis functions,   762 primitive gaussians,   557 cartesian basis functions
    51 alpha electrons       51 beta electrons
       nuclear repulsion energy       903.1143726724 Hartrees.
 NAtoms=   31 NActive=   31 NUniq=   31 SFac= 1.00D+00 NAtFMM=   60 NAOKFM=F Big=F
 Integral buffers will be    131072 words long.
 Raffenetti 2 integral format.
 Two-electron integral symmetry is turned on.
 ------------------------------------------------------------------------------
 Polarizable Continuum Model (PCM)
 =================================
 Model                : PCM.
 Atomic radii         : UFF (Universal Force Field).
 Polarization charges : Total charges.
 Charge compensation  : None.
 Solution method      : On-the-fly selection.
 Cavity type          : Scaled VdW (van der Waals Surface) (Alpha=1.100).
 Cavity algorithm     : GePol (No added spheres)
                        Default sphere list used, NSphG=   31.
                        Lebedev-Laikov grids with approx.  5.0 points / Ang**2.
                        Smoothing algorithm: York/Karplus (Gamma=1.0000).
                        Polarization charges: spherical gaussians, with
                                              point-specific exponents (IZeta= 3).
                        Self-potential: point-specific (ISelfS= 7).
                        Self-field    : sphere-specific E.n sum rule (ISelfD= 2).
 1st derivatives      : Analytical E(r).r(x)/FMM algorithm (CHGder, D1EAlg=3).
                        Cavity 1st derivative terms included.
 Solvent              : Water, Eps=  78.355300 Eps(inf)=   1.777849
 ------------------------------------------------------------------------------
 One-electron integrals computed using PRISM.
 NBasis=   531 RedAO= T EigKep=  4.82D-06  NBF=   531
 NBsUse=   531 1.00D-06 EigRej= -1.00D+00 NBFU=   531
 ExpMin= 3.60D-02 ExpMax= 8.59D+03 ExpMxC= 1.30D+03 IAcc=3 IRadAn=         5 AccDes= 0.00D+00
 Harris functional with IExCor= 1009 and IRadAn=       5 diagonalized for initial guess.
 HarFok:  IExCor= 1009 AccDes= 0.00D+00 IRadAn=         5 IDoV= 1 UseB2=F ITyADJ=14
 ICtDFT=  3500011 ScaDFX=  1.000000  1.000000  1.000000  1.000000
 FoFCou: FMM=F IPFlag=           0 FMFlag=      100000 FMFlg1=           0
         NFxFlg=           0 DoJE=T BraDBF=F KetDBF=T FulRan=T
         wScrn=  0.000000 ICntrl=       500 IOpCl=  0 I1Cent=   200000004 NGrid=           0
         NMat0=    1 NMatS0=      1 NMatT0=    0 NMatD0=    1 NMtDS0=    0 NMtDT0=    0
 Petite list used in FoFCou.
 Requested convergence on RMS density matrix=1.00D-08 within 128 cycles.
 Requested convergence on MAX density matrix=1.00D-06.
 Requested convergence on             energy=1.00D-06.
 No special actions if energy rises.
 Inv3:  Mode=1 IEnd=    13029168.
 Iteration    1 A*A^-1 deviation from unit magnitude is 3.89D-15 for   2080.
 Iteration    1 A*A^-1 deviation from orthogonality  is 1.91D-15 for   2079    976.
 Iteration    1 A^-1*A deviation from unit magnitude is 4.11D-15 for   2080.
 Iteration    1 A^-1*A deviation from orthogonality  is 1.56D-15 for   1838    610.
 Error on total polarization charges =  0.01464
 SCF Done:  E(RM062X) =  -617.501079110     A.U. after   12 cycles
            NFock= 12  Conv=0.68D-08     -V/T= 2.0035

 **********************************************************************

            Population analysis using the SCF density.

 **********************************************************************

 Orbital symmetries:
       Occupied  (A) (A) (A) (A) (A) (A) (A) (A) (A) (A) (A) (A)
                 (A) (A) (A) (A) (A) (A) (A) (A) (A) (A) (A) (A)
                 (A) (A) (A) (A) (A) (A) (A) (A) (A) (A) (A) (A)
                 (A) (A) (A) (A) (A) (A) (A) (A) (A) (A) (A) (A)
                 (A) (A) (A)
       Virtual   (A) (A) (A) (A) (A) (A) (A) (A) (A) (A) (A) (A)
                 (A) (A) (A) (A) (A) (A) (A) (A) (A) (A) (A) (A)
                 (A) (A) (A) (A) (A) (A) (A) (A) (A) (A) (A) (A)
                 (A) (A) (A) (A) (A) (A) (A) (A) (A) (A) (A) (A)
                 (A) (A) (A) (A) (A) (A) (A) (A) (A) (A) (A) (A)
                 (A) (A) (A) (A) (A) (A) (A) (A) (A) (A) (A) (A)
                 (A) (A) (A) (A) (A) (A) (A) (A) (A) (A) (A) (A)
                 (A) (A) (A) (A) (A) (A) (A) (A) (A) (A) (A) (A)
                 (A) (A) (A) (A) (A) (A) (A) (A) (A) (A) (A) (A)
                 (A) (A) (A) (A) (A) (A) (A) (A) (A) (A) (A) (A)
                 (A) (A) (A) (A) (A) (A) (A) (A) (A) (A) (A) (A)
                 (A) (A) (A) (A) (A) (A) (A) (A) (A) (A) (A) (A)
                 (A) (A) (A) (A) (A) (A) (A) (A) (A) (A) (A) (A)
                 (A) (A) (A) (A) (A) (A) (A) (A) (A) (A) (A) (A)
                 (A) (A) (A) (A) (A) (A) (A) (A) (A) (A) (A) (A)
                 (A) (A) (A) (A) (A) (A) (A) (A) (A) (A) (A) (A)
                 (A) (A) (A) (A) (A) (A) (A) (A) (A) (A) (A) (A)
                 (A) (A) (A) (A) (A) (A) (A) (A) (A) (A) (A) (A)
                 (A) (A) (A) (A) (A) (A) (A) (A) (A) (A) (A) (A)
                 (A) (A) (A) (A) (A) (A) (A) (A) (A) (A) (A) (A)
                 (A) (A) (A) (A) (A) (A) (A) (A) (A) (A) (A) (A)
                 (A) (A) (A) (A) (A) (A) (A) (A) (A) (A) (A) (A)
                 (A) (A) (A) (A) (A) (A) (A) (A) (A) (A) (A) (A)
                 (A) (A) (A) (A) (A) (A) (A) (A) (A) (A) (A) (A)
                 (A) (A) (A) (A) (A) (A) (A) (A) (A) (A) (A) (A)
                 (A) (A) (A) (A) (A) (A) (A) (A) (A) (A) (A) (A)
                 (A) (A) (A) (A) (A) (A) (A) (A) (A) (A) (A) (A)
                 (A) (A) (A) (A) (A) (A) (A) (A) (A) (A) (A) (A)
                 (A) (A) (A) (A) (A) (A) (A) (A) (A) (A) (A) (A)
                 (A) (A) (A) (A) (A) (A) (A) (A) (A) (A) (A) (A)
                 (A) (A) (A) (A) (A) (A) (A) (A) (A) (A) (A) (A)
                 (A) (A) (A) (A) (A) (A) (A) (A) (A) (A) (A) (A)
                 (A) (A) (A) (A) (A) (A) (A) (A) (A) (A) (A) (A)
                 (A) (A) (A) (A) (A) (A) (A) (A) (A) (A) (A) (A)
                 (A) (A) (A) (A) (A) (A) (A) (A) (A) (A) (A) (A)
                 (A) (A) (A) (A) (A) (A) (A) (A) (A) (A) (A) (A)
                 (A) (A) (A) (A) (A) (A) (A) (A) (A) (A) (A) (A)
                 (A) (A) (A) (A) (A) (A) (A) (A) (A) (A) (A) (A)
                 (A) (A) (A) (A) (A) (A) (A) (A) (A) (A) (A) (A)
                 (A) (A) (A) (A) (A) (A) (A) (A) (A) (A) (A) (A)
 The electronic state is 1-A.
 Alpha  occ. eigenvalues --  -19.62725 -19.62689 -19.62572 -10.63332 -10.58805
 Alpha  occ. eigenvalues --  -10.57910 -10.57733 -10.57524 -10.53233 -10.52936
 Alpha  occ. eigenvalues --  -10.52872 -10.52839 -10.52703  -1.20074  -1.16576
 Alpha  occ. eigenvalues --   -1.13314  -0.90892  -0.89693  -0.87208  -0.84878
 Alpha  occ. eigenvalues --   -0.74705  -0.74016  -0.73162  -0.71782  -0.66442
 Alpha  occ. eigenvalues --   -0.62850  -0.59570  -0.58164  -0.57997  -0.55925
 Alpha  occ. eigenvalues --   -0.54534  -0.53423  -0.52060  -0.51097  -0.50028
 Alpha  occ. eigenvalues --   -0.48318  -0.47075  -0.46081  -0.45495  -0.45079
 Alpha  occ. eigenvalues --   -0.43750  -0.42678  -0.41290  -0.40332  -0.38830
 Alpha  occ. eigenvalues --   -0.38448  -0.37509  -0.36647  -0.34685  -0.33218
 Alpha  occ. eigenvalues --   -0.31708
 Alpha virt. eigenvalues --   -0.00166   0.00820   0.00822   0.01068   0.02204
 Alpha virt. eigenvalues --    0.02542   0.02673   0.03231   0.03287   0.04629
 Alpha virt. eigenvalues --    0.04776   0.04849   0.05230   0.05893   0.07074
 Alpha virt. eigenvalues --    0.07528   0.07713   0.08195   0.09129   0.09548
 Alpha virt. eigenvalues --    0.09827   0.10613   0.10939   0.11389   0.11965
 Alpha virt. eigenvalues --    0.12257   0.12654   0.13089   0.13203   0.13483
 Alpha virt. eigenvalues --    0.13770   0.13835   0.14321   0.14621   0.14849
 Alpha virt. eigenvalues --    0.15062   0.15232   0.15551   0.15708   0.16050
 Alpha virt. eigenvalues --    0.16602   0.16866   0.17080   0.17488   0.17835
 Alpha virt. eigenvalues --    0.18070   0.18382   0.18696   0.18965   0.19376
 Alpha virt. eigenvalues --    0.19933   0.20153   0.20664   0.20802   0.21150
 Alpha virt. eigenvalues --    0.21593   0.21988   0.22804   0.23671   0.23873
 Alpha virt. eigenvalues --    0.24635   0.25755   0.26251   0.26694   0.27009
 Alpha virt. eigenvalues --    0.27115   0.27917   0.28470   0.28962   0.29107
 Alpha virt. eigenvalues --    0.29572   0.30490   0.30823   0.31689   0.32265
 Alpha virt. eigenvalues --    0.32617   0.33187   0.33488   0.34217   0.34591
 Alpha virt. eigenvalues --    0.34914   0.35374   0.35737   0.36041   0.36540
 Alpha virt. eigenvalues --    0.37079   0.37111   0.37600   0.37813   0.38326
 Alpha virt. eigenvalues --    0.38571   0.39084   0.39456   0.39716   0.40594
 Alpha virt. eigenvalues --    0.40927   0.42052   0.43683   0.44513   0.45625
 Alpha virt. eigenvalues --    0.46988   0.47779   0.49583   0.49711   0.50059
 Alpha virt. eigenvalues --    0.51895   0.52335   0.52745   0.53982   0.55471
 Alpha virt. eigenvalues --    0.56567   0.57631   0.58395   0.59044   0.59968
 Alpha virt. eigenvalues --    0.60367   0.60769   0.61265   0.61486   0.61729
 Alpha virt. eigenvalues --    0.62243   0.62707   0.63112   0.64215   0.64477
 Alpha virt. eigenvalues --    0.64878   0.65106   0.65778   0.66071   0.66637
 Alpha virt. eigenvalues --    0.67742   0.68422   0.68714   0.69331   0.69938
 Alpha virt. eigenvalues --    0.70346   0.70985   0.72167   0.72784   0.73293
 Alpha virt. eigenvalues --    0.73888   0.74158   0.74440   0.75519   0.75803
 Alpha virt. eigenvalues --    0.76818   0.77506   0.78381   0.78652   0.79541
 Alpha virt. eigenvalues --    0.81139   0.82019   0.83027   0.85139   0.85839
 Alpha virt. eigenvalues --    0.86624   0.87141   0.87823   0.88224   0.89801
 Alpha virt. eigenvalues --    0.90308   0.91916   0.93780   0.94925   0.96585
 Alpha virt. eigenvalues --    0.97688   0.98600   0.99385   1.00365   1.02006
 Alpha virt. eigenvalues --    1.03107   1.03285   1.04288   1.04900   1.06247
 Alpha virt. eigenvalues --    1.07462   1.09888   1.10422   1.11420   1.12272
 Alpha virt. eigenvalues --    1.13847   1.14618   1.15020   1.15770   1.17073
 Alpha virt. eigenvalues --    1.18082   1.18838   1.19213   1.20282   1.20963
 Alpha virt. eigenvalues --    1.21832   1.22376   1.22857   1.22992   1.24588
 Alpha virt. eigenvalues --    1.24804   1.24936   1.26367   1.26773   1.27796
 Alpha virt. eigenvalues --    1.29019   1.29506   1.30545   1.31615   1.32178
 Alpha virt. eigenvalues --    1.32397   1.32732   1.33252   1.33566   1.34167
 Alpha virt. eigenvalues --    1.36362   1.36615   1.36830   1.37142   1.37332
 Alpha virt. eigenvalues --    1.38476   1.39689   1.40326   1.40662   1.40798
 Alpha virt. eigenvalues --    1.42019   1.42413   1.43459   1.44271   1.44703
 Alpha virt. eigenvalues --    1.45782   1.46686   1.47007   1.47538   1.48287
 Alpha virt. eigenvalues --    1.48833   1.50100   1.50220   1.51048   1.52331
 Alpha virt. eigenvalues --    1.52871   1.53705   1.54637   1.54719   1.56162
 Alpha virt. eigenvalues --    1.56729   1.56881   1.57538   1.58275   1.58569
 Alpha virt. eigenvalues --    1.59691   1.60081   1.60762   1.61215   1.62743
 Alpha virt. eigenvalues --    1.63197   1.63970   1.65361   1.66097   1.66488
 Alpha virt. eigenvalues --    1.67505   1.68040   1.69765   1.71503   1.72169
 Alpha virt. eigenvalues --    1.73459   1.73820   1.75674   1.76445   1.78319
 Alpha virt. eigenvalues --    1.79144   1.80284   1.81769   1.82460   1.83550
 Alpha virt. eigenvalues --    1.84851   1.88758   1.94129   1.98313   2.00985
 Alpha virt. eigenvalues --    2.04330   2.06379   2.12058   2.18539   2.22185
 Alpha virt. eigenvalues --    2.24543   2.26580   2.31277   2.33719   2.41027
 Alpha virt. eigenvalues --    2.42343   2.44469   2.45121   2.46393   2.49707
 Alpha virt. eigenvalues --    2.58763   2.75725   2.77254   2.80323   2.81145
 Alpha virt. eigenvalues --    2.82054   2.87460   2.91609   2.92551   2.93407
 Alpha virt. eigenvalues --    2.96296   2.97820   2.98060   3.00390   3.03639
 Alpha virt. eigenvalues --    3.06494   3.07111   3.08925   3.09414   3.11646
 Alpha virt. eigenvalues --    3.12487   3.13811   3.16033   3.19143   3.22571
 Alpha virt. eigenvalues --    3.24874   3.29856   3.31455   3.33519   3.34143
 Alpha virt. eigenvalues --    3.34997   3.35805   3.37858   3.40037   3.40855
 Alpha virt. eigenvalues --    3.43407   3.44386   3.45774   3.46322   3.46782
 Alpha virt. eigenvalues --    3.48051   3.48368   3.50472   3.50543   3.52701
 Alpha virt. eigenvalues --    3.53319   3.53566   3.54900   3.55386   3.55917
 Alpha virt. eigenvalues --    3.57025   3.57798   3.58642   3.59005   3.59623
 Alpha virt. eigenvalues --    3.60934   3.62073   3.64136   3.64215   3.64496
 Alpha virt. eigenvalues --    3.65991   3.66300   3.67355   3.68172   3.69542
 Alpha virt. eigenvalues --    3.70718   3.71046   3.72194   3.72819   3.74016
 Alpha virt. eigenvalues --    3.74769   3.74996   3.75534   3.76435   3.77778
 Alpha virt. eigenvalues --    3.79635   3.79963   3.80695   3.82612   3.83537
 Alpha virt. eigenvalues --    3.86152   3.88191   3.89317   3.91085   3.91670
 Alpha virt. eigenvalues --    3.92841   3.94474   3.95065   3.97018   3.97759
 Alpha virt. eigenvalues --    3.98931   4.00440   4.02141   4.02556   4.04069
 Alpha virt. eigenvalues --    4.05149   4.05497   4.06614   4.06977   4.07650
 Alpha virt. eigenvalues --    4.08457   4.09100   4.09322   4.10492   4.11390
 Alpha virt. eigenvalues --    4.11671   4.12553   4.13691   4.14725   4.15083
 Alpha virt. eigenvalues --    4.15868   4.17517   4.18774   4.20291   4.20779
 Alpha virt. eigenvalues --    4.21396   4.22525   4.24176   4.27014   4.27663
 Alpha virt. eigenvalues --    4.27953   4.28947   4.30681   4.31394   4.32389
 Alpha virt. eigenvalues --    4.32791   4.33803   4.34218   4.35441   4.37744
 Alpha virt. eigenvalues --    4.39412   4.42314   4.45388   4.46490   4.47033
 Alpha virt. eigenvalues --    4.58067   4.61885   4.73882   4.75545   4.81913
 Alpha virt. eigenvalues --    4.85462   4.93702   4.96089   5.00324   5.03796
 Alpha virt. eigenvalues --    5.06327   5.07345   5.08189   5.08837   5.11052
 Alpha virt. eigenvalues --    5.12094   5.13750   5.14246   5.32745   5.37329
 Alpha virt. eigenvalues --    5.43762   5.57633   5.59486   5.65853   5.86978
 Alpha virt. eigenvalues --    5.87497   6.07690   7.04060   7.04972   7.06715
 Alpha virt. eigenvalues --    7.09638   7.10442   7.12603   7.14175   7.17731
 Alpha virt. eigenvalues --    7.28309   7.36179   7.40231   7.44689   7.52756
 Alpha virt. eigenvalues --    7.56721   7.64671  23.95162  23.98331  24.05815
 Alpha virt. eigenvalues --   24.07795  24.10722  24.12235  24.13493  24.16265
 Alpha virt. eigenvalues --   24.17131  24.21441  50.16826  50.18606  50.26877
          Condensed to atoms (all electrons):
               1          2          3          4          5          6
     1  C    5.702800   0.249330   0.006488   0.010283  -0.001941  -0.000176
     2  C    0.249330   7.239812   0.077328   0.031883   0.017213  -0.008407
     3  C    0.006488   0.077328   6.896370   0.013745  -0.174634  -0.017753
     4  C    0.010283   0.031883   0.013745   5.566052   0.003164   0.002645
     5  C   -0.001941   0.017213  -0.174634   0.003164   5.464659   0.108777
     6  O   -0.000176  -0.008407  -0.017753   0.002645   0.108777   8.263856
     7  C   -0.053297  -0.481668  -0.037025   0.000774  -0.003919   0.000582
     8  C    0.026582  -0.899457  -1.058928   0.011280   0.255769   0.051649
     9  C   -0.003688   0.086370  -0.142725  -0.015617   0.054455   0.006841
    10  C   -0.005426   0.137981   0.336593   0.011409  -0.242810   0.114704
    11  O   -0.068132   0.303721  -0.036730  -0.002584  -0.000343   0.000292
    12  O   -0.024342   0.257759  -0.060866  -0.022088  -0.006656   0.028097
    13  C   -0.196253  -1.076917  -0.237268  -0.114483   0.017040  -0.000675
    14  H    0.479262   0.000729  -0.001264  -0.020067   0.000035   0.000010
    15  H    0.443474   0.004255   0.003253  -0.039757  -0.000309  -0.000000
    16  H   -0.000103   0.003126   0.497610   0.000366  -0.014858   0.002389
    17  H   -0.019401   0.015482  -0.001186   0.419975   0.000410  -0.000103
    18  H   -0.084859  -0.017766   0.001002   0.530353   0.001789  -0.000176
    19  H   -0.097788  -0.003149  -0.012394  -0.001283   0.003227  -0.000094
    20  H   -0.015408  -0.000315  -0.000067   0.004838  -0.000221  -0.000007
    21  H    0.004322  -0.009003  -0.001434   0.001766  -0.105025  -0.013116
    22  H    0.000087   0.006637  -0.057257  -0.000931  -0.024515   0.010152
    23  H    0.000194  -0.002695  -0.035771   0.000748  -0.012275  -0.052991
    24  H   -0.001496   0.011376   0.007673  -0.005676   0.008572  -0.083132
    25  H   -0.019013  -0.147958  -0.003759  -0.022240   0.000271  -0.000003
    26  H   -0.002622  -0.028445  -0.000733  -0.034931  -0.001451   0.000031
    27  H    0.017223   0.461427   0.030338   0.011443  -0.000398   0.000463
    28  H    0.000044  -0.002075  -0.029737   0.000165   0.450631  -0.064251
    29  H   -0.000358   0.002059   0.004271  -0.000028   0.450931  -0.064981
    30  H    0.002207  -0.016722   0.400818   0.000188  -0.006855  -0.002685
    31  H    0.002187  -0.022119   0.034540  -0.001993  -0.015947   0.008317
               7          8          9         10         11         12
     1  C   -0.053297   0.026582  -0.003688  -0.005426  -0.068132  -0.024342
     2  C   -0.481668  -0.899457   0.086370   0.137981   0.303721   0.257759
     3  C   -0.037025  -1.058928  -0.142725   0.336593  -0.036730  -0.060866
     4  C    0.000774   0.011280  -0.015617   0.011409  -0.002584  -0.022088
     5  C   -0.003919   0.255769   0.054455  -0.242810  -0.000343  -0.006656
     6  O    0.000582   0.051649   0.006841   0.114704   0.000292   0.028097
     7  C    5.481567   0.092910   0.015019  -0.002569   0.111955   0.014761
     8  C    0.092910   7.872245  -0.259333  -0.633060   0.003365  -0.009058
     9  C    0.015019  -0.259333   5.629651   0.087593   0.000703  -0.008869
    10  C   -0.002569  -0.633060   0.087593   5.957408   0.000207  -0.106364
    11  O    0.111955   0.003365   0.000703   0.000207   8.228767  -0.047667
    12  O    0.014761  -0.009058  -0.008869  -0.106364  -0.047667   8.279622
    13  C    0.210585   0.211268   0.023899  -0.106188  -0.034687  -0.050542
    14  H   -0.082036  -0.005528   0.000381  -0.000332  -0.004503  -0.000598
    15  H   -0.038312   0.002681  -0.000713   0.000704   0.010791   0.000476
    16  H   -0.000584  -0.072811  -0.033245  -0.010459  -0.000313   0.006445
    17  H    0.010881   0.004895  -0.001431   0.000185  -0.003042   0.000395
    18  H    0.003677  -0.007215   0.001483  -0.004056   0.001582  -0.000202
    19  H    0.488094  -0.012996   0.001003   0.002522  -0.034941   0.001927
    20  H    0.430108   0.006272  -0.000045   0.000136  -0.074163   0.000530
    21  H   -0.002294  -0.024192   0.503818   0.020451   0.000569  -0.001318
    22  H    0.000240  -0.005067   0.450988  -0.003531  -0.000244   0.001487
    23  H    0.001344  -0.063697   0.030362   0.477377   0.000467   0.011601
    24  H    0.003696  -0.025400   0.008634   0.399024   0.000719  -0.011139
    25  H    0.013673   0.005545   0.000586  -0.005494  -0.007532   0.010495
    26  H    0.003944   0.007206   0.001177  -0.010583   0.010356   0.001873
    27  H   -0.022150   0.037512  -0.012476   0.016243  -0.062530  -0.041222
    28  H   -0.000003   0.025911  -0.014294  -0.022267   0.000006   0.001346
    29  H    0.000236   0.011597  -0.060020  -0.005076  -0.000019   0.000998
    30  H    0.000986   0.014194  -0.025856   0.000792  -0.001014   0.001634
    31  H   -0.000373   0.396179  -0.009469  -0.024637  -0.001517  -0.009513
              13         14         15         16         17         18
     1  C   -0.196253   0.479262   0.443474  -0.000103  -0.019401  -0.084859
     2  C   -1.076917   0.000729   0.004255   0.003126   0.015482  -0.017766
     3  C   -0.237268  -0.001264   0.003253   0.497610  -0.001186   0.001002
     4  C   -0.114483  -0.020067  -0.039757   0.000366   0.419975   0.530353
     5  C    0.017040   0.000035  -0.000309  -0.014858   0.000410   0.001789
     6  O   -0.000675   0.000010  -0.000000   0.002389  -0.000103  -0.000176
     7  C    0.210585  -0.082036  -0.038312  -0.000584   0.010881   0.003677
     8  C    0.211268  -0.005528   0.002681  -0.072811   0.004895  -0.007215
     9  C    0.023899   0.000381  -0.000713  -0.033245  -0.001431   0.001483
    10  C   -0.106188  -0.000332   0.000704  -0.010459   0.000185  -0.004056
    11  O   -0.034687  -0.004503   0.010791  -0.000313  -0.003042   0.001582
    12  O   -0.050542  -0.000598   0.000476   0.006445   0.000395  -0.000202
    13  C    6.863206  -0.000861  -0.013574   0.005075  -0.050213  -0.049219
    14  H   -0.000861   0.484272  -0.010792   0.000025  -0.001597   0.001308
    15  H   -0.013574  -0.010792   0.489153  -0.000045  -0.007896  -0.005129
    16  H    0.005075   0.000025  -0.000045   0.430231   0.000058  -0.000111
    17  H   -0.050213  -0.001597  -0.007896   0.000058   0.465873  -0.006171
    18  H   -0.049219   0.001308  -0.005129  -0.000111  -0.006171   0.468875
    19  H    0.038475   0.004761  -0.000944   0.000242  -0.001197  -0.000437
    20  H   -0.007070  -0.006987  -0.008353  -0.000034   0.001102  -0.002885
    21  H   -0.005123  -0.000038   0.000415   0.003612   0.000240  -0.004808
    22  H   -0.000960   0.000011  -0.000033  -0.006920  -0.000119   0.000441
    23  H   -0.001758  -0.000058   0.000048  -0.006113   0.000030  -0.000150
    24  H    0.015183  -0.000122  -0.000053  -0.001529  -0.000364   0.000286
    25  H    0.559221  -0.002118  -0.003020   0.000026  -0.003169   0.002388
    26  H    0.418697  -0.000961   0.001191  -0.000037  -0.009407  -0.000952
    27  H   -0.118483   0.000758   0.001895   0.000783   0.002497  -0.003386
    28  H   -0.002634  -0.000001   0.000018  -0.006102  -0.000029  -0.000058
    29  H    0.002939   0.000011  -0.000043  -0.001411   0.000026   0.000312
    30  H   -0.003783  -0.000118   0.000641   0.002061   0.000086   0.000350
    31  H   -0.021555  -0.000366   0.000178  -0.009429  -0.000031  -0.000389
              19         20         21         22         23         24
     1  C   -0.097788  -0.015408   0.004322   0.000087   0.000194  -0.001496
     2  C   -0.003149  -0.000315  -0.009003   0.006637  -0.002695   0.011376
     3  C   -0.012394  -0.000067  -0.001434  -0.057257  -0.035771   0.007673
     4  C   -0.001283   0.004838   0.001766  -0.000931   0.000748  -0.005676
     5  C    0.003227  -0.000221  -0.105025  -0.024515  -0.012275   0.008572
     6  O   -0.000094  -0.000007  -0.013116   0.010152  -0.052991  -0.083132
     7  C    0.488094   0.430108  -0.002294   0.000240   0.001344   0.003696
     8  C   -0.012996   0.006272  -0.024192  -0.005067  -0.063697  -0.025400
     9  C    0.001003  -0.000045   0.503818   0.450988   0.030362   0.008634
    10  C    0.002522   0.000136   0.020451  -0.003531   0.477377   0.399024
    11  O   -0.034941  -0.074163   0.000569  -0.000244   0.000467   0.000719
    12  O    0.001927   0.000530  -0.001318   0.001487   0.011601  -0.011139
    13  C    0.038475  -0.007070  -0.005123  -0.000960  -0.001758   0.015183
    14  H    0.004761  -0.006987  -0.000038   0.000011  -0.000058  -0.000122
    15  H   -0.000944  -0.008353   0.000415  -0.000033   0.000048  -0.000053
    16  H    0.000242  -0.000034   0.003612  -0.006920  -0.006113  -0.001529
    17  H   -0.001197   0.001102   0.000240  -0.000119   0.000030  -0.000364
    18  H   -0.000437  -0.002885  -0.004808   0.000441  -0.000150   0.000286
    19  H    0.512345  -0.017680  -0.002411   0.000324  -0.000477   0.000240
    20  H   -0.017680   0.477212   0.000259  -0.000011   0.000146   0.000016
    21  H   -0.002411   0.000259   0.489157  -0.015328  -0.000239  -0.001879
    22  H    0.000324  -0.000011  -0.015328   0.480010   0.000044   0.001844
    23  H   -0.000477   0.000146  -0.000239   0.000044   0.473715  -0.010139
    24  H    0.000240   0.000016  -0.001879   0.001844  -0.010139   0.497039
    25  H   -0.001006   0.000198  -0.000218   0.000054  -0.000231   0.002082
    26  H   -0.000029   0.001138  -0.000081   0.000188   0.000303  -0.001307
    27  H   -0.001216   0.000264   0.001785  -0.000663  -0.000419  -0.016276
    28  H   -0.000142   0.000019   0.000366   0.004676   0.008288  -0.001869
    29  H    0.000197  -0.000015  -0.005927  -0.007813  -0.002022   0.001401
    30  H   -0.004704   0.001111   0.001046  -0.010347   0.000699  -0.000439
    31  H   -0.001622  -0.000395  -0.000170   0.000873  -0.001152  -0.005064
              25         26         27         28         29         30
     1  C   -0.019013  -0.002622   0.017223   0.000044  -0.000358   0.002207
     2  C   -0.147958  -0.028445   0.461427  -0.002075   0.002059  -0.016722
     3  C   -0.003759  -0.000733   0.030338  -0.029737   0.004271   0.400818
     4  C   -0.022240  -0.034931   0.011443   0.000165  -0.000028   0.000188
     5  C    0.000271  -0.001451  -0.000398   0.450631   0.450931  -0.006855
     6  O   -0.000003   0.000031   0.000463  -0.064251  -0.064981  -0.002685
     7  C    0.013673   0.003944  -0.022150  -0.000003   0.000236   0.000986
     8  C    0.005545   0.007206   0.037512   0.025911   0.011597   0.014194
     9  C    0.000586   0.001177  -0.012476  -0.014294  -0.060020  -0.025856
    10  C   -0.005494  -0.010583   0.016243  -0.022267  -0.005076   0.000792
    11  O   -0.007532   0.010356  -0.062530   0.000006  -0.000019  -0.001014
    12  O    0.010495   0.001873  -0.041222   0.001346   0.000998   0.001634
    13  C    0.559221   0.418697  -0.118483  -0.002634   0.002939  -0.003783
    14  H   -0.002118  -0.000961   0.000758  -0.000001   0.000011  -0.000118
    15  H   -0.003020   0.001191   0.001895   0.000018  -0.000043   0.000641
    16  H    0.000026  -0.000037   0.000783  -0.006102  -0.001411   0.002061
    17  H   -0.003169  -0.009407   0.002497  -0.000029   0.000026   0.000086
    18  H    0.002388  -0.000952  -0.003386  -0.000058   0.000312   0.000350
    19  H   -0.001006  -0.000029  -0.001216  -0.000142   0.000197  -0.004704
    20  H    0.000198   0.001138   0.000264   0.000019  -0.000015   0.001111
    21  H   -0.000218  -0.000081   0.001785   0.000366  -0.005927   0.001046
    22  H    0.000054   0.000188  -0.000663   0.004676  -0.007813  -0.010347
    23  H   -0.000231   0.000303  -0.000419   0.008288  -0.002022   0.000699
    24  H    0.002082  -0.001307  -0.016276  -0.001869   0.001401  -0.000439
    25  H    0.454285  -0.005461  -0.016595  -0.000030   0.000032  -0.000102
    26  H   -0.005461   0.489365  -0.008055   0.000153   0.000291  -0.000013
    27  H   -0.016595  -0.008055   0.464771  -0.000300  -0.000320   0.001270
    28  H   -0.000030   0.000153  -0.000300   0.497738  -0.006599   0.001495
    29  H    0.000032   0.000291  -0.000320  -0.006599   0.479831  -0.000266
    30  H   -0.000102  -0.000013   0.001270   0.001495  -0.000266   0.481277
    31  H    0.000257   0.000061  -0.002829   0.002302  -0.000054  -0.005378
              31
     1  C    0.002187
     2  C   -0.022119
     3  C    0.034540
     4  C   -0.001993
     5  C   -0.015947
     6  O    0.008317
     7  C   -0.000373
     8  C    0.396179
     9  C   -0.009469
    10  C   -0.024637
    11  O   -0.001517
    12  O   -0.009513
    13  C   -0.021555
    14  H   -0.000366
    15  H    0.000178
    16  H   -0.009429
    17  H   -0.000031
    18  H   -0.000389
    19  H   -0.001622
    20  H   -0.000395
    21  H   -0.000170
    22  H    0.000873
    23  H   -0.001152
    24  H   -0.005064
    25  H    0.000257
    26  H    0.000061
    27  H   -0.002829
    28  H    0.002302
    29  H   -0.000054
    30  H   -0.005378
    31  H    0.423448
 Mulliken charges:
               1
     1  C   -0.350179
     2  C   -0.189790
     3  C   -0.400498
     4  C   -0.339397
     5  C   -0.224785
     6  O   -0.290255
     7  C   -0.160801
     8  C    0.039684
     9  C   -0.315180
    10  C   -0.380479
    11  O   -0.293537
    12  O   -0.218999
    13  C   -0.273341
    14  H    0.166784
    15  H    0.169802
    16  H    0.212054
    17  H    0.183221
    18  H    0.174122
    19  H    0.141154
    20  H    0.210307
    21  H    0.164797
    22  H    0.175682
    23  H    0.184820
    24  H    0.208098
    25  H    0.188838
    26  H    0.169092
    27  H    0.258645
    28  H    0.157236
    29  H    0.199821
    30  H    0.167428
    31  H    0.265659
 Sum of Mulliken charges =  -0.00000
 Mulliken charges with hydrogens summed into heavy atoms:
               1
     1  C   -0.013594
     2  C    0.068855
     3  C   -0.021016
     4  C    0.017946
     5  C    0.132272
     6  O   -0.290255
     7  C    0.190660
     8  C    0.305343
     9  C    0.025298
    10  C    0.012439
    11  O   -0.293537
    12  O   -0.218999
    13  C    0.084588
 Electronic spatial extent (au):  <R**2>=           2844.7873
 Charge=             -0.0000 electrons
 Dipole moment (field-independent basis, Debye):
    X=             -0.4689    Y=              1.2486    Z=              0.0344  Tot=              1.3342
 Quadrupole moment (field-independent basis, Debye-Ang):
   XX=            -72.9931   YY=            -80.8437   ZZ=            -78.7838
   XY=             -6.5461   XZ=              4.3649   YZ=              3.0358
 Traceless Quadrupole moment (field-independent basis, Debye-Ang):
   XX=              4.5471   YY=             -3.3035   ZZ=             -1.2436
   XY=             -6.5461   XZ=              4.3649   YZ=              3.0358
 Octapole moment (field-independent basis, Debye-Ang**2):
  XXX=             -7.6927  YYY=              5.9745  ZZZ=             -2.1610  XYY=             11.8319
  XXY=             15.6724  XXZ=             11.9271  XZZ=            -13.3472  YZZ=             -5.2367
  YYZ=             -1.8669  XYZ=              2.9338
 Hexadecapole moment (field-independent basis, Debye-Ang**3):
 XXXX=          -2644.9103 YYYY=           -583.7954 ZZZZ=           -472.7969 XXXY=            -13.7884
 XXXZ=             -7.8080 YYYX=             -0.2732 YYYZ=              1.1985 ZZZX=              3.1169
 ZZZY=              4.3299 XXYY=           -558.5690 XXZZ=           -526.9758 YYZZ=           -171.8789
 XXYZ=              1.8391 YYXZ=             -2.1051 ZZXY=              3.2094
 N-N= 9.031143726724D+02 E-N=-3.248351663758D+03  KE= 6.153384181676D+02
 D1PCM: PCM CHGder 1st derivatives, ID1Alg=3 FixD1E=F DoIter=F DoCFld=F I1PDM=0.
 Calling FoFJK, ICntrl=      2127 FMM=F ISym2X=0 I1Cent= 0 IOpClX= 0 NMat=1 NMatS=1 NMatT=0.
 ***** Axes restored to original set *****
 -------------------------------------------------------------------
 Center     Atomic                   Forces (Hartrees/Bohr)
 Number     Number              X              Y              Z
 -------------------------------------------------------------------
      1        6          -0.002571511    0.000265475    0.000684650
      2        6           0.004675006    0.002623616    0.008741659
      3        6          -0.000622557   -0.004075960    0.000663461
      4        6           0.000053789    0.001579443   -0.003619998
      5        6           0.005998433    0.003149491   -0.001809243
      6        8           0.002098280   -0.008259080    0.002032424
      7        6          -0.000362248   -0.006625646    0.001540947
      8        6           0.000862752    0.000463469    0.001508938
      9        6          -0.000930201    0.000127172   -0.002412950
     10        6          -0.001101563    0.004439019    0.006034159
     11        8           0.001196970    0.002612890   -0.012028471
     12        8          -0.003109114   -0.002456517    0.011364017
     13        6          -0.000423620    0.001762338    0.001629779
     14        1           0.001989467   -0.001274267   -0.002350814
     15        1           0.001250284    0.000966374    0.002389652
     16        1          -0.002698598    0.001176617   -0.002152231
     17        1           0.001409228   -0.001865236    0.001052757
     18        1          -0.002969852    0.001617065    0.001532901
     19        1          -0.004313113    0.001867363    0.004299301
     20        1           0.002722713    0.002955901   -0.001819536
     21        1           0.002841461   -0.001618710    0.001395722
     22        1          -0.001497750    0.002166080    0.001206288
     23        1          -0.004048728    0.002380545   -0.004432022
     24        1           0.003570969   -0.003771819   -0.002126661
     25        1           0.002520896   -0.000954331   -0.002160972
     26        1          -0.002551170   -0.002051550    0.001026444
     27        1          -0.002076687   -0.002888496   -0.007494582
     28        1          -0.004524669    0.002864814   -0.003332976
     29        1          -0.001536538   -0.002140126    0.003463714
     30        1           0.002551655    0.001803237    0.000662738
     31        1           0.001596015    0.003160828   -0.005489092
 -------------------------------------------------------------------
 Cartesian Forces:  Max     0.012028471 RMS     0.003439248

 GradGradGradGradGradGradGradGradGradGradGradGradGradGradGradGradGradGrad
 Berny optimization.
 FormGI is forming the generalized inverse of G from B-inverse, IUseBI=4.
 Internal  Forces:  Max     0.009739884 RMS     0.001978989
 Search for a local minimum.
 Step number   1 out of a maximum of  186
 All quantities printed in internal units (Hartrees-Bohrs-Radians)
 Mixed Optimization -- RFO/linear search
 Second derivative matrix not updated -- first step.
 ITU=  0
     Eigenvalues ---    0.00620   0.00627   0.00725   0.00727   0.01409
     Eigenvalues ---    0.01412   0.01439   0.02700   0.02824   0.03072
     Eigenvalues ---    0.03109   0.04096   0.04349   0.04745   0.04746
     Eigenvalues ---    0.04867   0.04882   0.05069   0.05113   0.05201
     Eigenvalues ---    0.05294   0.05682   0.05847   0.06167   0.06212
     Eigenvalues ---    0.06611   0.06796   0.06861   0.07349   0.07844
     Eigenvalues ---    0.07950   0.07958   0.07961   0.08138   0.08151
     Eigenvalues ---    0.08224   0.08886   0.09457   0.10818   0.11577
     Eigenvalues ---    0.11706   0.11720   0.11759   0.12398   0.12542
     Eigenvalues ---    0.14470   0.14635   0.16039   0.16261   0.17576
     Eigenvalues ---    0.18991   0.21605   0.21821   0.25000   0.28509
     Eigenvalues ---    0.28618   0.28778   0.28828   0.28939   0.29175
     Eigenvalues ---    0.30221   0.30314   0.35040   0.35090   0.35091
     Eigenvalues ---    0.35141   0.35183   0.35196   0.35238   0.35259
     Eigenvalues ---    0.35286   0.35317   0.35418   0.35438   0.35438
     Eigenvalues ---    0.35455   0.35819   0.35840   0.35871   0.36033
     Eigenvalues ---    0.40853   0.41503   0.42282   0.42287   0.43066
     Eigenvalues ---    0.461351000.000001000.000001000.000001000.00000
     Eigenvalues --- 1000.000001000.000001000.000001000.000001000.00000
     Eigenvalues --- 1000.000001000.000001000.000001000.000001000.00000
     Eigenvalues --- 1000.000001000.000001000.000001000.000001000.00000
     Eigenvalues --- 1000.000001000.000001000.000001000.000001000.00000
     Eigenvalues --- 1000.000001000.000001000.000001000.000001000.00000
     Eigenvalues --- 1000.000001000.000001000.000001000.000001000.00000
     Eigenvalues --- 1000.000001000.000001000.000001000.000001000.00000
     Eigenvalues --- 1000.000001000.000001000.000001000.000001000.00000
     Eigenvalues --- 1000.000001000.000001000.000001000.000001000.00000
     Eigenvalues --- 1000.000001000.000001000.000001000.000001000.00000
     Eigenvalues --- 1000.000001000.000001000.000001000.000001000.00000
     Eigenvalues --- 1000.000001000.000001000.000001000.000001000.00000
     Eigenvalues --- 1000.000001000.000001000.000001000.000001000.00000
     Eigenvalues --- 1000.000001000.000001000.000001000.000001000.00000
     Eigenvalues --- 1000.000001000.000001000.000001000.000001000.00000
     Eigenvalues --- 1000.000001000.000001000.000001000.000001000.00000
     Eigenvalues --- 1000.000001000.000001000.000001000.000001000.00000
     Eigenvalues --- 1000.000001000.000001000.000001000.000001000.00000
     Eigenvalues --- 1000.000001000.000001000.000001000.000001000.00000
 RFO step:  Lambda=-2.98021651D-03 EMin= 6.19746087D-03
 Linear search not attempted -- first point.
 Iteration  1 RMS(Cart)=  0.03237727 RMS(Int)=  0.00031756
 Iteration  2 RMS(Cart)=  0.00064636 RMS(Int)=  0.00005323
 Iteration  3 RMS(Cart)=  0.00000014 RMS(Int)=  0.00005323
 Iteration  1 RMS(Cart)=  0.00002410 RMS(Int)=  0.00000551
 Iteration  2 RMS(Cart)=  0.00001266 RMS(Int)=  0.00000615
 Iteration  3 RMS(Cart)=  0.00000665 RMS(Int)=  0.00000692
 Iteration  4 RMS(Cart)=  0.00000350 RMS(Int)=  0.00000741
 Iteration  5 RMS(Cart)=  0.00000184 RMS(Int)=  0.00000768
 Iteration  6 RMS(Cart)=  0.00000096 RMS(Int)=  0.00000783
 Variable       Old X    -DE/DX   Delta X   Delta X   Delta X     New X
                                 (Linear)    (Quad)   (Total)
    R1        2.88872  -0.00076   0.00000  -0.00250  -0.00249   2.88623
    R2        2.87149   0.00026   0.00000   0.00064   0.00069   2.87218
    R3        2.05528   0.00326   0.00000   0.00922   0.00922   2.06450
    R4        2.05290   0.00284   0.00000   0.00799   0.00799   2.06088
    R5        2.65706   0.00297   0.00000   0.00656   0.00655   2.66361
    R6        2.63979   0.00369   0.00000   0.00795   0.00795   2.64775
    R7        2.87544  -0.00074   0.00000  -0.00221  -0.00226   2.87318
    R8        2.04029   0.00828   0.00000   0.02279   0.02279   2.06309
    R9        2.88218  -0.00193   0.00000  -0.00669  -0.00672   2.87546
   R10        2.89208  -0.00110   0.00000  -0.00441  -0.00443   2.88764
   R11        2.05447   0.00363   0.00000   0.01024   0.01024   2.06471
   R12        2.05001   0.00309   0.00000   0.00866   0.00866   2.05867
   R13        2.89027  -0.00152   0.00000  -0.00480  -0.00481   2.88546
   R14        2.05163   0.00256   0.00000   0.00719   0.00719   2.05881
   R15        2.05379   0.00353   0.00000   0.00995   0.00995   2.06374
   R16        2.67602   0.00322   0.00000   0.00764   0.00767   2.68369
   R17        2.87343   0.00037   0.00000   0.00075   0.00073   2.87417
   R18        2.05611   0.00620   0.00000   0.01754   0.01754   2.07365
   R19        2.04365   0.00435   0.00000   0.01206   0.01206   2.05571
   R20        2.66704   0.00197   0.00000   0.00493   0.00495   2.67199
   R21        2.68634   0.00278   0.00000   0.00634   0.00634   2.69268
   R22        2.04970   0.00626   0.00000   0.01751   0.01751   2.06720
   R23        2.04332   0.00441   0.00000   0.01220   0.01220   2.05552
   R24        2.87719   0.00058   0.00000   0.00244   0.00246   2.87966
   R25        2.68559   0.00095   0.00000   0.00223   0.00223   2.68782
   R26        2.04943   0.00650   0.00000   0.01817   0.01817   2.06760
   R27        2.05213   0.00334   0.00000   0.00939   0.00939   2.06152
   R28        2.05257   0.00288   0.00000   0.00809   0.00809   2.06066
   R29        2.05529   0.00639   0.00000   0.01804   0.01804   2.07333
   R30        2.04284   0.00555   0.00000   0.01534   0.01534   2.05818
   R31        2.05358   0.00340   0.00000   0.00959   0.00959   2.06318
   R32        2.04970   0.00340   0.00000   0.00951   0.00951   2.05921
    A1        1.92302  -0.00106   0.00000  -0.00647  -0.00668   1.91633
    A2        1.91590   0.00093   0.00000   0.00152   0.00161   1.91751
    A3        1.93953  -0.00053   0.00000  -0.00150  -0.00147   1.93806
    A4        1.90597   0.00008   0.00000  -0.00100  -0.00094   1.90503
    A5        1.90281   0.00063   0.00000   0.00404   0.00410   1.90691
    A6        1.87574  -0.00001   0.00000   0.00367   0.00364   1.87937
    A7        1.92721   0.00072   0.00000   0.00313   0.00329   1.93050
    A8        1.93875   0.00372   0.00000   0.00938   0.00917   1.94792
    A9        1.83193  -0.00270   0.00000  -0.00429  -0.00431   1.82762
   A10        1.91055  -0.00314   0.00000  -0.01807  -0.01798   1.89257
   A11        1.92146   0.00143   0.00000   0.01129   0.01123   1.93268
   A12        1.93298   0.00009   0.00000  -0.00040  -0.00031   1.93267
   A13        1.94300   0.00033   0.00000  -0.00995  -0.01004   1.93296
   A14        1.88202  -0.00008   0.00000   0.00554   0.00555   1.88757
   A15        1.91399  -0.00055   0.00000  -0.00694  -0.00692   1.90707
   A16        1.90805  -0.00018   0.00000   0.00488   0.00492   1.91297
   A17        1.94049   0.00019   0.00000   0.00138   0.00130   1.94179
   A18        1.87406   0.00028   0.00000   0.00589   0.00587   1.87993
   A19        1.91287   0.00179   0.00000  -0.00240  -0.00240   1.91047
   A20        1.93066  -0.00020   0.00000   0.00233   0.00241   1.93307
   A21        1.91419  -0.00081   0.00000  -0.00146  -0.00156   1.91263
   A22        1.91690  -0.00051   0.00000   0.00186   0.00185   1.91875
   A23        1.92183  -0.00094   0.00000  -0.00615  -0.00616   1.91567
   A24        1.86701   0.00061   0.00000   0.00593   0.00594   1.87295
   A25        1.93685   0.00134   0.00000   0.00683   0.00675   1.94360
   A26        1.90126   0.00101   0.00000   0.00839   0.00845   1.90971
   A27        1.85621  -0.00119   0.00000  -0.00458  -0.00456   1.85165
   A28        1.93002  -0.00133   0.00000  -0.00837  -0.00838   1.92164
   A29        1.94615  -0.00030   0.00000  -0.00310  -0.00309   1.94307
   A30        1.89105   0.00049   0.00000   0.00121   0.00118   1.89223
   A31        1.97943  -0.00387   0.00000  -0.02491  -0.02484   1.95458
   A32        1.94524   0.00243   0.00000   0.00602   0.00594   1.95117
   A33        1.93155  -0.00165   0.00000  -0.00730  -0.00735   1.92421
   A34        1.94582  -0.00029   0.00000  -0.00197  -0.00189   1.94393
   A35        1.90911   0.00010   0.00000   0.00086   0.00094   1.91005
   A36        1.84213  -0.00138   0.00000  -0.00210  -0.00210   1.84003
   A37        1.88701   0.00079   0.00000   0.00482   0.00481   1.89182
   A38        1.92244   0.00042   0.00000  -0.00057  -0.00067   1.92177
   A39        1.89075  -0.00006   0.00000  -0.00602  -0.00602   1.88474
   A40        1.91712  -0.00061   0.00000  -0.00032  -0.00029   1.91683
   A41        1.93065  -0.00050   0.00000  -0.00466  -0.00464   1.92601
   A42        1.89876   0.00010   0.00000   0.00275   0.00276   1.90152
   A43        1.90407   0.00065   0.00000   0.00891   0.00891   1.91298
   A44        1.92392  -0.00029   0.00000  -0.00693  -0.00701   1.91691
   A45        1.92690   0.00040   0.00000  -0.00249  -0.00248   1.92441
   A46        1.92562  -0.00066   0.00000  -0.00029  -0.00027   1.92535
   A47        1.90639  -0.00034   0.00000  -0.00198  -0.00203   1.90437
   A48        1.90708   0.00064   0.00000   0.00554   0.00560   1.91267
   A49        1.87309   0.00028   0.00000   0.00657   0.00656   1.87965
   A50        1.95144   0.00111   0.00000   0.00543   0.00545   1.95689
   A51        1.91392   0.00107   0.00000   0.01094   0.01092   1.92484
   A52        1.86055  -0.00081   0.00000  -0.00414  -0.00414   1.85640
   A53        1.90337  -0.00109   0.00000  -0.00317  -0.00324   1.90012
   A54        1.94145  -0.00076   0.00000  -0.01038  -0.01039   1.93106
   A55        1.89193   0.00052   0.00000   0.00155   0.00152   1.89346
   A56        2.02395  -0.00602   0.00000  -0.03699  -0.03697   1.98698
   A57        2.03906  -0.00974   0.00000  -0.03850  -0.03850   2.00056
   A58        1.95271  -0.00192   0.00000  -0.01481  -0.01503   1.93768
   A59        1.87549   0.00024   0.00000   0.00509   0.00510   1.88059
   A60        1.89941   0.00074   0.00000  -0.00211  -0.00206   1.89735
   A61        1.90952   0.00121   0.00000   0.00739   0.00751   1.91703
   A62        1.94706  -0.00015   0.00000  -0.00168  -0.00177   1.94529
   A63        1.87676  -0.00003   0.00000   0.00722   0.00718   1.88394
    D1        0.92453  -0.00011   0.00000   0.00871   0.00870   0.93323
    D2        3.04067   0.00030   0.00000   0.01096   0.01099   3.05166
    D3       -1.18724   0.00043   0.00000   0.01874   0.01877  -1.16847
    D4       -1.17511  -0.00013   0.00000   0.01306   0.01305  -1.16206
    D5        0.94103   0.00028   0.00000   0.01531   0.01533   0.95636
    D6        2.99630   0.00041   0.00000   0.02309   0.02312   3.01942
    D7        3.03554  -0.00038   0.00000   0.00847   0.00843   3.04397
    D8       -1.13151   0.00003   0.00000   0.01072   0.01071  -1.12079
[...]
 30922,-0.00375480,0.00366912,-0.00087508,0.10763232,-0.06724357,-0.138
 38707,-0.00052634,-0.00030276,0.00048078,-0.00026547,0.00033627,0.0000
 9340,-0.00010097,0.00007101,0.00005794,0.00030112,0.00074410,0.0009768
 1,-0.00335352,-0.00249292,-0.00354691,-0.00003555,0.00003476,-0.000056
 45,0.00005620,-0.00005727,0.00007209,0.00000299,-0.00000696,-0.0000011
 1,-0.00001030,-0.00000147,0.00001717,-0.00004023,-0.00002400,-0.000005
 64,-0.00000239,-0.00002405,-0.00000228,-0.11262745,0.07426450,0.152951
 82,-0.00022361,-0.00083869,-0.00368876,0.00868949,0.01071047,-0.002752
 75,0.00006321,-0.00000947,0.00002539,-0.00943485,-0.00872204,0.0050470
 7,0.00000514,0.00000611,0.00002012,0.00013454,-0.00004719,0.00002973,-
 0.00066693,0.00016583,-0.00079219,0.00008716,-0.00028227,0.00000930,0.
 00000173,-0.00000974,-0.00000985,0.00003275,0.00002680,0.00006424,0.00
 081844,0.00424707,-0.00203202,0.00121698,0.00059894,-0.00052271,-0.170
 43225,-0.12520824,0.05135414,0.00030435,0.00036532,-0.00012016,-0.0003
 6682,-0.00112283,0.00035358,0.00001373,-0.00001147,-0.00001041,0.00002
 611,0.00039823,0.00027251,0.00076895,0.00023670,-0.00014224,0.00005263
 ,-0.00001724,0.00007190,0.00010416,-0.00003179,0.00017721,0.00000275,-
 0.00000316,0.00000287,0.00000076,0.00000203,-0.00000279,0.00001216,-0.
 00002451,-0.00001902,0.00008644,-0.00009416,0.00000880,-0.01368290,-0.
 01464161,0.00544485,0.18198169,-0.00055432,0.00047588,-0.00285237,-0.0
 1768345,-0.01564843,0.00443787,-0.00002799,-0.00000236,-0.00002784,-0.
 00729798,-0.00856260,0.00308285,0.00002783,-0.00002328,-0.00001841,-0.
 00004257,0.00000510,-0.00002155,0.00059728,0.00129935,0.00097277,0.000
 32514,0.00023294,0.00008031,0.00000415,0.00000042,0.00000209,0.0001069
 1,-0.00009453,0.00001448,0.00118391,-0.00544639,0.00367040,-0.00053516
 ,0.00178710,-0.00038918,-0.12082149,-0.17351627,0.05113873,-0.00018678
 ,-0.00003042,0.00016059,-0.00047335,-0.00042903,0.00039644,-0.00001648
 ,0.00000516,0.00000813,0.00015012,0.00050814,-0.00018324,0.00028289,0.
 00018606,0.00026662,0.00000592,-0.00010168,-0.00015600,-0.00007899,-0.
 00005963,-0.00006169,-0.00000103,-0.00000889,-0.00000637,-0.00000472,0
 .00000369,0.00000316,-0.00001655,0.00002167,0.00000972,0.00007185,-0.0
 0001320,0.00005179,0.00953458,0.01121216,-0.00369727,0.13515310,0.1876
 2895,-0.00210440,-0.00180399,-0.00507125,0.01441586,0.00936243,-0.0045
 2380,0.00000861,-0.00001072,0.00000883,-0.01882200,-0.02007248,0.00919
 961,-0.00000345,0.00001279,0.00000874,0.00001764,-0.00002239,-0.000032
 33,-0.00089287,-0.00038370,-0.00148149,-0.00012803,-0.00010561,-0.0000
 6794,0.00000565,0.00000040,0.00000901,-0.00007045,0.00006244,0.0000342
 9,-0.00086392,0.00607262,-0.00171397,0.00036231,-0.00131911,0.00061102
 ,0.04968534,0.05280298,-0.06889691,-0.00012995,0.00006019,0.00007654,-
 0.00100462,-0.00139165,0.00045662,0.00000210,0.00000217,-0.00000603,0.
 00052748,0.00087882,0.00104522,0.00088609,0.00042978,0.00117338,0.0000
 8535,0.00007031,0.00020352,0.00015881,0.00006095,0.00024176,0.00000020
 ,0.00000208,-0.00000841,-0.00000186,-0.00000203,-0.00000240,0.00001332
 ,-0.00001882,-0.00001214,-0.00003491,-0.00001508,-0.00003200,0.0109129
 0,0.01291824,-0.00553575,-0.05309298,-0.05684042,0.07411418,0.00029292
 ,-0.00010308,0.00012638,-0.08151908,-0.02987105,-0.08279271,-0.0000325
 1,-0.00005666,-0.00022517,-0.00015066,0.00295919,-0.00074210,-0.000034
 87,0.00018692,0.00010766,0.00015748,-0.00000967,-0.00026166,-0.0000676
 3,-0.00184735,0.00347190,0.00179246,0.00049572,0.00288532,-0.00000393,
 -0.00000551,0.00001624,-0.00081712,-0.00004594,0.00075732,-0.01453960,
 -0.01849584,-0.01854805,-0.00070074,0.01595469,0.03033360,-0.00394670,
 -0.00451479,-0.01354622,-0.00009173,0.00004894,0.00006234,-0.00006368,
 0.00007899,-0.00006047,-0.00010759,0.00000527,0.00000550,-0.00042344,-
 0.00034522,-0.00071239,0.00000410,-0.00006613,-0.00016718,-0.00015416,
 -0.00026460,-0.00036401,-0.00052470,-0.00059216,-0.00078632,-0.0000014
 3,0.00003595,-0.00010634,-0.00005658,-0.00000363,-0.00002979,0.0002172
 0,-0.00009585,-0.00010078,-0.00179695,-0.00069639,0.00028893,0.0001708
 2,-0.00040268,0.00017346,0.00039297,0.00039220,0.00004152,0.10214195,-
 0.00035069,-0.00061214,-0.00022074,-0.02568303,-0.08128078,-0.07128344
 ,0.00003077,-0.00014193,0.00029391,0.00173420,-0.00415566,0.00172712,-
 0.00001355,-0.00005011,0.00001910,-0.00010761,0.00003863,0.00018240,-0
 .00178204,-0.00145135,0.00437306,-0.00180198,0.00049862,-0.00279179,-0
 .00002877,0.00002836,0.00000626,0.00022070,0.00024546,0.00017292,-0.02
 209906,-0.01977612,-0.02387231,0.00464933,-0.00495419,-0.01622088,0.00
 957636,0.01069435,0.02058917,0.00003526,0.00009246,-0.00005230,-0.0000
 1654,0.00031562,-0.00020264,0.00008458,-0.00002827,-0.00001911,0.00083
 575,0.00059907,0.00123349,-0.00015459,0.00003603,0.00007166,0.00014674
 ,-0.00007279,-0.00015327,-0.00072841,-0.00064836,-0.00109895,0.0000081
 9,-0.00002539,0.00007135,0.00002764,-0.00001112,0.00003610,0.00013307,
 0.00001023,-0.00003348,-0.00073527,-0.00000540,0.00014546,-0.00037016,
 0.00080787,-0.00073278,-0.00086778,0.00052486,-0.00073479,0.03704507,0
 .09989594,0.00031557,0.00025196,0.00006710,-0.08171111,-0.08214630,-0.
 24668921,0.00006595,-0.00012366,0.00040073,-0.00088623,0.00327248,0.00
 016664,-0.00003286,-0.00013570,0.00004625,-0.00018234,0.00025403,0.000
 26563,0.00131922,0.00199793,0.00110914,-0.00373027,0.00236751,-0.00104
 681,-0.00017350,0.00007145,0.00003528,0.00045656,-0.00069055,0.0000468
 1,0.00373213,0.00444640,0.01040653,0.00665993,-0.01300847,-0.02133073,
 -0.00676446,-0.00537946,-0.01281089,-0.00004630,-0.00004538,0.00002997
 ,0.00001251,-0.00016262,0.00002798,0.00014877,-0.00009388,-0.00006428,
 -0.00048211,-0.00052960,-0.00080448,0.00018028,-0.00002552,0.00012357,
 0.00009066,0.00017537,0.00009123,0.00017433,0.00017713,0.00022629,0.00
 002558,-0.00001576,0.00008528,0.00002993,-0.00001565,0.00002598,-0.000
 00232,0.00038605,0.00019769,0.00017515,0.00060926,0.00048369,-0.000153
 91,0.00021311,0.00075856,0.00033030,0.00002572,0.00018200,0.08026209,0
 .08824636,0.26696118,0.00000348,-0.00000217,-0.00000620,0.00027315,-0.
 00005596,-0.00009156,0.00052340,0.00130176,-0.00025670,0.00000201,0.00
 000821,0.00000389,-0.18125033,0.04664517,-0.10749962,-0.02263235,0.018
 49744,-0.00024727,0.00002294,0.00001397,0.00003051,-0.00029406,-0.0000
 5154,0.00043480,-0.01326975,0.00383947,-0.01345782,0.00102464,0.001322
 05,-0.00383372,-0.00011270,-0.00004786,0.00001236,-0.00019046,-0.00005
 505,0.00010273,-0.00001023,-0.00000573,0.00000574,-0.00000202,0.000001
 10,0.00000164,-0.00000368,-0.00000096,-0.00000310,-0.00012445,-0.00037
 247,0.00053771,-0.00000632,0.00000060,-0.00000545,0.00000280,-0.000000
 35,0.00000504,0.00000041,0.00000331,-0.00000350,-0.00000690,-0.0000041
 5,-0.00000166,-0.00085437,-0.00293253,-0.00107805,0.00048424,-0.000262
 36,-0.00005390,0.00001951,-0.00059671,0.00093848,0.00027696,-0.0001555
 1,0.00041495,-0.00001338,0.00000861,-0.00000364,0.00000113,-0.00000707
 ,0.00000198,0.00000644,0.00000265,0.00001534,0.20537655,-0.00000169,0.
 00000199,0.00000471,-0.00018570,0.00003415,0.00015591,0.00049579,0.001
 50849,-0.00090197,0.00000140,-0.00000727,-0.00000533,0.04775288,-0.068
 71838,0.04458538,0.02874445,-0.01602468,0.00405433,-0.00001695,-0.0000
 1192,-0.00002960,-0.00012357,-0.00009141,-0.00043407,-0.02120561,0.007
 40520,-0.01641220,-0.00238802,-0.00064846,0.00334037,0.00008933,0.0000
 4310,0.00000016,0.00024586,0.00012529,0.00005621,0.00001468,0.00000375
 ,-0.00001297,0.00000115,-0.00000106,-0.00000090,0.00000374,0.00000068,
 0.00000287,0.00044301,-0.00015435,0.00031176,0.00000440,0.00000023,0.0
 0000544,0.00000208,-0.00000123,-0.00000339,0.00000082,-0.00000206,0.00
 000071,0.00000587,0.00000331,0.00000229,-0.00349929,-0.00384005,-0.001
 38420,0.00103794,0.00098611,0.00045871,-0.00026809,0.00062919,-0.00078
 852,-0.00019583,0.00003054,-0.00028913,0.00001054,-0.00000876,0.000004
 11,-0.00000521,0.00000546,-0.00000179,-0.00003295,0.00000734,0.0000120
 5,-0.06320731,0.08219651,0.00000377,-0.00000155,-0.00000339,0.00021356
 ,-0.00006283,-0.00009670,0.00106698,0.00021431,0.00056103,0.00000410,0
 .00000577,-0.00000090,-0.11028327,0.04708777,-0.14568873,0.01905452,-0
 .00945570,0.00918605,0.00002119,0.00000813,0.00001861,0.00008772,0.000
 16195,-0.00027287,-0.00864018,0.00370613,-0.00726860,0.00205513,-0.002
 29086,0.00450270,-0.00007822,-0.00004007,0.00000992,-0.00042449,0.0001
 1866,-0.00002352,-0.00001319,-0.00001059,0.00001491,-0.00000208,0.0000
 0112,0.00000174,-0.00000270,-0.00000016,-0.00000231,-0.00019243,-0.000
 18210,0.00058311,-0.00000537,0.00000088,-0.00000356,0.00000200,-0.0000
 0018,0.00000591,-0.00000144,0.00000442,-0.00000145,-0.00000642,-0.0000
 0285,-0.00000052,-0.00107093,-0.00243551,0.00052176,0.00014363,-0.0000
 6847,0.00015966,-0.00160021,0.00020398,0.00039400,-0.00019095,-0.00000
 569,0.00014094,-0.00000968,0.00001082,-0.00000464,-0.00000279,0.000002
 50,-0.00000231,-0.00000627,0.00000509,0.00001652,0.11784126,-0.0432107
 7,0.15054435,0.00000348,-0.00000386,-0.00000630,0.00029257,-0.00002919
 ,-0.00010806,-0.00077184,-0.00244933,-0.00222203,-0.00000224,0.0000160
 7,0.00000352,-0.08587674,-0.04882836,0.06960354,-0.01192500,-0.0063187
 2,0.02304725,0.00003108,0.00001702,0.00004354,0.00041122,0.00012086,0.
 00014196,-0.00651463,-0.01065447,0.01348489,-0.00109893,0.00345609,-0.
 00058777,-0.00014283,-0.00006833,-0.00000383,-0.00033751,0.00011862,0.
 00004136,-0.00002720,-0.00001603,0.00001579,-0.00000192,0.00000216,0.0
 0000161,-0.00000486,-0.00000074,-0.00000414,0.00005623,-0.00019677,0.0
 0029613,-0.00000846,0.00000026,-0.00000827,0.00000004,-0.00000218,0.00
 000499,0.00000020,0.00000465,-0.00000200,-0.00000966,-0.00000525,-0.00
 000358,0.00050002,0.00085834,0.00046156,0.00043416,0.00007506,-0.00019
 583,0.00017008,-0.00022480,0.00044004,-0.00027379,-0.00042248,0.000923
 96,-0.00001734,0.00001400,-0.00000782,0.00000172,-0.00000185,0.0000019
 3,0.00000844,-0.00000959,-0.00001102,0.01056524,0.01178114,-0.01800931
 ,0.09488486,0.00000052,0.00000026,0.00000141,0.00010823,-0.00002469,-0
 .00016968,-0.00311036,-0.00362558,-0.00368475,0.00000222,0.00000136,0.
 00000221,-0.05526009,-0.12532804,0.11658528,0.01360868,0.01166822,-0.0
 2558429,0.00002020,0.00000157,0.00000228,0.00058172,-0.00042268,-0.000
 78915,-0.00842116,-0.01202680,0.02103045,0.00251115,-0.00287235,-0.001
 72152,-0.00003802,-0.00000993,0.00003006,-0.00021113,0.00020466,0.0001
 8336,-0.00002940,0.00000831,0.00002711,-0.00000165,0.00000183,-0.00000
 041,-0.00000134,-0.00000064,-0.00000133,0.00027627,0.00020714,-0.00028
 339,-0.00000265,0.00000091,-0.00000200,-0.00000061,-0.00000101,0.00000
 265,-0.00000049,0.00000532,0.00000327,-0.00000384,-0.00000007,0.000001
 61,0.00028309,0.00126978,-0.00040069,0.00064981,0.00046310,-0.00012483
 ,-0.00014965,0.00003812,-0.00016778,0.00059784,0.00043259,-0.00099607,
 -0.00001063,0.00001041,-0.00000696,0.00000174,0.00000097,-0.00000172,-
 0.00001632,0.00001520,0.00003906,-0.00364869,-0.00364860,0.00626678,0.
 05329702,0.13404111,-0.00000379,0.00000385,0.00000716,-0.00024784,0.00
 001064,0.00003331,-0.00136169,-0.00194722,-0.00027156,0.00000134,-0.00
 001471,-0.00000353,0.07460763,0.10755480,-0.20895089,0.01167260,0.0045
 4200,-0.01984725,-0.00002036,-0.00001413,-0.00004108,-0.00031663,-0.00
 031534,-0.00042913,-0.00553462,-0.00584748,0.01101099,0.00129475,-0.00
 401861,0.00135114,0.00011879,0.00006670,0.00001755,0.00031965,0.000044
 58,0.00005744,0.00001136,0.00001677,-0.00000448,0.00000150,-0.00000134
 ,-0.00000159,0.00000424,0.00000077,0.00000340,0.00001762,-0.00014440,0
 .00010698,0.00000716,0.00000014,0.00000740,-0.00000112,0.00000143,-0.0
 0000307,-0.00000058,-0.00000250,0.00000368,0.00000816,0.00000510,0.000
 00381,0.00046423,0.00052310,0.00060744,0.00067361,0.00084798,0.0001784
 7,-0.00014081,-0.00002181,0.00024453,0.00081283,0.00045160,-0.00081107
 ,0.00001272,-0.00000805,0.00000438,-0.00000239,0.00000441,-0.00000199,
 -0.00001339,0.00001217,0.00003345,0.00604002,0.01040580,-0.01340599,-0
 .08814327,-0.11191555,0.22952961,-0.00000904,0.00000599,0.00001105,0.0
 0002819,-0.00011361,0.00024447,-0.15220550,-0.12358902,-0.04931199,-0.
 00000303,-0.00000684,-0.00000239,-0.00051667,-0.00033972,0.00397991,0.
 00041703,-0.00033861,-0.00083903,-0.00003273,-0.00004610,-0.00003847,0
 .00973344,0.01507837,0.00513115,-0.00842653,-0.00865785,-0.00484092,-0
 .00214132,0.00221472,0.00205867,0.00010705,-0.00000002,-0.00004947,0.0
 0209476,-0.00065172,0.00031559,0.00005588,-0.00000550,-0.00004442,-0.0
 0000469,0.00000316,-0.00000251,0.00000275,0.,0.00000095,-0.01351837,-0
 .01631307,-0.00610202,0.00000357,0.00000318,0.00000378,0.00000421,-0.0
 0000027,-0.00000129,0.00014193,-0.00009279,0.00001479,-0.00000821,0.00
 000214,0.00001040,0.00072123,0.00026968,0.00015772,-0.00004227,0.00032
 323,-0.00027183,0.00005635,0.00008510,0.00007706,0.00057894,0.00080946
 ,0.00026882,0.00002018,-0.00001801,0.00000804,-0.00000029,0.00000042,0
 .00000165,0.00002693,0.00001024,-0.00002633,0.00033393,0.00039450,0.00
 010184,-0.00024361,-0.00107608,-0.00032794,0.16219455,-0.00000804,0.00
 000654,0.00001725,0.00013866,0.00024155,-0.00014387,-0.12054946,-0.189
 23568,-0.05551942,0.00000478,-0.00001179,-0.00000146,-0.00051865,0.000
 60957,0.00352246,-0.00009331,0.00049101,0.00018312,0.00005926,-0.00005
 144,-0.00004377,-0.01391118,-0.01905703,-0.00804383,-0.00830130,-0.010
 24550,-0.00349315,0.00458281,-0.00109865,-0.00268019,0.00003165,-0.000
 00777,0.00003170,-0.00120953,0.00208608,0.00087101,-0.00004843,0.00002
 517,0.00005736,-0.00000544,0.00000710,-0.00000560,0.00000141,0.0000000
 3,-0.00000102,0.00812940,0.01094262,0.00362787,0.00000080,0.00000451,0
 .00000117,-0.00000192,-0.00000705,0.00000102,-0.00002986,0.00002555,0.
 00003871,-0.00001375,0.00000560,0.00001107,0.00036124,0.00026353,-0.00
 026855,0.00011292,0.00051057,0.00013824,-0.00018805,0.00017980,-0.0000
 6670,-0.00088009,-0.00109710,-0.00015045,-0.00001693,0.00001404,-0.000
 01487,0.00000029,0.00000417,-0.00000068,-0.00011849,0.00006119,0.00010
 076,-0.00014672,-0.00000191,-0.00016525,-0.00044200,-0.00066132,-0.000
 43296,0.13281156,0.20518592,-0.00000716,0.00000279,0.00000831,-0.00011
 377,0.00015248,-0.00001562,-0.04814130,-0.05685751,-0.07037577,-0.0000
 0569,-0.00001175,0.00000294,0.00267195,0.00107711,-0.00600829,-0.00109
 315,-0.00001820,0.00126203,0.00000593,-0.00000859,-0.00002668,-0.01366
 597,-0.01403371,-0.00678039,0.01785468,0.02133185,0.00925212,0.0038967
 8,-0.00192947,-0.00254784,0.00009168,0.00007024,-0.00001125,-0.0002570
 9,0.00159147,0.00098861,-0.00002302,0.00001757,0.00002155,-0.00000012,
 0.00000125,-0.00000383,0.00000197,0.00000108,0.00000165,-0.01008160,-0
 .01332320,-0.00567874,0.00000714,0.00000044,0.00000244,0.00000308,-0.0
 0000086,-0.00000850,0.00004648,0.00000386,0.00000667,0.00000312,0.0000
 0381,0.00000175,-0.00087287,-0.00050380,0.00117633,-0.00045244,-0.0009
 0435,0.00098204,0.00025452,0.00029223,0.00020407,-0.00066859,-0.001275
 33,0.00008539,0.00000232,-0.00000370,-0.00000764,0.00000171,0.00000013
 ,-0.00000344,-0.00005141,0.00002564,0.00003101,0.00012111,0.00001516,0
 .00004901,0.00086210,0.00150280,0.00053199,0.05009571,0.06218364,0.076
 51126,0.00002943,0.00009859,0.00003615,0.00275649,0.00061468,-0.003307
 41,-0.00594116,-0.00691440,0.01357756,0.00002907,0.00007389,-0.0000109
 8,0.00121730,-0.00036577,-0.00077912,-0.00289859,-0.00461269,0.0001511
 2,0.00002945,-0.00026545,-0.00021471,-0.07799836,-0.03925498,0.0754815
 1,-0.00049116,0.00344526,0.00103739,-0.00366923,-0.00423773,0.01671955
 ,0.00042865,-0.00059260,0.00011903,-0.00333920,0.01756684,-0.03290251,
 -0.00003421,0.00006616,0.00028590,-0.00001559,-0.00001247,0.00000508,-
 0.00000143,-0.00002819,0.00001570,0.00016128,-0.00023204,-0.00004893,-
 0.00008352,0.00000675,0.00001872,0.00000201,0.00003271,0.00013626,-0.0
 0002514,0.00006551,0.00005156,-0.00001644,0.00000224,0.00002950,0.0000
 1676,-0.00008538,0.00017845,-0.00040394,-0.00043768,0.00079313,-0.0000
 3018,0.00050731,-0.00001870,0.00053293,-0.00009457,-0.00047987,-0.0001
 6580,0.00007013,-0.00003089,0.00000869,-0.00008651,0.00002071,-0.00017
 863,0.00020851,0.00020846,-0.00014583,0.00010065,-0.00005578,-0.000102
 77,0.00004361,0.00004622,0.00063135,0.00024836,-0.00048612,0.08969779,
 -0.00001133,-0.00001626,-0.00003374,-0.00123154,0.00082346,0.00287950,
 0.00880902,0.01086028,-0.02075617,-0.00005609,0.00006541,-0.00003442,0
 .00088116,-0.00148255,-0.00106477,-0.00533239,-0.00509395,0.00083875,-
 0.00001457,0.00006815,0.00000419,-0.03829349,-0.09655027,0.08760558,0.
 00218712,-0.00349659,-0.00211045,-0.00836308,-0.00790456,0.02313879,0.
 00054823,0.00015429,-0.00046567,0.00614529,-0.00435805,0.01055434,-0.0
 0002889,-0.00026949,-0.00034929,0.00000643,-0.00000187,0.00000280,-0.0
 0000547,0.00000851,-0.00000476,-0.00049685,0.00091466,0.00071402,0.000
 00999,-0.00001893,-0.00003870,-0.00000424,-0.00001599,-0.00005726,-0.0
 0001534,-0.00003620,-0.00002883,0.00000412,-0.00001531,-0.00000590,-0.
 00013598,0.00000152,-0.00004990,0.00073022,0.00059657,-0.00110603,-0.0
 0009407,0.00081527,-0.00060133,0.00114187,0.00053252,-0.00007187,0.000
 08558,-0.00004212,0.00003446,0.00002475,0.00003461,-0.00001123,0.00038
 137,-0.00065763,-0.00027409,-0.00009119,0.00017880,0.00013426,-0.00008
 734,0.00025084,0.00019228,-0.00076255,0.00081069,0.00059692,0.03406925
 ,0.10384417,0.00003634,0.00001045,0.00001622,0.00451242,-0.00230442,-0
 .00207301,0.00725407,0.00690750,-0.01416350,0.00012582,-0.00005363,0.0
 0003409,-0.00021651,-0.00059985,-0.00031620,-0.00142590,-0.00220907,0.
 00134148,0.00009789,-0.00002086,0.00005095,0.06951806,0.08843429,-0.22
 935893,0.00141405,-0.00336329,-0.00003512,-0.00115377,-0.00220209,0.00
 621764,-0.00113607,-0.00094921,0.00107709,-0.00855619,0.01310159,-0.02
 076279,-0.00017085,0.00021543,0.00037134,-0.00002051,0.00000414,0.0000
 1353,-0.00001847,-0.00001570,-0.00000638,0.00003393,-0.00007967,0.0007
 8251,-0.00004442,0.00002790,0.00001034,-0.00001314,0.00001595,0.000105
 76,-0.00000227,0.00006443,-0.00001293,-0.00003995,-0.00000736,0.000000
 63,-0.00015901,-0.00001640,0.00010984,0.00046899,0.00062299,-0.0007802
 5,0.00042610,0.00093737,0.00033975,0.00051051,0.00036824,0.00003799,-0
 .00017415,0.00013488,-0.00006503,-0.00002267,-0.00007437,0.00002741,-0
 .00001800,0.00020519,0.00092789,0.00003462,0.00005886,0.00006530,-0.00
 006095,0.00017178,0.00003889,-0.00062300,0.00024640,0.00034883,-0.0705
 7698,-0.09963146,0.25565663\\0.00000855,-0.00001822,-0.00000208,-0.002
 07936,-0.00048012,-0.00271837,0.00000045,0.00000510,-0.00001330,0.0000
 1118,0.00000136,0.00000769,0.00003391,-0.00001473,0.00000984,-0.000013
 18,-0.00000634,0.00002242,-0.00003054,-0.00002310,-0.00005397,-0.00095
 801,-0.00224888,0.00025290,-0.00000361,0.00001748,0.00000984,-0.000017
 53,-0.00001511,-0.00001578,0.00127324,-0.00037485,0.00205432,0.0017779
 7,0.00312904,0.00042773,0.00002235,-0.00002717,0.00001447,-0.00000472,
 0.00000216,-0.00000540,0.00000365,0.00001728,-0.00001235,-0.00000842,-
 0.00000142,0.00000394,0.00000162,0.00001873,0.00000319,-0.00000034,0.0
 0000622,-0.00000430,0.00000746,0.00000341,-0.00000197,-0.00000208,-0.0
 0000015,-0.00000746,0.00000368,0.00000632,-0.00000995,-0.00000375,-0.0
 0000535,0.00000711,0.00000435,-0.00001105,0.00001126,0.00000551,0.0000
 0398,0.00001080,-0.00000497,0.00000720,0.00000374,-0.00000403,0.000007
 60,-0.00000802,-0.00000571,0.00000278,0.00001095,-0.00000398,0.0000083
 5,0.00000776,-0.00000210,0.00001184,0.00001008,-0.00000549,-0.00000170
 ,-0.00000950,-0.00000610,-0.00002065,-0.00000559\\\@


 THE RED LIGHT IS ALWAYS LONGER THAN THE GREEN LIGHT.

                     -- PETER'S THEORY OF RELATIVITY
 Job cpu time:       0 days 14 hours 42 minutes 19.5 seconds.
 Elapsed time:       0 days  0 hours 55 minutes 11.5 seconds.
 File lengths (MBytes):  RWF=    689 Int=      0 D2E=      0 Chk=     33 Scr=      1
 Normal termination of Gaussian 16 at Mon Nov  5 02:14:44 2018.
