 Entering Gaussian System, Link 0=g16
 Initial command:
 /apps/gaussian/g16a03/g16/l1.exe "/jobfs/local/2011885.r-man2/Gau-27375.inp" -scrdir="/jobfs/local/2011885.r-man2/"
 Entering Link 1 = /apps/gaussian/g16a03/g16/l1.exe PID=     27376.
  
 Copyright (c) 1988,1990,1992,1993,1995,1998,2003,2009,2016,
            Gaussian, Inc.  All Rights Reserved.
  
 This is part of the Gaussian(R) 16 program.  It is based on
 the Gaussian(R) 09 system (copyright 2009, Gaussian, Inc.),
 the Gaussian(R) 03 system (copyright 2003, Gaussian, Inc.),
 the Gaussian(R) 98 system (copyright 1998, Gaussian, Inc.),
 the Gaussian(R) 94 system (copyright 1995, Gaussian, Inc.),
 the Gaussian 92(TM) system (copyright 1992, Gaussian, Inc.),
 the Gaussian 90(TM) system (copyright 1990, Gaussian, Inc.),
 the Gaussian 88(TM) system (copyright 1988, Gaussian, Inc.),
 the Gaussian 86(TM) system (copyright 1986, Carnegie Mellon
 University), and the Gaussian 82(TM) system (copyright 1983,
 Carnegie Mellon University). Gaussian is a federally registered
 trademark of Gaussian, Inc.
  
 This software contains proprietary and confidential information,
 including trade secrets, belonging to Gaussian, Inc.
  
 This software is provided under written license and may be
 used, copied, transmitted, or stored only in accord with that
 written license.
  
 The following legend is applicable only to US Government
 contracts under FAR:
  
                    RESTRICTED RIGHTS LEGEND
  
 Use, reproduction and disclosure by the US Government is
 subject to restrictions as set forth in subparagraphs (a)
 and (c) of the Commercial Computer Software - Restricted
 Rights clause in FAR 52.227-19.
  
 Gaussian, Inc.
 340 Quinnipiac St., Bldg. 40, Wallingford CT 06492
  
  
 ---------------------------------------------------------------
 Warning -- This program may not be used in any manner that
 competes with the business of Gaussian, Inc. or will provide
 assistance to any competitor of Gaussian, Inc.  The licensee
 of this program is prohibited from giving any competitor of
 Gaussian, Inc. access to this program.  By using this program,
 the user acknowledges that Gaussian, Inc. is engaged in the
 business of creating and licensing software in the field of
 computational chemistry and represents and warrants to the
 licensee that it is not a competitor of Gaussian, Inc. and that
 it will not use this program in any manner prohibited above.
 ---------------------------------------------------------------
  

 Cite this work as:
 Gaussian 16, Revision A.03,
 M. J. Frisch, G. W. Trucks, H. B. Schlegel, G. E. Scuseria, 
 M. A. Robb, J. R. Cheeseman, G. Scalmani, V. Barone, 
 G. A. Petersson, H. Nakatsuji, X. Li, M. Caricato, A. V. Marenich, 
 J. Bloino, B. G. Janesko, R. Gomperts, B. Mennucci, H. P. Hratchian, 
 J. V. Ortiz, A. F. Izmaylov, J. L. Sonnenberg, D. Williams-Young, 
 F. Ding, F. Lipparini, F. Egidi, J. Goings, B. Peng, A. Petrone, 
 T. Henderson, D. Ranasinghe, V. G. Zakrzewski, J. Gao, N. Rega, 
 G. Zheng, W. Liang, M. Hada, M. Ehara, K. Toyota, R. Fukuda, 
 J. Hasegawa, M. Ishida, T. Nakajima, Y. Honda, O. Kitao, H. Nakai, 
 T. Vreven, K. Throssell, J. A. Montgomery, Jr., J. E. Peralta, 
 F. Ogliaro, M. J. Bearpark, J. J. Heyd, E. N. Brothers, K. N. Kudin, 
 V. N. Staroverov, T. A. Keith, R. Kobayashi, J. Normand, 
 K. Raghavachari, A. P. Rendell, J. C. Burant, S. S. Iyengar, 
 J. Tomasi, M. Cossi, J. M. Millam, M. Klene, C. Adamo, R. Cammi, 
 J. W. Ochterski, R. L. Martin, K. Morokuma, O. Farkas, 
 J. B. Foresman, and D. J. Fox, Gaussian, Inc., Wallingford CT, 2016.
 
 ******************************************
 Gaussian 16:  ES64L-G16RevA.03 25-Dec-2016
                 5-Nov-2018 
 ******************************************
 %mem=6000mb
 %nproc=24
 Will use up to   24 processors via shared memory.
 %chk=D_1a_4a_L_PHI.inp_extract_20.chk
 ----------------------------------------------------------------------
 #M062X/6-311++G(2d,2p) opt=ModRedundant freq=noraman SCRF=(Solvent=Wat
 er)
 ----------------------------------------------------------------------
 1/18=120,19=15,26=3,38=1/1,3;
 2/9=110,12=2,17=6,18=5,40=1/2;
 3/5=4,6=6,7=1212,11=2,25=1,30=1,70=2201,71=1,72=1,74=-55/1,2,3;
 4//1;
 5/5=2,38=5,53=1/2;
 6/7=2,8=2,9=2,10=2,28=1/1;
 7//1,2,3,16;
 1/18=20,19=15,26=3/3(2);
 2/9=110/2;
 99//99;
 2/9=110/2;
 3/5=4,6=6,7=1212,11=2,25=1,30=1,70=2205,71=1,72=1,74=-55/1,2,3;
 4/5=5,16=3,69=1/1;
 5/5=2,38=5,53=1/2;
 7//1,2,3,16;
 1/18=20,19=15,26=3/3(-5);
 2/9=110/2;
 6/7=2,8=2,9=2,10=2,19=2,28=1/1;
 99/9=1/99;
 ----------------------------
 D_1a_4a_L_PHI.inp_extract_20
 ----------------------------
 Symbolic Z-matrix:
 Charge =  0 Multiplicity = 1
 C                     3.38638  -0.39035  -0.64057 
 C                     1.14459   0.42272   1.05793 
 C                    -1.79963   1.34651  -0.36299 
 C                     2.5579    0.81457  -1.08136 
 C                    -3.57366  -0.38025   0.02286 
 O                    -2.57942  -1.38646  -0.03862 
 C                     2.51526  -1.33687   0.1629 
 C                    -0.79762   0.20083  -0.5148 
 C                    -2.98634   0.93441   0.51145 
 C                    -1.52356  -1.07196  -0.92098 
 O                     1.9816   -0.67775   1.30073 
 O                    -0.13616  -0.04948   0.71665 
 C                     1.8152    1.42684   0.11397 
 H                     4.22246  -0.06929  -0.02381 
 H                     3.79523  -0.91335  -1.50029 
 H                    -2.15748   1.6128   -1.35511 
 H                     3.19474   1.57503  -1.52288 
 H                     1.86605   0.50214  -1.85596 
 H                     1.70536  -1.72874  -0.44478 
 H                     3.08138  -2.17309   0.54922 
 H                    -2.67218   0.82217   1.54497 
 H                    -3.7559    1.70074   0.48968 
 H                    -1.91683  -0.94897  -1.92749 
 H                    -0.84859  -1.91588  -0.91349 
 H                     2.5429    1.945     0.73194 
 H                     1.09683   2.17198  -0.20626 
 H                     1.02713   0.88353   2.02628 
 H                    -4.01454  -0.25908  -0.96459 
 H                    -4.3379   -0.74727   0.69431 
 H                    -1.30356   2.22016   0.04578 
 H                    -0.0843    0.43296  -1.28809 
 
 The following ModRedundant input section has been read:
 D      11       2      12       8 F                                           
 

 GradGradGradGradGradGradGradGradGradGradGradGradGradGradGradGradGradGrad
 Berny optimization.
 Initialization pass.
                           ----------------------------
                           !    Initial Parameters    !
                           ! (Angstroms and Degrees)  !
 --------------------------                            --------------------------
 ! Name  Definition              Value          Derivative Info.                !
 --------------------------------------------------------------------------------
 ! R1    R(1,4)                  1.5273         estimate D2E/DX2                !
 ! R2    R(1,7)                  1.5167         estimate D2E/DX2                !
 ! R3    R(1,14)                 1.0874         estimate D2E/DX2                !
 ! R4    R(1,15)                 1.0862         estimate D2E/DX2                !
 ! R5    R(2,11)                 1.4038         estimate D2E/DX2                !
 ! R6    R(2,12)                 1.407          estimate D2E/DX2                !
 ! R7    R(2,13)                 1.5327         estimate D2E/DX2                !
 ! R8    R(2,27)                 1.0788         estimate D2E/DX2                !
 ! R9    R(3,8)                  1.5296         estimate D2E/DX2                !
 ! R10   R(3,9)                  1.5306         estimate D2E/DX2                !
 ! R11   R(3,16)                 1.0878         estimate D2E/DX2                !
 ! R12   R(3,30)                 1.0846         estimate D2E/DX2                !
 ! R13   R(4,13)                 1.5347         estimate D2E/DX2                !
 ! R14   R(4,17)                 1.0857         estimate D2E/DX2                !
 ! R15   R(4,18)                 1.0846         estimate D2E/DX2                !
 ! R16   R(5,6)                  1.4159         estimate D2E/DX2                !
 ! R17   R(5,9)                  1.5205         estimate D2E/DX2                !
 ! R18   R(5,28)                 1.0882         estimate D2E/DX2                !
 ! R19   R(5,29)                 1.0815         estimate D2E/DX2                !
 ! R20   R(6,10)                 1.4115         estimate D2E/DX2                !
 ! R21   R(7,11)                 1.4191         estimate D2E/DX2                !
 ! R22   R(7,19)                 1.0857         estimate D2E/DX2                !
 ! R23   R(7,20)                 1.0812         estimate D2E/DX2                !
 ! R24   R(8,10)                 1.5205         estimate D2E/DX2                !
 ! R25   R(8,12)                 1.4201         estimate D2E/DX2                !
 ! R26   R(8,31)                 1.0774         estimate D2E/DX2                !
 ! R27   R(9,21)                 1.086          estimate D2E/DX2                !
 ! R28   R(9,22)                 1.0863         estimate D2E/DX2                !
 ! R29   R(10,23)                1.0876         estimate D2E/DX2                !
 ! R30   R(10,24)                1.0807         estimate D2E/DX2                !
 ! R31   R(13,25)                1.0863         estimate D2E/DX2                !
 ! R32   R(13,26)                1.0834         estimate D2E/DX2                !
 ! A1    A(4,1,7)              109.4926         estimate D2E/DX2                !
 ! A2    A(4,1,14)             110.3554         estimate D2E/DX2                !
 ! A3    A(4,1,15)             110.8317         estimate D2E/DX2                !
 ! A4    A(7,1,14)             108.9895         estimate D2E/DX2                !
 ! A5    A(7,1,15)             109.5728         estimate D2E/DX2                !
 ! A6    A(14,1,15)            107.5581         estimate D2E/DX2                !
 ! A7    A(11,2,12)            108.7596         estimate D2E/DX2                !
 ! A8    A(11,2,13)            111.0534         estimate D2E/DX2                !
 ! A9    A(11,2,27)            104.1536         estimate D2E/DX2                !
 ! A10   A(12,2,13)            117.9533         estimate D2E/DX2                !
 ! A11   A(12,2,27)            105.186          estimate D2E/DX2                !
 ! A12   A(13,2,27)            108.7016         estimate D2E/DX2                !
 ! A13   A(8,3,9)              111.2808         estimate D2E/DX2                !
 ! A14   A(8,3,16)             107.9591         estimate D2E/DX2                !
 ! A15   A(8,3,30)             109.9436         estimate D2E/DX2                !
 ! A16   A(9,3,16)             109.3851         estimate D2E/DX2                !
 ! A17   A(9,3,30)             110.8649         estimate D2E/DX2                !
 ! A18   A(16,3,30)            107.2779         estimate D2E/DX2                !
 ! A19   A(1,4,13)             110.6387         estimate D2E/DX2                !
 ! A20   A(1,4,17)             110.5959         estimate D2E/DX2                !
 ! A21   A(1,4,18)             108.9595         estimate D2E/DX2                !
 ! A22   A(13,4,17)            108.7335         estimate D2E/DX2                !
 ! A23   A(13,4,18)            111.2528         estimate D2E/DX2                !
 ! A24   A(17,4,18)            106.5889         estimate D2E/DX2                !
 ! A25   A(6,5,9)              110.926          estimate D2E/DX2                !
 ! A26   A(6,5,28)             108.9192         estimate D2E/DX2                !
 ! A27   A(6,5,29)             106.3796         estimate D2E/DX2                !
 ! A28   A(9,5,28)             110.5977         estimate D2E/DX2                !
 ! A29   A(9,5,29)             111.5228         estimate D2E/DX2                !
 ! A30   A(28,5,29)            108.3533         estimate D2E/DX2                !
 ! A31   A(5,6,10)             113.2082         estimate D2E/DX2                !
 ! A32   A(1,7,11)             110.5415         estimate D2E/DX2                !
 ! A33   A(1,7,19)             110.9286         estimate D2E/DX2                !
 ! A34   A(1,7,20)             111.7903         estimate D2E/DX2                !
 ! A35   A(11,7,19)            109.6261         estimate D2E/DX2                !
 ! A36   A(11,7,20)            105.6426         estimate D2E/DX2                !
 ! A37   A(19,7,20)            108.1448         estimate D2E/DX2                !
 ! A38   A(3,8,10)             109.9215         estimate D2E/DX2                !
 ! A39   A(3,8,12)             110.5539         estimate D2E/DX2                !
 ! A40   A(3,8,31)             110.0956         estimate D2E/DX2                !
 ! A41   A(10,8,12)            107.8473         estimate D2E/DX2                !
 ! A42   A(10,8,31)            107.7415         estimate D2E/DX2                !
 ! A43   A(12,8,31)            110.6103         estimate D2E/DX2                !
 ! A44   A(3,9,5)              110.407          estimate D2E/DX2                !
 ! A45   A(3,9,21)             110.3176         estimate D2E/DX2                !
 ! A46   A(3,9,22)             110.3578         estimate D2E/DX2                !
 ! A47   A(5,9,21)             109.1579         estimate D2E/DX2                !
 ! A48   A(5,9,22)             109.2616         estimate D2E/DX2                !
 ! A49   A(21,9,22)            107.2727         estimate D2E/DX2                !
 ! A50   A(6,10,8)             112.127          estimate D2E/DX2                !
 ! A51   A(6,10,23)            109.4647         estimate D2E/DX2                !
 ! A52   A(6,10,24)            106.7908         estimate D2E/DX2                !
 ! A53   A(8,10,23)            108.9779         estimate D2E/DX2                !
 ! A54   A(8,10,24)            110.7108         estimate D2E/DX2                !
 ! A55   A(23,10,24)           108.6975         estimate D2E/DX2                !
 ! A56   A(2,11,7)             116.7212         estimate D2E/DX2                !
 ! A57   A(2,12,8)             125.1103         estimate D2E/DX2                !
 ! A58   A(2,13,4)             115.4731         estimate D2E/DX2                !
 ! A59   A(2,13,25)            104.7884         estimate D2E/DX2                !
 ! A60   A(2,13,26)            110.0299         estimate D2E/DX2                !
 ! A61   A(4,13,25)            108.0112         estimate D2E/DX2                !
 ! A62   A(4,13,26)            111.4106         estimate D2E/DX2                !
 ! A63   A(25,13,26)           106.5148         estimate D2E/DX2                !
 ! D1    D(7,1,4,13)            50.6619         estimate D2E/DX2                !
 ! D2    D(7,1,4,17)           171.2036         estimate D2E/DX2                !
 ! D3    D(7,1,4,18)           -71.9505         estimate D2E/DX2                !
 ! D4    D(14,1,4,13)          -69.3049         estimate D2E/DX2                !
 ! D5    D(14,1,4,17)           51.2368         estimate D2E/DX2                !
 ! D6    D(14,1,4,18)          168.0827         estimate D2E/DX2                !
 ! D7    D(15,1,4,13)          171.6537         estimate D2E/DX2                !
 ! D8    D(15,1,4,17)          -67.8045         estimate D2E/DX2                !
 ! D9    D(15,1,4,18)           49.0413         estimate D2E/DX2                !
 ! D10   D(4,1,7,11)           -58.8901         estimate D2E/DX2                !
 ! D11   D(4,1,7,19)            62.9347         estimate D2E/DX2                !
 ! D12   D(4,1,7,20)          -176.2708         estimate D2E/DX2                !
 ! D13   D(14,1,7,11)           61.9096         estimate D2E/DX2                !
 ! D14   D(14,1,7,19)         -176.2656         estimate D2E/DX2                !
 ! D15   D(14,1,7,20)          -55.4711         estimate D2E/DX2                !
 ! D16   D(15,1,7,11)          179.3583         estimate D2E/DX2                !
 ! D17   D(15,1,7,19)          -58.8169         estimate D2E/DX2                !
 ! D18   D(15,1,7,20)           61.9776         estimate D2E/DX2                !
 ! D19   D(12,2,11,7)           79.6014         estimate D2E/DX2                !
 ! D20   D(13,2,11,7)          -51.79           estimate D2E/DX2                !
 ! D21   D(27,2,11,7)         -168.6237         estimate D2E/DX2                !
 ! D22   D(11,2,12,8)         -119.4577         Frozen                          !
 ! D23   D(13,2,12,8)            8.1128         estimate D2E/DX2                !
 ! D24   D(27,2,12,8)          129.4559         estimate D2E/DX2                !
 ! D25   D(11,2,13,4)           42.508          estimate D2E/DX2                !
 ! D26   D(11,2,13,25)         -76.1774         estimate D2E/DX2                !
 ! D27   D(11,2,13,26)         169.6698         estimate D2E/DX2                !
 ! D28   D(12,2,13,4)          -83.9609         estimate D2E/DX2                !
 ! D29   D(12,2,13,25)         157.3538         estimate D2E/DX2                !
 ! D30   D(12,2,13,26)          43.201          estimate D2E/DX2                !
 ! D31   D(27,2,13,4)          156.5197         estimate D2E/DX2                !
 ! D32   D(27,2,13,25)          37.8343         estimate D2E/DX2                !
 ! D33   D(27,2,13,26)         -76.3185         estimate D2E/DX2                !
 ! D34   D(9,3,8,10)            49.703          estimate D2E/DX2                !
 ! D35   D(9,3,8,12)           -69.2468         estimate D2E/DX2                !
 ! D36   D(9,3,8,31)           168.24           estimate D2E/DX2                !
 ! D37   D(16,3,8,10)          -70.3432         estimate D2E/DX2                !
 ! D38   D(16,3,8,12)          170.707          estimate D2E/DX2                !
 ! D39   D(16,3,8,31)           48.1938         estimate D2E/DX2                !
 ! D40   D(30,3,8,10)          172.9291         estimate D2E/DX2                !
 ! D41   D(30,3,8,12)           53.9793         estimate D2E/DX2                !
 ! D42   D(30,3,8,31)          -68.5339         estimate D2E/DX2                !
 ! D43   D(8,3,9,5)            -50.712          estimate D2E/DX2                !
 ! D44   D(8,3,9,21)            70.027          estimate D2E/DX2                !
 ! D45   D(8,3,9,22)          -171.607          estimate D2E/DX2                !
 ! D46   D(16,3,9,5)            68.4867         estimate D2E/DX2                !
 ! D47   D(16,3,9,21)         -170.7743         estimate D2E/DX2                !
 ! D48   D(16,3,9,22)          -52.4084         estimate D2E/DX2                !
 ! D49   D(30,3,9,5)          -173.4096         estimate D2E/DX2                !
 ! D50   D(30,3,9,21)          -52.6706         estimate D2E/DX2                !
 ! D51   D(30,3,9,22)           65.6954         estimate D2E/DX2                !
 ! D52   D(1,4,13,2)           -43.888          estimate D2E/DX2                !
 ! D53   D(1,4,13,25)           72.9968         estimate D2E/DX2                !
 ! D54   D(1,4,13,26)         -170.352          estimate D2E/DX2                !
 ! D55   D(17,4,13,2)         -165.5334         estimate D2E/DX2                !
 ! D56   D(17,4,13,25)         -48.6485         estimate D2E/DX2                !
 ! D57   D(17,4,13,26)          68.0026         estimate D2E/DX2                !
 ! D58   D(18,4,13,2)           77.3776         estimate D2E/DX2                !
 ! D59   D(18,4,13,25)        -165.7376         estimate D2E/DX2                !
 ! D60   D(18,4,13,26)         -49.0864         estimate D2E/DX2                !
 ! D61   D(9,5,6,10)           -60.5967         estimate D2E/DX2                !
 ! D62   D(28,5,6,10)           61.356          estimate D2E/DX2                !
 ! D63   D(29,5,6,10)          177.9512         estimate D2E/DX2                !
 ! D64   D(6,5,9,3)             54.9749         estimate D2E/DX2                !
 ! D65   D(6,5,9,21)           -66.4543         estimate D2E/DX2                !
 ! D66   D(6,5,9,22)           176.5214         estimate D2E/DX2                !
 ! D67   D(28,5,9,3)           -65.9923         estimate D2E/DX2                !
 ! D68   D(28,5,9,21)          172.5785         estimate D2E/DX2                !
 ! D69   D(28,5,9,22)           55.5542         estimate D2E/DX2                !
 ! D70   D(29,5,9,3)           173.3566         estimate D2E/DX2                !
 ! D71   D(29,5,9,21)           51.9274         estimate D2E/DX2                !
 ! D72   D(29,5,9,22)          -65.0968         estimate D2E/DX2                !
 ! D73   D(5,6,10,8)            60.4684         estimate D2E/DX2                !
 ! D74   D(5,6,10,23)          -60.5988         estimate D2E/DX2                !
 ! D75   D(5,6,10,24)         -178.1014         estimate D2E/DX2                !
 ! D76   D(1,7,11,2)            61.7281         estimate D2E/DX2                !
 ! D77   D(19,7,11,2)          -60.8607         estimate D2E/DX2                !
 ! D78   D(20,7,11,2)         -177.1685         estimate D2E/DX2                !
 ! D79   D(3,8,10,6)           -53.8688         estimate D2E/DX2                !
 ! D80   D(3,8,10,23)           67.4787         estimate D2E/DX2                !
 ! D81   D(3,8,10,24)         -173.0202         estimate D2E/DX2                !
 ! D82   D(12,8,10,6)           66.7288         estimate D2E/DX2                !
 ! D83   D(12,8,10,23)        -171.9238         estimate D2E/DX2                !
 ! D84   D(12,8,10,24)         -52.4227         estimate D2E/DX2                !
 ! D85   D(31,8,10,6)         -173.8462         estimate D2E/DX2                !
 ! D86   D(31,8,10,23)         -52.4987         estimate D2E/DX2                !
 ! D87   D(31,8,10,24)          67.0024         estimate D2E/DX2                !
 ! D88   D(3,8,12,2)           -98.9314         estimate D2E/DX2                !
 ! D89   D(10,8,12,2)          140.8685         estimate D2E/DX2                !
 ! D90   D(31,8,12,2)           23.2806         estimate D2E/DX2                !
 --------------------------------------------------------------------------------
 Trust Radius=3.00D-01 FncErr=1.00D-07 GrdErr=1.00D-06 EigMax=2.50D+02 EigMin=1.00D-04
 Number of steps in this run=    186 maximum allowed number of steps=    186.
 GradGradGradGradGradGradGradGradGradGradGradGradGradGradGradGradGradGrad

                          Input orientation:                          
 ---------------------------------------------------------------------
 Center     Atomic      Atomic             Coordinates (Angstroms)
 Number     Number       Type             X           Y           Z
 ---------------------------------------------------------------------
      1          6           0        3.386382   -0.390348   -0.640572
      2          6           0        1.144592    0.422724    1.057932
      3          6           0       -1.799634    1.346510   -0.362986
      4          6           0        2.557903    0.814573   -1.081364
      5          6           0       -3.573659   -0.380253    0.022860
      6          8           0       -2.579422   -1.386463   -0.038618
      7          6           0        2.515256   -1.336869    0.162896
      8          6           0       -0.797618    0.200833   -0.514797
      9          6           0       -2.986343    0.934408    0.511451
     10          6           0       -1.523558   -1.071957   -0.920982
     11          8           0        1.981596   -0.677749    1.300731
     12          8           0       -0.136163   -0.049481    0.716653
     13          6           0        1.815195    1.426836    0.113966
     14          1           0        4.222460   -0.069292   -0.023811
     15          1           0        3.795234   -0.913348   -1.500291
     16          1           0       -2.157479    1.612799   -1.355106
     17          1           0        3.194738    1.575029   -1.522883
     18          1           0        1.866046    0.502138   -1.855964
     19          1           0        1.705355   -1.728744   -0.444775
     20          1           0        3.081383   -2.173090    0.549217
     21          1           0       -2.672179    0.822166    1.544972
     22          1           0       -3.755898    1.700739    0.489683
     23          1           0       -1.916827   -0.948973   -1.927486
     24          1           0       -0.848593   -1.915880   -0.913490
     25          1           0        2.542901    1.945001    0.731940
     26          1           0        1.096832    2.171975   -0.206258
     27          1           0        1.027129    0.883528    2.026279
     28          1           0       -4.014536   -0.259080   -0.964586
     29          1           0       -4.337902   -0.747273    0.694312
     30          1           0       -1.303555    2.220160    0.045784
     31          1           0       -0.084302    0.432963   -1.288090
 ---------------------------------------------------------------------
                    Distance matrix (angstroms):
                    1          2          3          4          5
     1  C    0.000000
     2  C    2.927734   0.000000
     3  C    5.476175   3.397183   0.000000
     4  C    1.527256   2.593758   4.448275   0.000000
     5  C    6.991596   4.896738   2.505544   6.343735   0.000000
     6  O    6.078274   4.282973   2.860494   5.685419   1.415890
     7  C    1.516682   2.403326   5.108361   2.485700   6.165193
     8  C    4.227431   2.508962   1.529594   3.457918   2.886718
     9  C    6.610126   4.198224   1.530603   5.769756   1.520525
    10  C    4.964950   3.642691   2.497311   4.499227   2.360552
    11  O    2.413437   1.403769   4.600356   2.869413   5.708092
    12  O    3.790326   1.407047   2.425190   3.352230   3.522377
    13  C    2.517958   1.532652   3.647043   1.534697   5.684507
    14  H    1.087427   3.299321   6.195575   2.161108   7.802458
    15  H    1.086189   3.918609   6.140274   2.166148   7.543525
    16  H    5.937807   4.259425   1.087780   4.790295   2.806530
    17  H    2.162847   3.491635   5.132381   1.085721   7.212742
    18  H    2.141292   3.002931   4.047117   1.084568   5.822283
    19  H    2.157659   2.683542   4.663563   2.756909   5.468556
    20  H    2.164900   3.278445   6.086380   3.443683   6.912373
    21  H    6.553850   3.868398   2.162539   5.852474   2.138996
    22  H    7.527435   5.096178   2.163213   6.566396   2.140482
    23  H    5.485639   4.490719   2.780402   4.883567   2.621523
    24  H    4.509628   3.650803   3.442488   4.368955   3.265101
    25  H    2.837094   2.092574   4.518259   2.136858   6.581938
    26  H    3.463548   2.158781   3.015870   2.177861   5.327274
    27  H    3.781657   1.078811   3.730084   3.464891   5.174754
    28  H    7.409170   5.583192   2.801006   6.660580   1.088166
    29  H    7.846902   5.617727   3.456098   7.290028   1.081489
    30  H    5.411224   3.201350   1.084644   4.261103   3.451963
    31  H    3.625296   2.648415   2.152382   2.677613   3.815170
                    6          7          8          9         10
     6  O    0.000000
     7  C    5.098903   0.000000
     8  C    2.433327   3.714691   0.000000
     9  C    2.419629   5.962196   2.526229   0.000000
    10  C    1.411499   4.190106   1.520516   2.866549   0.000000
    11  O    4.806144   1.419120   3.433960   5.282275   4.168634
    12  O    2.885736   2.999006   1.420088   3.022196   2.377429
    13  C    5.220210   2.851411   2.953848   4.843062   4.296784
    14  H    6.928258   2.134516   5.051259   7.297997   5.901438
    15  H    6.557177   2.141006   4.827721   7.311026   5.352598
    16  H    3.302537   5.730561   2.132836   2.152037   2.792532
    17  H    6.656906   3.432593   4.340917   6.538706   5.443449
    18  H    5.160596   2.806994   2.997435   5.416382   3.852451
    19  H    4.317573   1.085712   3.161178   5.478939   3.329267
    20  H    5.745350   1.081207   4.670577   6.817277   4.957768
    21  H    2.719265   5.786281   2.853539   1.086031   3.314809
    22  H    3.345746   6.975760   3.465562   1.086256   3.828990
    23  H    2.048964   4.915640   2.137843   3.261810   1.087583
    24  H    2.010336   3.579014   2.154537   3.837261   1.080666
    25  H    6.158783   3.330953   3.969325   5.625162   5.326375
    26  H    5.119124   3.802655   2.751279   4.326546   4.230883
    27  H    4.735385   3.258356   3.202006   4.290134   4.360765
    28  H    2.046451   6.713496   3.280608   2.158768   2.620619
    29  H    2.009478   6.898971   3.859334   2.165225   3.261154
    30  H    3.826577   5.220104   2.155900   2.168359   3.438179
    31  H    3.331233   3.463433   1.077351   3.451324   2.114476
                   11         12         13         14         15
    11  O    0.000000
    12  O    2.284901   0.000000
    13  C    2.421854   2.520028   0.000000
    14  H    2.673220   4.421117   2.837659   0.000000
    15  H    3.345223   4.595323   3.464512   1.753552   0.000000
    16  H    5.425129   3.337825   4.239681   6.730928   6.468175
    17  H    3.810449   4.330064   2.145781   2.450963   2.559907
    18  H    3.371974   3.306279   2.176758   3.039079   2.419064
    19  H    2.056135   2.749550   3.206547   3.044143   2.479229
    20  H    2.002586   3.858802   3.840852   2.460972   2.509386
    21  H    4.895612   2.806645   4.748677   7.126838   7.356158
    22  H    6.263692   4.027067   5.590462   8.188460   8.234867
    23  H    5.068792   3.312298   4.872369   6.487578   5.728124
    24  H    3.800752   2.578443   4.396042   5.469643   4.786913
    25  H    2.741788   3.339996   1.086252   2.729369   3.836841
    26  H    3.342866   2.703129   1.083430   3.850469   4.298269
    27  H    1.968505   1.984660   2.138498   3.914189   4.829893
    28  H    6.423437   4.232289   6.163712   8.292719   7.855416
    29  H    6.348908   4.259345   6.551653   8.617143   8.425661
    30  H    4.556861   2.638966   3.218791   5.981912   6.181171
    31  H    3.493367   2.062628   2.561569   4.516510   4.111980
                   16         17         18         19         20
    16  H    0.000000
    17  H    5.354979   0.000000
    18  H    4.203948   1.739960   0.000000
    19  H    5.188073   3.780938   2.644638   0.000000
    20  H    6.738329   4.284255   3.797207   1.754684   0.000000
    21  H    3.049667   6.663276   5.680165   5.443256   6.562512
    22  H    2.442524   7.237235   6.208459   6.516122   7.858658
    23  H    2.635945   5.715102   4.052279   3.990824   5.710921
    24  H    3.789430   5.376461   3.755574   2.603337   4.201236
    25  H    5.153610   2.376131   3.039282   3.947473   4.157165
    26  H    3.496151   2.547755   2.470137   3.955098   4.836194
    27  H    4.701843   4.215834   3.990119   3.659244   3.967945
    28  H    2.665539   7.459845   5.996270   5.928513   7.503806
    29  H    3.811076   8.188388   6.823042   6.227500   7.556441
    30  H    1.749447   4.807447   4.076103   4.988790   6.227501
    31  H    2.386329   3.480165   2.032517   2.930363   4.493192
                   21         22         23         24         25
    21  H    0.000000
    22  H    1.749278   0.000000
    23  H    3.970574   4.030616   0.000000
    24  H    4.106872   4.847809   1.761880   0.000000
    25  H    5.396187   6.308187   5.944477   5.395931   0.000000
    26  H    4.369695   4.924976   4.667449   4.582075   1.738634
    27  H    3.730992   5.089824   5.259011   4.471830   2.258230
    28  H    3.044486   2.454115   2.409048   3.573625   7.122932
    29  H    2.441597   2.524552   3.574369   4.015713   7.388857
    30  H    2.464768   2.545748   3.783292   4.270132   3.916854
    31  H    3.856790   4.271809   2.382587   2.498305   3.642661
                   26         27         28         29         30
    26  H    0.000000
    27  H    2.578600   0.000000
    28  H    5.710619   5.972371   0.000000
    29  H    6.234530   5.763437   1.759216   0.000000
    30  H    2.414064   3.337819   3.810105   4.293426   0.000000
    31  H    2.364234   3.524674   4.003788   4.839007   2.541628
                   31
    31  H    0.000000
 Stoichiometry    C10H18O3
 Framework group  C1[X(C10H18O3)]
 Deg. of freedom    87
 Full point group                 C1      NOp   1
 Largest Abelian subgroup         C1      NOp   1
 Largest concise Abelian subgroup C1      NOp   1
                         Standard orientation:                         
 ---------------------------------------------------------------------
 Center     Atomic      Atomic             Coordinates (Angstroms)
 Number     Number       Type             X           Y           Z
 ---------------------------------------------------------------------
      1          6           0       -3.386382   -0.390348    0.640572
      2          6           0       -1.144592    0.422724   -1.057932
      3          6           0        1.799634    1.346510    0.362986
      4          6           0       -2.557903    0.814573    1.081364
      5          6           0        3.573659   -0.380253   -0.022860
      6          8           0        2.579422   -1.386463    0.038618
      7          6           0       -2.515256   -1.336869   -0.162896
      8          6           0        0.797618    0.200833    0.514797
      9          6           0        2.986343    0.934408   -0.511451
     10          6           0        1.523558   -1.071957    0.920982
     11          8           0       -1.981596   -0.677749   -1.300731
     12          8           0        0.136163   -0.049481   -0.716653
     13          6           0       -1.815195    1.426836   -0.113966
     14          1           0       -4.222460   -0.069292    0.023811
     15          1           0       -3.795234   -0.913348    1.500291
     16          1           0        2.157479    1.612799    1.355106
     17          1           0       -3.194738    1.575029    1.522883
     18          1           0       -1.866046    0.502138    1.855964
     19          1           0       -1.705355   -1.728744    0.444775
     20          1           0       -3.081383   -2.173090   -0.549217
     21          1           0        2.672179    0.822166   -1.544972
     22          1           0        3.755898    1.700739   -0.489683
     23          1           0        1.916827   -0.948973    1.927486
     24          1           0        0.848593   -1.915880    0.913490
     25          1           0       -2.542901    1.945001   -0.731940
     26          1           0       -1.096832    2.171975    0.206258
     27          1           0       -1.027129    0.883528   -2.026279
     28          1           0        4.014536   -0.259080    0.964586
     29          1           0        4.337902   -0.747273   -0.694312
     30          1           0        1.303555    2.220160   -0.045784
     31          1           0        0.084302    0.432963    1.288090
 ---------------------------------------------------------------------
 Rotational constants (GHZ):           1.7258792           0.4602969           0.4326684
 Standard basis: 6-311++G(2d,2p) (5D, 7F)
 There are   557 symmetry adapted cartesian basis functions of A   symmetry.
 There are   531 symmetry adapted basis functions of A   symmetry.
   531 basis functions,   762 primitive gaussians,   557 cartesian basis functions
    51 alpha electrons       51 beta electrons
       nuclear repulsion energy       905.9027654142 Hartrees.
 NAtoms=   31 NActive=   31 NUniq=   31 SFac= 1.00D+00 NAtFMM=   60 NAOKFM=F Big=F
 Integral buffers will be    131072 words long.
 Raffenetti 2 integral format.
 Two-electron integral symmetry is turned on.
 ------------------------------------------------------------------------------
 Polarizable Continuum Model (PCM)
 =================================
 Model                : PCM.
 Atomic radii         : UFF (Universal Force Field).
 Polarization charges : Total charges.
 Charge compensation  : None.
 Solution method      : On-the-fly selection.
 Cavity type          : Scaled VdW (van der Waals Surface) (Alpha=1.100).
 Cavity algorithm     : GePol (No added spheres)
                        Default sphere list used, NSphG=   31.
                        Lebedev-Laikov grids with approx.  5.0 points / Ang**2.
                        Smoothing algorithm: York/Karplus (Gamma=1.0000).
                        Polarization charges: spherical gaussians, with
                                              point-specific exponents (IZeta= 3).
                        Self-potential: point-specific (ISelfS= 7).
                        Self-field    : sphere-specific E.n sum rule (ISelfD= 2).
 1st derivatives      : Analytical E(r).r(x)/FMM algorithm (CHGder, D1EAlg=3).
                        Cavity 1st derivative terms included.
 Solvent              : Water, Eps=  78.355300 Eps(inf)=   1.777849
 ------------------------------------------------------------------------------
 One-electron integrals computed using PRISM.
 NBasis=   531 RedAO= T EigKep=  3.88D-06  NBF=   531
 NBsUse=   531 1.00D-06 EigRej= -1.00D+00 NBFU=   531
 ExpMin= 3.60D-02 ExpMax= 8.59D+03 ExpMxC= 1.30D+03 IAcc=3 IRadAn=         5 AccDes= 0.00D+00
 Harris functional with IExCor= 1009 and IRadAn=       5 diagonalized for initial guess.
 HarFok:  IExCor= 1009 AccDes= 0.00D+00 IRadAn=         5 IDoV= 1 UseB2=F ITyADJ=14
 ICtDFT=  3500011 ScaDFX=  1.000000  1.000000  1.000000  1.000000
 FoFCou: FMM=F IPFlag=           0 FMFlag=      100000 FMFlg1=           0
         NFxFlg=           0 DoJE=T BraDBF=F KetDBF=T FulRan=T
         wScrn=  0.000000 ICntrl=       500 IOpCl=  0 I1Cent=   200000004 NGrid=           0
         NMat0=    1 NMatS0=      1 NMatT0=    0 NMatD0=    1 NMtDS0=    0 NMtDT0=    0
 Petite list used in FoFCou.
 Requested convergence on RMS density matrix=1.00D-08 within 128 cycles.
 Requested convergence on MAX density matrix=1.00D-06.
 Requested convergence on             energy=1.00D-06.
 No special actions if energy rises.
 Inv3:  Mode=1 IEnd=    12204867.
 Iteration    1 A*A^-1 deviation from unit magnitude is 4.44D-15 for   2001.
 Iteration    1 A*A^-1 deviation from orthogonality  is 4.64D-15 for   2010   1862.
 Iteration    1 A^-1*A deviation from unit magnitude is 4.44D-15 for   2001.
 Iteration    1 A^-1*A deviation from orthogonality  is 4.18D-15 for   2009    835.
 Error on total polarization charges =  0.01479
 SCF Done:  E(RM062X) =  -617.490460726     A.U. after   12 cycles
            NFock= 12  Conv=0.64D-08     -V/T= 2.0035

 **********************************************************************

            Population analysis using the SCF density.

 **********************************************************************

 Orbital symmetries:
       Occupied  (A) (A) (A) (A) (A) (A) (A) (A) (A) (A) (A) (A)
                 (A) (A) (A) (A) (A) (A) (A) (A) (A) (A) (A) (A)
                 (A) (A) (A) (A) (A) (A) (A) (A) (A) (A) (A) (A)
                 (A) (A) (A) (A) (A) (A) (A) (A) (A) (A) (A) (A)
                 (A) (A) (A)
       Virtual   (A) (A) (A) (A) (A) (A) (A) (A) (A) (A) (A) (A)
                 (A) (A) (A) (A) (A) (A) (A) (A) (A) (A) (A) (A)
                 (A) (A) (A) (A) (A) (A) (A) (A) (A) (A) (A) (A)
                 (A) (A) (A) (A) (A) (A) (A) (A) (A) (A) (A) (A)
                 (A) (A) (A) (A) (A) (A) (A) (A) (A) (A) (A) (A)
                 (A) (A) (A) (A) (A) (A) (A) (A) (A) (A) (A) (A)
                 (A) (A) (A) (A) (A) (A) (A) (A) (A) (A) (A) (A)
                 (A) (A) (A) (A) (A) (A) (A) (A) (A) (A) (A) (A)
                 (A) (A) (A) (A) (A) (A) (A) (A) (A) (A) (A) (A)
                 (A) (A) (A) (A) (A) (A) (A) (A) (A) (A) (A) (A)
                 (A) (A) (A) (A) (A) (A) (A) (A) (A) (A) (A) (A)
                 (A) (A) (A) (A) (A) (A) (A) (A) (A) (A) (A) (A)
                 (A) (A) (A) (A) (A) (A) (A) (A) (A) (A) (A) (A)
                 (A) (A) (A) (A) (A) (A) (A) (A) (A) (A) (A) (A)
                 (A) (A) (A) (A) (A) (A) (A) (A) (A) (A) (A) (A)
                 (A) (A) (A) (A) (A) (A) (A) (A) (A) (A) (A) (A)
                 (A) (A) (A) (A) (A) (A) (A) (A) (A) (A) (A) (A)
                 (A) (A) (A) (A) (A) (A) (A) (A) (A) (A) (A) (A)
                 (A) (A) (A) (A) (A) (A) (A) (A) (A) (A) (A) (A)
                 (A) (A) (A) (A) (A) (A) (A) (A) (A) (A) (A) (A)
                 (A) (A) (A) (A) (A) (A) (A) (A) (A) (A) (A) (A)
                 (A) (A) (A) (A) (A) (A) (A) (A) (A) (A) (A) (A)
                 (A) (A) (A) (A) (A) (A) (A) (A) (A) (A) (A) (A)
                 (A) (A) (A) (A) (A) (A) (A) (A) (A) (A) (A) (A)
                 (A) (A) (A) (A) (A) (A) (A) (A) (A) (A) (A) (A)
                 (A) (A) (A) (A) (A) (A) (A) (A) (A) (A) (A) (A)
                 (A) (A) (A) (A) (A) (A) (A) (A) (A) (A) (A) (A)
                 (A) (A) (A) (A) (A) (A) (A) (A) (A) (A) (A) (A)
                 (A) (A) (A) (A) (A) (A) (A) (A) (A) (A) (A) (A)
                 (A) (A) (A) (A) (A) (A) (A) (A) (A) (A) (A) (A)
                 (A) (A) (A) (A) (A) (A) (A) (A) (A) (A) (A) (A)
                 (A) (A) (A) (A) (A) (A) (A) (A) (A) (A) (A) (A)
                 (A) (A) (A) (A) (A) (A) (A) (A) (A) (A) (A) (A)
                 (A) (A) (A) (A) (A) (A) (A) (A) (A) (A) (A) (A)
                 (A) (A) (A) (A) (A) (A) (A) (A) (A) (A) (A) (A)
                 (A) (A) (A) (A) (A) (A) (A) (A) (A) (A) (A) (A)
                 (A) (A) (A) (A) (A) (A) (A) (A) (A) (A) (A) (A)
                 (A) (A) (A) (A) (A) (A) (A) (A) (A) (A) (A) (A)
                 (A) (A) (A) (A) (A) (A) (A) (A) (A) (A) (A) (A)
                 (A) (A) (A) (A) (A) (A) (A) (A) (A) (A) (A) (A)
 The electronic state is 1-A.
 Alpha  occ. eigenvalues --  -19.62648 -19.62640 -19.62445 -10.63734 -10.58863
 Alpha  occ. eigenvalues --  -10.57903 -10.57752 -10.57701 -10.53562 -10.53358
 Alpha  occ. eigenvalues --  -10.53114 -10.52865 -10.52803  -1.19650  -1.16578
 Alpha  occ. eigenvalues --   -1.13186  -0.90404  -0.90272  -0.87597  -0.85028
 Alpha  occ. eigenvalues --   -0.75183  -0.74290  -0.73634  -0.71340  -0.66647
 Alpha  occ. eigenvalues --   -0.62411  -0.59747  -0.58594  -0.57439  -0.55941
 Alpha  occ. eigenvalues --   -0.54875  -0.53312  -0.52533  -0.51148  -0.50142
 Alpha  occ. eigenvalues --   -0.49314  -0.46753  -0.46237  -0.45635  -0.45182
 Alpha  occ. eigenvalues --   -0.44146  -0.42327  -0.41103  -0.40244  -0.39155
 Alpha  occ. eigenvalues --   -0.38591  -0.37090  -0.36470  -0.35111  -0.32968
 Alpha  occ. eigenvalues --   -0.31569
 Alpha virt. eigenvalues --   -0.00209   0.00773   0.00856   0.01194   0.02264
 Alpha virt. eigenvalues --    0.02614   0.02639   0.03365   0.03617   0.04658
 Alpha virt. eigenvalues --    0.04690   0.04829   0.05587   0.05929   0.07360
 Alpha virt. eigenvalues --    0.07804   0.08127   0.08351   0.08729   0.09504
 Alpha virt. eigenvalues --    0.09683   0.10477   0.10810   0.11501   0.11882
 Alpha virt. eigenvalues --    0.12222   0.12644   0.13172   0.13319   0.13665
 Alpha virt. eigenvalues --    0.14091   0.14142   0.14229   0.14748   0.14930
 Alpha virt. eigenvalues --    0.15176   0.15347   0.15497   0.16006   0.16157
 Alpha virt. eigenvalues --    0.16470   0.16687   0.17189   0.17444   0.17861
 Alpha virt. eigenvalues --    0.18070   0.18253   0.18915   0.19304   0.19657
 Alpha virt. eigenvalues --    0.20035   0.20368   0.20839   0.20984   0.21423
 Alpha virt. eigenvalues --    0.21692   0.22160   0.22413   0.23929   0.24125
 Alpha virt. eigenvalues --    0.24648   0.26255   0.26363   0.26613   0.27023
 Alpha virt. eigenvalues --    0.27916   0.28308   0.28938   0.29190   0.29719
 Alpha virt. eigenvalues --    0.29956   0.30211   0.30945   0.31767   0.32527
 Alpha virt. eigenvalues --    0.32740   0.33629   0.34103   0.34550   0.34639
 Alpha virt. eigenvalues --    0.35112   0.35263   0.35283   0.35658   0.36352
 Alpha virt. eigenvalues --    0.36509   0.37058   0.37641   0.37859   0.38028
 Alpha virt. eigenvalues --    0.38768   0.39204   0.39888   0.40252   0.40472
 Alpha virt. eigenvalues --    0.41336   0.41787   0.42644   0.44467   0.44927
 Alpha virt. eigenvalues --    0.46128   0.48477   0.49311   0.49939   0.51539
 Alpha virt. eigenvalues --    0.52321   0.52760   0.53221   0.54385   0.55881
 Alpha virt. eigenvalues --    0.56689   0.57517   0.58046   0.59534   0.59900
 Alpha virt. eigenvalues --    0.60120   0.60382   0.60662   0.61266   0.61771
 Alpha virt. eigenvalues --    0.62386   0.62996   0.63231   0.64097   0.64623
 Alpha virt. eigenvalues --    0.65229   0.65887   0.66172   0.66737   0.67426
 Alpha virt. eigenvalues --    0.67746   0.68683   0.68804   0.69389   0.70442
 Alpha virt. eigenvalues --    0.70832   0.71029   0.71397   0.72711   0.73403
 Alpha virt. eigenvalues --    0.73619   0.73875   0.74920   0.75734   0.76040
 Alpha virt. eigenvalues --    0.76372   0.76864   0.77793   0.78332   0.80118
 Alpha virt. eigenvalues --    0.80889   0.83488   0.83995   0.84475   0.85309
 Alpha virt. eigenvalues --    0.86642   0.86845   0.88251   0.88913   0.90520
 Alpha virt. eigenvalues --    0.91054   0.93453   0.93761   0.96011   0.96609
 Alpha virt. eigenvalues --    0.97253   0.97759   0.99273   1.01080   1.01410
 Alpha virt. eigenvalues --    1.02319   1.03107   1.03817   1.04192   1.06066
 Alpha virt. eigenvalues --    1.07823   1.08493   1.09171   1.11254   1.12517
 Alpha virt. eigenvalues --    1.13517   1.14493   1.15438   1.16214   1.17130
 Alpha virt. eigenvalues --    1.17395   1.17830   1.19261   1.19811   1.20722
 Alpha virt. eigenvalues --    1.21560   1.22484   1.22879   1.23966   1.24290
 Alpha virt. eigenvalues --    1.25155   1.25765   1.26861   1.27330   1.28391
 Alpha virt. eigenvalues --    1.28789   1.29963   1.30862   1.31231   1.31864
 Alpha virt. eigenvalues --    1.32341   1.32770   1.33579   1.34090   1.35408
 Alpha virt. eigenvalues --    1.35814   1.36590   1.37133   1.37495   1.38432
 Alpha virt. eigenvalues --    1.38855   1.39538   1.40220   1.40916   1.41832
 Alpha virt. eigenvalues --    1.42483   1.42783   1.43237   1.44167   1.44508
 Alpha virt. eigenvalues --    1.45292   1.46704   1.47470   1.47865   1.48833
 Alpha virt. eigenvalues --    1.49730   1.50318   1.50776   1.51682   1.52248
 Alpha virt. eigenvalues --    1.53282   1.53898   1.54525   1.54749   1.56494
 Alpha virt. eigenvalues --    1.56549   1.56955   1.57689   1.58083   1.59216
 Alpha virt. eigenvalues --    1.59503   1.61046   1.61337   1.62210   1.62778
 Alpha virt. eigenvalues --    1.64162   1.65362   1.66159   1.66461   1.67543
 Alpha virt. eigenvalues --    1.68617   1.69148   1.70018   1.70927   1.72510
 Alpha virt. eigenvalues --    1.73322   1.74639   1.75072   1.75400   1.75895
 Alpha virt. eigenvalues --    1.77622   1.80245   1.81721   1.83282   1.84798
 Alpha virt. eigenvalues --    1.85639   1.88820   1.91489   1.97557   2.01779
 Alpha virt. eigenvalues --    2.02520   2.04726   2.12021   2.18310   2.19721
 Alpha virt. eigenvalues --    2.24173   2.26348   2.27879   2.30985   2.40127
 Alpha virt. eigenvalues --    2.41242   2.42634   2.45302   2.49453   2.52519
 Alpha virt. eigenvalues --    2.56446   2.75419   2.76295   2.79526   2.81639
 Alpha virt. eigenvalues --    2.82671   2.88656   2.92185   2.93003   2.94666
 Alpha virt. eigenvalues --    2.96479   2.97463   3.00329   3.01468   3.03211
 Alpha virt. eigenvalues --    3.06766   3.07523   3.08719   3.09490   3.10946
 Alpha virt. eigenvalues --    3.11692   3.13883   3.17668   3.18996   3.21393
 Alpha virt. eigenvalues --    3.24877   3.29633   3.31619   3.32000   3.34030
 Alpha virt. eigenvalues --    3.35527   3.36509   3.38671   3.40575   3.41136
 Alpha virt. eigenvalues --    3.41405   3.43712   3.43993   3.45304   3.47026
 Alpha virt. eigenvalues --    3.47743   3.48766   3.50449   3.50750   3.52135
 Alpha virt. eigenvalues --    3.53497   3.53937   3.54441   3.55616   3.56519
 Alpha virt. eigenvalues --    3.56675   3.57634   3.58145   3.58566   3.59293
 Alpha virt. eigenvalues --    3.62179   3.62452   3.63742   3.64112   3.65136
 Alpha virt. eigenvalues --    3.65964   3.67181   3.67519   3.68554   3.69573
 Alpha virt. eigenvalues --    3.70564   3.71268   3.72735   3.73540   3.74080
 Alpha virt. eigenvalues --    3.75510   3.76104   3.76384   3.77452   3.77866
 Alpha virt. eigenvalues --    3.78764   3.79738   3.81398   3.82753   3.85180
 Alpha virt. eigenvalues --    3.85748   3.88862   3.89494   3.91079   3.92468
 Alpha virt. eigenvalues --    3.93957   3.94605   3.94913   3.96554   3.97507
 Alpha virt. eigenvalues --    4.00626   4.01529   4.02271   4.03989   4.04452
 Alpha virt. eigenvalues --    4.04865   4.06155   4.06418   4.06902   4.07288
 Alpha virt. eigenvalues --    4.08845   4.09380   4.10408   4.10675   4.11588
 Alpha virt. eigenvalues --    4.12270   4.12422   4.14021   4.14900   4.16313
 Alpha virt. eigenvalues --    4.16591   4.16674   4.17738   4.19658   4.20465
 Alpha virt. eigenvalues --    4.21573   4.23889   4.24881   4.26232   4.27233
 Alpha virt. eigenvalues --    4.27904   4.30263   4.30793   4.31395   4.32032
 Alpha virt. eigenvalues --    4.33822   4.35967   4.37231   4.37719   4.40645
 Alpha virt. eigenvalues --    4.41874   4.43710   4.45654   4.47004   4.50809
 Alpha virt. eigenvalues --    4.58563   4.58711   4.74655   4.75603   4.82169
 Alpha virt. eigenvalues --    4.84917   4.93548   4.94597   4.99778   5.04079
 Alpha virt. eigenvalues --    5.06245   5.07319   5.08169   5.08663   5.11067
 Alpha virt. eigenvalues --    5.12958   5.13761   5.17906   5.31923   5.34584
 Alpha virt. eigenvalues --    5.45893   5.57337   5.59163   5.63050   5.86418
 Alpha virt. eigenvalues --    5.88253   6.00776   7.00419   7.06446   7.07844
 Alpha virt. eigenvalues --    7.10134   7.10626   7.11280   7.12896   7.14671
 Alpha virt. eigenvalues --    7.33049   7.37713   7.40663   7.46277   7.54001
 Alpha virt. eigenvalues --    7.55123   7.57508  23.95901  23.97133  24.06008
 Alpha virt. eigenvalues --   24.08173  24.10514  24.12432  24.14277  24.15203
 Alpha virt. eigenvalues --   24.16743  24.19655  50.16624  50.18184  50.25120
          Condensed to atoms (all electrons):
               1          2          3          4          5          6
     1  C    6.388087  -0.292891   0.041272  -0.481900   0.005237   0.000265
     2  C   -0.292891   7.740305  -0.114696   0.702818  -0.034659   0.004585
     3  C    0.041272  -0.114696   6.806528  -0.074808  -0.112307   0.020996
     4  C   -0.481900   0.702818  -0.074808   6.205433  -0.007742   0.001295
     5  C    0.005237  -0.034659  -0.112307  -0.007742   5.501856   0.124322
     6  O    0.000265   0.004585   0.020996   0.001295   0.124322   8.304492
     7  C   -0.248581  -0.208508  -0.049587   0.157523  -0.001828   0.000608
     8  C    0.210395  -1.247062  -0.758021  -0.319922   0.349104   0.024612
     9  C   -0.017594   0.378273  -0.279757   0.056678  -0.060226  -0.030831
    10  C   -0.064250   0.270583  -0.020795   0.060746  -0.255157   0.089579
    11  O   -0.107739   0.131786   0.005595  -0.052368   0.003109   0.000458
    12  O   -0.022482   0.214517   0.020473   0.047952  -0.012919   0.025789
    13  C    0.365048  -1.775292   0.123307  -0.892867   0.016426  -0.002934
    14  H    0.447014   0.029150   0.001193   0.013375   0.000163  -0.000003
    15  H    0.425269   0.014320  -0.001074  -0.044618  -0.000201  -0.000008
    16  H   -0.003009  -0.003522   0.493798   0.001718  -0.009973  -0.000268
    17  H   -0.029594   0.025363  -0.002257   0.425893  -0.000472  -0.000040
    18  H   -0.121369   0.033634  -0.024179   0.567647   0.004178  -0.000593
    19  H   -0.171446   0.027976  -0.002846   0.035953  -0.000364   0.000953
    20  H   -0.008168  -0.014224  -0.002109  -0.005351   0.000073   0.000017
    21  H    0.000204  -0.006935  -0.011871   0.000326  -0.094551  -0.009850
    22  H   -0.000337   0.007188  -0.026185   0.000785  -0.029869   0.009320
    23  H   -0.001865   0.012455  -0.068615  -0.002588  -0.000385  -0.054380
    24  H    0.005499   0.009087   0.021448   0.006457   0.006526  -0.091621
    25  H   -0.022766  -0.061967  -0.007838  -0.009515   0.000273   0.000179
    26  H   -0.030177  -0.125025  -0.020887  -0.055752   0.007933  -0.000972
    27  H   -0.002926   0.593157  -0.017533   0.008774  -0.002006  -0.000941
    28  H    0.000413  -0.004805  -0.031294  -0.000761   0.452549  -0.060156
    29  H   -0.000091   0.005036   0.003659   0.000390   0.436762  -0.065290
    30  H    0.006342  -0.010262   0.384469  -0.009511  -0.013341  -0.001193
    31  H    0.062822  -0.195016   0.108417  -0.059511  -0.033774   0.017332
               7          8          9         10         11         12
     1  C   -0.248581   0.210395  -0.017594  -0.064250  -0.107739  -0.022482
     2  C   -0.208508  -1.247062   0.378273   0.270583   0.131786   0.214517
     3  C   -0.049587  -0.758021  -0.279757  -0.020795   0.005595   0.020473
     4  C    0.157523  -0.319922   0.056678   0.060746  -0.052368   0.047952
     5  C   -0.001828   0.349104  -0.060226  -0.255157   0.003109  -0.012919
     6  O    0.000608   0.024612  -0.030831   0.089579   0.000458   0.025789
     7  C    5.457049   0.002757  -0.000645   0.012311   0.192393   0.011466
     8  C    0.002757   7.912599  -0.690409  -0.625795   0.043261   0.077870
     9  C   -0.000645  -0.690409   6.081604   0.293658  -0.013683  -0.054497
    10  C    0.012311  -0.625795   0.293658   6.121994  -0.010854  -0.119297
    11  O    0.192393   0.043261  -0.013683  -0.010854   8.201232  -0.026364
    12  O    0.011466   0.077870  -0.054497  -0.119297  -0.026364   8.283097
    13  C    0.044435   0.638452  -0.180208  -0.151543   0.059338  -0.021066
    14  H   -0.057923  -0.004466  -0.000100   0.000023  -0.011746   0.000370
    15  H   -0.035204  -0.003189   0.000124  -0.000794   0.007752  -0.000022
    16  H    0.001776  -0.079519  -0.026401  -0.010731   0.000078   0.007762
    17  H    0.017365  -0.005962   0.000255   0.002708  -0.001067  -0.000351
    18  H    0.023975  -0.007846   0.013609   0.008054  -0.001761  -0.000075
    19  H    0.506055   0.000795   0.001031  -0.001850  -0.043663   0.001631
    20  H    0.419461   0.007428  -0.000503   0.000681  -0.055989  -0.002063
    21  H   -0.000167  -0.014726   0.502631   0.003467   0.000715   0.005698
    22  H   -0.000111  -0.033061   0.439953   0.006231  -0.000240  -0.000652
    23  H    0.001612  -0.054689   0.043971   0.468777  -0.000091   0.015402
    24  H   -0.009210  -0.064171   0.011701   0.419475  -0.002955   0.000821
    25  H    0.018794   0.009069   0.001469  -0.001343  -0.015249   0.001917
    26  H    0.011500   0.072797  -0.022112  -0.005538   0.013235  -0.008050
    27  H   -0.017299  -0.050701   0.027856   0.013532  -0.076731  -0.090475
    28  H   -0.000063   0.041336  -0.023655  -0.034440   0.000187   0.001095
    29  H    0.000106  -0.002008  -0.049815   0.013046  -0.000118   0.001069
    30  H    0.000136   0.029466  -0.007747  -0.008465   0.001543  -0.006127
    31  H   -0.039273   0.503438  -0.149795  -0.049329   0.010951  -0.019419
              13         14         15         16         17         18
     1  C    0.365048   0.447014   0.425269  -0.003009  -0.029594  -0.121369
     2  C   -1.775292   0.029150   0.014320  -0.003522   0.025363   0.033634
     3  C    0.123307   0.001193  -0.001074   0.493798  -0.002257  -0.024179
     4  C   -0.892867   0.013375  -0.044618   0.001718   0.425893   0.567647
     5  C    0.016426   0.000163  -0.000201  -0.009973  -0.000472   0.004178
     6  O   -0.002934  -0.000003  -0.000008  -0.000268  -0.000040  -0.000593
     7  C    0.044435  -0.057923  -0.035204   0.001776   0.017365   0.023975
     8  C    0.638452  -0.004466  -0.003189  -0.079519  -0.005962  -0.007846
     9  C   -0.180208  -0.000100   0.000124  -0.026401   0.000255   0.013609
    10  C   -0.151543   0.000023  -0.000794  -0.010731   0.002708   0.008054
    11  O    0.059338  -0.011746   0.007752   0.000078  -0.001067  -0.001761
    12  O   -0.021066   0.000370  -0.000022   0.007762  -0.000351  -0.000075
    13  C    7.325216  -0.047658   0.007197   0.003648  -0.062790  -0.099798
    14  H   -0.047658   0.463540  -0.004245   0.000019   0.000868  -0.000447
    15  H    0.007197  -0.004245   0.488141  -0.000201  -0.006488  -0.008910
    16  H    0.003648   0.000019  -0.000201   0.435277  -0.000002   0.002093
    17  H   -0.062790   0.000868  -0.006488  -0.000002   0.464661  -0.009509
    18  H   -0.099798  -0.000447  -0.008910   0.002093  -0.009509   0.490963
    19  H   -0.004127  -0.001507   0.003704   0.000146  -0.000022  -0.002502
    20  H    0.015713  -0.000984  -0.013276   0.000049   0.001295  -0.001171
    21  H   -0.001139  -0.000042   0.000002   0.002933   0.000014  -0.000212
    22  H   -0.002689   0.000012  -0.000016  -0.007534  -0.000042   0.000276
    23  H    0.002837  -0.000052  -0.000177  -0.002271  -0.000010   0.004924
    24  H   -0.014186   0.000388   0.000570  -0.003578  -0.000223  -0.001993
    25  H    0.447670  -0.001858  -0.001808  -0.000036  -0.007323   0.006276
    26  H    0.514112  -0.001522   0.000344   0.001027  -0.008713   0.004348
    27  H   -0.099084   0.001687   0.001873  -0.001132   0.002069  -0.001686
    28  H    0.002420  -0.000004   0.000033  -0.004353   0.000015  -0.000521
    29  H   -0.001906  -0.000001  -0.000007  -0.001677  -0.000009   0.000344
    30  H    0.012262  -0.000178  -0.000016  -0.000640  -0.000122  -0.001484
    31  H    0.115554  -0.000051   0.003801  -0.012667   0.005178  -0.039355
              19         20         21         22         23         24
     1  C   -0.171446  -0.008168   0.000204  -0.000337  -0.001865   0.005499
     2  C    0.027976  -0.014224  -0.006935   0.007188   0.012455   0.009087
     3  C   -0.002846  -0.002109  -0.011871  -0.026185  -0.068615   0.021448
     4  C    0.035953  -0.005351   0.000326   0.000785  -0.002588   0.006457
     5  C   -0.000364   0.000073  -0.094551  -0.029869  -0.000385   0.006526
     6  O    0.000953   0.000017  -0.009850   0.009320  -0.054380  -0.091621
     7  C    0.506055   0.419461  -0.000167  -0.000111   0.001612  -0.009210
     8  C    0.000795   0.007428  -0.014726  -0.033061  -0.054689  -0.064171
     9  C    0.001031  -0.000503   0.502631   0.439953   0.043971   0.011701
    10  C   -0.001850   0.000681   0.003467   0.006231   0.468777   0.419475
    11  O   -0.043663  -0.055989   0.000715  -0.000240  -0.000091  -0.002955
    12  O    0.001631  -0.002063   0.005698  -0.000652   0.015402   0.000821
    13  C   -0.004127   0.015713  -0.001139  -0.002689   0.002837  -0.014186
    14  H   -0.001507  -0.000984  -0.000042   0.000012  -0.000052   0.000388
    15  H    0.003704  -0.013276   0.000002  -0.000016  -0.000177   0.000570
    16  H    0.000146   0.000049   0.002933  -0.007534  -0.002271  -0.003578
    17  H   -0.000022   0.001295   0.000014  -0.000042  -0.000010  -0.000223
    18  H   -0.002502  -0.001171  -0.000212   0.000276   0.004924  -0.001993
    19  H    0.568936  -0.017013   0.000235  -0.000052   0.002170  -0.009414
    20  H   -0.017013   0.454006  -0.000008  -0.000018   0.000052  -0.000467
    21  H    0.000235  -0.000008   0.471690  -0.012373  -0.001316  -0.002797
    22  H   -0.000052  -0.000018  -0.012373   0.485836  -0.000081   0.002269
    23  H    0.002170   0.000052  -0.001316  -0.000081   0.482285  -0.007660
    24  H   -0.009414  -0.000467  -0.002797   0.002269  -0.007660   0.498578
    25  H   -0.002003   0.000530  -0.000099  -0.000015   0.000303  -0.000571
    26  H    0.003859   0.000653  -0.001101  -0.000153   0.000280  -0.001198
    27  H   -0.000256  -0.000796  -0.004304   0.000532   0.000406   0.002878
    28  H   -0.000249  -0.000020   0.001060   0.002701   0.007813  -0.002364
    29  H    0.000054   0.000023  -0.003729  -0.009085  -0.000576   0.001518
    30  H   -0.000096   0.000106   0.003132  -0.012864  -0.002302  -0.000290
    31  H   -0.009934  -0.000130   0.004001  -0.002852  -0.036391  -0.003929
              25         26         27         28         29         30
     1  C   -0.022766  -0.030177  -0.002926   0.000413  -0.000091   0.006342
     2  C   -0.061967  -0.125025   0.593157  -0.004805   0.005036  -0.010262
     3  C   -0.007838  -0.020887  -0.017533  -0.031294   0.003659   0.384469
     4  C   -0.009515  -0.055752   0.008774  -0.000761   0.000390  -0.009511
     5  C    0.000273   0.007933  -0.002006   0.452549   0.436762  -0.013341
     6  O    0.000179  -0.000972  -0.000941  -0.060156  -0.065290  -0.001193
     7  C    0.018794   0.011500  -0.017299  -0.000063   0.000106   0.000136
     8  C    0.009069   0.072797  -0.050701   0.041336  -0.002008   0.029466
     9  C    0.001469  -0.022112   0.027856  -0.023655  -0.049815  -0.007747
    10  C   -0.001343  -0.005538   0.013532  -0.034440   0.013046  -0.008465
    11  O   -0.015249   0.013235  -0.076731   0.000187  -0.000118   0.001543
    12  O    0.001917  -0.008050  -0.090475   0.001095   0.001069  -0.006127
    13  C    0.447670   0.514112  -0.099084   0.002420  -0.001906   0.012262
    14  H   -0.001858  -0.001522   0.001687  -0.000004  -0.000001  -0.000178
    15  H   -0.001808   0.000344   0.001873   0.000033  -0.000007  -0.000016
    16  H   -0.000036   0.001027  -0.001132  -0.004353  -0.001677  -0.000640
    17  H   -0.007323  -0.008713   0.002069   0.000015  -0.000009  -0.000122
    18  H    0.006276   0.004348  -0.001686  -0.000521   0.000344  -0.001484
    19  H   -0.002003   0.003859  -0.000256  -0.000249   0.000054  -0.000096
    20  H    0.000530   0.000653  -0.000796  -0.000020   0.000023   0.000106
    21  H   -0.000099  -0.001101  -0.004304   0.001060  -0.003729   0.003132
    22  H   -0.000015  -0.000153   0.000532   0.002701  -0.009085  -0.012864
    23  H    0.000303   0.000280   0.000406   0.007813  -0.000576  -0.002302
    24  H   -0.000571  -0.001198   0.002878  -0.002364   0.001518  -0.000290
    25  H    0.437285  -0.004381  -0.008329   0.000007   0.000048   0.001133
    26  H   -0.004381   0.505914  -0.013878  -0.000583  -0.000040  -0.001846
    27  H   -0.008329  -0.013878   0.485946  -0.000145   0.000410  -0.003629
    28  H    0.000007  -0.000583  -0.000145   0.505848  -0.004665   0.002415
    29  H    0.000048  -0.000040   0.000410  -0.004665   0.476595   0.000269
    30  H    0.001133  -0.001846  -0.003629   0.002415   0.000269   0.492952
    31  H   -0.004253  -0.018659  -0.003768   0.004029  -0.001789   0.001178
              31
     1  C    0.062822
     2  C   -0.195016
     3  C    0.108417
     4  C   -0.059511
     5  C   -0.033774
     6  O    0.017332
     7  C   -0.039273
     8  C    0.503438
     9  C   -0.149795
    10  C   -0.049329
    11  O    0.010951
    12  O   -0.019419
    13  C    0.115554
    14  H   -0.000051
    15  H    0.003801
    16  H   -0.012667
    17  H    0.005178
    18  H   -0.039355
    19  H   -0.009934
    20  H   -0.000130
    21  H    0.004001
    22  H   -0.002852
    23  H   -0.036391
    24  H   -0.003929
    25  H   -0.004253
    26  H   -0.018659
    27  H   -0.003768
    28  H    0.004029
    29  H   -0.001789
    30  H    0.001178
    31  H    0.596335
 Mulliken charges:
               1
     1  C   -0.330682
     2  C   -0.105371
     3  C   -0.404495
     4  C   -0.276546
     5  C   -0.238738
     6  O   -0.305720
     7  C   -0.210926
     8  C    0.038166
     9  C   -0.244834
    10  C   -0.424682
    11  O   -0.251015
    12  O   -0.333073
    13  C   -0.336345
    14  H    0.174986
    15  H    0.167124
    16  H    0.217192
    17  H    0.189314
    18  H    0.163092
    19  H    0.113845
    20  H    0.222204
    21  H    0.169112
    22  H    0.183128
    23  H    0.190160
    24  H    0.229408
    25  H    0.224402
    26  H    0.184585
    27  H    0.256502
    28  H    0.146160
    29  H    0.201478
    30  H    0.144711
    31  H    0.246859
 Sum of Mulliken charges =  -0.00000
 Mulliken charges with hydrogens summed into heavy atoms:
               1
     1  C    0.011428
     2  C    0.151131
     3  C   -0.042592
     4  C    0.075860
     5  C    0.108899
     6  O   -0.305720
     7  C    0.125123
     8  C    0.285026
     9  C    0.107406
    10  C   -0.005115
    11  O   -0.251015
    12  O   -0.333073
    13  C    0.072642
 Electronic spatial extent (au):  <R**2>=           2808.3633
 Charge=              0.0000 electrons
 Dipole moment (field-independent basis, Debye):
    X=             -0.8100    Y=              3.4723    Z=              4.0051  Tot=              5.3622
 Quadrupole moment (field-independent basis, Debye-Ang):
   XX=            -73.6018   YY=            -80.6874   ZZ=            -81.6521
   XY=              4.8232   XZ=             -1.9885   YZ=             -4.1948
 Traceless Quadrupole moment (field-independent basis, Debye-Ang):
   XX=              5.0453   YY=             -2.0403   ZZ=             -3.0050
   XY=              4.8232   XZ=             -1.9885   YZ=             -4.1948
 Octapole moment (field-independent basis, Debye-Ang**2):
  XXX=             10.0563  YYY=              0.1069  ZZZ=              1.2901  XYY=            -15.4339
  XXY=             12.0053  XXZ=              8.3674  XZZ=              8.4013  YZZ=              2.5326
  YYZ=              0.3043  XYZ=              3.0912
 Hexadecapole moment (field-independent basis, Debye-Ang**3):
 XXXX=          -2606.7350 YYYY=           -598.3182 ZZZZ=           -399.9867 XXXY=             33.6532
 XXXZ=            -21.2738 YYYX=             23.0973 YYYZ=             -1.1187 ZZZX=             -0.2001
 ZZZY=             -9.9486 XXYY=           -562.2677 XXZZ=           -528.8848 YYZZ=           -167.0336
 XXYZ=             -3.7013 YYXZ=              4.2426 ZZXY=            -11.1692
 N-N= 9.059027654142D+02 E-N=-3.253672945052D+03  KE= 6.153208753097D+02
 D1PCM: PCM CHGder 1st derivatives, ID1Alg=3 FixD1E=F DoIter=F DoCFld=F I1PDM=0.
 Calling FoFJK, ICntrl=      2127 FMM=F ISym2X=0 I1Cent= 0 IOpClX= 0 NMat=1 NMatS=1 NMatT=0.
 ***** Axes restored to original set *****
 -------------------------------------------------------------------
 Center     Atomic                   Forces (Hartrees/Bohr)
 Number     Number              X              Y              Z
 -------------------------------------------------------------------
      1        6          -0.002619087   -0.000364986   -0.001103547
      2        6           0.003325801   -0.000884042   -0.011615055
      3        6          -0.001613719   -0.003794810    0.000238830
      4        6          -0.000104372   -0.001149626    0.004611518
      5        6           0.006313815    0.002967513    0.000343028
      6        8           0.000485321   -0.007381491    0.004424381
      7        6           0.000392272    0.007419211   -0.000422106
      8        6          -0.000456875    0.002060674    0.004398741
      9        6           0.000446580   -0.000277287   -0.002293903
     10        6          -0.003205983    0.005113623    0.003482378
     11        8           0.002753750   -0.001643833    0.010360804
     12        8          -0.005745192   -0.006180438    0.002594344
     13        6          -0.000549798   -0.003619155   -0.001429270
     14        1           0.001874106    0.001084505    0.002351220
     15        1           0.001129968   -0.000948036   -0.002394954
     16        1          -0.001461509    0.000838816   -0.003315498
     17        1           0.001441455    0.001757896   -0.001263752
     18        1          -0.002995901   -0.001601211   -0.002701298
     19        1          -0.005052243   -0.001855669   -0.004456534
     20        1           0.002231376   -0.003429198    0.001326936
     21        1           0.001898795   -0.001106969    0.002688481
     22        1          -0.001707853    0.002285494   -0.000096689
     23        1          -0.001668775    0.001465599   -0.006024939
     24        1           0.003849881   -0.003494008    0.000698473
     25        1           0.002393596    0.001652908    0.001820342
     26        1          -0.003392236    0.002769425   -0.001493535
     27        1           0.000057905    0.002843541    0.006523039
     28        1          -0.002386515    0.001858671   -0.005522917
     29        1          -0.003022900   -0.001377855    0.002798887
     30        1           0.002136590    0.002546044    0.001480593
     31        1           0.005251748    0.002444697   -0.006007996
 -------------------------------------------------------------------
 Cartesian Forces:  Max     0.011615055 RMS     0.003440865

 GradGradGradGradGradGradGradGradGradGradGradGradGradGradGradGradGradGrad
 Berny optimization.
 FormGI is forming the generalized inverse of G from B-inverse, IUseBI=4.
 Internal  Forces:  Max     0.016399444 RMS     0.002288566
 Search for a local minimum.
 Step number   1 out of a maximum of  186
 All quantities printed in internal units (Hartrees-Bohrs-Radians)
 Mixed Optimization -- RFO/linear search
 Second derivative matrix not updated -- first step.
 ITU=  0
     Eigenvalues ---    0.00492   0.00596   0.00717   0.00731   0.01403
     Eigenvalues ---    0.01426   0.01445   0.02532   0.02807   0.03053
     Eigenvalues ---    0.03110   0.03814   0.04344   0.04645   0.04762
     Eigenvalues ---    0.04785   0.04894   0.05056   0.05066   0.05093
     Eigenvalues ---    0.05310   0.05518   0.05710   0.05865   0.06215
     Eigenvalues ---    0.06297   0.06582   0.06810   0.07600   0.07866
     Eigenvalues ---    0.07958   0.07991   0.08009   0.08131   0.08472
     Eigenvalues ---    0.08783   0.09359   0.09409   0.10803   0.11623
     Eigenvalues ---    0.11706   0.11724   0.11906   0.12418   0.12536
     Eigenvalues ---    0.14610   0.15013   0.16318   0.16568   0.17461
     Eigenvalues ---    0.19627   0.21671   0.21806   0.25000   0.28119
     Eigenvalues ---    0.28479   0.28591   0.28775   0.28905   0.29012
     Eigenvalues ---    0.30140   0.30315   0.35025   0.35070   0.35094
     Eigenvalues ---    0.35112   0.35249   0.35249   0.35257   0.35275
     Eigenvalues ---    0.35312   0.35313   0.35439   0.35448   0.35583
     Eigenvalues ---    0.35815   0.35849   0.35914   0.36138   0.36316
     Eigenvalues ---    0.41076   0.41529   0.42254   0.42447   0.43488
     Eigenvalues ---    0.444721000.000001000.000001000.000001000.00000
     Eigenvalues --- 1000.000001000.000001000.000001000.000001000.00000
     Eigenvalues --- 1000.000001000.000001000.000001000.000001000.00000
     Eigenvalues --- 1000.000001000.000001000.000001000.000001000.00000
     Eigenvalues --- 1000.000001000.000001000.000001000.000001000.00000
     Eigenvalues --- 1000.000001000.000001000.000001000.000001000.00000
     Eigenvalues --- 1000.000001000.000001000.000001000.000001000.00000
     Eigenvalues --- 1000.000001000.000001000.000001000.000001000.00000
     Eigenvalues --- 1000.000001000.000001000.000001000.000001000.00000
     Eigenvalues --- 1000.000001000.000001000.000001000.000001000.00000
     Eigenvalues --- 1000.000001000.000001000.000001000.000001000.00000
     Eigenvalues --- 1000.000001000.000001000.000001000.000001000.00000
     Eigenvalues --- 1000.000001000.000001000.000001000.000001000.00000
     Eigenvalues --- 1000.000001000.000001000.000001000.000001000.00000
     Eigenvalues --- 1000.000001000.000001000.000001000.000001000.00000
     Eigenvalues --- 1000.000001000.000001000.000001000.000001000.00000
     Eigenvalues --- 1000.000001000.000001000.000001000.000001000.00000
     Eigenvalues --- 1000.000001000.000001000.000001000.000001000.00000
     Eigenvalues --- 1000.000001000.000001000.000001000.000001000.00000
     Eigenvalues --- 1000.000001000.000001000.000001000.000001000.00000
 RFO step:  Lambda=-4.16364136D-03 EMin= 4.91786540D-03
 Linear search not attempted -- first point.
 Iteration  1 RMS(Cart)=  0.08314530 RMS(Int)=  0.00154649
 Iteration  2 RMS(Cart)=  0.00348525 RMS(Int)=  0.00005656
 Iteration  3 RMS(Cart)=  0.00000552 RMS(Int)=  0.00005649
 Iteration  4 RMS(Cart)=  0.00000000 RMS(Int)=  0.00005649
 Iteration  1 RMS(Cart)=  0.00000641 RMS(Int)=  0.00000136
 Iteration  2 RMS(Cart)=  0.00000342 RMS(Int)=  0.00000152
 Iteration  3 RMS(Cart)=  0.00000182 RMS(Int)=  0.00000171
 Iteration  4 RMS(Cart)=  0.00000097 RMS(Int)=  0.00000183
 Variable       Old X    -DE/DX   Delta X   Delta X   Delta X     New X
                                 (Linear)    (Quad)   (Total)
    R1        2.88609  -0.00079   0.00000  -0.00251  -0.00253   2.88357
    R2        2.86611   0.00033   0.00000   0.00126   0.00129   2.86740
    R3        2.05494   0.00309   0.00000   0.00871   0.00871   2.06365
    R4        2.05260   0.00278   0.00000   0.00779   0.00779   2.06039
    R5        2.65274   0.00201   0.00000   0.00430   0.00431   2.65705
    R6        2.65893   0.00152   0.00000   0.00339   0.00339   2.66233
    R7        2.89629  -0.00083   0.00000  -0.00293  -0.00295   2.89334
    R8        2.03866   0.00706   0.00000   0.01932   0.01932   2.05798
    R9        2.89051  -0.00110   0.00000  -0.00427  -0.00431   2.88620
   R10        2.89242  -0.00139   0.00000  -0.00565  -0.00567   2.88675
   R11        2.05561   0.00371   0.00000   0.01045   0.01045   2.06605
   R12        2.04968   0.00358   0.00000   0.01000   0.01000   2.05968
   R13        2.90016  -0.00157   0.00000  -0.00472  -0.00473   2.89543
   R14        2.05172   0.00259   0.00000   0.00726   0.00726   2.05897
   R15        2.04954   0.00430   0.00000   0.01200   0.01200   2.06153
   R16        2.67564   0.00324   0.00000   0.00787   0.00791   2.68355
   R17        2.87337   0.00037   0.00000   0.00102   0.00100   2.87438
   R18        2.05634   0.00618   0.00000   0.01744   0.01744   2.07378
   R19        2.04372   0.00434   0.00000   0.01199   0.01199   2.05571
   R20        2.66735   0.00198   0.00000   0.00513   0.00515   2.67250
   R21        2.68175   0.00283   0.00000   0.00610   0.00609   2.68784
   R22        2.05170   0.00693   0.00000   0.01940   0.01940   2.07110
   R23        2.04319   0.00429   0.00000   0.01184   0.01184   2.05502
   R24        2.87336   0.00028   0.00000   0.00118   0.00120   2.87456
   R25        2.68358   0.00078   0.00000   0.00183   0.00183   2.68541
   R26        2.03590   0.00832   0.00000   0.02264   0.02264   2.05854
   R27        2.05230   0.00323   0.00000   0.00904   0.00904   2.06134
   R28        2.05273   0.00282   0.00000   0.00791   0.00791   2.06064
   R29        2.05523   0.00634   0.00000   0.01787   0.01787   2.07310
   R30        2.04216   0.00514   0.00000   0.01415   0.01415   2.05631
   R31        2.05272   0.00343   0.00000   0.00961   0.00961   2.06233
   R32        2.04739   0.00460   0.00000   0.01277   0.01277   2.06016
    A1        1.91101  -0.00118   0.00000  -0.00485  -0.00506   1.90595
    A2        1.92607   0.00113   0.00000   0.00074   0.00081   1.92688
    A3        1.93438  -0.00070   0.00000  -0.00203  -0.00199   1.93239
    A4        1.90223  -0.00007   0.00000  -0.00256  -0.00249   1.89973
    A5        1.91241   0.00086   0.00000   0.00497   0.00502   1.91743
    A6        1.87724   0.00000   0.00000   0.00391   0.00388   1.88112
    A7        1.89821   0.00228   0.00000   0.00551   0.00556   1.90377
    A8        1.93825   0.00403   0.00000   0.01292   0.01266   1.95090
    A9        1.81782  -0.00239   0.00000  -0.00232  -0.00246   1.81536
   A10        2.05867  -0.00728   0.00000  -0.03928  -0.03918   2.01949
   A11        1.83584   0.00314   0.00000   0.02138   0.02139   1.85723
   A12        1.89720   0.00060   0.00000   0.00631   0.00642   1.90362
   A13        1.94222   0.00019   0.00000  -0.01123  -0.01137   1.93085
   A14        1.88424   0.00013   0.00000   0.00851   0.00853   1.89278
   A15        1.91888  -0.00046   0.00000  -0.00638  -0.00637   1.91251
   A16        1.90913  -0.00012   0.00000   0.00541   0.00548   1.91461
   A17        1.93496   0.00010   0.00000   0.00026   0.00017   1.93513
   A18        1.87235   0.00017   0.00000   0.00435   0.00434   1.87669
   A19        1.93101   0.00139   0.00000  -0.00272  -0.00273   1.92828
   A20        1.93026  -0.00001   0.00000   0.00261   0.00269   1.93295
   A21        1.90170  -0.00089   0.00000  -0.00241  -0.00249   1.89921
   A22        1.89776  -0.00025   0.00000   0.00299   0.00298   1.90074
   A23        1.94173  -0.00060   0.00000  -0.00228  -0.00228   1.93945
   A24        1.86033   0.00031   0.00000   0.00203   0.00204   1.86236
   A25        1.93602   0.00143   0.00000   0.00760   0.00752   1.94355
   A26        1.90100   0.00103   0.00000   0.00861   0.00867   1.90967
   A27        1.85667  -0.00120   0.00000  -0.00472  -0.00469   1.85199
   A28        1.93029  -0.00140   0.00000  -0.00859  -0.00860   1.92169
   A29        1.94644  -0.00035   0.00000  -0.00379  -0.00378   1.94265
   A30        1.89112   0.00053   0.00000   0.00128   0.00124   1.89237
   A31        1.97586  -0.00379   0.00000  -0.02357  -0.02351   1.95234
   A32        1.92931   0.00279   0.00000   0.00892   0.00888   1.93820
   A33        1.93607  -0.00181   0.00000  -0.00733  -0.00739   1.92868
   A34        1.95111  -0.00015   0.00000  -0.00243  -0.00238   1.94873
   A35        1.91334   0.00017   0.00000   0.00146   0.00152   1.91485
   A36        1.84381  -0.00157   0.00000  -0.00126  -0.00127   1.84254
   A37        1.88748   0.00057   0.00000   0.00089   0.00086   1.88835
   A38        1.91849   0.00034   0.00000  -0.00079  -0.00090   1.91759
   A39        1.92953   0.00015   0.00000  -0.00302  -0.00300   1.92653
   A40        1.92153  -0.00093   0.00000  -0.00533  -0.00530   1.91624
   A41        1.88229  -0.00027   0.00000  -0.00100  -0.00096   1.88133
   A42        1.88044   0.00027   0.00000   0.00439   0.00440   1.88485
   A43        1.93051   0.00046   0.00000   0.00603   0.00600   1.93652
   A44        1.92697  -0.00033   0.00000  -0.00765  -0.00774   1.91923
   A45        1.92540   0.00037   0.00000  -0.00261  -0.00260   1.92281
   A46        1.92611  -0.00069   0.00000  -0.00077  -0.00074   1.92536
   A47        1.90516  -0.00028   0.00000  -0.00101  -0.00107   1.90409
   A48        1.90697   0.00067   0.00000   0.00566   0.00571   1.91269
   A49        1.87226   0.00029   0.00000   0.00688   0.00686   1.87912
   A50        1.95698   0.00103   0.00000   0.00403   0.00404   1.96103
   A51        1.91052   0.00105   0.00000   0.01012   0.01011   1.92063
   A52        1.86385  -0.00067   0.00000  -0.00297  -0.00298   1.86087
   A53        1.90202  -0.00120   0.00000  -0.00453  -0.00458   1.89744
   A54        1.93227  -0.00089   0.00000  -0.01042  -0.01043   1.92184
   A55        1.89713   0.00071   0.00000   0.00412   0.00408   1.90121
   A56        2.03717  -0.00616   0.00000  -0.03941  -0.03929   1.99788
   A57        2.18359  -0.01640   0.00000  -0.06452  -0.06452   2.11906
   A58        2.01539  -0.00149   0.00000  -0.01265  -0.01283   2.00255
   A59        1.82890   0.00036   0.00000   0.01031   0.01032   1.83923
   A60        1.92038   0.00055   0.00000  -0.00507  -0.00511   1.91527
   A61        1.88515   0.00109   0.00000   0.01034   0.01047   1.89562
   A62        1.94448  -0.00025   0.00000  -0.00497  -0.00514   1.93934
   A63        1.85903  -0.00009   0.00000   0.00498   0.00499   1.86402
    D1        0.88422  -0.00032   0.00000   0.00345   0.00345   0.88767
    D2        2.98807   0.00027   0.00000   0.00713   0.00717   2.99523
    D3       -1.25577   0.00012   0.00000   0.00966   0.00970  -1.24608
    D4       -1.20960  -0.00019   0.00000   0.00921   0.00921  -1.20039
    D5        0.89425   0.00040   0.00000   0.01289   0.01292   0.90717
    D6        2.93360   0.00025   0.00000   0.01543   0.01545   2.94905
    D7        2.99592  -0.00047   0.00000   0.00516   0.00513   3.00105
    D8       -1.18341   0.00012   0.00000   0.00885   0.00884  -1.17457
    D9        0.85593  -0.00003   0.00000   0.01138   0.01137   0.86730
[...]
 00002827,0.00401349,0.00419956,-0.00110575,-0.10139597,-0.07264668,-0.
 12459493,0.00033947,-0.00035189,0.00032515,0.00028799,0.00019118,0.000
 08218,0.00003339,-0.00003719,0.00000167,-0.00047351,0.00046566,0.00091
 115,0.00298016,-0.00267615,-0.00321577,0.00002791,0.00002609,-0.000073
 80,-0.00003704,-0.00005090,0.00005185,-0.00000781,-0.00000137,0.000027
 36,0.00000147,-0.00000310,0.00001379,0.00006521,0.00004991,0.00002440,
 -0.00000163,-0.00003016,-0.00001307,0.10198818,0.07805165,0.14331763,-
 0.00018716,0.00009660,0.00342458,0.01019840,-0.00894056,0.00271579,-0.
 00092520,-0.00045215,-0.00013886,-0.00947537,0.00873160,-0.00481964,0.
 00002699,-0.00011556,-0.00010929,-0.00001060,0.00003692,0.00002033,-0.
 00050244,0.00004227,0.00068260,-0.00037448,-0.00112364,-0.00053930,-0.
 00000420,0.00008594,0.00012124,-0.00015913,0.00004816,0.00001482,0.000
 69469,-0.00415285,0.00239961,0.00061346,0.00111814,-0.00059748,-0.1739
 8417,0.12387804,-0.05497484,0.00014778,-0.00032045,0.00000913,-0.00027
 137,0.00101073,-0.00032644,0.00002757,0.00006003,-0.00003778,-0.000084
 14,-0.00032561,-0.00012959,0.00067750,-0.00035473,0.00001005,0.0000616
 7,-0.00000572,-0.00007416,0.00006139,0.00001961,-0.00017984,0.00001108
 ,0.00001020,-0.00001753,0.00004074,-0.00000741,-0.00001754,0.00001297,
 0.00001536,0.00001677,0.00001886,0.00005527,0.00000584,-0.01482636,0.0
 1436105,-0.00641569,0.19043768,0.00076857,0.00032925,-0.00277573,0.017
 21669,-0.01397270,0.00425910,-0.00002838,-0.00011039,-0.00032569,0.008
 02625,-0.00853920,0.00339414,-0.00001008,0.00004170,-0.00012730,0.0003
 1455,0.00019388,-0.00005209,-0.00030914,0.00132895,0.00093517,-0.00065
 009,-0.00103360,0.00026691,0.00005940,0.00007156,0.00028330,-0.0001439
 5,-0.00026693,-0.00032660,-0.00079352,-0.00487918,0.00392411,-0.000024
 43,0.00179569,-0.00080554,0.12067940,-0.16541747,0.05492662,0.00013258
 ,-0.00007552,0.00009684,0.00041513,-0.00047531,0.00033147,0.00011680,0
 .00004548,0.00010207,-0.00006410,0.00028585,-0.00014768,-0.00047517,0.
 00027452,0.00035604,-0.00002868,-0.00008806,-0.00015890,0.00003922,-0.
 00005408,-0.00007813,-0.00000074,0.00001862,-0.00002792,0.00006862,-0.
 00000831,-0.00003334,0.00002184,-0.00000215,0.00003150,0.00001622,0.00
 008455,0.00001227,-0.01106109,0.01197079,-0.00480689,-0.13384146,0.178
 61114,0.00227681,-0.00132126,-0.00494155,-0.01592115,0.00887992,-0.004
 15964,-0.00001116,0.00019286,0.00013809,0.01881903,-0.01940945,0.00929
 413,-0.00005144,0.00000521,0.00003615,0.00000531,0.00000308,-0.0000221
 3,0.00060134,-0.00049653,-0.00143202,-0.00031327,-0.00006111,0.0003678
 2,-0.00002803,-0.00010243,-0.00009223,0.00004216,-0.00006864,0.0000726
 0,0.00079140,0.00557260,-0.00233641,-0.00000649,-0.00082066,0.00047471
 ,-0.05386912,0.05654142,-0.07202868,0.00012833,0.00001108,0.00007036,0
 .00082115,-0.00143290,0.00039071,-0.00004976,-0.00006600,-0.00007828,-
 0.00044418,0.00079424,0.00077072,-0.00097531,0.00028479,0.00129555,-0.
 00007666,0.00007218,0.00018938,-0.00013840,0.00006037,0.00022879,0.000
 00571,0.00000487,0.00000206,0.00000738,0.00000559,-0.00000329,0.000023
 67,0.00002141,0.00000880,-0.00000677,-0.00001489,-0.00000198,-0.011170
 40,0.01191357,-0.00588934,0.05912767,-0.05897282,0.07763793,0.00028587
 ,0.00002820,-0.00015835,-0.04427786,0.01293450,0.03158968,0.00009706,-
 0.00001108,0.00001305,0.00040811,-0.00174821,0.00083899,0.00024195,-0.
 00014940,0.00005915,-0.00036574,-0.00003027,0.00023990,0.00005648,0.00
 288059,-0.00267144,0.00051522,-0.00630477,0.00110303,0.00002829,0.0001
 1084,-0.00009354,-0.00047786,0.00084228,-0.00200507,-0.00920191,0.0198
 1680,0.01980145,-0.01811152,-0.01663733,-0.03676807,-0.00128178,0.0021
 3912,0.01217959,-0.00007838,-0.00005054,-0.00005500,-0.00003701,-0.000
 07689,0.00003665,-0.00012514,0.00007927,-0.00002014,-0.00024825,0.0000
 9514,0.00035309,-0.00005377,0.00013683,0.00029296,-0.00003162,0.000157
 61,0.00038309,-0.00043374,0.00055466,0.00081160,0.00003679,-0.00002432
 ,0.00003455,-0.00007255,0.00001459,0.00004001,-0.00054549,-0.00049771,
 -0.00025672,0.00005010,0.00009792,0.00004281,0.00010274,0.00036841,0.0
 0093924,-0.00000910,-0.00046837,0.00034755,0.07377381,0.00029480,-0.00
 062853,-0.00029137,0.01115865,-0.09380093,-0.08912151,0.00002260,-0.00
 012066,-0.00011554,-0.00061709,-0.00343769,0.00191452,0.00008949,-0.00
 004188,0.00001038,-0.00013343,0.00001236,0.00009858,0.00192051,-0.0023
 3350,0.00451702,0.00049394,-0.00215795,0.00116934,-0.00000283,0.000025
 65,-0.00002106,-0.00009499,0.00028989,-0.00082198,0.01836087,-0.025303
 07,-0.02945607,-0.01041726,0.00009197,-0.01451735,-0.00687067,0.009918
 22,0.02035435,-0.00003092,0.00010000,-0.00005047,0.00006016,0.00031066
 ,-0.00021266,-0.00007376,0.00004587,-0.00001642,-0.00075683,0.00040770
 ,0.00093355,-0.00002737,0.00013026,0.00029700,-0.00019619,-0.00008910,
 -0.00015510,0.00070216,-0.00075102,-0.00134654,-0.00001196,-0.00000678
 ,-0.00003345,-0.00003010,0.00000710,0.00000730,-0.00018881,-0.00020707
 ,-0.00006571,0.00002806,0.00003191,0.00001866,0.00013169,0.00113833,0.
 00028871,0.00079975,0.00012158,-0.00071123,-0.01444899,0.11625582,-0.0
 0039893,0.00022360,0.00012192,0.03440149,-0.10023652,-0.26872363,-0.00
 002768,-0.00015004,-0.00018847,0.00066095,0.00395764,-0.00015452,0.000
 17280,-0.00006704,0.00002949,-0.00034259,-0.00010807,0.00008587,-0.000
 76493,0.00171304,0.00210633,0.00074786,-0.00276105,0.00235755,-0.00001
 664,0.00005258,-0.00003976,-0.00012141,0.00053531,-0.00067740,-0.00027
 846,0.00186468,0.00709650,-0.01253904,-0.00516182,-0.00746432,0.005022
 31,-0.00737561,-0.01802874,0.00006927,-0.00005347,0.00004281,-0.000004
 09,-0.00014568,0.00001422,-0.00010737,0.00009843,-0.00003579,0.0006709
 9,-0.00054465,-0.00095554,-0.00006486,-0.00001692,-0.00001852,-0.00013
 331,0.00018785,0.00010845,-0.00002417,0.00007850,0.00006238,-0.0000070
 3,-0.00000945,-0.00006578,-0.00005943,0.00000886,0.00001541,-0.0002226
 0,-0.00021086,-0.00011624,0.00003573,0.00005215,0.00004114,0.00022142,
 0.00007655,0.00111207,-0.00026169,0.00023538,-0.00002119,-0.02676599,0
 .10763394,0.28323104,0.00000033,-0.00000209,-0.00000100,0.00009867,-0.
 00001023,0.00009944,0.00034946,0.00102255,-0.00072341,-0.00000044,-0.0
 0000485,0.00000501,-0.08167500,0.00439667,-0.07408495,-0.02001704,0.01
 693876,-0.02004949,0.00001102,-0.00000180,-0.00000625,-0.00051323,-0.0
 0004112,0.00029623,-0.00379325,-0.00047909,-0.01342350,0.00234755,0.00
 089356,-0.00507408,-0.00003581,0.00001925,-0.00000642,-0.00000796,-0.0
 0006648,0.00012109,-0.00002096,-0.00000164,-0.00001674,-0.00000213,0.0
 0000034,-0.00000081,-0.00000151,0.00000065,0.00000176,-0.00012899,-0.0
 0027992,0.00024371,-0.00000630,-0.00000096,0.00000084,0.00000189,-0.00
 000132,-0.00000954,0.00000507,-0.00000427,0.00000047,-0.00000336,0.000
 00146,-0.00000034,-0.00004222,-0.00207819,-0.00096712,0.00040526,-0.00
 013888,0.00014456,0.00025766,-0.00030313,0.00093103,0.00013821,-0.0000
 4648,0.00041346,-0.00000940,-0.00000669,0.00000342,0.00000176,0.000003
 32,0.00000018,-0.00000320,-0.00000261,-0.00001221,0.09224703,0.0000017
 4,0.00000166,0.00000195,-0.00009611,0.00002266,-0.00004376,0.00110331,
 0.00131018,-0.00064063,0.00000066,0.00000554,-0.00000243,0.00584939,-0
 .05079254,0.02302209,0.02385141,-0.01406878,0.02374375,-0.00001504,-0.
 00000302,-0.00000398,0.00015048,-0.00016563,-0.00043977,-0.01159159,0.
 00295308,-0.02803262,-0.00355338,-0.00025914,0.00302242,0.00003109,-0.
 00001554,0.00000741,0.00003704,0.00024117,0.00018278,0.00002337,0.0000
 1206,0.00000779,0.00000307,0.00000029,0.00000075,0.00000199,-0.0000017
 8,-0.00000155,0.00003151,-0.00009326,0.00060197,0.00000708,0.00000143,
 -0.00000066,-0.00000286,0.00000090,0.00001066,-0.00000881,0.00000644,0
 .00000036,0.00000531,-0.00000142,0.00000129,-0.00301710,-0.00470339,-0
 .00178693,0.00080387,0.00104544,0.00071630,-0.00015522,0.00032534,-0.0
 0104250,-0.00009391,-0.00003636,-0.00032814,0.00001406,0.00000236,-0.0
 0000130,0.00000299,-0.00001450,0.00000155,0.00002223,0.00000278,0.0000
 0615,-0.01704515,0.06420168,-0.00000062,-0.00000350,0.00000237,0.00038
 325,0.00005244,0.00012647,0.00068887,0.00059014,0.00086306,-0.00000340
 ,-0.00001079,0.00000778,-0.07721327,0.02490468,-0.26305922,-0.00339170
 ,0.00568447,0.00459893,0.00003077,-0.00000654,-0.00001930,-0.00009888,
 0.00007674,0.00002328,-0.00353062,0.00082919,-0.01227782,0.00183441,-0
 .00080123,0.00264600,-0.00011529,0.00006239,-0.00001566,-0.00045477,-0
 .00012275,-0.00020329,-0.00002149,0.00000013,-0.00000772,-0.00000561,0
 .00000011,-0.00000252,-0.00000521,0.00000325,0.00000410,-0.00059483,-0
 .00015223,0.00047739,-0.00001672,-0.00000300,0.00000199,0.00000236,-0.
 00000272,-0.00002267,0.00001008,-0.00001318,0.00000066,-0.00001090,0.0
 0000429,-0.00000121,-0.00075553,-0.00246090,0.00058331,0.00005437,-0.0
 0039750,0.00014107,-0.00164775,-0.00006702,0.00025846,-0.00016293,0.00
 000103,0.00037496,-0.00001887,-0.00000909,0.00000291,0.00001892,0.0000
 1769,0.00000234,-0.00003785,-0.00002174,-0.00003563,0.09142565,-0.0293
 4519,0.28198673,-0.00000538,-0.00000441,-0.00000103,0.00041367,0.00003
 253,0.00015436,0.00056521,-0.00205034,-0.00165841,-0.00000559,-0.00000
 785,0.00000392,-0.18529155,-0.06358913,0.11294431,-0.02611562,-0.00056
 915,0.01819560,0.00004416,0.00000471,0.00000087,0.00036395,0.00023045,
 0.00047252,-0.00808787,-0.00557483,0.00739735,-0.00024196,0.00420591,-
 0.00274292,-0.00014096,0.00007644,-0.00003511,-0.00041198,-0.00010218,
 -0.00027383,-0.00002385,-0.00001771,-0.00000427,-0.00000905,-0.0000021
 1,-0.00000181,-0.00000661,0.00000536,0.00000514,-0.00002999,-0.0000393
 3,0.00020966,-0.00002158,-0.00000466,0.00000269,0.00000684,-0.00000359
 ,-0.00003137,0.00002317,-0.00002178,-0.00000477,-0.00001886,0.00000423
 ,-0.00000455,0.00021892,0.00063066,0.00005892,0.00024260,-0.00030369,-
 0.00009431,0.00006034,-0.00011258,0.00036461,-0.00105385,-0.00029927,0
 .00083811,-0.00003193,-0.00000671,0.00000128,0.00002583,0.00003981,-0.
 00000219,-0.00004717,-0.00002029,-0.00003763,0.01027750,0.00324463,-0.
 00631779,0.20984298,0.00000174,-0.00000014,0.00002570,0.00015490,0.000
 00277,0.00010248,-0.00166426,-0.00486846,-0.00385383,-0.00001398,0.000
 00876,-0.00001803,-0.07223061,-0.08055940,0.06098402,0.02789732,0.0056
 3437,-0.02026470,-0.00000157,-0.00002828,-0.00004506,0.00089361,-0.000
 65273,-0.00033121,-0.02033523,-0.00776556,0.01874635,0.00272534,-0.003
 80176,0.00087980,-0.00007574,0.00006116,-0.00000733,-0.00022244,0.0001
 7132,-0.00011181,0.00000719,-0.00005143,0.00002920,0.00000057,0.000003
 05,-0.00000370,-0.00000505,0.00000631,0.00000023,0.00035629,0.00011038
 ,-0.00010074,-0.00000697,-0.00000005,0.00000322,-0.00000440,-0.0000040
 3,-0.00000378,-0.00001458,0.00000443,0.00000595,0.00000307,0.00000546,
 0.00000466,0.00056497,0.00130006,-0.00032951,0.00083005,0.00067410,0.0
 0017415,-0.00011552,0.00000152,-0.00016166,0.00124308,0.00026536,-0.00
 074646,-0.00002666,0.00001242,-0.00000497,0.00003573,0.00005944,-0.000
 02046,0.00000129,-0.00000137,-0.00000364,-0.00262971,-0.00017112,0.001
 30621,0.06449462,0.08970259,0.00000069,0.00000089,0.00000521,-0.000091
 96,-0.00000792,-0.00000341,-0.00070307,-0.00206269,-0.00029171,-0.0000
 0516,0.00000435,-0.00000524,0.11964857,0.05547088,-0.15399006,0.001405
 72,-0.00170253,0.00049767,-0.00001179,-0.00000611,-0.00000433,-0.00011
 744,-0.00013712,-0.00015629,-0.01070238,-0.00455819,0.00829971,-0.0006
 2780,-0.00088722,0.00134626,0.00002640,-0.00000809,0.00000348,0.000133
 67,0.00010005,0.00006049,0.00000949,0.,0.00001216,0.00000210,0.0000014
 2,-0.00000033,0.00000045,0.00000010,-0.00000127,-0.00015324,-0.0001820
 6,0.00027747,0.00000240,0.00000084,-0.00000021,-0.00000073,-0.00000013
 ,0.00000405,-0.00000731,0.00000559,0.00000296,0.00000535,-0.00000007,0
 .00000141,0.00017442,0.00075454,0.00083406,0.00057833,0.00069920,0.000
 24023,-0.00022569,-0.00002065,0.00042375,0.00041159,0.00010675,0.00014
 174,0.00000247,0.00000376,-0.00000286,0.00001250,0.00000189,-0.0000028
 9,0.00001652,0.00000710,0.00000878,0.02049427,0.01005603,-0.01661681,-
 0.12987053,-0.05738230,0.15851300,-0.00000918,0.00000294,-0.00006523,-
 0.00028706,0.00009769,-0.00044173,-0.10580511,-0.10100623,-0.04818375,
 -0.00001120,0.00001519,0.00010641,-0.00458566,0.00078472,0.00509802,0.
 00130938,-0.00062670,-0.00071635,-0.00001864,0.00005515,0.00009401,0.0
 1041166,0.01985778,0.00854084,-0.01201807,-0.02073057,-0.01100223,-0.0
 0409009,0.00325305,0.00060775,0.00016709,-0.00022584,0.00006444,0.0019
 8391,-0.00182584,0.00116554,-0.00055566,0.00016119,0.00015191,0.000002
 84,0.00000020,0.00000568,0.00001603,-0.00002034,0.00000096,-0.00546841
 ,-0.00828523,-0.00372589,0.00001511,0.00000232,-0.00001917,-0.00001940
 ,-0.00000461,-0.00001071,0.00001808,-0.00000590,-0.00000646,0.00000507
 ,-0.00001512,-0.00000990,0.00118064,0.00042718,0.00004061,0.00053449,0
 .00058221,-0.00068286,-0.00004584,-0.00003043,-0.00002258,0.00072375,0
 .00121545,0.00022557,0.00006646,-0.00002918,0.00001407,-0.00179961,0.0
 0013253,0.00026368,-0.00002008,0.00001326,0.00001742,0.00020238,0.0003
 5359,0.00007807,-0.00048585,-0.00183197,-0.00040640,0.11774405,-0.0000
 1782,0.00001988,0.00015151,0.00042280,-0.00067341,0.00054791,-0.099765
 51,-0.21823723,-0.07940302,-0.00011030,0.00012273,-0.00026245,-0.00087
 227,0.00136988,0.00175310,-0.00047756,0.00047794,0.00012424,-0.0000272
 0,-0.00009497,-0.00009278,-0.01227618,-0.02307783,-0.01099618,-0.00370
 571,-0.00585251,-0.00208081,0.00601650,-0.00183410,0.00003410,-0.00004
 209,0.00018049,-0.00007261,-0.00079671,0.00308370,0.00006788,-0.000031
 22,-0.00046358,0.00022948,0.00000518,-0.00000627,-0.00000866,-0.000031
 77,0.00005017,-0.00000296,0.00411277,0.00726191,0.00247681,0.00000351,
 0.00000516,0.00004367,0.00000076,0.00001028,0.00007568,-0.00002459,0.0
 0002422,0.00000975,0.00001062,0.00002014,0.00000889,0.00013274,0.00017
 913,0.00003955,-0.00012415,0.00040304,0.00024560,-0.00008441,0.0002291
 9,-0.00013634,-0.00090314,-0.00135865,-0.00025536,-0.00020654,0.000138
 45,-0.00006228,-0.00004841,0.00062051,-0.00023593,0.00011808,0.0000012
 5,0.00003549,-0.00002070,-0.00001854,-0.00017264,-0.00010299,-0.000422
 74,-0.00029695,0.10885849,0.23701117,-0.00001499,0.00000183,0.00005029
 ,-0.00049395,-0.00024608,0.00018320,-0.04749696,-0.08196943,-0.0858014
 9,-0.00005028,0.00008156,-0.00008562,0.00376618,-0.00024380,-0.0025885
 7,-0.00093783,-0.00019444,0.00023877,-0.00002866,-0.00002582,0.0000130
 9,-0.00321875,-0.00066159,-0.00307895,0.01022201,0.01807168,0.00779839
 ,0.00133840,-0.00037305,0.00029706,0.00012941,0.00002021,-0.00003794,0
 .00122611,0.00067369,0.00093291,0.00000158,-0.00018985,0.00012095,0.00
 000098,0.00000062,-0.00000400,-0.00000844,0.00001926,-0.00000507,-0.01
 254054,-0.02354219,-0.01034331,0.00000261,-0.00000336,0.00000360,-0.00
 000049,-0.00000738,0.00001010,0.00000004,0.00000866,0.00000231,0.00001
 135,0.00000246,-0.00000568,-0.00095275,-0.00009061,0.00085434,-0.00077
 870,-0.00057715,0.00057104,0.00018868,0.00034785,0.00028858,-0.0001894
 0,-0.00040758,0.00027068,-0.00006512,0.00006443,-0.00004535,0.00026953
 ,0.00011831,0.00015919,0.00007965,0.00002587,0.00000481,0.00021493,0.0
 0021796,0.00020320,0.00052720,0.00100541,0.00045527,0.04895712,0.08802
 049,0.08966511,-0.00002477,0.00026614,0.00014519,0.00261245,0.00054377
 ,-0.00046398,-0.01463736,-0.00399829,0.01266935,-0.00408992,-0.0016634
 5,-0.00041217,0.00116840,-0.00013963,0.00005605,-0.00166441,-0.0034004
 3,-0.00076453,0.00019777,0.00015181,-0.00002608,-0.18162173,-0.0399793
 8,0.13421396,-0.00088215,0.00409819,-0.00074497,-0.01061977,-0.0010225
 2,0.01088635,0.00013871,-0.00006591,0.00001466,0.01120995,0.00529764,-
 0.01940397,-0.00103427,-0.00098891,-0.00017761,0.00007828,-0.00007221,
 0.00007491,0.00001471,-0.00004114,-0.00000905,0.00024097,-0.00009828,-
 0.00024672,-0.00037282,0.00003012,0.00003361,-0.00459506,-0.00058076,0
 .00120218,0.00006598,0.00014633,0.00000878,0.00000268,-0.00002492,0.00
 007225,0.00003436,-0.00002743,0.00012201,-0.00089779,-0.00040053,0.000
 70077,-0.00010806,0.00009171,-0.00024566,0.00061950,-0.00008056,-0.000
 16746,-0.00010880,0.00035361,0.00016598,-0.00044506,-0.00015172,-0.000
 19705,-0.00017421,-0.00015184,0.00016982,-0.00008301,0.00004033,-0.000
 12271,-0.00005552,-0.00003106,-0.00000142,0.00083893,-0.00001219,-0.00
 015891,0.20419203,0.00013071,0.00005902,-0.00008430,-0.00122553,0.0005
 2808,-0.00102103,0.02093462,0.00665052,-0.01822886,-0.00061008,-0.0002
 3584,0.00024882,0.00092387,-0.00169336,-0.00020909,-0.00547127,-0.0051
 2684,-0.00060354,0.00018410,0.00030956,0.00028244,-0.03710935,-0.06104
 474,0.03705494,0.00288852,-0.00472873,0.00038154,-0.01938691,-0.003104
 30,0.01979293,0.00018516,-0.00034334,0.00001840,-0.00203227,-0.0009243
 6,0.00753011,-0.00094975,-0.00018425,-0.00068168,-0.00001662,-0.000027
 08,0.00002381,0.00002530,-0.00002907,-0.00000131,-0.00074453,0.0010764
 5,0.00048012,-0.00011424,-0.00008890,-0.00015963,-0.00034589,0.0008339
 6,-0.00015869,0.00009883,-0.00040746,-0.00005741,-0.00008879,-0.000060
 07,-0.00008686,-0.00015344,-0.00001285,-0.00011635,0.00142158,0.000457
 66,-0.00095084,0.00035345,0.00100893,-0.00046537,0.00109997,0.00064744
 ,0.00039256,0.00018430,0.00006352,-0.00001499,-0.00071982,-0.00091609,
 -0.00063044,0.00004953,-0.00001180,0.00008465,-0.00011124,0.00021200,0
 .00005727,-0.00013676,0.00030357,0.00003864,-0.00117498,0.00083059,-0.
 00014794,0.04191154,0.06595777,-0.00000980,0.00008588,-0.00003718,0.00
 534255,0.00198273,0.00160798,0.00273164,0.00017959,-0.00012948,0.00088
 508,0.00024353,-0.00006122,0.00041216,-0.00053698,-0.00014230,-0.00234
 897,-0.00281965,0.00099135,-0.00009420,-0.00033456,-0.00068692,0.12584
 043,0.03434206,-0.17531046,0.00005011,-0.00028885,0.00115434,-0.004990
 34,0.00028477,0.00708799,-0.00106660,0.00038333,0.00010915,0.00930842,
 0.00921282,-0.03652132,-0.00142057,-0.00080280,-0.00053983,0.00008044,
 -0.00004794,0.00004494,0.00002193,-0.00005981,0.00002186,0.00009946,-0
 .00028126,0.00049544,0.00045703,0.00015342,0.00028048,0.00229082,0.000
 41376,0.00096385,0.00009013,0.00008627,0.00006091,0.00004767,0.0000419
 9,0.00011194,-0.00021438,-0.00000583,0.00011816,0.00006878,0.00020901,
 -0.00007335,-0.00006309,0.00066730,0.00044487,0.00048054,0.00020546,0.
 00001757,0.00022950,0.00002113,0.00012459,-0.00020972,-0.00065418,-0.0
 0012971,-0.00037039,-0.00031814,0.00008677,-0.00002018,0.00006825,-0.0
 0004316,-0.00009602,0.00012178,-0.00005227,-0.00013884,0.00021481,-0.0
 0012692,-0.13739359,-0.04276788,0.20013193\\0.00000333,-0.00000516,-0.
 00000298,-0.00010686,-0.00073057,0.00172689,0.00000043,0.00001260,0.00
 001344,-0.00000379,0.00001303,-0.00000621,-0.00002839,-0.00000327,0.00
 000643,-0.00000366,0.00001223,-0.00000711,0.00001224,-0.00003130,-0.00
 002683,0.00076330,-0.00148207,-0.00071354,-0.00000519,0.00000419,-0.00
 000437,0.00002943,0.00000188,-0.00000848,0.00038631,-0.00001124,-0.001
 57221,-0.00104815,0.00223570,0.00056807,0.00000401,-0.00001076,-0.0000
 0228,-0.00000021,0.00000412,0.00000223,0.00000041,0.00001106,0.0000049
 6,0.00000290,0.00000135,0.00000111,0.00000011,0.00000438,0.00000663,-0
 .00000327,0.00000906,0.00000614,0.00000163,0.00000471,0.00000144,-0.00
 000677,-0.00000274,-0.00000731,-0.00000050,-0.00000782,0.00000782,0.00
 000557,-0.00001107,0.00000873,0.00000131,0.00000543,0.00000524,0.00000
 770,0.00000592,-0.00001123,-0.00000356,-0.00000192,0.00000415,0.000004
 75,0.00000047,0.00000624,-0.00000646,-0.00001427,-0.00000285,0.0000058
 6,-0.00000483,0.00000141,-0.00000433,0.00000206,-0.00000672,-0.0000063
 8,-0.00001046,0.00000108,-0.00000177,-0.00000071,0.00000010\\\@


 IN THE UNIVERSE THE DIFFICULT THINGS ARE DONE AS IF THEY WERE EASY.

                                                          -- LAO-TSU
 Job cpu time:       0 days 15 hours 40 minutes 24.8 seconds.
 Elapsed time:       0 days  0 hours 58 minutes 48.1 seconds.
 File lengths (MBytes):  RWF=    691 Int=      0 D2E=      0 Chk=     33 Scr=      1
 Normal termination of Gaussian 16 at Mon Nov  5 04:32:14 2018.
