 Entering Gaussian System, Link 0=g16
 Initial command:
 /apps/gaussian/g16a03/g16/l1.exe "/jobfs/local/2011894.r-man2/Gau-31163.inp" -scrdir="/jobfs/local/2011894.r-man2/"
 Entering Link 1 = /apps/gaussian/g16a03/g16/l1.exe PID=     31164.
  
 Copyright (c) 1988,1990,1992,1993,1995,1998,2003,2009,2016,
            Gaussian, Inc.  All Rights Reserved.
  
 This is part of the Gaussian(R) 16 program.  It is based on
 the Gaussian(R) 09 system (copyright 2009, Gaussian, Inc.),
 the Gaussian(R) 03 system (copyright 2003, Gaussian, Inc.),
 the Gaussian(R) 98 system (copyright 1998, Gaussian, Inc.),
 the Gaussian(R) 94 system (copyright 1995, Gaussian, Inc.),
 the Gaussian 92(TM) system (copyright 1992, Gaussian, Inc.),
 the Gaussian 90(TM) system (copyright 1990, Gaussian, Inc.),
 the Gaussian 88(TM) system (copyright 1988, Gaussian, Inc.),
 the Gaussian 86(TM) system (copyright 1986, Carnegie Mellon
 University), and the Gaussian 82(TM) system (copyright 1983,
 Carnegie Mellon University). Gaussian is a federally registered
 trademark of Gaussian, Inc.
  
 This software contains proprietary and confidential information,
 including trade secrets, belonging to Gaussian, Inc.
  
 This software is provided under written license and may be
 used, copied, transmitted, or stored only in accord with that
 written license.
  
 The following legend is applicable only to US Government
 contracts under FAR:
  
                    RESTRICTED RIGHTS LEGEND
  
 Use, reproduction and disclosure by the US Government is
 subject to restrictions as set forth in subparagraphs (a)
 and (c) of the Commercial Computer Software - Restricted
 Rights clause in FAR 52.227-19.
  
 Gaussian, Inc.
 340 Quinnipiac St., Bldg. 40, Wallingford CT 06492
  
  
 ---------------------------------------------------------------
 Warning -- This program may not be used in any manner that
 competes with the business of Gaussian, Inc. or will provide
 assistance to any competitor of Gaussian, Inc.  The licensee
 of this program is prohibited from giving any competitor of
 Gaussian, Inc. access to this program.  By using this program,
 the user acknowledges that Gaussian, Inc. is engaged in the
 business of creating and licensing software in the field of
 computational chemistry and represents and warrants to the
 licensee that it is not a competitor of Gaussian, Inc. and that
 it will not use this program in any manner prohibited above.
 ---------------------------------------------------------------
  

 Cite this work as:
 Gaussian 16, Revision A.03,
 M. J. Frisch, G. W. Trucks, H. B. Schlegel, G. E. Scuseria, 
 M. A. Robb, J. R. Cheeseman, G. Scalmani, V. Barone, 
 G. A. Petersson, H. Nakatsuji, X. Li, M. Caricato, A. V. Marenich, 
 J. Bloino, B. G. Janesko, R. Gomperts, B. Mennucci, H. P. Hratchian, 
 J. V. Ortiz, A. F. Izmaylov, J. L. Sonnenberg, D. Williams-Young, 
 F. Ding, F. Lipparini, F. Egidi, J. Goings, B. Peng, A. Petrone, 
 T. Henderson, D. Ranasinghe, V. G. Zakrzewski, J. Gao, N. Rega, 
 G. Zheng, W. Liang, M. Hada, M. Ehara, K. Toyota, R. Fukuda, 
 J. Hasegawa, M. Ishida, T. Nakajima, Y. Honda, O. Kitao, H. Nakai, 
 T. Vreven, K. Throssell, J. A. Montgomery, Jr., J. E. Peralta, 
 F. Ogliaro, M. J. Bearpark, J. J. Heyd, E. N. Brothers, K. N. Kudin, 
 V. N. Staroverov, T. A. Keith, R. Kobayashi, J. Normand, 
 K. Raghavachari, A. P. Rendell, J. C. Burant, S. S. Iyengar, 
 J. Tomasi, M. Cossi, J. M. Millam, M. Klene, C. Adamo, R. Cammi, 
 J. W. Ochterski, R. L. Martin, K. Morokuma, O. Farkas, 
 J. B. Foresman, and D. J. Fox, Gaussian, Inc., Wallingford CT, 2016.
 
 ******************************************
 Gaussian 16:  ES64L-G16RevA.03 25-Dec-2016
                 5-Nov-2018 
 ******************************************
 %mem=6000mb
 %nproc=24
 Will use up to   24 processors via shared memory.
 %chk=D_1a_4a_L_PHI.inp_extract_5.chk
 ----------------------------------------------------------------------
 #M062X/6-311++G(2d,2p) opt=ModRedundant freq=noraman SCRF=(Solvent=Wat
 er)
 ----------------------------------------------------------------------
 1/18=120,19=15,26=3,38=1/1,3;
 2/9=110,12=2,17=6,18=5,40=1/2;
 3/5=4,6=6,7=1212,11=2,25=1,30=1,70=2201,71=1,72=1,74=-55/1,2,3;
 4//1;
 5/5=2,38=5,53=1/2;
 6/7=2,8=2,9=2,10=2,28=1/1;
 7//1,2,3,16;
 1/18=20,19=15,26=3/3(2);
 2/9=110/2;
 99//99;
 2/9=110/2;
 3/5=4,6=6,7=1212,11=2,25=1,30=1,70=2205,71=1,72=1,74=-55/1,2,3;
 4/5=5,16=3,69=1/1;
 5/5=2,38=5,53=1/2;
 7//1,2,3,16;
 1/18=20,19=15,26=3/3(-5);
 2/9=110/2;
 6/7=2,8=2,9=2,10=2,19=2,28=1/1;
 99/9=1/99;
 ---------------------------
 D_1a_4a_L_PHI.inp_extract_5
 ---------------------------
 Symbolic Z-matrix:
 Charge =  0 Multiplicity = 1
 C                     3.50199  -0.01671  -0.60108 
 C                     1.06492  -0.2023    0.95805 
 C                    -1.73457   0.85603  -1.23934 
 C                     2.91669   1.25187   0.01363 
 C                    -3.59513   0.09462   0.25145 
 O                    -2.70399  -0.82221   0.85968 
 C                     2.38288  -0.98814  -0.92723 
 C                    -0.85697  -0.22065  -0.607 
 C                    -2.84813   1.30325  -0.29008 
 C                    -1.72971  -1.32826  -0.02855 
 O                     1.55594  -1.26984   0.20106 
 O                    -0.08548   0.40449   0.40554 
 C                     2.10538   0.86879   1.24806 
 H                     4.19908  -0.47715   0.09494 
 H                     4.04701   0.20048  -1.51514 
 H                    -2.17694   0.43533  -2.13916 
 H                     3.70347   1.94625   0.29116 
 H                     2.28633   1.7565   -0.71474 
 H                     1.77769  -0.58907  -1.73282 
 H                     2.76681  -1.94902  -1.23997 
 H                    -2.4348    1.86938   0.53919 
 H                    -3.54737   1.9534   -0.80816 
 H                    -2.21916  -1.85766  -0.84321 
 H                    -1.13978  -2.03797   0.53345 
 H                     2.77686   0.46968   2.00368 
 H                     1.60198   1.72461   1.68383 
 H                     0.75796  -0.66546   1.88618 
 H                    -4.132    -0.41233  -0.5478 
 H                    -4.30815   0.37824   1.01361 
 H                    -1.11934   1.69606  -1.54445 
 H                    -0.21554  -0.65173  -1.35829 
 
 The following ModRedundant input section has been read:
 D      11       2      12       8 F                                           
 

 GradGradGradGradGradGradGradGradGradGradGradGradGradGradGradGradGradGrad
 Berny optimization.
 Initialization pass.
                           ----------------------------
                           !    Initial Parameters    !
                           ! (Angstroms and Degrees)  !
 --------------------------                            --------------------------
 ! Name  Definition              Value          Derivative Info.                !
 --------------------------------------------------------------------------------
 ! R1    R(1,4)                  1.5263         estimate D2E/DX2                !
 ! R2    R(1,7)                  1.5174         estimate D2E/DX2                !
 ! R3    R(1,14)                 1.0874         estimate D2E/DX2                !
 ! R4    R(1,15)                 1.0862         estimate D2E/DX2                !
 ! R5    R(2,11)                 1.3978         estimate D2E/DX2                !
 ! R6    R(2,12)                 1.4131         estimate D2E/DX2                !
 ! R7    R(2,13)                 1.5212         estimate D2E/DX2                !
 ! R8    R(2,27)                 1.0817         estimate D2E/DX2                !
 ! R9    R(3,8)                  1.5262         estimate D2E/DX2                !
 ! R10   R(3,9)                  1.5301         estimate D2E/DX2                !
 ! R11   R(3,16)                 1.0874         estimate D2E/DX2                !
 ! R12   R(3,30)                 1.085          estimate D2E/DX2                !
 ! R13   R(4,13)                 1.526          estimate D2E/DX2                !
 ! R14   R(4,17)                 1.0854         estimate D2E/DX2                !
 ! R15   R(4,18)                 1.0874         estimate D2E/DX2                !
 ! R16   R(5,6)                  1.4159         estimate D2E/DX2                !
 ! R17   R(5,9)                  1.5205         estimate D2E/DX2                !
 ! R18   R(5,28)                 1.0881         estimate D2E/DX2                !
 ! R19   R(5,29)                 1.0815         estimate D2E/DX2                !
 ! R20   R(6,10)                 1.4122         estimate D2E/DX2                !
 ! R21   R(7,11)                 1.427          estimate D2E/DX2                !
 ! R22   R(7,19)                 1.0837         estimate D2E/DX2                !
 ! R23   R(7,20)                 1.081          estimate D2E/DX2                !
 ! R24   R(8,10)                 1.5242         estimate D2E/DX2                !
 ! R25   R(8,12)                 1.4182         estimate D2E/DX2                !
 ! R26   R(8,31)                 1.0778         estimate D2E/DX2                !
 ! R27   R(9,21)                 1.0858         estimate D2E/DX2                !
 ! R28   R(9,22)                 1.0863         estimate D2E/DX2                !
 ! R29   R(10,23)                1.0879         estimate D2E/DX2                !
 ! R30   R(10,24)                1.0805         estimate D2E/DX2                !
 ! R31   R(13,25)                1.0868         estimate D2E/DX2                !
 ! R32   R(13,26)                1.0843         estimate D2E/DX2                !
 ! A1    A(4,1,7)              109.6236         estimate D2E/DX2                !
 ! A2    A(4,1,14)             109.8752         estimate D2E/DX2                !
 ! A3    A(4,1,15)             111.4168         estimate D2E/DX2                !
 ! A4    A(7,1,14)             109.8345         estimate D2E/DX2                !
 ! A5    A(7,1,15)             108.4946         estimate D2E/DX2                !
 ! A6    A(14,1,15)            107.557          estimate D2E/DX2                !
 ! A7    A(11,2,12)            113.7149         estimate D2E/DX2                !
 ! A8    A(11,2,13)            113.6248         estimate D2E/DX2                !
 ! A9    A(11,2,27)            103.7295         estimate D2E/DX2                !
 ! A10   A(12,2,13)            109.21           estimate D2E/DX2                !
 ! A11   A(12,2,27)            106.7568         estimate D2E/DX2                !
 ! A12   A(13,2,27)            109.3895         estimate D2E/DX2                !
 ! A13   A(8,3,9)              111.5705         estimate D2E/DX2                !
 ! A14   A(8,3,16)             107.69           estimate D2E/DX2                !
 ! A15   A(8,3,30)             109.6725         estimate D2E/DX2                !
 ! A16   A(9,3,16)             109.2926         estimate D2E/DX2                !
 ! A17   A(9,3,30)             111.1512         estimate D2E/DX2                !
 ! A18   A(16,3,30)            107.3088         estimate D2E/DX2                !
 ! A19   A(1,4,13)             108.7239         estimate D2E/DX2                !
 ! A20   A(1,4,17)             110.8981         estimate D2E/DX2                !
 ! A21   A(1,4,18)             109.7684         estimate D2E/DX2                !
 ! A22   A(13,4,17)            109.823          estimate D2E/DX2                !
 ! A23   A(13,4,18)            110.4946         estimate D2E/DX2                !
 ! A24   A(17,4,18)            107.1313         estimate D2E/DX2                !
 ! A25   A(6,5,9)              111.008          estimate D2E/DX2                !
 ! A26   A(6,5,28)             108.9287         estimate D2E/DX2                !
 ! A27   A(6,5,29)             106.3812         estimate D2E/DX2                !
 ! A28   A(9,5,28)             110.5556         estimate D2E/DX2                !
 ! A29   A(9,5,29)             111.494          estimate D2E/DX2                !
 ! A30   A(28,5,29)            108.3316         estimate D2E/DX2                !
 ! A31   A(5,6,10)             113.3334         estimate D2E/DX2                !
 ! A32   A(1,7,11)             112.5715         estimate D2E/DX2                !
 ! A33   A(1,7,19)             109.6263         estimate D2E/DX2                !
 ! A34   A(1,7,20)             111.6741         estimate D2E/DX2                !
 ! A35   A(11,7,19)            109.684          estimate D2E/DX2                !
 ! A36   A(11,7,20)            105.0168         estimate D2E/DX2                !
 ! A37   A(19,7,20)            108.0952         estimate D2E/DX2                !
 ! A38   A(3,8,10)             109.9161         estimate D2E/DX2                !
 ! A39   A(3,8,12)             107.317          estimate D2E/DX2                !
 ! A40   A(3,8,31)             109.6066         estimate D2E/DX2                !
 ! A41   A(10,8,12)            111.1528         estimate D2E/DX2                !
 ! A42   A(10,8,31)            108.3402         estimate D2E/DX2                !
 ! A43   A(12,8,31)            110.5016         estimate D2E/DX2                !
 ! A44   A(3,9,5)              110.2525         estimate D2E/DX2                !
 ! A45   A(3,9,21)             110.4361         estimate D2E/DX2                !
 ! A46   A(3,9,22)             110.3353         estimate D2E/DX2                !
 ! A47   A(5,9,21)             109.2351         estimate D2E/DX2                !
 ! A48   A(5,9,22)             109.2302         estimate D2E/DX2                !
 ! A49   A(21,9,22)            107.2905         estimate D2E/DX2                !
 ! A50   A(6,10,8)             111.922          estimate D2E/DX2                !
 ! A51   A(6,10,23)            109.5717         estimate D2E/DX2                !
 ! A52   A(6,10,24)            106.5524         estimate D2E/DX2                !
 ! A53   A(8,10,23)            109.09           estimate D2E/DX2                !
 ! A54   A(8,10,24)            111.2285         estimate D2E/DX2                !
 ! A55   A(23,10,24)           108.3904         estimate D2E/DX2                !
 ! A56   A(2,11,7)             118.7514         estimate D2E/DX2                !
 ! A57   A(2,12,8)             122.1908         estimate D2E/DX2                !
 ! A58   A(2,13,4)             112.7169         estimate D2E/DX2                !
 ! A59   A(2,13,25)            107.253          estimate D2E/DX2                !
 ! A60   A(2,13,26)            108.3499         estimate D2E/DX2                !
 ! A61   A(4,13,25)            109.0336         estimate D2E/DX2                !
 ! A62   A(4,13,26)            111.9487         estimate D2E/DX2                !
 ! A63   A(25,13,26)           107.2936         estimate D2E/DX2                !
 ! D1    D(7,1,4,13)            56.9316         estimate D2E/DX2                !
 ! D2    D(7,1,4,17)           177.7753         estimate D2E/DX2                !
 ! D3    D(7,1,4,18)           -64.0425         estimate D2E/DX2                !
 ! D4    D(14,1,4,13)          -63.8613         estimate D2E/DX2                !
 ! D5    D(14,1,4,17)           56.9824         estimate D2E/DX2                !
 ! D6    D(14,1,4,18)          175.1646         estimate D2E/DX2                !
 ! D7    D(15,1,4,13)          177.0379         estimate D2E/DX2                !
 ! D8    D(15,1,4,17)          -62.1183         estimate D2E/DX2                !
 ! D9    D(15,1,4,18)           56.0638         estimate D2E/DX2                !
 ! D10   D(4,1,7,11)           -54.4663         estimate D2E/DX2                !
 ! D11   D(4,1,7,19)            67.9118         estimate D2E/DX2                !
 ! D12   D(4,1,7,20)          -172.3153         estimate D2E/DX2                !
 ! D13   D(14,1,7,11)           66.3513         estimate D2E/DX2                !
 ! D14   D(14,1,7,19)         -171.2706         estimate D2E/DX2                !
 ! D15   D(14,1,7,20)          -51.4977         estimate D2E/DX2                !
 ! D16   D(15,1,7,11)         -176.3394         estimate D2E/DX2                !
 ! D17   D(15,1,7,19)          -53.9614         estimate D2E/DX2                !
 ! D18   D(15,1,7,20)           65.8115         estimate D2E/DX2                !
 ! D19   D(12,2,11,7)           81.7197         estimate D2E/DX2                !
 ! D20   D(13,2,11,7)          -44.0407         estimate D2E/DX2                !
 ! D21   D(27,2,11,7)         -162.7183         estimate D2E/DX2                !
 ! D22   D(11,2,12,8)           15.5424         Frozen                          !
 ! D23   D(13,2,12,8)          143.6089         estimate D2E/DX2                !
 ! D24   D(27,2,12,8)          -98.2227         estimate D2E/DX2                !
 ! D25   D(11,2,13,4)           45.9239         estimate D2E/DX2                !
 ! D26   D(11,2,13,25)         -74.0911         estimate D2E/DX2                !
 ! D27   D(11,2,13,26)         170.3805         estimate D2E/DX2                !
 ! D28   D(12,2,13,4)          -82.1929         estimate D2E/DX2                !
 ! D29   D(12,2,13,25)         157.7921         estimate D2E/DX2                !
 ! D30   D(12,2,13,26)          42.2636         estimate D2E/DX2                !
 ! D31   D(27,2,13,4)          161.3007         estimate D2E/DX2                !
 ! D32   D(27,2,13,25)          41.2857         estimate D2E/DX2                !
 ! D33   D(27,2,13,26)         -74.2428         estimate D2E/DX2                !
 ! D34   D(9,3,8,10)            49.7431         estimate D2E/DX2                !
 ! D35   D(9,3,8,12)           -71.2544         estimate D2E/DX2                !
 ! D36   D(9,3,8,31)           168.7121         estimate D2E/DX2                !
 ! D37   D(16,3,8,10)          -70.1906         estimate D2E/DX2                !
 ! D38   D(16,3,8,12)          168.8119         estimate D2E/DX2                !
 ! D39   D(16,3,8,31)           48.7784         estimate D2E/DX2                !
 ! D40   D(30,3,8,10)          173.3431         estimate D2E/DX2                !
 ! D41   D(30,3,8,12)           52.3456         estimate D2E/DX2                !
 ! D42   D(30,3,8,31)          -67.6879         estimate D2E/DX2                !
 ! D43   D(8,3,9,5)            -50.6598         estimate D2E/DX2                !
 ! D44   D(8,3,9,21)            70.1522         estimate D2E/DX2                !
 ! D45   D(8,3,9,22)          -171.4001         estimate D2E/DX2                !
 ! D46   D(16,3,9,5)            68.325          estimate D2E/DX2                !
 ! D47   D(16,3,9,21)         -170.8631         estimate D2E/DX2                !
 ! D48   D(16,3,9,22)          -52.4153         estimate D2E/DX2                !
 ! D49   D(30,3,9,5)          -173.4181         estimate D2E/DX2                !
 ! D50   D(30,3,9,21)          -52.6062         estimate D2E/DX2                !
 ! D51   D(30,3,9,22)           65.8415         estimate D2E/DX2                !
 ! D52   D(1,4,13,2)           -53.17           estimate D2E/DX2                !
 ! D53   D(1,4,13,25)           65.8136         estimate D2E/DX2                !
 ! D54   D(1,4,13,26)         -175.6278         estimate D2E/DX2                !
 ! D55   D(17,4,13,2)         -174.6732         estimate D2E/DX2                !
 ! D56   D(17,4,13,25)         -55.6896         estimate D2E/DX2                !
 ! D57   D(17,4,13,26)          62.869          estimate D2E/DX2                !
 ! D58   D(18,4,13,2)           67.3567         estimate D2E/DX2                !
 ! D59   D(18,4,13,25)        -173.6597         estimate D2E/DX2                !
 ! D60   D(18,4,13,26)         -55.1011         estimate D2E/DX2                !
 ! D61   D(9,5,6,10)           -60.6539         estimate D2E/DX2                !
 ! D62   D(28,5,6,10)           61.3052         estimate D2E/DX2                !
 ! D63   D(29,5,6,10)          177.8806         estimate D2E/DX2                !
 ! D64   D(6,5,9,3)             54.7942         estimate D2E/DX2                !
 ! D65   D(6,5,9,21)           -66.734          estimate D2E/DX2                !
 ! D66   D(6,5,9,22)           176.1943         estimate D2E/DX2                !
 ! D67   D(28,5,9,3)           -66.2114         estimate D2E/DX2                !
 ! D68   D(28,5,9,21)          172.2604         estimate D2E/DX2                !
 ! D69   D(28,5,9,22)           55.1886         estimate D2E/DX2                !
 ! D70   D(29,5,9,3)           173.2129         estimate D2E/DX2                !
 ! D71   D(29,5,9,21)           51.6847         estimate D2E/DX2                !
 ! D72   D(29,5,9,22)          -65.387          estimate D2E/DX2                !
 ! D73   D(5,6,10,8)            60.3744         estimate D2E/DX2                !
 ! D74   D(5,6,10,23)          -60.773          estimate D2E/DX2                !
 ! D75   D(5,6,10,24)         -177.8365         estimate D2E/DX2                !
 ! D76   D(1,7,11,2)            49.0201         estimate D2E/DX2                !
 ! D77   D(19,7,11,2)          -73.3255         estimate D2E/DX2                !
 ! D78   D(20,7,11,2)          170.7298         estimate D2E/DX2                !
 ! D79   D(3,8,10,6)           -53.7215         estimate D2E/DX2                !
 ! D80   D(3,8,10,23)           67.7041         estimate D2E/DX2                !
 ! D81   D(3,8,10,24)         -172.7851         estimate D2E/DX2                !
 ! D82   D(12,8,10,6)           64.9413         estimate D2E/DX2                !
 ! D83   D(12,8,10,23)        -173.6331         estimate D2E/DX2                !
 ! D84   D(12,8,10,24)         -54.1223         estimate D2E/DX2                !
 ! D85   D(31,8,10,6)         -173.4646         estimate D2E/DX2                !
 ! D86   D(31,8,10,23)         -52.039          estimate D2E/DX2                !
 ! D87   D(31,8,10,24)          67.4718         estimate D2E/DX2                !
 ! D88   D(3,8,12,2)          -163.4555         estimate D2E/DX2                !
 ! D89   D(10,8,12,2)           76.3302         estimate D2E/DX2                !
 ! D90   D(31,8,12,2)          -43.9936         estimate D2E/DX2                !
 --------------------------------------------------------------------------------
 Trust Radius=3.00D-01 FncErr=1.00D-07 GrdErr=1.00D-06 EigMax=2.50D+02 EigMin=1.00D-04
 Number of steps in this run=    186 maximum allowed number of steps=    186.
 GradGradGradGradGradGradGradGradGradGradGradGradGradGradGradGradGradGrad

                          Input orientation:                          
 ---------------------------------------------------------------------
 Center     Atomic      Atomic             Coordinates (Angstroms)
 Number     Number       Type             X           Y           Z
 ---------------------------------------------------------------------
      1          6           0        3.501986   -0.016706   -0.601081
      2          6           0        1.064917   -0.202299    0.958045
      3          6           0       -1.734567    0.856025   -1.239342
      4          6           0        2.916693    1.251866    0.013631
      5          6           0       -3.595130    0.094620    0.251453
      6          8           0       -2.703987   -0.822207    0.859679
      7          6           0        2.382884   -0.988141   -0.927229
      8          6           0       -0.856966   -0.220651   -0.607003
      9          6           0       -2.848134    1.303251   -0.290076
     10          6           0       -1.729706   -1.328259   -0.028549
     11          8           0        1.555937   -1.269843    0.201064
     12          8           0       -0.085483    0.404485    0.405536
     13          6           0        2.105384    0.868787    1.248060
     14          1           0        4.199084   -0.477146    0.094939
     15          1           0        4.047009    0.200484   -1.515139
     16          1           0       -2.176945    0.435334   -2.139155
     17          1           0        3.703467    1.946245    0.291164
     18          1           0        2.286328    1.756504   -0.714739
     19          1           0        1.777688   -0.589069   -1.732824
     20          1           0        2.766805   -1.949021   -1.239974
     21          1           0       -2.434798    1.869377    0.539187
     22          1           0       -3.547365    1.953404   -0.808158
     23          1           0       -2.219162   -1.857660   -0.843208
     24          1           0       -1.139784   -2.037971    0.533450
     25          1           0        2.776864    0.469684    2.003683
     26          1           0        1.601982    1.724611    1.683827
     27          1           0        0.757960   -0.665456    1.886181
     28          1           0       -4.132001   -0.412329   -0.547797
     29          1           0       -4.308149    0.378243    1.013615
     30          1           0       -1.119344    1.696064   -1.544454
     31          1           0       -0.215544   -0.651730   -1.358285
 ---------------------------------------------------------------------
                    Distance matrix (angstroms):
                    1          2          3          4          5
     1  C    0.000000
     2  C    2.899073   0.000000
     3  C    5.347011   3.712906   0.000000
     4  C    1.526340   2.536846   4.833306   0.000000
     5  C    7.149004   4.722655   2.502779   6.618128   0.000000
     6  O    6.426255   3.820811   2.856944   6.050588   1.415855
     7  C    1.517382   2.430811   4.522363   2.487529   6.188563
     8  C    4.363724   2.478577   1.526194   4.098048   2.886847
     9  C    6.493307   4.374523   1.530081   5.773050   1.520541
    10  C    5.423888   3.170342   2.497427   5.314870   2.362793
    11  O    2.449673   1.397774   4.173907   2.871551   5.328958
    12  O    3.749748   1.413108   2.372549   3.143995   3.526667
    13  C    2.480709   1.521153   4.575211   1.526036   5.838529
    14  H    1.087380   3.262437   6.226224   2.154210   7.816725
    15  H    1.086151   3.895093   5.825154   2.172592   7.844383
    16  H    5.900870   4.528675   1.087356   5.589844   2.800418
    17  H    2.165611   3.467408   5.753542   1.085449   7.529914
    18  H    2.152909   2.850782   4.153753   1.087448   6.187644
    19  H    2.140478   2.810411   3.829851   2.781453   5.768185
    20  H    2.163912   3.283100   5.303832   3.440882   6.846535
    21  H    6.332687   4.088434   2.163417   5.412577   2.139842
    22  H    7.322402   5.388847   2.162498   6.553742   2.140125
    23  H    6.014921   4.095108   2.784931   6.064679   2.627350
    24  H    5.188324   2.900117   3.445544   5.248642   3.264382
    25  H    2.747212   2.115581   5.569513   2.142818   6.619161
    26  H    3.444271   2.127952   4.520168   2.177500   5.631921
    27  H    3.759924   1.081746   4.277440   3.441322   4.711629
    28  H    7.644417   5.414760   2.799044   7.264216   1.088131
    29  H    7.985076   5.404624   3.453609   7.345851   1.081540
    30  H    5.017990   3.825870   1.085015   4.349084   3.452451
    31  H    3.846640   2.684577   2.143573   3.913661   3.817053
                    6          7          8          9         10
     6  O    0.000000
     7  C    5.394148   0.000000
     8  C    2.434032   3.344879   0.000000
     9  C    2.420803   5.746302   2.527344   0.000000
    10  C    1.412183   4.223352   1.524165   2.871258   0.000000
    11  O    4.333717   1.426970   2.752431   5.124244   3.294174
    12  O    2.927043   3.131853   1.418174   2.987289   2.427818
    13  C    5.112763   2.873512   3.661100   5.204994   4.600506
    14  H    6.953868   2.145816   5.110984   7.278828   5.990842
    15  H    7.229219   2.127858   5.005101   7.089420   6.157714
    16  H    3.294266   4.928193   2.126065   2.150086   2.786564
    17  H    7.003071   3.440791   5.128322   6.608688   6.351690
    18  H    5.833677   2.754551   3.714976   5.171893   5.110298
    19  H    5.182744   1.083745   2.888703   5.201983   3.968976
    20  H    5.967229   1.080970   4.064435   6.557981   4.698032
    21  H    2.723931   5.790151   2.858587   1.085828   3.323305
    22  H    3.346189   6.620779   3.464856   1.086293   3.831578
    23  H    2.051108   4.684224   2.142701   3.270003   1.087889
    24  H    2.007794   3.955365   2.164087   3.841929   1.080529
    25  H    5.746082   3.297077   4.527357   6.131620   5.260393
    26  H    5.070194   3.845315   3.883088   4.886448   4.832431
    27  H    3.614326   3.264932   3.003632   4.649281   3.208423
    28  H    2.046512   6.551279   3.281174   2.158228   2.622893
    29  H    2.009505   7.099564   3.859500   2.164924   3.262916
    30  H    3.825263   4.455505   2.149756   2.171746   3.437592
    31  H    3.337780   2.655336   1.077811   3.448703   2.125694
                   11         12         13         14         15
    11  O    0.000000
    12  O    2.353602   0.000000
    13  C    2.443733   2.392764   0.000000
    14  H    2.761495   4.385346   2.743138   0.000000
    15  H    3.363429   4.561590   3.442645   1.753471   0.000000
    16  H    4.724263   3.294028   5.477175   6.817444   6.259565
    17  H    3.868233   4.092218   2.151845   2.481323   2.535435
    18  H    3.245141   2.951010   2.161796   3.050149   2.482305
    19  H    2.062171   3.005185   3.334426   3.035853   2.412592
    20  H    2.001018   4.047498   3.816783   2.449455   2.516945
    21  H    5.088713   2.771832   4.702864   7.050668   7.001377
    22  H    6.119766   3.982064   6.112119   8.168882   7.826051
    23  H    3.960733   3.351007   5.523460   6.631728   6.629657
    24  H    2.822661   2.663363   4.414864   5.579604   6.009178
    25  H    2.786764   3.278926   1.086800   2.561738   3.750713
    26  H    3.341775   2.494854   1.084316   3.757291   4.305172
    27  H    1.960018   2.012083   2.139311   3.883985   4.810060
    28  H    5.800755   4.236784   6.615991   8.356093   8.258783
    29  H    6.145236   4.266305   6.436537   8.599341   8.731258
    30  H    4.358964   2.557246   4.345272   5.974624   5.378552
    31  H    2.439627   2.059993   3.806798   4.650944   4.349739
                   16         17         18         19         20
    16  H    0.000000
    17  H    6.539767   0.000000
    18  H    4.867777   1.748178   0.000000
    19  H    4.105317   3.772661   2.607091   0.000000
    20  H    5.561865   4.288918   3.773280   1.752348   0.000000
    21  H    3.049014   6.143755   4.886113   5.380616   6.693448
    22  H    2.440111   7.333698   5.837762   5.972886   7.435330
    23  H    2.634214   7.129799   5.777381   4.286671   5.002563
    24  H    3.786259   6.276126   5.262534   3.968244   4.291198
    25  H    6.457903   2.443675   3.047351   4.010087   4.046177
    26  H    5.527903   2.530785   2.494487   4.130072   4.837458
    27  H    5.101837   4.247478   3.868667   3.760702   3.931392
    28  H    2.659548   8.225648   6.776921   6.029921   7.101694
    29  H    3.805949   8.195521   6.955138   6.746557   7.781375
    30  H    1.749751   5.166390   3.505807   3.694606   5.336807
    31  H    2.374565   4.982851   3.531728   2.029083   3.254438
                   21         22         23         24         25
    21  H    0.000000
    22  H    1.749344   0.000000
    23  H    3.980995   4.036033   0.000000
    24  H    4.116365   4.850508   1.758623   0.000000
    25  H    5.591539   7.078400   6.203353   4.877505   0.000000
    26  H    4.198422   5.725217   5.815472   4.795589   1.748570
    27  H    4.293422   5.714343   4.211196   2.704646   2.319121
    28  H    3.044374   2.450771   2.415616   3.572838   7.417575
    29  H    2.440903   2.525625   3.579235   4.013376   7.154440
    30  H    2.470226   2.550224   3.785538   4.273303   5.410519
    31  H    3.857651   4.265020   2.394589   2.520822   4.638416
                   26         27         28         29         30
    26  H    0.000000
    27  H    2.542782   0.000000
    28  H    6.513464   5.468093   0.000000
    29  H    6.098487   5.245583   1.758988   0.000000
    30  H    4.222349   4.568403   3.809823   4.295212   0.000000
    31  H    4.266713   3.387397   4.006599   4.841092   2.522628
                   31
    31  H    0.000000
 Stoichiometry    C10H18O3
 Framework group  C1[X(C10H18O3)]
 Deg. of freedom    87
 Full point group                 C1      NOp   1
 Largest Abelian subgroup         C1      NOp   1
 Largest concise Abelian subgroup C1      NOp   1
                         Standard orientation:                         
 ---------------------------------------------------------------------
 Center     Atomic      Atomic             Coordinates (Angstroms)
 Number     Number       Type             X           Y           Z
 ---------------------------------------------------------------------
      1          6           0       -3.501986   -0.016706    0.601081
      2          6           0       -1.064917   -0.202299   -0.958045
      3          6           0        1.734567    0.856025    1.239342
      4          6           0       -2.916693    1.251866   -0.013631
      5          6           0        3.595130    0.094620   -0.251453
      6          8           0        2.703987   -0.822207   -0.859679
      7          6           0       -2.382884   -0.988141    0.927229
      8          6           0        0.856966   -0.220651    0.607003
      9          6           0        2.848134    1.303251    0.290076
     10          6           0        1.729706   -1.328259    0.028549
     11          8           0       -1.555937   -1.269843   -0.201064
     12          8           0        0.085483    0.404485   -0.405536
     13          6           0       -2.105384    0.868787   -1.248060
     14          1           0       -4.199084   -0.477146   -0.094939
     15          1           0       -4.047009    0.200484    1.515139
     16          1           0        2.176945    0.435334    2.139155
     17          1           0       -3.703467    1.946245   -0.291164
     18          1           0       -2.286328    1.756504    0.714739
     19          1           0       -1.777688   -0.589069    1.732824
     20          1           0       -2.766805   -1.949021    1.239974
     21          1           0        2.434798    1.869377   -0.539187
     22          1           0        3.547365    1.953404    0.808158
     23          1           0        2.219162   -1.857660    0.843208
     24          1           0        1.139784   -2.037971   -0.533450
     25          1           0       -2.776864    0.469684   -2.003683
     26          1           0       -1.601982    1.724611   -1.683827
     27          1           0       -0.757960   -0.665456   -1.886181
     28          1           0        4.132001   -0.412329    0.547797
     29          1           0        4.308149    0.378243   -1.013615
     30          1           0        1.119344    1.696064    1.544454
     31          1           0        0.215544   -0.651730    1.358285
 ---------------------------------------------------------------------
 Rotational constants (GHZ):           1.8160190           0.4475030           0.4284080
 Standard basis: 6-311++G(2d,2p) (5D, 7F)
 There are   557 symmetry adapted cartesian basis functions of A   symmetry.
 There are   531 symmetry adapted basis functions of A   symmetry.
   531 basis functions,   762 primitive gaussians,   557 cartesian basis functions
    51 alpha electrons       51 beta electrons
       nuclear repulsion energy       905.8855167329 Hartrees.
 NAtoms=   31 NActive=   31 NUniq=   31 SFac= 1.00D+00 NAtFMM=   60 NAOKFM=F Big=F
 Integral buffers will be    131072 words long.
 Raffenetti 2 integral format.
 Two-electron integral symmetry is turned on.
 ------------------------------------------------------------------------------
 Polarizable Continuum Model (PCM)
 =================================
 Model                : PCM.
 Atomic radii         : UFF (Universal Force Field).
 Polarization charges : Total charges.
 Charge compensation  : None.
 Solution method      : On-the-fly selection.
 Cavity type          : Scaled VdW (van der Waals Surface) (Alpha=1.100).
 Cavity algorithm     : GePol (No added spheres)
                        Default sphere list used, NSphG=   31.
                        Lebedev-Laikov grids with approx.  5.0 points / Ang**2.
                        Smoothing algorithm: York/Karplus (Gamma=1.0000).
                        Polarization charges: spherical gaussians, with
                                              point-specific exponents (IZeta= 3).
                        Self-potential: point-specific (ISelfS= 7).
                        Self-field    : sphere-specific E.n sum rule (ISelfD= 2).
 1st derivatives      : Analytical E(r).r(x)/FMM algorithm (CHGder, D1EAlg=3).
                        Cavity 1st derivative terms included.
 Solvent              : Water, Eps=  78.355300 Eps(inf)=   1.777849
 ------------------------------------------------------------------------------
 One-electron integrals computed using PRISM.
 NBasis=   531 RedAO= T EigKep=  4.60D-06  NBF=   531
 NBsUse=   531 1.00D-06 EigRej= -1.00D+00 NBFU=   531
 ExpMin= 3.60D-02 ExpMax= 8.59D+03 ExpMxC= 1.30D+03 IAcc=3 IRadAn=         5 AccDes= 0.00D+00
 Harris functional with IExCor= 1009 and IRadAn=       5 diagonalized for initial guess.
 HarFok:  IExCor= 1009 AccDes= 0.00D+00 IRadAn=         5 IDoV= 1 UseB2=F ITyADJ=14
 ICtDFT=  3500011 ScaDFX=  1.000000  1.000000  1.000000  1.000000
 FoFCou: FMM=F IPFlag=           0 FMFlag=      100000 FMFlg1=           0
         NFxFlg=           0 DoJE=T BraDBF=F KetDBF=T FulRan=T
         wScrn=  0.000000 ICntrl=       500 IOpCl=  0 I1Cent=   200000004 NGrid=           0
         NMat0=    1 NMatS0=      1 NMatT0=    0 NMatD0=    1 NMtDS0=    0 NMtDT0=    0
 Petite list used in FoFCou.
 Requested convergence on RMS density matrix=1.00D-08 within 128 cycles.
 Requested convergence on MAX density matrix=1.00D-06.
 Requested convergence on             energy=1.00D-06.
 No special actions if energy rises.
 Inv3:  Mode=1 IEnd=    12730800.
 Iteration    1 A*A^-1 deviation from unit magnitude is 3.55D-15 for   2046.
 Iteration    1 A*A^-1 deviation from orthogonality  is 2.96D-15 for   2049    864.
 Iteration    1 A^-1*A deviation from unit magnitude is 3.55D-15 for   2046.
 Iteration    1 A^-1*A deviation from orthogonality  is 2.20D-15 for   1639   1636.
 Error on total polarization charges =  0.01467
 SCF Done:  E(RM062X) =  -617.493990598     A.U. after   13 cycles
            NFock= 13  Conv=0.20D-08     -V/T= 2.0035

 **********************************************************************

            Population analysis using the SCF density.

 **********************************************************************

 Orbital symmetries:
       Occupied  (A) (A) (A) (A) (A) (A) (A) (A) (A) (A) (A) (A)
                 (A) (A) (A) (A) (A) (A) (A) (A) (A) (A) (A) (A)
                 (A) (A) (A) (A) (A) (A) (A) (A) (A) (A) (A) (A)
                 (A) (A) (A) (A) (A) (A) (A) (A) (A) (A) (A) (A)
                 (A) (A) (A)
       Virtual   (A) (A) (A) (A) (A) (A) (A) (A) (A) (A) (A) (A)
                 (A) (A) (A) (A) (A) (A) (A) (A) (A) (A) (A) (A)
                 (A) (A) (A) (A) (A) (A) (A) (A) (A) (A) (A) (A)
                 (A) (A) (A) (A) (A) (A) (A) (A) (A) (A) (A) (A)
                 (A) (A) (A) (A) (A) (A) (A) (A) (A) (A) (A) (A)
                 (A) (A) (A) (A) (A) (A) (A) (A) (A) (A) (A) (A)
                 (A) (A) (A) (A) (A) (A) (A) (A) (A) (A) (A) (A)
                 (A) (A) (A) (A) (A) (A) (A) (A) (A) (A) (A) (A)
                 (A) (A) (A) (A) (A) (A) (A) (A) (A) (A) (A) (A)
                 (A) (A) (A) (A) (A) (A) (A) (A) (A) (A) (A) (A)
                 (A) (A) (A) (A) (A) (A) (A) (A) (A) (A) (A) (A)
                 (A) (A) (A) (A) (A) (A) (A) (A) (A) (A) (A) (A)
                 (A) (A) (A) (A) (A) (A) (A) (A) (A) (A) (A) (A)
                 (A) (A) (A) (A) (A) (A) (A) (A) (A) (A) (A) (A)
                 (A) (A) (A) (A) (A) (A) (A) (A) (A) (A) (A) (A)
                 (A) (A) (A) (A) (A) (A) (A) (A) (A) (A) (A) (A)
                 (A) (A) (A) (A) (A) (A) (A) (A) (A) (A) (A) (A)
                 (A) (A) (A) (A) (A) (A) (A) (A) (A) (A) (A) (A)
                 (A) (A) (A) (A) (A) (A) (A) (A) (A) (A) (A) (A)
                 (A) (A) (A) (A) (A) (A) (A) (A) (A) (A) (A) (A)
                 (A) (A) (A) (A) (A) (A) (A) (A) (A) (A) (A) (A)
                 (A) (A) (A) (A) (A) (A) (A) (A) (A) (A) (A) (A)
                 (A) (A) (A) (A) (A) (A) (A) (A) (A) (A) (A) (A)
                 (A) (A) (A) (A) (A) (A) (A) (A) (A) (A) (A) (A)
                 (A) (A) (A) (A) (A) (A) (A) (A) (A) (A) (A) (A)
                 (A) (A) (A) (A) (A) (A) (A) (A) (A) (A) (A) (A)
                 (A) (A) (A) (A) (A) (A) (A) (A) (A) (A) (A) (A)
                 (A) (A) (A) (A) (A) (A) (A) (A) (A) (A) (A) (A)
                 (A) (A) (A) (A) (A) (A) (A) (A) (A) (A) (A) (A)
                 (A) (A) (A) (A) (A) (A) (A) (A) (A) (A) (A) (A)
                 (A) (A) (A) (A) (A) (A) (A) (A) (A) (A) (A) (A)
                 (A) (A) (A) (A) (A) (A) (A) (A) (A) (A) (A) (A)
                 (A) (A) (A) (A) (A) (A) (A) (A) (A) (A) (A) (A)
                 (A) (A) (A) (A) (A) (A) (A) (A) (A) (A) (A) (A)
                 (A) (A) (A) (A) (A) (A) (A) (A) (A) (A) (A) (A)
                 (A) (A) (A) (A) (A) (A) (A) (A) (A) (A) (A) (A)
                 (A) (A) (A) (A) (A) (A) (A) (A) (A) (A) (A) (A)
                 (A) (A) (A) (A) (A) (A) (A) (A) (A) (A) (A) (A)
                 (A) (A) (A) (A) (A) (A) (A) (A) (A) (A) (A) (A)
                 (A) (A) (A) (A) (A) (A) (A) (A) (A) (A) (A) (A)
 The electronic state is 1-A.
 Alpha  occ. eigenvalues --  -19.63420 -19.62509 -19.62192 -10.63514 -10.58517
 Alpha  occ. eigenvalues --  -10.58085 -10.57618 -10.57527 -10.53091 -10.53090
 Alpha  occ. eigenvalues --  -10.52983 -10.52967 -10.52708  -1.19817  -1.16396
 Alpha  occ. eigenvalues --   -1.13156  -0.91063  -0.90033  -0.87325  -0.84730
 Alpha  occ. eigenvalues --   -0.74975  -0.74269  -0.73484  -0.71287  -0.65994
 Alpha  occ. eigenvalues --   -0.62755  -0.59809  -0.58359  -0.57993  -0.55567
 Alpha  occ. eigenvalues --   -0.54000  -0.53198  -0.52939  -0.50869  -0.50338
 Alpha  occ. eigenvalues --   -0.47945  -0.47193  -0.46390  -0.45435  -0.45386
 Alpha  occ. eigenvalues --   -0.43611  -0.43140  -0.40705  -0.39703  -0.39449
 Alpha  occ. eigenvalues --   -0.38614  -0.37770  -0.35738  -0.34750  -0.33804
 Alpha  occ. eigenvalues --   -0.30967
 Alpha virt. eigenvalues --   -0.00216   0.00811   0.00914   0.01057   0.02207
 Alpha virt. eigenvalues --    0.02483   0.02708   0.03302   0.03459   0.04510
 Alpha virt. eigenvalues --    0.04670   0.04867   0.05505   0.05879   0.07046
 Alpha virt. eigenvalues --    0.07490   0.07797   0.08324   0.09181   0.09486
 Alpha virt. eigenvalues --    0.09959   0.10070   0.10463   0.11428   0.12135
 Alpha virt. eigenvalues --    0.12604   0.12851   0.13093   0.13403   0.13525
 Alpha virt. eigenvalues --    0.13742   0.13928   0.14224   0.14523   0.14691
 Alpha virt. eigenvalues --    0.15151   0.15211   0.15657   0.15988   0.16411
 Alpha virt. eigenvalues --    0.16807   0.16994   0.17166   0.17537   0.17757
 Alpha virt. eigenvalues --    0.18073   0.18343   0.18598   0.18881   0.19267
 Alpha virt. eigenvalues --    0.19826   0.20248   0.20390   0.20558   0.21410
 Alpha virt. eigenvalues --    0.21713   0.22597   0.23092   0.23448   0.24189
 Alpha virt. eigenvalues --    0.24440   0.25712   0.26294   0.26800   0.27284
 Alpha virt. eigenvalues --    0.27565   0.27970   0.28588   0.29306   0.29523
 Alpha virt. eigenvalues --    0.29798   0.30685   0.30879   0.31423   0.31901
 Alpha virt. eigenvalues --    0.33021   0.33351   0.33793   0.33885   0.34518
 Alpha virt. eigenvalues --    0.34649   0.35371   0.35485   0.36143   0.36470
 Alpha virt. eigenvalues --    0.37042   0.37142   0.37463   0.37816   0.38305
 Alpha virt. eigenvalues --    0.38692   0.39326   0.39530   0.40000   0.40682
 Alpha virt. eigenvalues --    0.41668   0.42681   0.43699   0.44507   0.45721
 Alpha virt. eigenvalues --    0.47187   0.48016   0.49476   0.50037   0.50432
 Alpha virt. eigenvalues --    0.51618   0.52310   0.53205   0.54435   0.55613
 Alpha virt. eigenvalues --    0.56779   0.57385   0.57797   0.58810   0.59629
 Alpha virt. eigenvalues --    0.60543   0.60730   0.60947   0.61321   0.62016
 Alpha virt. eigenvalues --    0.62404   0.63040   0.63463   0.63733   0.64888
 Alpha virt. eigenvalues --    0.65267   0.65677   0.66277   0.66383   0.67437
 Alpha virt. eigenvalues --    0.68241   0.68486   0.69224   0.69496   0.70160
 Alpha virt. eigenvalues --    0.70476   0.71756   0.71864   0.72437   0.73387
 Alpha virt. eigenvalues --    0.73588   0.73973   0.74698   0.75427   0.75749
 Alpha virt. eigenvalues --    0.76744   0.77787   0.77977   0.78859   0.79241
 Alpha virt. eigenvalues --    0.79943   0.80837   0.82295   0.85053   0.85385
 Alpha virt. eigenvalues --    0.86120   0.87151   0.87314   0.88970   0.89555
 Alpha virt. eigenvalues --    0.90243   0.91787   0.93805   0.95237   0.96746
 Alpha virt. eigenvalues --    0.98096   0.99537   1.00188   1.01059   1.01799
 Alpha virt. eigenvalues --    1.02539   1.02996   1.04590   1.06060   1.06857
 Alpha virt. eigenvalues --    1.07064   1.07957   1.10182   1.10275   1.11405
 Alpha virt. eigenvalues --    1.13120   1.15130   1.15809   1.16116   1.16274
 Alpha virt. eigenvalues --    1.17309   1.17607   1.19014   1.20501   1.20913
 Alpha virt. eigenvalues --    1.21153   1.22837   1.23597   1.23968   1.24486
 Alpha virt. eigenvalues --    1.25114   1.26148   1.26492   1.26649   1.27543
 Alpha virt. eigenvalues --    1.28587   1.29609   1.30522   1.31328   1.32323
 Alpha virt. eigenvalues --    1.33412   1.33948   1.34305   1.34752   1.35482
 Alpha virt. eigenvalues --    1.35921   1.36580   1.37670   1.37992   1.38249
 Alpha virt. eigenvalues --    1.38861   1.40163   1.40361   1.40820   1.41502
 Alpha virt. eigenvalues --    1.42985   1.43494   1.43937   1.44661   1.45310
 Alpha virt. eigenvalues --    1.45674   1.46335   1.46697   1.47312   1.47926
 Alpha virt. eigenvalues --    1.49316   1.49890   1.49965   1.51774   1.51926
 Alpha virt. eigenvalues --    1.52749   1.53767   1.54737   1.55391   1.55825
 Alpha virt. eigenvalues --    1.56511   1.57246   1.57994   1.58741   1.58960
 Alpha virt. eigenvalues --    1.59360   1.60024   1.60916   1.61142   1.62200
 Alpha virt. eigenvalues --    1.63167   1.64520   1.65396   1.66216   1.66842
 Alpha virt. eigenvalues --    1.67555   1.68070   1.70248   1.71340   1.72777
 Alpha virt. eigenvalues --    1.73688   1.74518   1.75217   1.76004   1.77684
 Alpha virt. eigenvalues --    1.77967   1.78997   1.81303   1.81953   1.82216
 Alpha virt. eigenvalues --    1.84582   1.90817   1.92559   1.96926   1.99521
 Alpha virt. eigenvalues --    2.02764   2.07887   2.12765   2.16372   2.22812
 Alpha virt. eigenvalues --    2.26058   2.27604   2.28112   2.33640   2.40157
 Alpha virt. eigenvalues --    2.41394   2.44474   2.44864   2.50456   2.51571
 Alpha virt. eigenvalues --    2.57297   2.76761   2.77520   2.78298   2.81613
 Alpha virt. eigenvalues --    2.83565   2.87853   2.91541   2.93097   2.93681
 Alpha virt. eigenvalues --    2.95228   2.98136   2.99576   3.00922   3.03900
 Alpha virt. eigenvalues --    3.05720   3.06630   3.09087   3.09359   3.12008
 Alpha virt. eigenvalues --    3.13055   3.13789   3.16196   3.18405   3.21093
 Alpha virt. eigenvalues --    3.23106   3.27504   3.31980   3.32844   3.34275
 Alpha virt. eigenvalues --    3.35204   3.36052   3.39296   3.40455   3.40751
 Alpha virt. eigenvalues --    3.42531   3.43604   3.44931   3.45441   3.47095
 Alpha virt. eigenvalues --    3.48654   3.49309   3.50034   3.51390   3.52164
 Alpha virt. eigenvalues --    3.53148   3.53391   3.54799   3.55354   3.55931
 Alpha virt. eigenvalues --    3.56584   3.57827   3.58306   3.59327   3.60014
 Alpha virt. eigenvalues --    3.61140   3.62167   3.62804   3.64119   3.64576
 Alpha virt. eigenvalues --    3.66596   3.67590   3.67933   3.68812   3.69713
 Alpha virt. eigenvalues --    3.70602   3.70915   3.72513   3.73498   3.74274
 Alpha virt. eigenvalues --    3.74711   3.75353   3.76479   3.77093   3.77739
 Alpha virt. eigenvalues --    3.78171   3.79293   3.80965   3.82509   3.84833
 Alpha virt. eigenvalues --    3.86041   3.86980   3.88982   3.89204   3.89905
 Alpha virt. eigenvalues --    3.92272   3.95116   3.96671   3.97467   3.98115
 Alpha virt. eigenvalues --    3.99301   4.01084   4.02693   4.03066   4.03320
 Alpha virt. eigenvalues --    4.04783   4.05482   4.06016   4.07069   4.07734
 Alpha virt. eigenvalues --    4.08496   4.08977   4.09745   4.09871   4.10663
 Alpha virt. eigenvalues --    4.12319   4.13019   4.13676   4.15499   4.16411
 Alpha virt. eigenvalues --    4.17113   4.17558   4.18095   4.19609   4.20740
 Alpha virt. eigenvalues --    4.21033   4.22780   4.23511   4.26369   4.26645
 Alpha virt. eigenvalues --    4.27402   4.29755   4.31331   4.31590   4.32078
 Alpha virt. eigenvalues --    4.32813   4.33931   4.35701   4.36261   4.40204
 Alpha virt. eigenvalues --    4.41697   4.43017   4.45716   4.48535   4.51387
 Alpha virt. eigenvalues --    4.58398   4.61944   4.74226   4.76738   4.82117
 Alpha virt. eigenvalues --    4.85933   4.93596   4.94719   4.99961   5.03650
 Alpha virt. eigenvalues --    5.07088   5.07878   5.08367   5.08713   5.11507
 Alpha virt. eigenvalues --    5.12881   5.13620   5.15039   5.31884   5.38886
 Alpha virt. eigenvalues --    5.45066   5.57272   5.59975   5.63800   5.85272
 Alpha virt. eigenvalues --    5.87938   6.05710   7.01899   7.03849   7.06615
 Alpha virt. eigenvalues --    7.08970   7.11405   7.12585   7.14808   7.21942
 Alpha virt. eigenvalues --    7.24629   7.36597   7.41309   7.47724   7.53751
 Alpha virt. eigenvalues --    7.54469   7.62760  23.95745  23.97808  24.06161
 Alpha virt. eigenvalues --   24.07821  24.09854  24.12353  24.13656  24.15757
 Alpha virt. eigenvalues --   24.16848  24.21190  50.15298  50.18571  50.25794
          Condensed to atoms (all electrons):
               1          2          3          4          5          6
     1  C    5.849960   0.181750  -0.019845  -0.063869  -0.004116  -0.000730
     2  C    0.181750   7.099795   0.010298  -0.080138   0.010495  -0.026552
     3  C   -0.019845   0.010298   6.580610   0.018804  -0.113553   0.023324
     4  C   -0.063869  -0.080138   0.018804   5.724151   0.002056   0.000249
     5  C   -0.004116   0.010495  -0.113553   0.002056   5.423052   0.087362
     6  O   -0.000730  -0.026552   0.023324   0.000249   0.087362   8.253940
     7  C   -0.085794  -0.378437  -0.015607   0.001105   0.004895   0.001614
     8  C    0.030784  -0.692345  -0.716847  -0.007854   0.195424   0.031704
     9  C   -0.008215   0.071172   0.104811   0.013835   0.095652   0.000855
    10  C    0.066230   0.033321  -0.142105  -0.037916  -0.250389   0.115525
    11  O   -0.056550   0.266345   0.046399  -0.021471  -0.003880  -0.002459
    12  O   -0.028496   0.183894  -0.096898  -0.034903  -0.003529   0.024407
    13  C   -0.156448  -0.875750   0.016843  -0.083542   0.006062   0.004626
    14  H    0.466940   0.019089   0.000821  -0.005195  -0.000080  -0.000016
    15  H    0.446788  -0.012732  -0.002727  -0.054795  -0.000026  -0.000012
    16  H    0.003884  -0.003148   0.481647  -0.002579  -0.017886   0.000878
    17  H   -0.021991   0.011922   0.000236   0.421026   0.000119   0.000068
    18  H   -0.078974   0.012658  -0.007924   0.531615   0.000986  -0.000226
    19  H   -0.081122   0.038948   0.010483  -0.006587   0.002543  -0.000086
    20  H   -0.022617  -0.008232   0.003057   0.016212  -0.000148   0.000152
    21  H    0.002431  -0.012098  -0.021616  -0.000749  -0.100038  -0.011501
    22  H   -0.000755   0.007168  -0.036554   0.000696  -0.016482   0.010725
    23  H   -0.002574   0.006669  -0.033217   0.003501  -0.000614  -0.061427
    24  H    0.006199  -0.008744   0.024094  -0.007089   0.010388  -0.063126
    25  H   -0.032134  -0.127076   0.004518  -0.004325  -0.000264  -0.000110
    26  H   -0.002748  -0.025285  -0.009567  -0.041947   0.001362   0.000220
    27  H   -0.003081   0.550285  -0.007396  -0.002337   0.001691  -0.000816
    28  H   -0.000021  -0.004924  -0.026130  -0.000021   0.455845  -0.055683
    29  H   -0.000212   0.003367   0.011374   0.000103   0.445848  -0.067252
    30  H    0.000780  -0.005515   0.406108   0.001054  -0.005365  -0.002932
    31  H    0.002895  -0.123838   0.014346  -0.005652  -0.025442   0.017244
               7          8          9         10         11         12
     1  C   -0.085794   0.030784  -0.008215   0.066230  -0.056550  -0.028496
     2  C   -0.378437  -0.692345   0.071172   0.033321   0.266345   0.183894
     3  C   -0.015607  -0.716847   0.104811  -0.142105   0.046399  -0.096898
     4  C    0.001105  -0.007854   0.013835  -0.037916  -0.021471  -0.034903
     5  C    0.004895   0.195424   0.095652  -0.250389  -0.003880  -0.003529
     6  O    0.001614   0.031704   0.000855   0.115525  -0.002459   0.024407
     7  C    5.461988   0.058557  -0.005740  -0.052820   0.107924   0.043842
     8  C    0.058557   7.308056  -0.308314  -0.462008   0.020096   0.104418
     9  C   -0.005740  -0.308314   5.517629   0.008009  -0.003945  -0.013328
    10  C   -0.052820  -0.462008   0.008009   6.424699  -0.059336  -0.084984
    11  O    0.107924   0.020096  -0.003945  -0.059336   8.155084  -0.040913
    12  O    0.043842   0.104418  -0.013328  -0.084984  -0.040913   8.311397
    13  C    0.190042   0.273573  -0.011486  -0.110433  -0.015481  -0.076549
    14  H   -0.081817  -0.005511  -0.000151   0.000314  -0.002680  -0.000850
    15  H   -0.031215   0.002929  -0.000260   0.001762   0.007950   0.000879
    16  H   -0.002437  -0.072355  -0.026758   0.012547   0.001083   0.004445
    17  H    0.012121   0.002712   0.000935  -0.002002  -0.003487  -0.002524
    18  H   -0.001795   0.000788  -0.004135   0.002320   0.001324   0.003664
    19  H    0.481697  -0.014528   0.007556  -0.021055  -0.042908  -0.001041
    20  H    0.423574  -0.002541   0.000216   0.000792  -0.056530   0.001692
    21  H   -0.000587  -0.011950   0.502950   0.029653   0.000708  -0.004655
    22  H   -0.000317  -0.020275   0.447160  -0.017435  -0.000151   0.002701
    23  H   -0.000554  -0.041092   0.038928   0.432118  -0.002497   0.015856
    24  H   -0.000461  -0.056858  -0.003033   0.435895   0.004316  -0.012447
    25  H    0.016863   0.001506  -0.000432   0.001411  -0.010628   0.009038
    26  H    0.006542  -0.007373   0.002918  -0.000462   0.008001  -0.004086
    27  H   -0.014131  -0.010354   0.003788  -0.009505  -0.061044  -0.062293
    28  H    0.000151   0.034645  -0.022426  -0.030963   0.000167   0.001124
    29  H    0.000197   0.004054  -0.059253  -0.000864  -0.000239   0.001639
    30  H    0.001331  -0.003170  -0.015670  -0.002956   0.000294   0.003383
    31  H   -0.001305   0.429519  -0.060580   0.021560   0.006347  -0.014427
              13         14         15         16         17         18
     1  C   -0.156448   0.466940   0.446788   0.003884  -0.021991  -0.078974
     2  C   -0.875750   0.019089  -0.012732  -0.003148   0.011922   0.012658
     3  C    0.016843   0.000821  -0.002727   0.481647   0.000236  -0.007924
     4  C   -0.083542  -0.005195  -0.054795  -0.002579   0.421026   0.531615
     5  C    0.006062  -0.000080  -0.000026  -0.017886   0.000119   0.000986
     6  O    0.004626  -0.000016  -0.000012   0.000878   0.000068  -0.000226
     7  C    0.190042  -0.081817  -0.031215  -0.002437   0.012121  -0.001795
     8  C    0.273573  -0.005511   0.002929  -0.072355   0.002712   0.000788
     9  C   -0.011486  -0.000151  -0.000260  -0.026758   0.000935  -0.004135
    10  C   -0.110433   0.000314   0.001762   0.012547  -0.002002   0.002320
    11  O   -0.015481  -0.002680   0.007950   0.001083  -0.003487   0.001324
    12  O   -0.076549  -0.000850   0.000879   0.004445  -0.002524   0.003664
    13  C    6.387661  -0.026499   0.011821  -0.001895  -0.048497  -0.072220
    14  H   -0.026499   0.477639  -0.009040  -0.000079  -0.000865   0.000407
    15  H    0.011821  -0.009040   0.480134   0.000069  -0.006774  -0.003081
    16  H   -0.001895  -0.000079   0.000069   0.435159  -0.000079   0.000233
    17  H   -0.048497  -0.000865  -0.006774  -0.000079   0.460623  -0.005080
    18  H   -0.072220   0.000407  -0.003081   0.000233  -0.005080   0.469128
    19  H    0.007508   0.002421  -0.002655  -0.000157  -0.001809  -0.001938
    20  H   -0.002120  -0.003084  -0.010379  -0.000084   0.001442  -0.002490
    21  H    0.000629  -0.000018   0.000069   0.004540  -0.000026  -0.000105
    22  H   -0.000086  -0.000000  -0.000045  -0.009764   0.000048  -0.000080
    23  H   -0.002628  -0.000087  -0.000069  -0.004468   0.000058   0.000190
    24  H    0.012181  -0.000228   0.000031   0.000051   0.000030  -0.000929
    25  H    0.518463  -0.004978  -0.001975   0.000199  -0.002206   0.001100
    26  H    0.445643  -0.001810   0.001027  -0.000307  -0.008671  -0.001337
    27  H   -0.096245   0.002339   0.000516  -0.000733   0.001245  -0.000122
    28  H    0.000548   0.000012   0.000008  -0.005523   0.000001  -0.000083
    29  H    0.000333  -0.000009  -0.000006  -0.001533   0.000015   0.000018
    30  H   -0.001133   0.000096   0.000183   0.000028   0.000219  -0.004955
    31  H    0.040015   0.001994   0.000918  -0.013614   0.000383   0.002256
              19         20         21         22         23         24
     1  C   -0.081122  -0.022617   0.002431  -0.000755  -0.002574   0.006199
     2  C    0.038948  -0.008232  -0.012098   0.007168   0.006669  -0.008744
     3  C    0.010483   0.003057  -0.021616  -0.036554  -0.033217   0.024094
     4  C   -0.006587   0.016212  -0.000749   0.000696   0.003501  -0.007089
     5  C    0.002543  -0.000148  -0.100038  -0.016482  -0.000614   0.010388
     6  O   -0.000086   0.000152  -0.011501   0.010725  -0.061427  -0.063126
     7  C    0.481697   0.423574  -0.000587  -0.000317  -0.000554  -0.000461
     8  C   -0.014528  -0.002541  -0.011950  -0.020275  -0.041092  -0.056858
     9  C    0.007556   0.000216   0.502950   0.447160   0.038928  -0.003033
    10  C   -0.021055   0.000792   0.029653  -0.017435   0.432118   0.435895
    11  O   -0.042908  -0.056530   0.000708  -0.000151  -0.002497   0.004316
    12  O   -0.001041   0.001692  -0.004655   0.002701   0.015856  -0.012447
    13  C    0.007508  -0.002120   0.000629  -0.000086  -0.002628   0.012181
    14  H    0.002421  -0.003084  -0.000018  -0.000000  -0.000087  -0.000228
    15  H   -0.002655  -0.010379   0.000069  -0.000045  -0.000069   0.000031
    16  H   -0.000157  -0.000084   0.004540  -0.009764  -0.004468   0.000051
    17  H   -0.001809   0.001442  -0.000026   0.000048   0.000058   0.000030
    18  H   -0.001938  -0.002490  -0.000105  -0.000080   0.000190  -0.000929
    19  H    0.523552  -0.016978  -0.000720   0.000779   0.004436  -0.001843
    20  H   -0.016978   0.475617  -0.000002   0.000016  -0.000466   0.000410
    21  H   -0.000720  -0.000002   0.480219  -0.017050  -0.001280  -0.000421
    22  H    0.000779   0.000016  -0.017050   0.484341   0.000873   0.001093
    23  H    0.004436  -0.000466  -0.001280   0.000873   0.496366  -0.014423
    24  H   -0.001843   0.000410  -0.000421   0.001093  -0.014423   0.473549
    25  H   -0.001427   0.001294   0.000237  -0.000006  -0.000008   0.000548
    26  H    0.000783   0.000684  -0.002050   0.000235   0.000065  -0.000366
    27  H    0.001184  -0.000059  -0.001910   0.000463   0.001551  -0.011383
    28  H   -0.000381   0.000016   0.000478   0.003019   0.007629  -0.002206
    29  H    0.000217  -0.000004  -0.004683  -0.007112  -0.001382   0.000691
    30  H   -0.001362   0.000311  -0.002184  -0.007874  -0.002021   0.001287
    31  H   -0.024838   0.000852   0.002043  -0.002382  -0.029654  -0.003865
              25         26         27         28         29         30
     1  C   -0.032134  -0.002748  -0.003081  -0.000021  -0.000212   0.000780
     2  C   -0.127076  -0.025285   0.550285  -0.004924   0.003367  -0.005515
     3  C    0.004518  -0.009567  -0.007396  -0.026130   0.011374   0.406108
     4  C   -0.004325  -0.041947  -0.002337  -0.000021   0.000103   0.001054
     5  C   -0.000264   0.001362   0.001691   0.455845   0.445848  -0.005365
     6  O   -0.000110   0.000220  -0.000816  -0.055683  -0.067252  -0.002932
     7  C    0.016863   0.006542  -0.014131   0.000151   0.000197   0.001331
     8  C    0.001506  -0.007373  -0.010354   0.034645   0.004054  -0.003170
     9  C   -0.000432   0.002918   0.003788  -0.022426  -0.059253  -0.015670
    10  C    0.001411  -0.000462  -0.009505  -0.030963  -0.000864  -0.002956
    11  O   -0.010628   0.008001  -0.061044   0.000167  -0.000239   0.000294
    12  O    0.009038  -0.004086  -0.062293   0.001124   0.001639   0.003383
    13  C    0.518463   0.445643  -0.096245   0.000548   0.000333  -0.001133
    14  H   -0.004978  -0.001810   0.002339   0.000012  -0.000009   0.000096
    15  H   -0.001975   0.001027   0.000516   0.000008  -0.000006   0.000183
    16  H    0.000199  -0.000307  -0.000733  -0.005523  -0.001533   0.000028
    17  H   -0.002206  -0.008671   0.001245   0.000001   0.000015   0.000219
    18  H    0.001100  -0.001337  -0.000122  -0.000083   0.000018  -0.004955
    19  H   -0.001427   0.000783   0.001184  -0.000381   0.000217  -0.001362
    20  H    0.001294   0.000684  -0.000059   0.000016  -0.000004   0.000311
    21  H    0.000237  -0.002050  -0.001910   0.000478  -0.004683  -0.002184
    22  H   -0.000006   0.000235   0.000463   0.003019  -0.007112  -0.007874
    23  H   -0.000008   0.000065   0.001551   0.007629  -0.001382  -0.002021
    24  H    0.000548  -0.000366  -0.011383  -0.002206   0.000691   0.001287
    25  H    0.446690  -0.008160  -0.004339  -0.000023  -0.000030  -0.000029
    26  H   -0.008160   0.479703  -0.013218  -0.000066   0.000195   0.000102
    27  H   -0.004339  -0.013218   0.500449   0.000117   0.000468   0.001130
    28  H   -0.000023  -0.000066   0.000117   0.501145  -0.005533   0.000885
    29  H   -0.000030   0.000195   0.000468  -0.005533   0.478429   0.000440
    30  H   -0.000029   0.000102   0.001130   0.000885   0.000440   0.479112
    31  H    0.000189  -0.002202  -0.004174   0.003650  -0.000806  -0.008162
              31
     1  C    0.002895
     2  C   -0.123838
     3  C    0.014346
     4  C   -0.005652
     5  C   -0.025442
     6  O    0.017244
     7  C   -0.001305
     8  C    0.429519
     9  C   -0.060580
    10  C    0.021560
    11  O    0.006347
    12  O   -0.014427
    13  C    0.040015
    14  H    0.001994
    15  H    0.000918
    16  H   -0.013614
    17  H    0.000383
    18  H    0.002256
    19  H   -0.024838
    20  H    0.000852
    21  H    0.002043
    22  H   -0.002382
    23  H   -0.029654
    24  H   -0.003865
    25  H    0.000189
    26  H   -0.002202
    27  H   -0.004174
    28  H    0.003650
    29  H   -0.000806
    30  H   -0.008162
    31  H    0.558255
 Mulliken charges:
               1
     1  C   -0.388350
     2  C   -0.122363
     3  C   -0.507784
     4  C   -0.273437
     5  C   -0.201966
     6  O   -0.279966
     7  C   -0.139425
     8  C   -0.065392
     9  C   -0.272689
    10  C   -0.300925
    11  O   -0.241839
    12  O   -0.230455
    13  C   -0.334936
    14  H    0.170926
    15  H    0.180704
    16  H    0.218636
    17  H    0.190808
    18  H    0.158788
    19  H    0.139326
    20  H    0.199397
    21  H    0.169688
    22  H    0.177049
    23  H    0.190220
    24  H    0.216659
    25  H    0.196098
    26  H    0.182176
    27  H    0.237913
    28  H    0.144542
    29  H    0.201534
    30  H    0.166586
    31  H    0.218475
 Sum of Mulliken charges =  -0.00000
 Mulliken charges with hydrogens summed into heavy atoms:
               1
     1  C   -0.036719
     2  C    0.115549
     3  C   -0.122562
     4  C    0.076160
     5  C    0.144110
     6  O   -0.279966
     7  C    0.199298
     8  C    0.153083
     9  C    0.074049
    10  C    0.105955
    11  O   -0.241839
    12  O   -0.230455
    13  C    0.043338
 Electronic spatial extent (au):  <R**2>=           2845.5547
 Charge=              0.0000 electrons
 Dipole moment (field-independent basis, Debye):
    X=             -1.6048    Y=              1.1475    Z=              3.0488  Tot=              3.6314
 Quadrupole moment (field-independent basis, Debye-Ang):
   XX=            -71.6869   YY=            -82.0644   ZZ=            -78.6187
   XY=              1.5061   XZ=              4.2586   YZ=             -2.8614
 Traceless Quadrupole moment (field-independent basis, Debye-Ang):
   XX=              5.7698   YY=             -4.6077   ZZ=             -1.1620
   XY=              1.5061   XZ=              4.2586   YZ=             -2.8614
 Octapole moment (field-independent basis, Debye-Ang**2):
  XXX=             -2.4736  YYY=             -2.7134  ZZZ=             -1.6139  XYY=              1.3322
  XXY=             13.1819  XXZ=             14.9611  XZZ=             -7.8422  YZZ=             -1.1398
  YYZ=              2.8220  XYZ=             -1.1899
 Hexadecapole moment (field-independent basis, Debye-Ang**3):
 XXXX=          -2701.2472 YYYY=           -550.0083 ZZZZ=           -420.6758 XXXY=             43.1817
 XXXZ=              8.8378 YYYX=             -0.8902 YYYZ=             -5.2108 ZZZX=              0.8724
 ZZZY=             -0.9604 XXYY=           -566.6220 XXZZ=           -537.2248 YYZZ=           -159.4697
 XXYZ=            -26.7009 YYXZ=             -0.0209 ZZXY=              8.5049
 N-N= 9.058855167329D+02 E-N=-3.253844463197D+03  KE= 6.153277262401D+02
 D1PCM: PCM CHGder 1st derivatives, ID1Alg=3 FixD1E=F DoIter=F DoCFld=F I1PDM=0.
 Calling FoFJK, ICntrl=      2127 FMM=F ISym2X=0 I1Cent= 0 IOpClX= 0 NMat=1 NMatS=1 NMatT=0.
 ***** Axes restored to original set *****
 -------------------------------------------------------------------
 Center     Atomic                   Forces (Hartrees/Bohr)
 Number     Number              X              Y              Z
 -------------------------------------------------------------------
      1        6          -0.002460856    0.001182095   -0.000994362
      2        6          -0.002268258   -0.005920703   -0.000334189
      3        6          -0.001105918   -0.001686799    0.003707204
      4        6          -0.000895167   -0.003845782    0.001291355
      5        6           0.006667952    0.001581366   -0.001655184
      6        8          -0.000017221   -0.002226196    0.008308213
      7        6           0.001272562    0.005367878    0.005522777
      8        6          -0.003628610   -0.002625549    0.008487852
      9        6          -0.000037200   -0.001997429   -0.001585545
     10        6          -0.002344424    0.006208156   -0.001008895
     11        8           0.001122099   -0.005537035   -0.000279722
     12        8           0.002741151    0.018460895   -0.008263756
     13        6          -0.000390256    0.000188433   -0.002632662
     14        1           0.001523222   -0.001627652    0.002462225
     15        1           0.001567573    0.000784980   -0.002209452
     16        1          -0.001655014   -0.001723815   -0.002733804
     17        1           0.001829979    0.001597726    0.000625774
     18        1          -0.002814561    0.000994853   -0.002214683
     19        1          -0.003364348    0.003398708   -0.005155531
     20        1           0.001681911   -0.003959214   -0.001403336
     21        1           0.002003956    0.000818412    0.002674924
     22        1          -0.001600454    0.001863169   -0.001583327
     23        1          -0.002236250   -0.002964373   -0.005343377
     24        1           0.004293178   -0.002720092    0.002627119
     25        1           0.002265082   -0.001632172    0.002199848
     26        1          -0.001982496    0.002448278    0.000949513
     27        1          -0.001304082   -0.004062342    0.006541468
     28        1          -0.002835569   -0.002079540   -0.005281590
     29        1          -0.002865672    0.001230294    0.003086039
     30        1           0.002313618    0.002065807   -0.000418534
     31        1           0.004524072   -0.003582355   -0.005386358
 -------------------------------------------------------------------
 Cartesian Forces:  Max     0.018460895 RMS     0.003741024

 GradGradGradGradGradGradGradGradGradGradGradGradGradGradGradGradGradGrad
 Berny optimization.
 FormGI is forming the generalized inverse of G from B-inverse, IUseBI=4.
 Internal  Forces:  Max     0.017311610 RMS     0.002309439
 Search for a local minimum.
 Step number   1 out of a maximum of  186
 All quantities printed in internal units (Hartrees-Bohrs-Radians)
 Mixed Optimization -- RFO/linear search
 Second derivative matrix not updated -- first step.
 ITU=  0
     Eigenvalues ---    0.00613   0.00665   0.00718   0.00746   0.01318
     Eigenvalues ---    0.01431   0.01451   0.02672   0.02826   0.03072
     Eigenvalues ---    0.03099   0.04122   0.04357   0.04711   0.04744
     Eigenvalues ---    0.04796   0.04896   0.05064   0.05064   0.05219
     Eigenvalues ---    0.05307   0.05764   0.05845   0.06148   0.06214
     Eigenvalues ---    0.06272   0.06613   0.06729   0.07349   0.07721
     Eigenvalues ---    0.07884   0.07952   0.07967   0.08186   0.08273
     Eigenvalues ---    0.08377   0.09009   0.09429   0.10827   0.11686
     Eigenvalues ---    0.11712   0.11728   0.11796   0.12513   0.12546
     Eigenvalues ---    0.14578   0.15066   0.16241   0.16478   0.17561
     Eigenvalues ---    0.19417   0.21793   0.21817   0.25000   0.28564
     Eigenvalues ---    0.28698   0.28791   0.29042   0.29090   0.29198
     Eigenvalues ---    0.30156   0.30442   0.35030   0.35058   0.35109
     Eigenvalues ---    0.35117   0.35120   0.35185   0.35245   0.35261
     Eigenvalues ---    0.35299   0.35344   0.35395   0.35478   0.35546
     Eigenvalues ---    0.35784   0.35809   0.35877   0.35931   0.36260
     Eigenvalues ---    0.40220   0.41536   0.42156   0.42737   0.43515
     Eigenvalues ---    0.445241000.000001000.000001000.000001000.00000
     Eigenvalues --- 1000.000001000.000001000.000001000.000001000.00000
     Eigenvalues --- 1000.000001000.000001000.000001000.000001000.00000
     Eigenvalues --- 1000.000001000.000001000.000001000.000001000.00000
     Eigenvalues --- 1000.000001000.000001000.000001000.000001000.00000
     Eigenvalues --- 1000.000001000.000001000.000001000.000001000.00000
     Eigenvalues --- 1000.000001000.000001000.000001000.000001000.00000
     Eigenvalues --- 1000.000001000.000001000.000001000.000001000.00000
     Eigenvalues --- 1000.000001000.000001000.000001000.000001000.00000
     Eigenvalues --- 1000.000001000.000001000.000001000.000001000.00000
     Eigenvalues --- 1000.000001000.000001000.000001000.000001000.00000
     Eigenvalues --- 1000.000001000.000001000.000001000.000001000.00000
     Eigenvalues --- 1000.000001000.000001000.000001000.000001000.00000
     Eigenvalues --- 1000.000001000.000001000.000001000.000001000.00000
     Eigenvalues --- 1000.000001000.000001000.000001000.000001000.00000
     Eigenvalues --- 1000.000001000.000001000.000001000.000001000.00000
     Eigenvalues --- 1000.000001000.000001000.000001000.000001000.00000
     Eigenvalues --- 1000.000001000.000001000.000001000.000001000.00000
     Eigenvalues --- 1000.000001000.000001000.000001000.000001000.00000
     Eigenvalues --- 1000.000001000.000001000.000001000.000001000.00000
 RFO step:  Lambda=-4.05819201D-03 EMin= 6.13075773D-03
 Linear search not attempted -- first point.
 Iteration  1 RMS(Cart)=  0.06677404 RMS(Int)=  0.00092714
 Iteration  2 RMS(Cart)=  0.00270555 RMS(Int)=  0.00005401
 Iteration  3 RMS(Cart)=  0.00000330 RMS(Int)=  0.00005398
 Iteration  4 RMS(Cart)=  0.00000000 RMS(Int)=  0.00005398
 Iteration  1 RMS(Cart)=  0.00005826 RMS(Int)=  0.00001213
 Iteration  2 RMS(Cart)=  0.00003044 RMS(Int)=  0.00001356
 Iteration  3 RMS(Cart)=  0.00001590 RMS(Int)=  0.00001524
 Iteration  4 RMS(Cart)=  0.00000831 RMS(Int)=  0.00001630
 Iteration  5 RMS(Cart)=  0.00000434 RMS(Int)=  0.00001689
 Iteration  6 RMS(Cart)=  0.00000227 RMS(Int)=  0.00001720
 Iteration  7 RMS(Cart)=  0.00000118 RMS(Int)=  0.00001737
 Iteration  8 RMS(Cart)=  0.00000062 RMS(Int)=  0.00001746
 Variable       Old X    -DE/DX   Delta X   Delta X   Delta X     New X
                                 (Linear)    (Quad)   (Total)
    R1        2.88436  -0.00135   0.00000  -0.00285  -0.00289   2.88147
    R2        2.86744  -0.00036   0.00000  -0.00035  -0.00038   2.86706
    R3        2.05485   0.00324   0.00000   0.00912   0.00912   2.06397
    R4        2.05253   0.00280   0.00000   0.00786   0.00786   2.06039
    R5        2.64141   0.00322   0.00000   0.00593   0.00597   2.64738
    R6        2.67039   0.00283   0.00000   0.00643   0.00643   2.67682
    R7        2.87456  -0.00053   0.00000  -0.00267  -0.00264   2.87192
    R8        2.04420   0.00772   0.00000   0.02134   0.02134   2.06554
    R9        2.88409  -0.00201   0.00000  -0.00704  -0.00707   2.87702
   R10        2.89143  -0.00113   0.00000  -0.00424  -0.00426   2.88717
   R11        2.05480   0.00360   0.00000   0.01013   0.01013   2.06494
   R12        2.05038   0.00303   0.00000   0.00846   0.00846   2.05884
   R13        2.88379  -0.00131   0.00000  -0.00435  -0.00434   2.87945
   R14        2.05120   0.00251   0.00000   0.00702   0.00702   2.05822
   R15        2.05498   0.00358   0.00000   0.01007   0.01007   2.06505
   R16        2.67558   0.00307   0.00000   0.00735   0.00737   2.68295
   R17        2.87341   0.00054   0.00000   0.00144   0.00142   2.87483
   R18        2.05627   0.00625   0.00000   0.01764   0.01764   2.07391
   R19        2.04381   0.00439   0.00000   0.01211   0.01211   2.05592
   R20        2.66864   0.00240   0.00000   0.00574   0.00576   2.67440
   R21        2.69658   0.00286   0.00000   0.00677   0.00676   2.70335
   R22        2.04798   0.00697   0.00000   0.01938   0.01938   2.06736
   R23        2.04274   0.00452   0.00000   0.01246   0.01246   2.05519
   R24        2.88025   0.00022   0.00000   0.00110   0.00112   2.88137
   R25        2.67996  -0.00012   0.00000  -0.00028  -0.00028   2.67968
   R26        2.03677   0.00788   0.00000   0.02149   0.02149   2.05826
   R27        2.05192   0.00323   0.00000   0.00906   0.00906   2.06098
   R28        2.05280   0.00290   0.00000   0.00813   0.00813   2.06092
   R29        2.05581   0.00645   0.00000   0.01820   0.01820   2.07401
   R30        2.04190   0.00550   0.00000   0.01513   0.01513   2.05703
   R31        2.05375   0.00353   0.00000   0.00992   0.00992   2.06368
   R32        2.04906   0.00323   0.00000   0.00901   0.00901   2.05807
    A1        1.91329  -0.00137   0.00000  -0.00596  -0.00616   1.90713
    A2        1.91768   0.00088   0.00000   0.00164   0.00172   1.91940
    A3        1.94459  -0.00023   0.00000  -0.00089  -0.00087   1.94373
    A4        1.91697   0.00019   0.00000  -0.00192  -0.00188   1.91509
    A5        1.89359   0.00063   0.00000   0.00378   0.00386   1.89744
    A6        1.87722  -0.00006   0.00000   0.00352   0.00349   1.88071
    A7        1.98470  -0.00078   0.00000  -0.01854  -0.01845   1.96625
    A8        1.98313   0.00213   0.00000   0.01128   0.01090   1.99403
    A9        1.81042   0.00038   0.00000  -0.00156  -0.00150   1.80892
   A10        1.90607  -0.00397   0.00000  -0.01830  -0.01837   1.88771
   A11        1.86326   0.00350   0.00000   0.02485   0.02496   1.88822
   A12        1.90921  -0.00084   0.00000   0.00573   0.00576   1.91497
   A13        1.94727   0.00038   0.00000  -0.00939  -0.00946   1.93781
   A14        1.87954  -0.00020   0.00000   0.00396   0.00397   1.88351
   A15        1.91415  -0.00051   0.00000  -0.00608  -0.00605   1.90810
   A16        1.90752  -0.00022   0.00000   0.00417   0.00420   1.91171
   A17        1.93995   0.00022   0.00000   0.00203   0.00195   1.94191
   A18        1.87289   0.00032   0.00000   0.00606   0.00605   1.87894
   A19        1.89759   0.00192   0.00000  -0.00012  -0.00007   1.89752
   A20        1.93554  -0.00025   0.00000   0.00207   0.00209   1.93763
   A21        1.91582  -0.00085   0.00000  -0.00207  -0.00215   1.91367
   A22        1.91677  -0.00058   0.00000   0.00182   0.00182   1.91859
   A23        1.92849  -0.00087   0.00000  -0.00611  -0.00615   1.92235
   A24        1.86979   0.00057   0.00000   0.00438   0.00439   1.87418
   A25        1.93745   0.00128   0.00000   0.00755   0.00748   1.94494
   A26        1.90116   0.00097   0.00000   0.00757   0.00763   1.90879
   A27        1.85670  -0.00112   0.00000  -0.00434  -0.00432   1.85238
   A28        1.92956  -0.00124   0.00000  -0.00825  -0.00826   1.92130
   A29        1.94594  -0.00033   0.00000  -0.00325  -0.00325   1.94269
   A30        1.89074   0.00047   0.00000   0.00106   0.00103   1.89177
   A31        1.97804  -0.00382   0.00000  -0.02492  -0.02484   1.95320
   A32        1.96474   0.00233   0.00000   0.00678   0.00667   1.97141
   A33        1.91334  -0.00145   0.00000  -0.00702  -0.00704   1.90630
   A34        1.94908  -0.00052   0.00000  -0.00329  -0.00324   1.94584
   A35        1.91435   0.00022   0.00000   0.00446   0.00455   1.91889
   A36        1.83289  -0.00115   0.00000  -0.00200  -0.00199   1.83090
   A37        1.88662   0.00056   0.00000   0.00134   0.00131   1.88792
   A38        1.91840   0.00057   0.00000   0.00157   0.00149   1.91989
   A39        1.87303   0.00006   0.00000  -0.00360  -0.00358   1.86945
   A40        1.91300  -0.00018   0.00000   0.00561   0.00563   1.91863
   A41        1.93998  -0.00052   0.00000  -0.00478  -0.00475   1.93523
   A42        1.89089  -0.00044   0.00000  -0.00455  -0.00454   1.88635
   A43        1.92862   0.00053   0.00000   0.00600   0.00598   1.93460
   A44        1.92427  -0.00033   0.00000  -0.00606  -0.00611   1.91815
   A45        1.92747   0.00038   0.00000  -0.00272  -0.00272   1.92476
   A46        1.92571  -0.00064   0.00000  -0.00058  -0.00057   1.92515
   A47        1.90651  -0.00031   0.00000  -0.00165  -0.00170   1.90481
   A48        1.90643   0.00066   0.00000   0.00527   0.00531   1.91174
   A49        1.87257   0.00026   0.00000   0.00615   0.00614   1.87871
   A50        1.95341   0.00094   0.00000   0.00431   0.00433   1.95774
   A51        1.91239   0.00106   0.00000   0.01063   0.01061   1.92300
   A52        1.85969  -0.00024   0.00000   0.00058   0.00056   1.86025
   A53        1.90398  -0.00097   0.00000  -0.00243  -0.00251   1.90147
   A54        1.94130  -0.00147   0.00000  -0.01610  -0.01612   1.92518
   A55        1.89177   0.00074   0.00000   0.00342   0.00336   1.89513
   A56        2.07260  -0.00445   0.00000  -0.03289  -0.03274   2.03987
   A57        2.13263  -0.01731   0.00000  -0.06814  -0.06814   2.06449
   A58        1.96728  -0.00073   0.00000  -0.01281  -0.01288   1.95440
   A59        1.87192  -0.00005   0.00000   0.00609   0.00610   1.87802
   A60        1.89106   0.00021   0.00000  -0.00478  -0.00483   1.88623
   A61        1.90300   0.00108   0.00000   0.00970   0.00979   1.91279
   A62        1.95387  -0.00058   0.00000  -0.00337  -0.00355   1.95033
   A63        1.87263   0.00013   0.00000   0.00649   0.00650   1.87912
    D1        0.99364  -0.00003   0.00000   0.00584   0.00580   0.99945
    D2        3.10277   0.00034   0.00000   0.00931   0.00932   3.11208
    D3       -1.11775   0.00036   0.00000   0.01467   0.01467  -1.10308
    D4       -1.11459   0.00005   0.00000   0.01096   0.01094  -1.10365
    D5        0.99453   0.00042   0.00000   0.01442   0.01445   1.00898
    D6        3.05720   0.00044   0.00000   0.01979   0.01980   3.07700
[...]
 5474,0.00129359,0.00339371,0.00089711,-0.00369605,0.00007752,0.0000814
 0,0.00005917,-0.00004464,-0.00006708,-0.00000677,0.00000142,-0.0000065
 2,-0.00000523,-0.00001143,0.00000288,-0.00000051,-0.00002660,-0.000032
 89,0.00000567,0.00000933,0.00001317,0.00000898,0.11978183,-0.07815775,
 0.19108259,-0.00142247,-0.00193791,0.00365916,0.01074932,-0.01760124,-
 0.00939795,0.00001402,0.00007009,0.00003771,-0.00749254,0.01448583,0.0
 0480801,-0.00001025,-0.00000333,0.00000315,-0.00000580,0.00001766,-0.0
 0000829,-0.00113793,-0.00036523,0.00101483,0.00037289,-0.00006827,0.00
 001122,-0.00000740,-0.00000456,-0.00000464,0.00004404,-0.00001544,0.00
 006524,-0.00267027,-0.00585576,-0.00337959,0.00028187,-0.00030577,-0.0
 0012660,-0.10092070,0.09898253,0.04633610,0.00020653,-0.00043895,-0.00
 014524,-0.00009272,0.00114739,0.00081312,0.00001624,-0.00001624,0.0000
 1708,0.00015283,0.00010113,-0.00069844,0.00075880,-0.00035023,-0.00025
 532,0.00012304,0.00004800,-0.00011578,0.00017403,0.00012721,-0.0001103
 3,0.00000523,0.00000920,0.00000735,0.00000533,-0.00000056,-0.00000031,
 0.00000934,0.00002720,-0.00000332,0.00002533,0.00002083,-0.00002628,-0
 .00829805,0.01536816,0.00780567,0.10859895,-0.00111523,0.00032100,0.00
 174779,0.01340117,-0.01806813,-0.00833027,-0.00003382,-0.00001266,0.00
 000099,-0.00445102,0.00938267,0.00364459,-0.00000842,-0.00000100,0.000
 00467,-0.00002725,0.00000800,-0.00001417,-0.00074573,-0.00000462,0.001
 60375,-0.00002910,0.00038781,-0.00031985,-0.00000951,0.00000516,-0.000
 00782,0.00011581,0.00001845,0.00018355,-0.00367034,-0.00435226,-0.0024
 3449,0.00128785,0.00146732,0.00159825,0.09506838,-0.22711780,-0.084362
 55,-0.00008799,0.00006079,0.00002462,-0.00030084,0.00042974,0.00034743
 ,0.00000114,-0.00000045,-0.00000040,0.00041919,0.00039630,-0.00070021,
 0.00044242,0.00034687,-0.00058432,0.00006948,0.00006742,-0.00020387,0.
 00013169,0.00001746,-0.00011797,-0.00000358,0.00000159,-0.00000184,-0.
 00000052,0.00000148,0.00000385,0.00002023,0.00005529,-0.00003574,0.000
 03303,0.00005512,-0.00003016,0.00402685,-0.00914353,-0.00378613,-0.104
 24926,0.24517163,0.00282069,0.00300615,-0.00416443,0.00254715,-0.00592
 712,-0.00480373,0.00000519,0.00003116,0.00003776,0.01094298,-0.0229161
 5,-0.01014750,-0.00000878,-0.00000396,0.00000156,0.00000084,0.00000565
 ,-0.00000819,0.00030860,0.00047840,0.00049962,-0.00001184,-0.00001610,
 -0.00009284,-0.00000931,0.00000195,0.00000111,0.00003101,0.00001748,0.
 00007908,-0.00099188,-0.00141333,0.00058387,0.00043504,0.00037529,0.00
 054128,0.04448336,-0.08189182,-0.08561301,0.00015262,-0.00015012,0.000
 19419,0.00055374,-0.00153780,-0.00056666,0.00001850,-0.00001022,0.0000
 0969,-0.00041320,0.00030400,0.00111986,-0.00088925,-0.00018648,0.00088
 252,-0.00006110,0.00002565,-0.00004002,-0.00006482,-0.00007032,0.00004
 032,-0.00000389,0.00000354,0.00000228,0.00000398,-0.00000114,0.0000003
 0,0.00002164,0.00002613,-0.00001131,0.00000957,0.00002183,-0.00000913,
 -0.00862019,0.01879209,0.00941226,-0.05093899,0.09116785,0.09200657,0.
 00049699,-0.00010415,-0.00024359,-0.07856907,-0.04218995,0.07408927,-0
 .00050526,-0.00056404,-0.00058717,-0.00180410,-0.00333568,-0.00241349,
 0.00004529,0.00010539,0.00001389,0.00009181,0.00001309,0.00034421,0.00
 229597,0.00166259,0.00015037,0.00223633,0.00386201,0.00029147,0.000037
 32,-0.00004348,-0.00010241,0.00014613,-0.00045110,0.00006066,-0.006200
 21,0.00275508,0.01618425,-0.00338585,0.01931619,-0.03333721,-0.0087644
 6,-0.01054113,0.01922738,-0.00007448,0.00007732,-0.00008281,-0.0000211
 7,0.00004954,0.00003650,-0.00034507,0.00009063,-0.00011072,-0.00082985
 ,-0.00026153,0.00109322,0.00007909,-0.00006365,0.00015574,-0.00020294,
 -0.00015411,0.00052192,-0.00023810,0.00002199,0.00038737,0.00002336,-0
 .00000428,0.00002691,-0.00005341,0.00002978,0.00002619,0.00005704,-0.0
 0002358,0.00006269,-0.00026481,-0.00038806,-0.00007990,0.00027544,0.00
 041280,0.00035702,0.00048019,-0.00034586,-0.00037101,0.09518893,0.0002
 4673,-0.00033087,-0.00041278,-0.04752741,-0.09132201,0.09122792,0.0002
 7714,0.00039912,0.00044889,-0.00259425,-0.00275035,-0.00285800,-0.0001
 2633,0.00000501,-0.00003480,0.00025855,-0.00001743,-0.00005181,-0.0011
 4079,-0.00335035,-0.00236731,-0.00232911,-0.00285587,-0.00086639,-0.00
 003466,-0.00002629,0.00004915,0.00002618,0.00001273,0.00029273,0.01913
 497,0.00296884,-0.03526605,0.01251193,-0.00602592,0.01867462,-0.011474
 96,-0.00682759,0.02022357,0.00002535,0.00011529,0.00007749,0.00008925,
 0.00026190,0.00017792,0.00024853,-0.00011125,0.00007281,-0.00090478,-0
 .00026133,0.00134512,0.00025220,-0.00001292,-0.00004370,0.00037890,0.0
 0012056,-0.00071704,0.00071406,0.00008908,-0.00088702,-0.00000021,0.00
 001504,0.00001337,0.00005961,-0.00001860,-0.00000516,0.00020413,0.0001
 6911,0.00000765,-0.00017631,-0.00005792,-0.00015249,0.00026334,0.00094
 038,-0.00041130,0.00082787,0.00047589,-0.00016851,0.03050240,0.1080254
 1,-0.00003265,-0.00009743,-0.00031848,0.07289887,0.08197211,-0.2267095
 1,-0.00037536,-0.00051593,-0.00040755,-0.00086671,-0.00137774,0.000536
 90,0.00010876,0.00007454,-0.00001057,-0.00026322,-0.00015428,0.0001073
 3,-0.00218682,-0.00392238,0.00193494,0.00187217,0.00261618,0.00139629,
 0.00003176,0.00005909,-0.00008736,-0.00017992,0.00016793,-0.00047493,0
 .01781780,-0.00336113,-0.02661030,-0.01119462,0.01509478,-0.01604440,-
 0.00314612,-0.00174935,0.00691245,0.00004857,0.00004372,0.00005536,0.0
 0009982,0.00017657,0.00003957,-0.00029618,0.00010761,-0.00011476,-0.00
 028984,-0.00012277,0.00023205,-0.00008697,-0.00008641,0.00011968,0.000
 06444,0.00012812,-0.00028629,0.00075272,0.00012928,-0.00092665,0.00001
 266,-0.00002854,-0.00002948,-0.00008056,0.00001568,0.00001839,-0.00006
 204,-0.00026736,0.00011465,-0.00012615,-0.00038839,-0.00006009,0.00041
 669,0.00016059,0.00078703,0.00059722,0.00048390,-0.00002373,-0.0754986
 0,-0.08887706,0.25991455,-0.00000075,0.00000251,0.00000151,0.00014751,
 -0.00003574,0.00006302,0.00035762,0.00030244,-0.00122543,-0.00000288,-
 0.00000307,-0.00000771,-0.09909865,-0.05418590,-0.07315166,-0.02116573
 ,0.00206738,-0.02433061,0.00002144,-0.00000218,-0.00001511,-0.00042361
 ,0.00023400,0.00028840,-0.00587312,-0.00986716,-0.01102172,0.00191139,
 -0.00267698,-0.00411536,-0.00005883,0.00003601,0.00001173,-0.00006215,
 0.00004115,0.00010541,-0.00000211,0.00000542,0.00000791,-0.00000258,-0
 .00000144,-0.00000212,-0.00000348,-0.00000104,0.00000144,-0.00019517,-
 0.00003062,0.00037245,-0.00000418,-0.00000248,0.00000294,0.00000020,0.
 00000223,-0.00000057,0.00000180,0.00000211,-0.00000723,-0.00000595,0.0
 0000366,0.00000153,-0.00034979,-0.00243650,0.00093791,0.00047208,-0.00
 001862,0.00020776,0.00017512,0.00036391,0.00096328,0.00016841,0.000237
 84,0.00036067,-0.00000687,-0.00000275,-0.00000262,-0.00000002,-0.00000
 066,0.00000123,0.00000601,0.00000807,0.00000244,0.11237973,-0.00000096
 ,-0.00000113,0.00000164,0.00009250,-0.00005337,0.00011462,0.00128899,0
 .00090413,-0.00085122,0.00000094,0.00000301,-0.00000194,-0.05527192,-0
 .11141971,-0.09434701,0.01947487,0.00710401,0.02119281,0.00001428,0.00
 000077,-0.00001522,0.00001347,-0.00026249,-0.00025963,-0.01335276,-0.0
 1537031,-0.02187829,-0.00116814,0.00253662,0.00389875,-0.00005738,0.00
 005655,0.00000503,-0.00022543,0.00005088,-0.00013287,-0.00000135,0.000
 00887,-0.00001150,-0.00000138,0.00000028,-0.00000082,-0.00000139,-0.00
 000045,0.00000097,-0.00030218,0.00034996,0.00071419,-0.00000127,-0.000
 00075,0.00000041,0.00000061,0.00000112,-0.00000142,0.00000097,-0.00000
 176,-0.00000109,-0.00000271,0.00000118,0.00000208,-0.00296361,-0.00401
 982,0.00283494,0.00068444,0.00076279,0.00004445,-0.00130281,-0.0001184
 8,-0.00062181,-0.00018939,-0.00001321,0.00001044,-0.00000822,-0.000002
 11,-0.00000149,0.00000166,0.00000156,0.00000158,-0.00002380,0.00001189
 ,-0.00002471,0.05618948,0.12177639,-0.00000416,0.00000333,0.00000523,0
 .00029388,-0.00015892,0.00015022,-0.00013846,0.00038488,0.00113516,-0.
 00000346,-0.00000233,-0.00001228,-0.07630350,-0.09227134,-0.18433681,-
 0.01805972,0.00354340,-0.01564947,0.00004605,-0.00000879,-0.00003832,-
 0.00005540,0.00037293,0.00007487,0.00630164,0.00535866,0.00829446,0.00
 356649,-0.00049448,0.00033725,-0.00013559,0.00003440,0.00002452,-0.000
 37830,-0.00019905,-0.00010388,-0.00002023,0.00002498,-0.00000350,-0.00
 000476,-0.00000277,-0.00000466,-0.00000689,-0.00000253,0.00000309,-0.0
 0050367,0.00000764,0.00005310,-0.00000818,-0.00000468,0.00000339,0.000
 00126,0.00000393,-0.00000095,0.00000217,0.00000420,-0.00001336,-0.0000
 1141,0.00000713,0.00000271,0.00164666,0.00203955,0.00019920,-0.0005725
 3,-0.00093634,0.00042398,-0.00096892,0.00039731,0.00086643,0.00001613,
 0.00031526,0.00033393,-0.00001968,-0.00000784,-0.00000491,0.00000167,0
 .00000116,0.00000136,0.00001273,0.00002565,-0.00001665,0.09516270,0.09
 358512,0.20371622,-0.00000798,0.00000397,0.00001188,0.00032645,-0.0001
 1724,0.00017791,0.00021585,-0.00300884,0.00025414,-0.00000602,-0.00000
 232,-0.00001474,-0.16359288,0.03511779,0.12275320,-0.02312245,0.013485
 60,0.01512441,0.00006345,-0.00001428,-0.00006910,0.00045477,0.00043769
 ,0.00012756,-0.00886413,0.00195998,0.01121060,-0.00040077,0.00127776,-
 0.00464773,-0.00021905,0.00002468,0.00003820,-0.00040445,-0.00004865,-
 0.00022508,-0.00002193,0.00003034,-0.00000848,-0.00000656,-0.00000282,
 -0.00000602,-0.00001022,-0.00000550,0.00000347,-0.00001958,0.00011710,
 0.00021799,-0.00001047,-0.00000634,0.00000496,0.00000241,0.00000549,-0
 .00000067,0.00000714,0.00000280,-0.00001494,-0.00001509,0.00000936,0.0
 0000421,0.00028626,0.00061655,-0.00040623,0.00029678,-0.00024284,0.000
 08101,0.00007881,0.00017706,0.00037984,-0.00082744,0.00039736,0.000865
 57,-0.00002558,-0.00001027,-0.00000624,0.00000181,-0.00000218,0.000001
 72,-0.00001525,0.00002965,-0.00002020,0.01148980,-0.00317422,-0.009542
 56,0.18491413,0.00000696,-0.00000058,-0.00001278,-0.00005065,-0.000089
 26,-0.00003707,-0.00210413,-0.00542771,0.00116953,0.00000395,-0.000001
 50,0.00000488,0.03360425,-0.06077197,-0.03973860,0.02224155,-0.0106297
 3,-0.01580796,-0.00000881,0.00000905,0.00003960,0.00037776,-0.00079804
 ,0.00004044,-0.01970587,0.00805815,0.02085593,0.00173113,-0.00175348,0
 .00381479,0.00009510,0.00006648,-0.00003068,0.00001040,0.00025847,-0.0
 0008019,-0.00000440,0.00000774,-0.00001377,0.00000039,0.00000027,0.000
 00146,0.00000477,0.00000370,-0.00000017,0.00016459,0.00001981,0.000089
 17,0.00000138,0.00000222,-0.00000132,0.00000040,0.00000036,0.00000012,
 0.00000714,-0.00000314,-0.00000120,0.00000379,-0.00000171,-0.00000186,
 0.00057556,0.00120890,-0.00073937,0.00104093,0.00084438,-0.00051575,-0
 .00022354,0.00009292,0.00010979,0.00115839,-0.00022402,-0.00067598,-0.
 00000090,-0.00000251,-0.00000007,0.00000191,0.00000249,0.00000207,-0.0
 0001283,0.00000641,-0.00002281,0.00975438,-0.00254130,-0.01182739,-0.0
 4724302,0.07096470,-0.00000158,0.00000101,0.00000102,-0.00012425,0.000
 10954,-0.00004292,0.00082172,0.00299005,0.00052639,-0.00000072,0.00000
 240,0.00000476,0.13282800,-0.04620788,-0.19512277,-0.01454135,0.006101
 12,0.01375804,-0.00002564,-0.00000084,0.00001137,-0.00063199,0.0003585
 8,-0.00007032,0.00541225,-0.00347273,-0.00679633,-0.00209066,0.0017614
 7,-0.00048406,0.00004169,-0.00005762,-0.00000472,0.00024505,-0.0000914
 6,0.00012156,0.00001101,-0.00002051,0.00000959,0.00000162,0.00000040,0
 .00000169,0.00000168,-0.00000004,-0.00000152,-0.00034073,0.00005617,0.
 00035439,0.00000428,0.00000137,-0.00000154,-0.00000193,-0.00000246,0.0
 0000104,-0.00000454,0.00000217,0.00000315,0.00000326,-0.00000237,-0.00
 000206,-0.00017209,0.00033340,0.00087272,-0.00013296,0.00011738,-0.000
 00210,-0.00004046,0.00026049,0.00029868,-0.00037076,0.00033731,0.00049
 138,0.00001269,0.00000622,0.00000283,-0.00000133,-0.00000090,-0.000001
 61,0.00001734,-0.00001443,0.00002088,0.01512525,-0.00442748,-0.0155626
 6,-0.13692640,0.04233761,0.20196739,0.00000622,-0.00001224,0.00002108,
 0.00007968,0.00017084,0.00014232,-0.12408741,-0.11522150,0.04128443,-0
 .00002636,0.00005349,-0.00004625,-0.00359208,0.00406176,0.00325900,0.0
 0113001,-0.00088166,-0.00018498,-0.00000861,0.00000528,-0.00007533,0.0
 1106978,0.01786401,-0.00748937,-0.01226751,-0.01949090,0.00544376,-0.0
 0345333,0.00276851,-0.00164320,-0.00004916,-0.00005732,0.00001012,0.00
 159074,0.00003084,0.00142057,0.00002526,-0.00006465,0.00003451,0.00000
 534,0.00000010,0.00000256,-0.00000078,-0.00000223,-0.00000268,-0.00736
 467,-0.01020396,0.00387928,0.00001106,-0.00000738,0.00000417,0.0000960
 8,-0.00004032,0.00007514,0.00004073,-0.00004897,0.00004031,0.00000806,
 -0.00000221,0.00000607,0.00108603,0.00028058,-0.00023071,0.00041093,-0
 .00004478,-0.00083750,-0.00005530,-0.00002247,-0.00001652,0.00066919,0
 .00093604,-0.00062314,0.00002106,0.00001758,0.00000585,-0.00000245,-0.
 00000369,0.00000280,0.00004595,-0.00001257,0.00004530,0.00023624,0.000
 31481,-0.00018463,-0.00048769,-0.00146252,0.00088856,0.13397248,0.0000
 2071,-0.00001744,-0.00000157,0.00013447,0.00025042,-0.00039829,-0.1133
 8595,-0.21807150,0.06123604,-0.00000485,0.00000900,-0.00001122,0.00223
 827,-0.00025631,-0.00131299,-0.00108160,0.00057714,0.00011326,-0.00005
 376,0.00001588,0.00006051,-0.01353055,-0.02093798,0.00619622,0.0058656
 4,0.00983971,-0.00320020,0.00580922,-0.00193647,0.00106997,0.00017132,
 0.00003792,0.00004118,-0.00096382,0.00195460,-0.00132381,0.00006019,-0
 .00005928,0.00004431,0.00000769,0.00000705,0.00000380,0.00000935,0.000
 00624,-0.00000293,-0.00547209,-0.00957022,0.00304856,0.00000420,0.0000
 0522,-0.00000375,0.00005945,-0.00002383,0.00003676,0.00002449,-0.00005
 372,0.00004140,0.00001345,-0.00000781,0.00000032,-0.00056659,0.0004581
 7,0.00046707,-0.00061397,0.00035092,0.00060574,0.00006275,0.00032972,-
 0.00020010,-0.00096494,-0.00098424,0.00094676,0.00002601,0.00001324,0.
 00000577,-0.00000052,-0.00000306,0.00000096,-0.00010587,0.00005766,-0.
 00008726,0.00010121,0.00006335,-0.00007759,0.00034548,0.00045301,-0.00
 029048,0.12193330,0.23684709,-0.00000998,0.00001911,-0.00000787,-0.000
 19095,0.00012323,0.00012241,0.04003384,0.05876062,-0.06885080,0.000000
 73,0.00000114,0.00001777,0.00329273,-0.00344327,-0.00201145,-0.0004915
 3,-0.00016477,0.00044960,-0.00000718,-0.00003075,0.00005620,0.00583791
 ,0.01220643,-0.00596817,0.01181294,0.01803535,-0.00706140,-0.00263978,
 0.00081612,-0.00030849,0.00001698,-0.00013510,-0.00007735,0.00133702,-
 0.00019103,0.00118258,0.00001108,-0.00002630,-0.00000265,-0.00000458,-
 0.00000686,-0.00000355,0.00000034,-0.00000372,-0.00000134,-0.01316094,
 -0.02117454,0.00851245,0.00000583,-0.00000020,-0.00000388,-0.00001279,
 -0.00000075,-0.00000959,-0.00002883,0.00003987,-0.00004168,-0.00000516
 ,0.00000440,-0.00001075,-0.00082786,0.00030355,0.00061127,-0.00050501,
 -0.00029611,0.00073735,0.00022351,0.00023727,0.00014933,0.00046166,0.0
 0056032,-0.00011260,0.00001978,0.00000559,0.00000193,-0.00000403,-0.00
 000664,-0.00000689,0.00006930,-0.00004965,0.00007837,0.00018821,0.0002
 8223,0.00008395,0.00058739,0.00119349,-0.00037929,-0.04579747,-0.06649
 652,0.07258906,-0.00011963,-0.00020167,0.00024501,0.00274621,-0.000896
 79,-0.00043621,-0.01282266,0.00618294,0.01207699,0.00004085,0.00003154
 ,-0.00009946,0.00133338,-0.00040692,0.00018873,-0.00261924,-0.00302560
 ,0.00230551,-0.00348057,0.00106998,-0.00248971,-0.15457042,0.05953887,
 0.12205712,-0.00064152,0.00261804,-0.00283774,-0.00982696,0.00845815,0
 .01075242,-0.00266456,0.00055314,0.00056248,0.01014953,-0.01152512,-0.
 02106902,0.00008960,-0.00001711,0.00020623,0.00005698,0.00001628,0.000
 07239,0.00000474,0.00001737,-0.00000291,0.00009323,-0.00020229,-0.0000
 1217,0.00000847,0.00001942,0.00004332,0.00006216,-0.00002557,0.0000639
 5,-0.00443021,0.00001797,0.00049580,-0.00002373,0.00011662,0.00014480,
 -0.00000002,0.00007437,0.00011737,-0.00073730,0.00025874,0.00073410,-0
 .00004513,0.00000009,-0.00037694,0.00047201,-0.00023444,-0.00011425,0.
 00000902,0.00004160,0.00002983,0.00004080,0.00006778,0.00004358,-0.000
 23181,0.00026252,-0.00006328,-0.00011148,-0.00002810,-0.00012935,-0.00
 008012,0.00003197,-0.00000702,0.00089054,-0.00014270,-0.00021312,0.176
 40782,0.00007575,-0.00011622,0.00017420,0.00288746,-0.00194069,0.00127
 107,0.01639282,-0.00766280,-0.01536095,-0.00002252,0.00005883,-0.00014
 312,0.00092582,-0.00146709,0.00080685,-0.00574562,-0.00335530,0.004512
 54,0.00101457,0.00036365,-0.00039395,0.05626670,-0.08400818,-0.0645679
 1,0.00208189,-0.00223821,0.00302597,-0.01435988,0.01146564,0.01590735,
 0.00057182,0.00083885,0.00158384,0.00236687,-0.00891609,-0.02025374,-0
 .00001828,0.00001876,-0.00017399,0.00006069,0.00006492,0.00001756,-0.0
 0003357,-0.00000348,0.00000856,-0.00048659,0.00098227,0.00013535,-0.00
 001788,-0.00002377,0.00005020,0.00003892,-0.00002396,0.00005780,-0.000
 00916,0.00056538,0.00042781,0.00002360,-0.00017515,0.00020929,-0.00021
 340,0.00001553,0.00003385,0.00100684,-0.00023090,-0.00090784,0.0003653
 8,0.00090409,-0.00106616,0.00101850,0.00040973,-0.00022977,-0.00010601
 ,-0.00003327,-0.00001536,-0.00002341,0.00002945,0.00003131,-0.00028571
 ,0.00029438,-0.00014655,-0.00008665,0.00017157,-0.00011545,-0.00016011
 ,0.00024590,-0.00018749,-0.00085776,0.00064552,-0.00056251,-0.06267109
 ,0.09312066,0.00014959,-0.00028098,0.00024516,0.00465635,-0.00376916,0
 .00054333,-0.01019598,0.00528795,0.01144583,0.00000143,-0.00006823,-0.
 00011827,-0.00061386,0.00072776,-0.00054375,0.00286788,0.00187554,-0.0
 0084414,0.00013524,0.00046456,-0.00002606,0.11667321,-0.06325743,-0.17
 534242,-0.00162024,0.00248290,-0.00093800,0.00985179,-0.00512190,-0.00
 825762,-0.00111360,0.00158859,0.00027879,0.00072385,-0.01562771,-0.027
 20139,-0.00017612,0.00022973,-0.00008104,0.00014902,0.00014443,0.00008
 226,-0.00000085,0.00002945,-0.00000074,0.00042484,-0.00051703,0.000770
 29,-0.00004618,0.00003027,0.00004593,-0.00005096,0.00000202,-0.0000342
 5,0.00135222,-0.00037445,0.00118708,0.00012800,-0.00021062,0.00017243,
 -0.00005341,0.00011372,0.00012930,-0.00071808,0.00029832,0.00048265,-0
 .00001944,0.00053233,0.00048206,-0.00050761,-0.00029212,0.00003649,-0.
 00013071,-0.00005413,-0.00001548,0.00003889,0.00012495,0.00007539,-0.0
 0030151,0.00054662,-0.00014769,0.00007437,-0.00011276,0.00003835,0.000
 04437,-0.00015189,0.00002503,0.00056595,-0.00051192,0.00026549,-0.1222
 8848,0.07587122,0.19724497\\0.00000517,-0.00000080,0.00000855,0.009386
 86,0.00803766,-0.00853823,0.00002326,-0.00000035,-0.00001681,0.0000171
 3,0.00001786,-0.00000140,-0.00001428,0.00002225,0.00000789,-0.00000702
 ,-0.00001295,-0.00000628,-0.00000337,0.00000789,-0.00001979,0.00492368
 ,0.00316528,-0.00583038,-0.00001369,0.00000104,-0.00000133,0.00001756,
 -0.00001406,0.00000310,-0.00498810,-0.00466342,0.00413153,-0.00934438,
 -0.00655016,0.01024811,-0.00000580,0.00000484,-0.00000181,-0.00000188,
 0.00000847,-0.00000058,0.00000113,-0.00000024,0.00000337,-0.00001014,0
 .00000848,-0.00000019,-0.00000936,0.00000129,-0.00000360,-0.00000612,-
 0.00000202,0.00000648,0.00000368,0.00000320,0.00000537,-0.00000212,0.0
 0001048,-0.00000208,0.00000469,-0.00000958,-0.00000006,-0.00000321,-0.
 00000588,0.00001555,0.00001295,0.00000752,0.00000614,0.00001711,0.0000
 0628,-0.00001398,-0.00000670,-0.00000821,-0.00000167,0.00000187,-0.000
 00991,0.00000597,0.00000300,0.00000173,-0.00001298,0.00000807,-0.00000
 384,-0.00000013,-0.00000519,-0.00000515,-0.00001154,-0.00000671,-0.000
 00828,0.00000302,0.00000193,-0.00000941,0.00001776\\\@


 THOSE WHO ASPIRE NOT TO GUESS AND DIVINE,
 BUT TO DISCOVER AND KNOW, WHO PROPOSE NOT TO DEVISE 
 MIMIC AND FABULOUS WORLDS OF THEIR OWN, BUT TO 
 EXAMINE AND DISSECT THE NATURE OF THIS VERY WORLD 
 ITSELF, MUST GO TO THE FACTS THEMSELVES FOR EVERYTHING.

                               -- FRANCIS BACON, 1620
 Job cpu time:       0 days 16 hours 51 minutes  6.5 seconds.
 Elapsed time:       0 days  1 hours  3 minutes 13.9 seconds.
 File lengths (MBytes):  RWF=    689 Int=      0 D2E=      0 Chk=     33 Scr=      1
 Normal termination of Gaussian 16 at Mon Nov  5 05:09:56 2018.
