 Entering Gaussian System, Link 0=g16
 Initial command:
 /apps/gaussian/g16a03/g16/l1.exe "/jobfs/local/2011895.r-man2/Gau-6096.inp" -scrdir="/jobfs/local/2011895.r-man2/"
 Entering Link 1 = /apps/gaussian/g16a03/g16/l1.exe PID=      6097.
  
 Copyright (c) 1988,1990,1992,1993,1995,1998,2003,2009,2016,
            Gaussian, Inc.  All Rights Reserved.
  
 This is part of the Gaussian(R) 16 program.  It is based on
 the Gaussian(R) 09 system (copyright 2009, Gaussian, Inc.),
 the Gaussian(R) 03 system (copyright 2003, Gaussian, Inc.),
 the Gaussian(R) 98 system (copyright 1998, Gaussian, Inc.),
 the Gaussian(R) 94 system (copyright 1995, Gaussian, Inc.),
 the Gaussian 92(TM) system (copyright 1992, Gaussian, Inc.),
 the Gaussian 90(TM) system (copyright 1990, Gaussian, Inc.),
 the Gaussian 88(TM) system (copyright 1988, Gaussian, Inc.),
 the Gaussian 86(TM) system (copyright 1986, Carnegie Mellon
 University), and the Gaussian 82(TM) system (copyright 1983,
 Carnegie Mellon University). Gaussian is a federally registered
 trademark of Gaussian, Inc.
  
 This software contains proprietary and confidential information,
 including trade secrets, belonging to Gaussian, Inc.
  
 This software is provided under written license and may be
 used, copied, transmitted, or stored only in accord with that
 written license.
  
 The following legend is applicable only to US Government
 contracts under FAR:
  
                    RESTRICTED RIGHTS LEGEND
  
 Use, reproduction and disclosure by the US Government is
 subject to restrictions as set forth in subparagraphs (a)
 and (c) of the Commercial Computer Software - Restricted
 Rights clause in FAR 52.227-19.
  
 Gaussian, Inc.
 340 Quinnipiac St., Bldg. 40, Wallingford CT 06492
  
  
 ---------------------------------------------------------------
 Warning -- This program may not be used in any manner that
 competes with the business of Gaussian, Inc. or will provide
 assistance to any competitor of Gaussian, Inc.  The licensee
 of this program is prohibited from giving any competitor of
 Gaussian, Inc. access to this program.  By using this program,
 the user acknowledges that Gaussian, Inc. is engaged in the
 business of creating and licensing software in the field of
 computational chemistry and represents and warrants to the
 licensee that it is not a competitor of Gaussian, Inc. and that
 it will not use this program in any manner prohibited above.
 ---------------------------------------------------------------
  

 Cite this work as:
 Gaussian 16, Revision A.03,
 M. J. Frisch, G. W. Trucks, H. B. Schlegel, G. E. Scuseria, 
 M. A. Robb, J. R. Cheeseman, G. Scalmani, V. Barone, 
 G. A. Petersson, H. Nakatsuji, X. Li, M. Caricato, A. V. Marenich, 
 J. Bloino, B. G. Janesko, R. Gomperts, B. Mennucci, H. P. Hratchian, 
 J. V. Ortiz, A. F. Izmaylov, J. L. Sonnenberg, D. Williams-Young, 
 F. Ding, F. Lipparini, F. Egidi, J. Goings, B. Peng, A. Petrone, 
 T. Henderson, D. Ranasinghe, V. G. Zakrzewski, J. Gao, N. Rega, 
 G. Zheng, W. Liang, M. Hada, M. Ehara, K. Toyota, R. Fukuda, 
 J. Hasegawa, M. Ishida, T. Nakajima, Y. Honda, O. Kitao, H. Nakai, 
 T. Vreven, K. Throssell, J. A. Montgomery, Jr., J. E. Peralta, 
 F. Ogliaro, M. J. Bearpark, J. J. Heyd, E. N. Brothers, K. N. Kudin, 
 V. N. Staroverov, T. A. Keith, R. Kobayashi, J. Normand, 
 K. Raghavachari, A. P. Rendell, J. C. Burant, S. S. Iyengar, 
 J. Tomasi, M. Cossi, J. M. Millam, M. Klene, C. Adamo, R. Cammi, 
 J. W. Ochterski, R. L. Martin, K. Morokuma, O. Farkas, 
 J. B. Foresman, and D. J. Fox, Gaussian, Inc., Wallingford CT, 2016.
 
 ******************************************
 Gaussian 16:  ES64L-G16RevA.03 25-Dec-2016
                 5-Nov-2018 
 ******************************************
 %mem=6000mb
 %nproc=24
 Will use up to   24 processors via shared memory.
 %chk=D_1a_4a_L_PHI.inp_extract_6.chk
 ----------------------------------------------------------------------
 #M062X/6-311++G(2d,2p) opt=ModRedundant freq=noraman SCRF=(Solvent=Wat
 er)
 ----------------------------------------------------------------------
 1/18=120,19=15,26=3,38=1/1,3;
 2/9=110,12=2,17=6,18=5,40=1/2;
 3/5=4,6=6,7=1212,11=2,25=1,30=1,70=2201,71=1,72=1,74=-55/1,2,3;
 4//1;
 5/5=2,38=5,53=1/2;
 6/7=2,8=2,9=2,10=2,28=1/1;
 7//1,2,3,16;
 1/18=20,19=15,26=3/3(2);
 2/9=110/2;
 99//99;
 2/9=110/2;
 3/5=4,6=6,7=1212,11=2,25=1,30=1,70=2205,71=1,72=1,74=-55/1,2,3;
 4/5=5,16=3,69=1/1;
 5/5=2,38=5,53=1/2;
 7//1,2,3,16;
 1/18=20,19=15,26=3/3(-5);
 2/9=110/2;
 6/7=2,8=2,9=2,10=2,19=2,28=1/1;
 99/9=1/99;
 ---------------------------
 D_1a_4a_L_PHI.inp_extract_6
 ---------------------------
 Symbolic Z-matrix:
 Charge =  0 Multiplicity = 1
 C                     3.50666   0.07386  -0.57229 
 C                     1.03715  -0.28703   0.8918 
 C                    -1.75545   0.75693  -1.31148 
 C                     2.91224   1.26168   0.18165 
 C                    -3.56844   0.17583   0.31416 
 O                    -2.68012  -0.72472   0.9506 
 C                     2.39557  -0.86091  -1.015 
 C                    -0.88425  -0.2975   -0.63532 
 C                    -2.80959   1.31294  -0.35179 
 C                    -1.76421  -1.32805   0.06163 
 O                     1.58645  -1.28435   0.07931 
 O                    -0.04468   0.38075   0.28656 
 C                     2.05956   0.74568   1.33913 
 H                     4.20052  -0.46329   0.07003 
 H                     4.05807   0.40003  -1.44943 
 H                    -2.25074   0.28488  -2.15648 
 H                     3.69669   1.90793   0.56292 
 H                     2.30775   1.85947  -0.49583 
 H                     1.77509  -0.37207  -1.75815 
 H                     2.78701  -1.7706   -1.44838 
 H                    -2.34081   1.92603   0.41198 
 H                    -3.51158   1.94545  -0.88763 
 H                    -2.30608  -1.89493  -0.69215 
 H                    -1.17634  -2.02057   0.6469 
 H                     2.70264   0.26549   2.07171 
 H                     1.53835   1.55103   1.84505 
 H                     0.66031  -0.82693   1.75016 
 H                    -4.15897  -0.37027  -0.41867 
 H                    -4.23482   0.5415    1.08351 
 H                    -1.12908   1.54991  -1.70669 
 H                    -0.28669  -0.8071   -1.37561 
 
 The following ModRedundant input section has been read:
 D      11       2      12       8 F                                           
 

 GradGradGradGradGradGradGradGradGradGradGradGradGradGradGradGradGradGrad
 Berny optimization.
 Initialization pass.
                           ----------------------------
                           !    Initial Parameters    !
                           ! (Angstroms and Degrees)  !
 --------------------------                            --------------------------
 ! Name  Definition              Value          Derivative Info.                !
 --------------------------------------------------------------------------------
 ! R1    R(1,4)                  1.5273         estimate D2E/DX2                !
 ! R2    R(1,7)                  1.518          estimate D2E/DX2                !
 ! R3    R(1,14)                 1.0875         estimate D2E/DX2                !
 ! R4    R(1,15)                 1.0862         estimate D2E/DX2                !
 ! R5    R(2,11)                 1.3988         estimate D2E/DX2                !
 ! R6    R(2,12)                 1.408          estimate D2E/DX2                !
 ! R7    R(2,13)                 1.5205         estimate D2E/DX2                !
 ! R8    R(2,27)                 1.0818         estimate D2E/DX2                !
 ! R9    R(3,8)                  1.5258         estimate D2E/DX2                !
 ! R10   R(3,9)                  1.5302         estimate D2E/DX2                !
 ! R11   R(3,16)                 1.0873         estimate D2E/DX2                !
 ! R12   R(3,30)                 1.0851         estimate D2E/DX2                !
 ! R13   R(4,13)                 1.5274         estimate D2E/DX2                !
 ! R14   R(4,17)                 1.0855         estimate D2E/DX2                !
 ! R15   R(4,18)                 1.0871         estimate D2E/DX2                !
 ! R16   R(5,6)                  1.416          estimate D2E/DX2                !
 ! R17   R(5,9)                  1.5206         estimate D2E/DX2                !
 ! R18   R(5,28)                 1.0881         estimate D2E/DX2                !
 ! R19   R(5,29)                 1.0815         estimate D2E/DX2                !
 ! R20   R(6,10)                 1.4118         estimate D2E/DX2                !
 ! R21   R(7,11)                 1.4253         estimate D2E/DX2                !
 ! R22   R(7,19)                 1.0845         estimate D2E/DX2                !
 ! R23   R(7,20)                 1.081          estimate D2E/DX2                !
 ! R24   R(8,10)                 1.5238         estimate D2E/DX2                !
 ! R25   R(8,12)                 1.4194         estimate D2E/DX2                !
 ! R26   R(8,31)                 1.0793         estimate D2E/DX2                !
 ! R27   R(9,21)                 1.0858         estimate D2E/DX2                !
 ! R28   R(9,22)                 1.0863         estimate D2E/DX2                !
 ! R29   R(10,23)                1.0877         estimate D2E/DX2                !
 ! R30   R(10,24)                1.0806         estimate D2E/DX2                !
 ! R31   R(13,25)                1.0867         estimate D2E/DX2                !
 ! R32   R(13,26)                1.0845         estimate D2E/DX2                !
 ! A1    A(4,1,7)              109.7562         estimate D2E/DX2                !
 ! A2    A(4,1,14)             109.9327         estimate D2E/DX2                !
 ! A3    A(4,1,15)             111.2642         estimate D2E/DX2                !
 ! A4    A(7,1,14)             109.5795         estimate D2E/DX2                !
 ! A5    A(7,1,15)             108.7221         estimate D2E/DX2                !
 ! A6    A(14,1,15)            107.5409         estimate D2E/DX2                !
 ! A7    A(11,2,12)            112.9664         estimate D2E/DX2                !
 ! A8    A(11,2,13)            113.0223         estimate D2E/DX2                !
 ! A9    A(11,2,27)            103.9952         estimate D2E/DX2                !
 ! A10   A(12,2,13)            108.7225         estimate D2E/DX2                !
 ! A11   A(12,2,27)            108.0662         estimate D2E/DX2                !
 ! A12   A(13,2,27)            109.8628         estimate D2E/DX2                !
 ! A13   A(8,3,9)              111.5024         estimate D2E/DX2                !
 ! A14   A(8,3,16)             107.7271         estimate D2E/DX2                !
 ! A15   A(8,3,30)             109.685          estimate D2E/DX2                !
 ! A16   A(9,3,16)             109.3519         estimate D2E/DX2                !
 ! A17   A(9,3,30)             111.1347         estimate D2E/DX2                !
 ! A18   A(16,3,30)            107.2886         estimate D2E/DX2                !
 ! A19   A(1,4,13)             109.184          estimate D2E/DX2                !
 ! A20   A(1,4,17)             110.8018         estimate D2E/DX2                !
 ! A21   A(1,4,18)             109.6606         estimate D2E/DX2                !
 ! A22   A(13,4,17)            109.7778         estimate D2E/DX2                !
 ! A23   A(13,4,18)            110.3409         estimate D2E/DX2                !
 ! A24   A(17,4,18)            107.0592         estimate D2E/DX2                !
 ! A25   A(6,5,9)              111.0598         estimate D2E/DX2                !
 ! A26   A(6,5,28)             108.904          estimate D2E/DX2                !
 ! A27   A(6,5,29)             106.3696         estimate D2E/DX2                !
 ! A28   A(9,5,28)             110.5592         estimate D2E/DX2                !
 ! A29   A(9,5,29)             111.4807         estimate D2E/DX2                !
 ! A30   A(28,5,29)            108.3235         estimate D2E/DX2                !
 ! A31   A(5,6,10)             113.3129         estimate D2E/DX2                !
 ! A32   A(1,7,11)             111.9958         estimate D2E/DX2                !
 ! A33   A(1,7,19)             109.94           estimate D2E/DX2                !
 ! A34   A(1,7,20)             111.721          estimate D2E/DX2                !
 ! A35   A(11,7,19)            109.5861         estimate D2E/DX2                !
 ! A36   A(11,7,20)            105.2695         estimate D2E/DX2                !
 ! A37   A(19,7,20)            108.1649         estimate D2E/DX2                !
 ! A38   A(3,8,10)             109.8965         estimate D2E/DX2                !
 ! A39   A(3,8,12)             107.1777         estimate D2E/DX2                !
 ! A40   A(3,8,31)             109.7843         estimate D2E/DX2                !
 ! A41   A(10,8,12)            111.5717         estimate D2E/DX2                !
 ! A42   A(10,8,31)            108.3071         estimate D2E/DX2                !
 ! A43   A(12,8,31)            110.0978         estimate D2E/DX2                !
 ! A44   A(3,9,5)              110.2876         estimate D2E/DX2                !
 ! A45   A(3,9,21)             110.421          estimate D2E/DX2                !
 ! A46   A(3,9,22)             110.3291         estimate D2E/DX2                !
 ! A47   A(5,9,21)             109.2456         estimate D2E/DX2                !
 ! A48   A(5,9,22)             109.2051         estimate D2E/DX2                !
 ! A49   A(21,9,22)            107.2901         estimate D2E/DX2                !
 ! A50   A(6,10,8)             111.938          estimate D2E/DX2                !
 ! A51   A(6,10,23)            109.6262         estimate D2E/DX2                !
 ! A52   A(6,10,24)            106.6042         estimate D2E/DX2                !
 ! A53   A(8,10,23)            108.8553         estimate D2E/DX2                !
 ! A54   A(8,10,24)            111.529          estimate D2E/DX2                !
 ! A55   A(23,10,24)           108.2015         estimate D2E/DX2                !
 ! A56   A(2,11,7)             117.1991         estimate D2E/DX2                !
 ! A57   A(2,12,8)             120.4649         estimate D2E/DX2                !
 ! A58   A(2,13,4)             112.4503         estimate D2E/DX2                !
 ! A59   A(2,13,25)            107.226          estimate D2E/DX2                !
 ! A60   A(2,13,26)            108.5682         estimate D2E/DX2                !
 ! A61   A(4,13,25)            109.2559         estimate D2E/DX2                !
 ! A62   A(4,13,26)            111.7729         estimate D2E/DX2                !
 ! A63   A(25,13,26)           107.3412         estimate D2E/DX2                !
 ! D1    D(7,1,4,13)            55.2464         estimate D2E/DX2                !
 ! D2    D(7,1,4,17)           176.2724         estimate D2E/DX2                !
 ! D3    D(7,1,4,18)           -65.76           estimate D2E/DX2                !
 ! D4    D(14,1,4,13)          -65.3515         estimate D2E/DX2                !
 ! D5    D(14,1,4,17)           55.6745         estimate D2E/DX2                !
 ! D6    D(14,1,4,18)          173.6421         estimate D2E/DX2                !
 ! D7    D(15,1,4,13)          175.6269         estimate D2E/DX2                !
 ! D8    D(15,1,4,17)          -63.3471         estimate D2E/DX2                !
 ! D9    D(15,1,4,18)           54.6205         estimate D2E/DX2                !
 ! D10   D(4,1,7,11)           -55.4024         estimate D2E/DX2                !
 ! D11   D(4,1,7,19)            66.6802         estimate D2E/DX2                !
 ! D12   D(4,1,7,20)          -173.2202         estimate D2E/DX2                !
 ! D13   D(14,1,7,11)           65.4091         estimate D2E/DX2                !
 ! D14   D(14,1,7,19)         -172.5084         estimate D2E/DX2                !
 ! D15   D(14,1,7,20)          -52.4087         estimate D2E/DX2                !
 ! D16   D(15,1,7,11)         -177.3135         estimate D2E/DX2                !
 ! D17   D(15,1,7,19)          -55.231          estimate D2E/DX2                !
 ! D18   D(15,1,7,20)           64.8687         estimate D2E/DX2                !
 ! D19   D(12,2,11,7)           74.9167         estimate D2E/DX2                !
 ! D20   D(13,2,11,7)          -49.0609         estimate D2E/DX2                !
 ! D21   D(27,2,11,7)         -168.1636         estimate D2E/DX2                !
 ! D22   D(11,2,12,8)           30.5423         Frozen                          !
 ! D23   D(13,2,12,8)          156.8499         estimate D2E/DX2                !
 ! D24   D(27,2,12,8)          -83.9467         estimate D2E/DX2                !
 ! D25   D(11,2,13,4)           48.1163         estimate D2E/DX2                !
 ! D26   D(11,2,13,25)         -71.9964         estimate D2E/DX2                !
 ! D27   D(11,2,13,26)         172.3234         estimate D2E/DX2                !
 ! D28   D(12,2,13,4)          -78.159          estimate D2E/DX2                !
 ! D29   D(12,2,13,25)         161.7283         estimate D2E/DX2                !
 ! D30   D(12,2,13,26)          46.0481         estimate D2E/DX2                !
 ! D31   D(27,2,13,4)          163.7682         estimate D2E/DX2                !
 ! D32   D(27,2,13,25)          43.6555         estimate D2E/DX2                !
 ! D33   D(27,2,13,26)         -72.0247         estimate D2E/DX2                !
 ! D34   D(9,3,8,10)            49.8879         estimate D2E/DX2                !
 ! D35   D(9,3,8,12)           -71.5209         estimate D2E/DX2                !
 ! D36   D(9,3,8,31)           168.9131         estimate D2E/DX2                !
 ! D37   D(16,3,8,10)          -70.1017         estimate D2E/DX2                !
 ! D38   D(16,3,8,12)          168.4895         estimate D2E/DX2                !
 ! D39   D(16,3,8,31)           48.9235         estimate D2E/DX2                !
 ! D40   D(30,3,8,10)          173.4285         estimate D2E/DX2                !
 ! D41   D(30,3,8,12)           52.0197         estimate D2E/DX2                !
 ! D42   D(30,3,8,31)          -67.5463         estimate D2E/DX2                !
 ! D43   D(8,3,9,5)            -50.678          estimate D2E/DX2                !
 ! D44   D(8,3,9,21)            70.1603         estimate D2E/DX2                !
 ! D45   D(8,3,9,22)          -171.4058         estimate D2E/DX2                !
 ! D46   D(16,3,9,5)            68.3488         estimate D2E/DX2                !
 ! D47   D(16,3,9,21)         -170.8129         estimate D2E/DX2                !
 ! D48   D(16,3,9,22)          -52.379          estimate D2E/DX2                !
 ! D49   D(30,3,9,5)          -173.392          estimate D2E/DX2                !
 ! D50   D(30,3,9,21)          -52.5537         estimate D2E/DX2                !
 ! D51   D(30,3,9,22)           65.8802         estimate D2E/DX2                !
 ! D52   D(1,4,13,2)           -52.0139         estimate D2E/DX2                !
 ! D53   D(1,4,13,25)           66.9172         estimate D2E/DX2                !
 ! D54   D(1,4,13,26)         -174.4294         estimate D2E/DX2                !
 ! D55   D(17,4,13,2)         -173.6617         estimate D2E/DX2                !
 ! D56   D(17,4,13,25)         -54.7305         estimate D2E/DX2                !
 ! D57   D(17,4,13,26)          63.9229         estimate D2E/DX2                !
 ! D58   D(18,4,13,2)           68.577          estimate D2E/DX2                !
 ! D59   D(18,4,13,25)        -172.4918         estimate D2E/DX2                !
 ! D60   D(18,4,13,26)         -53.8384         estimate D2E/DX2                !
 ! D61   D(9,5,6,10)           -60.4895         estimate D2E/DX2                !
 ! D62   D(28,5,6,10)           61.4909         estimate D2E/DX2                !
 ! D63   D(29,5,6,10)          178.0383         estimate D2E/DX2                !
 ! D64   D(6,5,9,3)             54.6866         estimate D2E/DX2                !
 ! D65   D(6,5,9,21)           -66.852          estimate D2E/DX2                !
 ! D66   D(6,5,9,22)           176.0849         estimate D2E/DX2                !
 ! D67   D(28,5,9,3)           -66.3249         estimate D2E/DX2                !
 ! D68   D(28,5,9,21)          172.1365         estimate D2E/DX2                !
 ! D69   D(28,5,9,22)           55.0735         estimate D2E/DX2                !
 ! D70   D(29,5,9,3)           173.1161         estimate D2E/DX2                !
 ! D71   D(29,5,9,21)           51.5775         estimate D2E/DX2                !
 ! D72   D(29,5,9,22)          -65.4855         estimate D2E/DX2                !
 ! D73   D(5,6,10,8)            60.3625         estimate D2E/DX2                !
 ! D74   D(5,6,10,23)          -60.5363         estimate D2E/DX2                !
 ! D75   D(5,6,10,24)         -177.4334         estimate D2E/DX2                !
 ! D76   D(1,7,11,2)            53.3542         estimate D2E/DX2                !
 ! D77   D(19,7,11,2)          -68.9303         estimate D2E/DX2                !
 ! D78   D(20,7,11,2)          174.9566         estimate D2E/DX2                !
 ! D79   D(3,8,10,6)           -53.9038         estimate D2E/DX2                !
 ! D80   D(3,8,10,23)           67.4407         estimate D2E/DX2                !
 ! D81   D(3,8,10,24)         -173.2483         estimate D2E/DX2                !
 ! D82   D(12,8,10,6)           64.8358         estimate D2E/DX2                !
 ! D83   D(12,8,10,23)        -173.8197         estimate D2E/DX2                !
 ! D84   D(12,8,10,24)         -54.5087         estimate D2E/DX2                !
 ! D85   D(31,8,10,6)         -173.8313         estimate D2E/DX2                !
 ! D86   D(31,8,10,23)         -52.4868         estimate D2E/DX2                !
 ! D87   D(31,8,10,24)          66.8242         estimate D2E/DX2                !
 ! D88   D(3,8,12,2)          -168.5832         estimate D2E/DX2                !
 ! D89   D(10,8,12,2)           71.0685         estimate D2E/DX2                !
 ! D90   D(31,8,12,2)          -49.2185         estimate D2E/DX2                !
 --------------------------------------------------------------------------------
 Trust Radius=3.00D-01 FncErr=1.00D-07 GrdErr=1.00D-06 EigMax=2.50D+02 EigMin=1.00D-04
 Number of steps in this run=    186 maximum allowed number of steps=    186.
 GradGradGradGradGradGradGradGradGradGradGradGradGradGradGradGradGradGrad

                          Input orientation:                          
 ---------------------------------------------------------------------
 Center     Atomic      Atomic             Coordinates (Angstroms)
 Number     Number       Type             X           Y           Z
 ---------------------------------------------------------------------
      1          6           0        3.506656    0.073862   -0.572286
      2          6           0        1.037148   -0.287025    0.891800
      3          6           0       -1.755450    0.756926   -1.311478
      4          6           0        2.912244    1.261683    0.181652
      5          6           0       -3.568437    0.175830    0.314162
      6          8           0       -2.680118   -0.724718    0.950603
      7          6           0        2.395572   -0.860909   -1.014999
      8          6           0       -0.884248   -0.297498   -0.635319
      9          6           0       -2.809590    1.312943   -0.351794
     10          6           0       -1.764208   -1.328055    0.061625
     11          8           0        1.586452   -1.284346    0.079310
     12          8           0       -0.044683    0.380746    0.286564
     13          6           0        2.059559    0.745678    1.339126
     14          1           0        4.200523   -0.463293    0.070031
     15          1           0        4.058073    0.400029   -1.449427
     16          1           0       -2.250739    0.284882   -2.156480
     17          1           0        3.696689    1.907925    0.562917
     18          1           0        2.307751    1.859469   -0.495825
     19          1           0        1.775094   -0.372073   -1.758151
     20          1           0        2.787006   -1.770595   -1.448378
     21          1           0       -2.340808    1.926030    0.411978
     22          1           0       -3.511581    1.945452   -0.887628
     23          1           0       -2.306082   -1.894927   -0.692154
     24          1           0       -1.176342   -2.020573    0.646903
     25          1           0        2.702640    0.265486    2.071710
     26          1           0        1.538345    1.551026    1.845054
     27          1           0        0.660314   -0.826931    1.750161
     28          1           0       -4.158972   -0.370272   -0.418672
     29          1           0       -4.234825    0.541497    1.083513
     30          1           0       -1.129081    1.549912   -1.706686
     31          1           0       -0.286688   -0.807101   -1.375609
 ---------------------------------------------------------------------
                    Distance matrix (angstroms):
                    1          2          3          4          5
     1  C    0.000000
     2  C    2.893485   0.000000
     3  C    5.357494   3.707138   0.000000
     4  C    1.527307   2.533533   4.926620   0.000000
     5  C    7.131138   4.664688   2.503458   6.572356   0.000000
     6  O    6.421300   3.743407   2.857847   5.984278   1.416035
     7  C    1.517992   2.410506   4.465005   2.490847   6.197653
     8  C    4.407031   2.454377   1.525776   4.184715   2.886247
     9  C    6.440412   4.347852   1.530150   5.746875   1.520649
    10  C    5.490831   3.101698   2.496524   5.346995   2.362348
    11  O    2.440592   1.398758   4.155646   2.872362   5.362849
    12  O    3.666580   1.408044   2.371070   3.087147   3.529815
    13  C    2.489764   1.520493   4.645441   1.527442   5.748880
    14  H    1.087455   3.273120   6.234670   2.155844   7.799027
    15  H    1.086196   3.883217   5.826101   2.171587   7.830975
    16  H    5.975098   4.519877   1.087274   5.751295   2.802194
    17  H    2.165314   3.463976   5.879113   1.085516   7.472890
    18  H    2.152118   2.854360   4.288414   1.087076   6.166061
    19  H    2.145563   2.752097   3.733483   2.779407   5.757430
    20  H    2.165053   3.277105   5.200097   3.444908   6.876538
    21  H    6.212257   4.066747   2.163273   5.299902   2.140056
    22  H    7.270347   5.370405   2.162461   6.548009   2.139882
    23  H    6.138275   4.033788   2.778324   6.161059   2.625690
    24  H    5.272907   2.822180   3.447481   5.263668   3.264509
    25  H    2.770176   2.114550   5.618010   2.146779   6.513326
    26  H    3.449608   2.130334   4.630699   2.176746   5.505817
    27  H    3.782440   1.081798   4.209294   3.448727   4.577112
    28  H    7.680020   5.359471   2.800821   7.281879   1.088120
    29  H    7.930377   5.340122   3.453939   7.239656   1.081520
    30  H    4.995562   3.849547   1.085060   4.470034   3.452881
    31  H    3.976290   2.676596   2.146522   4.115592   3.819863
                    6          7          8          9         10
     6  O    0.000000
     7  C    5.444701   0.000000
     8  C    2.433683   3.349449   0.000000
     9  C    2.421789   5.679717   2.526034   0.000000
    10  C    1.411803   4.322165   1.523847   2.870298   0.000000
    11  O    4.390439   1.425302   2.754800   5.124153   3.350992
    12  O    2.934027   3.031603   1.419420   2.986838   2.434618
    13  C    4.977706   2.869831   3.694949   5.185519   4.533605
    14  H    6.941684   2.143184   5.136137   7.243938   6.027097
    15  H    7.240747   2.131338   5.057257   7.014485   6.258475
    16  H    3.295091   4.919758   2.126122   2.150841   2.785367
    17  H    6.909760   3.442262   5.223470   6.597148   6.367437
    18  H    5.800777   2.770868   3.854974   5.148457   5.201145
    19  H    5.225956   1.084541   2.887631   5.082956   4.092938
    20  H    6.061222   1.081003   4.038463   6.483255   4.815548
    21  H    2.726117   5.677727   2.857005   1.085808   3.323294
    22  H    3.346675   6.541127   3.463721   1.086267   3.830175
    23  H    2.051327   4.824829   2.139304   3.264934   1.087729
    24  H    2.008187   4.106739   2.167579   3.844115   1.080610
    25  H    5.586723   3.300126   4.528877   6.111891   5.150975
    26  H    4.875908   3.838251   3.929154   4.877229   4.730389
    27  H    3.436310   3.264718   2.890759   4.586666   2.996763
    28  H    2.046352   6.599877   3.282689   2.158360   2.623534
    29  H    2.009497   7.094551   3.858065   2.164839   3.262427
    30  H    3.826335   4.325930   2.149580   2.171635   3.437005
    31  H    3.338646   2.706927   1.079260   3.450771   2.126053
                   11         12         13         14         15
    11  O    0.000000
    12  O    2.340104   0.000000
    13  C    2.435562   2.380944   0.000000
    14  H    2.739997   4.333712   2.766937   0.000000
    15  H    3.359028   4.454957   3.448124   1.753388   0.000000
    16  H    4.710124   3.293074   5.568686   6.865559   6.349354
    17  H    3.857145   4.050495   2.152560   2.473754   2.540448
    18  H    3.276374   2.886642   2.160827   3.049263   2.470415
    19  H    2.060119   2.838870   3.305059   3.038631   2.429701
    20  H    2.002898   3.956862   3.825047   2.452067   2.515397
    21  H    5.083360   2.770527   4.649308   6.972432   6.836606
    22  H    6.111997   3.980755   6.118455   8.136075   7.746200
    23  H    4.014945   3.354177   5.491604   6.705700   6.807551
    24  H    2.915000   2.678960   4.313047   5.627484   6.136205
    25  H    2.759984   3.278386   1.086654   2.604130   3.775408
    26  H    3.340584   2.510861   1.084533   3.780923   4.304350
    27  H    1.964358   2.024258   2.144746   3.935499   4.825719
    28  H    5.838957   4.241316   6.557845   8.374284   8.317190
    29  H    6.182992   4.268285   6.302880   8.555223   8.672252
    30  H    4.312415   2.552629   4.482320   5.967780   5.319303
    31  H    2.419340   2.057271   3.909704   4.726853   4.509940
                   16         17         18         19         20
    16  H    0.000000
    17  H    6.738048   0.000000
    18  H    5.100679   1.747121   0.000000
    19  H    4.098486   3.778660   2.618582   0.000000
    20  H    5.486827   4.290028   3.783439   1.753793   0.000000
    21  H    3.049337   6.039411   4.736838   5.189546   6.589419
    22  H    2.440738   7.352866   5.833140   5.837608   7.334551
    23  H    2.626572   7.215965   5.951596   4.484577   5.150425
    24  H    3.785288   6.259919   5.338488   4.148833   4.490080
    25  H    6.512598   2.441761   3.047779   3.991824   4.067402
    26  H    5.654428   2.535686   2.483312   4.091142   4.841386
    27  H    4.997219   4.255415   3.869786   3.709162   3.955246
    28  H    2.662810   8.238028   6.840775   6.083366   7.160154
    29  H    3.807887   8.065176   6.858328   6.710350   7.814240
    30  H    1.749495   5.344841   3.657024   3.482945   5.140839
    31  H    2.379009   5.195820   3.823052   2.141619   3.221989
                   21         22         23         24         25
    21  H    0.000000
    22  H    1.749303   0.000000
    23  H    3.977440   4.029882   0.000000
    24  H    4.121510   4.851544   1.756466   0.000000
    25  H    5.563136   7.084950   6.115033   4.722567   0.000000
    26  H    4.152368   5.755421   5.752533   4.643427   1.749162
    27  H    4.286754   5.661161   3.988110   2.452604   2.338346
    28  H    3.044454   2.449819   2.415071   3.571418   7.327203
    29  H    2.440326   2.525781   3.578995   4.013620   7.012926
    30  H    2.469511   2.550218   3.779090   4.276678   5.532460
    31  H    3.858093   4.267858   2.393414   2.520824   4.687274
                   26         27         28         29         30
    26  H    0.000000
    27  H    2.536656   0.000000
    28  H    6.424583   5.304516   0.000000
    29  H    5.910041   5.126344   1.758874   0.000000
    30  H    4.441849   4.560823   3.811342   4.295085   0.000000
    31  H    4.389098   3.266136   4.012622   4.842911   2.524826
                   31
    31  H    0.000000
 Stoichiometry    C10H18O3
 Framework group  C1[X(C10H18O3)]
 Deg. of freedom    87
 Full point group                 C1      NOp   1
 Largest Abelian subgroup         C1      NOp   1
 Largest concise Abelian subgroup C1      NOp   1
                         Standard orientation:                         
 ---------------------------------------------------------------------
 Center     Atomic      Atomic             Coordinates (Angstroms)
 Number     Number       Type             X           Y           Z
 ---------------------------------------------------------------------
      1          6           0       -3.506656    0.073862    0.572286
      2          6           0       -1.037148   -0.287025   -0.891800
      3          6           0        1.755450    0.756926    1.311478
      4          6           0       -2.912244    1.261683   -0.181652
      5          6           0        3.568437    0.175830   -0.314162
      6          8           0        2.680118   -0.724718   -0.950603
      7          6           0       -2.395572   -0.860909    1.014999
      8          6           0        0.884248   -0.297498    0.635319
      9          6           0        2.809590    1.312943    0.351794
     10          6           0        1.764208   -1.328055   -0.061625
     11          8           0       -1.586452   -1.284346   -0.079310
     12          8           0        0.044683    0.380746   -0.286564
     13          6           0       -2.059559    0.745678   -1.339126
     14          1           0       -4.200523   -0.463293   -0.070031
     15          1           0       -4.058073    0.400029    1.449427
     16          1           0        2.250739    0.284882    2.156480
     17          1           0       -3.696689    1.907925   -0.562917
     18          1           0       -2.307751    1.859469    0.495825
     19          1           0       -1.775094   -0.372073    1.758151
     20          1           0       -2.787006   -1.770595    1.448378
     21          1           0        2.340808    1.926030   -0.411978
     22          1           0        3.511581    1.945452    0.887628
     23          1           0        2.306082   -1.894927    0.692154
     24          1           0        1.176342   -2.020573   -0.646903
     25          1           0       -2.702640    0.265486   -2.071710
     26          1           0       -1.538345    1.551026   -1.845054
     27          1           0       -0.660314   -0.826931   -1.750161
     28          1           0        4.158972   -0.370272    0.418672
     29          1           0        4.234825    0.541497   -1.083513
     30          1           0        1.129081    1.549912    1.706686
     31          1           0        0.286688   -0.807101    1.375609
 ---------------------------------------------------------------------
 Rotational constants (GHZ):           1.8111625           0.4460967           0.4335078
 Standard basis: 6-311++G(2d,2p) (5D, 7F)
 There are   557 symmetry adapted cartesian basis functions of A   symmetry.
 There are   531 symmetry adapted basis functions of A   symmetry.
   531 basis functions,   762 primitive gaussians,   557 cartesian basis functions
    51 alpha electrons       51 beta electrons
       nuclear repulsion energy       907.0169545291 Hartrees.
 NAtoms=   31 NActive=   31 NUniq=   31 SFac= 1.00D+00 NAtFMM=   60 NAOKFM=F Big=F
 Integral buffers will be    131072 words long.
 Raffenetti 2 integral format.
 Two-electron integral symmetry is turned on.
 ------------------------------------------------------------------------------
 Polarizable Continuum Model (PCM)
 =================================
 Model                : PCM.
 Atomic radii         : UFF (Universal Force Field).
 Polarization charges : Total charges.
 Charge compensation  : None.
 Solution method      : On-the-fly selection.
 Cavity type          : Scaled VdW (van der Waals Surface) (Alpha=1.100).
 Cavity algorithm     : GePol (No added spheres)
                        Default sphere list used, NSphG=   31.
                        Lebedev-Laikov grids with approx.  5.0 points / Ang**2.
                        Smoothing algorithm: York/Karplus (Gamma=1.0000).
                        Polarization charges: spherical gaussians, with
                                              point-specific exponents (IZeta= 3).
                        Self-potential: point-specific (ISelfS= 7).
                        Self-field    : sphere-specific E.n sum rule (ISelfD= 2).
 1st derivatives      : Analytical E(r).r(x)/FMM algorithm (CHGder, D1EAlg=3).
                        Cavity 1st derivative terms included.
 Solvent              : Water, Eps=  78.355300 Eps(inf)=   1.777849
 ------------------------------------------------------------------------------
 One-electron integrals computed using PRISM.
 NBasis=   531 RedAO= T EigKep=  4.35D-06  NBF=   531
 NBsUse=   531 1.00D-06 EigRej= -1.00D+00 NBFU=   531
 ExpMin= 3.60D-02 ExpMax= 8.59D+03 ExpMxC= 1.30D+03 IAcc=3 IRadAn=         5 AccDes= 0.00D+00
 Harris functional with IExCor= 1009 and IRadAn=       5 diagonalized for initial guess.
 HarFok:  IExCor= 1009 AccDes= 0.00D+00 IRadAn=         5 IDoV= 1 UseB2=F ITyADJ=14
 ICtDFT=  3500011 ScaDFX=  1.000000  1.000000  1.000000  1.000000
 FoFCou: FMM=F IPFlag=           0 FMFlag=      100000 FMFlg1=           0
         NFxFlg=           0 DoJE=T BraDBF=F KetDBF=T FulRan=T
         wScrn=  0.000000 ICntrl=       500 IOpCl=  0 I1Cent=   200000004 NGrid=           0
         NMat0=    1 NMatS0=      1 NMatT0=    0 NMatD0=    1 NMtDS0=    0 NMtDT0=    0
 Petite list used in FoFCou.
 Requested convergence on RMS density matrix=1.00D-08 within 128 cycles.
 Requested convergence on MAX density matrix=1.00D-06.
 Requested convergence on             energy=1.00D-06.
 No special actions if energy rises.
 Inv3:  Mode=1 IEnd=    12570627.
 Iteration    1 A*A^-1 deviation from unit magnitude is 9.77D-15 for   2041.
 Iteration    1 A*A^-1 deviation from orthogonality  is 4.14D-15 for   2042    893.
 Iteration    1 A^-1*A deviation from unit magnitude is 9.77D-15 for   2041.
 Iteration    1 A^-1*A deviation from orthogonality  is 2.49D-15 for   1959   1373.
 Error on total polarization charges =  0.01467
 SCF Done:  E(RM062X) =  -617.498878450     A.U. after   12 cycles
            NFock= 12  Conv=0.76D-08     -V/T= 2.0035

 **********************************************************************

            Population analysis using the SCF density.

 **********************************************************************

 Orbital symmetries:
       Occupied  (A) (A) (A) (A) (A) (A) (A) (A) (A) (A) (A) (A)
                 (A) (A) (A) (A) (A) (A) (A) (A) (A) (A) (A) (A)
                 (A) (A) (A) (A) (A) (A) (A) (A) (A) (A) (A) (A)
                 (A) (A) (A) (A) (A) (A) (A) (A) (A) (A) (A) (A)
                 (A) (A) (A)
       Virtual   (A) (A) (A) (A) (A) (A) (A) (A) (A) (A) (A) (A)
                 (A) (A) (A) (A) (A) (A) (A) (A) (A) (A) (A) (A)
                 (A) (A) (A) (A) (A) (A) (A) (A) (A) (A) (A) (A)
                 (A) (A) (A) (A) (A) (A) (A) (A) (A) (A) (A) (A)
                 (A) (A) (A) (A) (A) (A) (A) (A) (A) (A) (A) (A)
                 (A) (A) (A) (A) (A) (A) (A) (A) (A) (A) (A) (A)
                 (A) (A) (A) (A) (A) (A) (A) (A) (A) (A) (A) (A)
                 (A) (A) (A) (A) (A) (A) (A) (A) (A) (A) (A) (A)
                 (A) (A) (A) (A) (A) (A) (A) (A) (A) (A) (A) (A)
                 (A) (A) (A) (A) (A) (A) (A) (A) (A) (A) (A) (A)
                 (A) (A) (A) (A) (A) (A) (A) (A) (A) (A) (A) (A)
                 (A) (A) (A) (A) (A) (A) (A) (A) (A) (A) (A) (A)
                 (A) (A) (A) (A) (A) (A) (A) (A) (A) (A) (A) (A)
                 (A) (A) (A) (A) (A) (A) (A) (A) (A) (A) (A) (A)
                 (A) (A) (A) (A) (A) (A) (A) (A) (A) (A) (A) (A)
                 (A) (A) (A) (A) (A) (A) (A) (A) (A) (A) (A) (A)
                 (A) (A) (A) (A) (A) (A) (A) (A) (A) (A) (A) (A)
                 (A) (A) (A) (A) (A) (A) (A) (A) (A) (A) (A) (A)
                 (A) (A) (A) (A) (A) (A) (A) (A) (A) (A) (A) (A)
                 (A) (A) (A) (A) (A) (A) (A) (A) (A) (A) (A) (A)
                 (A) (A) (A) (A) (A) (A) (A) (A) (A) (A) (A) (A)
                 (A) (A) (A) (A) (A) (A) (A) (A) (A) (A) (A) (A)
                 (A) (A) (A) (A) (A) (A) (A) (A) (A) (A) (A) (A)
                 (A) (A) (A) (A) (A) (A) (A) (A) (A) (A) (A) (A)
                 (A) (A) (A) (A) (A) (A) (A) (A) (A) (A) (A) (A)
                 (A) (A) (A) (A) (A) (A) (A) (A) (A) (A) (A) (A)
                 (A) (A) (A) (A) (A) (A) (A) (A) (A) (A) (A) (A)
                 (A) (A) (A) (A) (A) (A) (A) (A) (A) (A) (A) (A)
                 (A) (A) (A) (A) (A) (A) (A) (A) (A) (A) (A) (A)
                 (A) (A) (A) (A) (A) (A) (A) (A) (A) (A) (A) (A)
                 (A) (A) (A) (A) (A) (A) (A) (A) (A) (A) (A) (A)
                 (A) (A) (A) (A) (A) (A) (A) (A) (A) (A) (A) (A)
                 (A) (A) (A) (A) (A) (A) (A) (A) (A) (A) (A) (A)
                 (A) (A) (A) (A) (A) (A) (A) (A) (A) (A) (A) (A)
                 (A) (A) (A) (A) (A) (A) (A) (A) (A) (A) (A) (A)
                 (A) (A) (A) (A) (A) (A) (A) (A) (A) (A) (A) (A)
                 (A) (A) (A) (A) (A) (A) (A) (A) (A) (A) (A) (A)
                 (A) (A) (A) (A) (A) (A) (A) (A) (A) (A) (A) (A)
                 (A) (A) (A) (A) (A) (A) (A) (A) (A) (A) (A) (A)
                 (A) (A) (A) (A) (A) (A) (A) (A) (A) (A) (A) (A)
 The electronic state is 1-A.
 Alpha  occ. eigenvalues --  -19.63270 -19.62585 -19.62489 -10.63431 -10.58509
 Alpha  occ. eigenvalues --  -10.57980 -10.57673 -10.57657 -10.53128 -10.53043
 Alpha  occ. eigenvalues --  -10.52999 -10.52908 -10.52736  -1.20059  -1.16470
 Alpha  occ. eigenvalues --   -1.13248  -0.91071  -0.89920  -0.87282  -0.84800
 Alpha  occ. eigenvalues --   -0.74986  -0.74280  -0.73368  -0.71287  -0.66033
 Alpha  occ. eigenvalues --   -0.62788  -0.59868  -0.58531  -0.58073  -0.55660
 Alpha  occ. eigenvalues --   -0.54140  -0.52974  -0.52895  -0.50595  -0.50418
 Alpha  occ. eigenvalues --   -0.48111  -0.47038  -0.46359  -0.45518  -0.45452
 Alpha  occ. eigenvalues --   -0.43713  -0.43310  -0.40674  -0.39727  -0.39334
 Alpha  occ. eigenvalues --   -0.38528  -0.37787  -0.35711  -0.35021  -0.33767
 Alpha  occ. eigenvalues --   -0.31305
 Alpha virt. eigenvalues --   -0.00198   0.00825   0.00918   0.01025   0.02209
 Alpha virt. eigenvalues --    0.02484   0.02715   0.03280   0.03495   0.04521
 Alpha virt. eigenvalues --    0.04676   0.04886   0.05521   0.05792   0.07131
 Alpha virt. eigenvalues --    0.07505   0.07805   0.08252   0.09229   0.09458
 Alpha virt. eigenvalues --    0.09632   0.10419   0.10693   0.11456   0.12252
 Alpha virt. eigenvalues --    0.12552   0.12862   0.13057   0.13507   0.13531
 Alpha virt. eigenvalues --    0.13666   0.13958   0.14204   0.14563   0.14665
 Alpha virt. eigenvalues --    0.15134   0.15280   0.15658   0.16014   0.16179
 Alpha virt. eigenvalues --    0.16745   0.17009   0.17297   0.17615   0.17821
 Alpha virt. eigenvalues --    0.18233   0.18479   0.18671   0.18866   0.19211
 Alpha virt. eigenvalues --    0.19985   0.20081   0.20400   0.20777   0.21323
 Alpha virt. eigenvalues --    0.21873   0.22650   0.23422   0.23463   0.23922
 Alpha virt. eigenvalues --    0.24358   0.25848   0.26320   0.26482   0.27467
 Alpha virt. eigenvalues --    0.27509   0.27988   0.28462   0.29359   0.29470
 Alpha virt. eigenvalues --    0.29950   0.30488   0.31059   0.31393   0.31962
 Alpha virt. eigenvalues --    0.32750   0.33371   0.33718   0.33975   0.34489
 Alpha virt. eigenvalues --    0.34577   0.35081   0.35545   0.35900   0.36378
 Alpha virt. eigenvalues --    0.36801   0.37132   0.37338   0.38015   0.38462
 Alpha virt. eigenvalues --    0.38518   0.39011   0.39702   0.39936   0.41064
 Alpha virt. eigenvalues --    0.41571   0.42441   0.43438   0.44330   0.45564
 Alpha virt. eigenvalues --    0.47172   0.48410   0.49171   0.50084   0.50361
 Alpha virt. eigenvalues --    0.51393   0.52250   0.53448   0.54612   0.55788
 Alpha virt. eigenvalues --    0.56768   0.57269   0.57475   0.59037   0.59675
 Alpha virt. eigenvalues --    0.60262   0.60703   0.61099   0.61563   0.61986
 Alpha virt. eigenvalues --    0.62597   0.63192   0.63572   0.63851   0.64599
 Alpha virt. eigenvalues --    0.65059   0.65791   0.66285   0.66577   0.67087
 Alpha virt. eigenvalues --    0.67980   0.68351   0.69166   0.69458   0.70223
 Alpha virt. eigenvalues --    0.70719   0.71555   0.72311   0.72503   0.73428
 Alpha virt. eigenvalues --    0.73813   0.74124   0.74639   0.75360   0.75793
 Alpha virt. eigenvalues --    0.77063   0.77353   0.77933   0.78294   0.79525
 Alpha virt. eigenvalues --    0.79898   0.81141   0.82680   0.84158   0.85382
 Alpha virt. eigenvalues --    0.86337   0.87228   0.87368   0.88665   0.89302
 Alpha virt. eigenvalues --    0.90387   0.92307   0.93281   0.94302   0.96589
 Alpha virt. eigenvalues --    0.98428   0.99690   1.00437   1.01143   1.01186
 Alpha virt. eigenvalues --    1.02048   1.03456   1.04952   1.05702   1.06557
 Alpha virt. eigenvalues --    1.07920   1.08609   1.09639   1.10260   1.12267
 Alpha virt. eigenvalues --    1.12879   1.14736   1.15846   1.16210   1.16781
 Alpha virt. eigenvalues --    1.17511   1.17794   1.19269   1.20406   1.21139
 Alpha virt. eigenvalues --    1.21683   1.22845   1.22921   1.23955   1.24620
 Alpha virt. eigenvalues --    1.25147   1.26055   1.26232   1.26999   1.28262
 Alpha virt. eigenvalues --    1.28865   1.29402   1.30075   1.31908   1.32390
 Alpha virt. eigenvalues --    1.33611   1.33909   1.34399   1.34912   1.35640
 Alpha virt. eigenvalues --    1.36337   1.37026   1.37531   1.38098   1.38378
 Alpha virt. eigenvalues --    1.38593   1.39835   1.40913   1.41068   1.41890
 Alpha virt. eigenvalues --    1.42342   1.43575   1.43938   1.44801   1.45471
 Alpha virt. eigenvalues --    1.45694   1.45947   1.47149   1.47633   1.48288
 Alpha virt. eigenvalues --    1.48956   1.49677   1.50658   1.51728   1.52078
 Alpha virt. eigenvalues --    1.52758   1.53141   1.54627   1.55032   1.55929
 Alpha virt. eigenvalues --    1.56267   1.57361   1.57557   1.58378   1.58849
 Alpha virt. eigenvalues --    1.59667   1.60321   1.61221   1.61966   1.62532
 Alpha virt. eigenvalues --    1.63216   1.64953   1.65471   1.66391   1.66788
 Alpha virt. eigenvalues --    1.67686   1.68543   1.69388   1.70613   1.72237
 Alpha virt. eigenvalues --    1.72733   1.74277   1.74988   1.76524   1.77667
 Alpha virt. eigenvalues --    1.78510   1.78927   1.80476   1.81923   1.82125
 Alpha virt. eigenvalues --    1.85084   1.92027   1.93158   1.98515   1.99694
 Alpha virt. eigenvalues --    2.03028   2.07598   2.13467   2.17404   2.23289
 Alpha virt. eigenvalues --    2.25836   2.27807   2.28601   2.34237   2.40366
 Alpha virt. eigenvalues --    2.40989   2.44037   2.45004   2.48596   2.52639
 Alpha virt. eigenvalues --    2.58905   2.75654   2.77319   2.78195   2.82171
 Alpha virt. eigenvalues --    2.84475   2.87704   2.92058   2.93193   2.93353
 Alpha virt. eigenvalues --    2.95782   2.98056   2.99971   3.00883   3.03799
 Alpha virt. eigenvalues --    3.05651   3.07294   3.09195   3.09777   3.12052
 Alpha virt. eigenvalues --    3.13507   3.15089   3.16368   3.17730   3.22505
 Alpha virt. eigenvalues --    3.23253   3.28114   3.31900   3.32860   3.34206
 Alpha virt. eigenvalues --    3.35258   3.36559   3.38948   3.40334   3.41423
 Alpha virt. eigenvalues --    3.42259   3.44330   3.44508   3.45420   3.47360
 Alpha virt. eigenvalues --    3.48226   3.49344   3.50166   3.51387   3.52198
 Alpha virt. eigenvalues --    3.53521   3.54299   3.54583   3.55123   3.56486
 Alpha virt. eigenvalues --    3.56848   3.57579   3.58528   3.59230   3.60483
 Alpha virt. eigenvalues --    3.61208   3.61863   3.62958   3.63994   3.64679
 Alpha virt. eigenvalues --    3.65900   3.67918   3.67977   3.69060   3.69780
 Alpha virt. eigenvalues --    3.70952   3.71926   3.72417   3.73532   3.74209
 Alpha virt. eigenvalues --    3.74689   3.76092   3.76103   3.76546   3.77784
 Alpha virt. eigenvalues --    3.78296   3.79075   3.81342   3.82331   3.83935
 Alpha virt. eigenvalues --    3.87002   3.87840   3.88993   3.89838   3.90847
 Alpha virt. eigenvalues --    3.92971   3.95173   3.96125   3.96867   3.98302
 Alpha virt. eigenvalues --    3.99383   4.01132   4.02397   4.02515   4.03110
 Alpha virt. eigenvalues --    4.05121   4.05577   4.06346   4.07119   4.07439
 Alpha virt. eigenvalues --    4.08328   4.08673   4.09006   4.09738   4.10608
 Alpha virt. eigenvalues --    4.12324   4.13043   4.13866   4.14764   4.15679
 Alpha virt. eigenvalues --    4.16384   4.17709   4.18552   4.19997   4.21269
 Alpha virt. eigenvalues --    4.21863   4.22878   4.23611   4.26493   4.27174
 Alpha virt. eigenvalues --    4.28016   4.28291   4.30928   4.31183   4.32453
 Alpha virt. eigenvalues --    4.32511   4.33989   4.35542   4.37916   4.39114
 Alpha virt. eigenvalues --    4.40905   4.42379   4.45539   4.47872   4.48687
 Alpha virt. eigenvalues --    4.58012   4.61954   4.74266   4.76388   4.82091
 Alpha virt. eigenvalues --    4.85605   4.93853   4.94764   5.00375   5.03627
 Alpha virt. eigenvalues --    5.06978   5.07774   5.08105   5.08590   5.11471
 Alpha virt. eigenvalues --    5.12465   5.13572   5.14453   5.31921   5.39946
 Alpha virt. eigenvalues --    5.44630   5.57970   5.59900   5.64905   5.85352
 Alpha virt. eigenvalues --    5.87639   6.06382   7.03030   7.04728   7.06500
 Alpha virt. eigenvalues --    7.09114   7.10835   7.12473   7.14930   7.21514
 Alpha virt. eigenvalues --    7.24687   7.36254   7.40036   7.48188   7.53969
 Alpha virt. eigenvalues --    7.54632   7.64803  23.95938  23.97540  24.06300
 Alpha virt. eigenvalues --   24.07763  24.10597  24.12076  24.13679  24.15680
 Alpha virt. eigenvalues --   24.16635  24.22559  50.15422  50.18160  50.26304
          Condensed to atoms (all electrons):
               1          2          3          4          5          6
     1  C    5.830283   0.293030  -0.017682  -0.062259  -0.003341  -0.000570
     2  C    0.293030   7.315889   0.003757  -0.103498   0.009418  -0.034019
     3  C   -0.017682   0.003757   6.474678   0.006070  -0.121837   0.023849
     4  C   -0.062259  -0.103498   0.006070   5.772297  -0.000713  -0.000273
     5  C   -0.003341   0.009418  -0.121837  -0.000713   5.433597   0.087126
     6  O   -0.000570  -0.034019   0.023849  -0.000273   0.087126   8.234209
     7  C   -0.074746  -0.474426   0.017704  -0.030355   0.004435   0.001731
     8  C    0.004423  -0.749817  -0.660984  -0.014241   0.220002   0.032385
     9  C   -0.003046   0.092996   0.071973   0.020813   0.072320   0.006005
    10  C    0.055853   0.066176  -0.114411  -0.001185  -0.279133   0.127347
    11  O   -0.072637   0.258193   0.049635  -0.014963  -0.004186  -0.001421
    12  O   -0.022675   0.161131  -0.098537  -0.024041   0.000032   0.027515
    13  C   -0.225407  -1.030629   0.026377  -0.105217   0.010386   0.005190
    14  H    0.476888   0.015368   0.000056  -0.009013  -0.000083  -0.000021
    15  H    0.445040  -0.006956  -0.001520  -0.053008  -0.000039  -0.000007
    16  H    0.003210  -0.003428   0.500344  -0.002229  -0.018535   0.001323
    17  H   -0.029532   0.013340  -0.000164   0.425295   0.000106   0.000057
    18  H   -0.074538   0.006059  -0.010206   0.529895   0.001081  -0.000177
    19  H   -0.079927   0.036156   0.003312  -0.002596   0.002503   0.000006
    20  H   -0.016434  -0.013690   0.002701   0.012766  -0.000040   0.000097
    21  H    0.001994  -0.011827  -0.017324  -0.000233  -0.101100  -0.012237
    22  H   -0.000534   0.007758  -0.039999   0.000811  -0.018872   0.011239
    23  H   -0.002097   0.001818  -0.038669   0.004379   0.002060  -0.061632
    24  H    0.008417   0.008427   0.023300  -0.007501   0.006583  -0.063799
    25  H   -0.022032  -0.138903   0.004639  -0.002087  -0.000127  -0.000073
    26  H   -0.002527  -0.020856  -0.007830  -0.046278   0.001265  -0.000100
    27  H   -0.001696   0.536465  -0.009856  -0.001358   0.002232  -0.000480
    28  H   -0.000065  -0.006219  -0.029197  -0.000112   0.457903  -0.056215
    29  H   -0.000168   0.003246   0.011933   0.000078   0.448361  -0.067197
    30  H    0.000427  -0.007988   0.406501  -0.000194  -0.002901  -0.002885
    31  H   -0.008679  -0.142746  -0.006757  -0.009202  -0.021569   0.015290
               7          8          9         10         11         12
     1  C   -0.074746   0.004423  -0.003046   0.055853  -0.072637  -0.022675
     2  C   -0.474426  -0.749817   0.092996   0.066176   0.258193   0.161131
     3  C    0.017704  -0.660984   0.071973  -0.114411   0.049635  -0.098537
     4  C   -0.030355  -0.014241   0.020813  -0.001185  -0.014963  -0.024041
     5  C    0.004435   0.220002   0.072320  -0.279133  -0.004186   0.000032
     6  O    0.001731   0.032385   0.006005   0.127347  -0.001421   0.027515
     7  C    5.489230   0.111404  -0.006589  -0.083766   0.111953   0.018380
     8  C    0.111404   7.248335  -0.346270  -0.494671   0.012090   0.125453
     9  C   -0.006589  -0.346270   5.564278   0.055195  -0.003324  -0.014579
    10  C   -0.083766  -0.494671   0.055195   6.503196  -0.062316  -0.091011
    11  O    0.111953   0.012090  -0.003324  -0.062316   8.169005  -0.043077
    12  O    0.018380   0.125453  -0.014579  -0.091011  -0.043077   8.305930
    13  C    0.256452   0.310158  -0.031496  -0.146486  -0.009398  -0.060492
    14  H   -0.090452  -0.004772  -0.000239   0.001196  -0.001525  -0.000665
    15  H   -0.031979   0.002046   0.000133   0.001237   0.008018   0.000693
    16  H   -0.001507  -0.083463  -0.026697   0.005698   0.000902   0.003950
    17  H    0.013145   0.002865   0.000903  -0.001264  -0.004128  -0.001179
    18  H   -0.002821   0.000808  -0.003007   0.004171   0.001199   0.000571
    19  H    0.468332  -0.015664   0.002723  -0.016386  -0.036140   0.006272
    20  H    0.421518   0.003125  -0.000008  -0.000613  -0.056521   0.001459
    21  H   -0.000395  -0.018344   0.507007   0.031105   0.000715  -0.005256
    22  H   -0.000104  -0.015797   0.448595  -0.019611  -0.000155   0.002506
    23  H    0.000240  -0.037904   0.036395   0.433301  -0.002471   0.016626
    24  H    0.000643  -0.064384  -0.000245   0.436764   0.003807  -0.015099
    25  H    0.013209   0.004778  -0.000591   0.000026  -0.010809   0.009562
    26  H    0.006509  -0.006236   0.001399   0.000258   0.008657  -0.004240
    27  H   -0.021528   0.004483   0.003880  -0.028294  -0.061650  -0.045123
    28  H    0.000367   0.033401  -0.020742  -0.027909   0.000231   0.001084
    29  H    0.000109   0.007361  -0.062343  -0.004264  -0.000257   0.001604
    30  H    0.003128   0.001219  -0.018434  -0.006502   0.000523   0.005777
    31  H    0.009008   0.459735  -0.049407   0.022338   0.004423  -0.025937
              13         14         15         16         17         18
     1  C   -0.225407   0.476888   0.445040   0.003210  -0.029532  -0.074538
     2  C   -1.030629   0.015368  -0.006956  -0.003428   0.013340   0.006059
     3  C    0.026377   0.000056  -0.001520   0.500344  -0.000164  -0.010206
     4  C   -0.105217  -0.009013  -0.053008  -0.002229   0.425295   0.529895
     5  C    0.010386  -0.000083  -0.000039  -0.018535   0.000106   0.001081
     6  O    0.005190  -0.000021  -0.000007   0.001323   0.000057  -0.000177
     7  C    0.256452  -0.090452  -0.031979  -0.001507   0.013145  -0.002821
     8  C    0.310158  -0.004772   0.002046  -0.083463   0.002865   0.000808
     9  C   -0.031496  -0.000239   0.000133  -0.026697   0.000903  -0.003007
    10  C   -0.146486   0.001196   0.001237   0.005698  -0.001264   0.004171
    11  O   -0.009398  -0.001525   0.008018   0.000902  -0.004128   0.001199
    12  O   -0.060492  -0.000665   0.000693   0.003950  -0.001179   0.000571
    13  C    6.556954  -0.022948   0.008022  -0.002268  -0.047318  -0.065531
    14  H   -0.022948   0.478452  -0.009532  -0.000076  -0.001384   0.000904
    15  H    0.008022  -0.009532   0.480849   0.000046  -0.006822  -0.003294
    16  H   -0.002268  -0.000076   0.000046   0.433389  -0.000096   0.000118
    17  H   -0.047318  -0.001384  -0.006822  -0.000096   0.463891  -0.005290
    18  H   -0.065531   0.000904  -0.003294   0.000118  -0.005290   0.462818
    19  H    0.004558   0.004480  -0.001460  -0.000825  -0.002210   0.000402
    20  H    0.001381  -0.004139  -0.010574   0.000085   0.001477  -0.002584
    21  H   -0.001079  -0.000003   0.000050   0.004359  -0.000025  -0.000308
    22  H   -0.000299  -0.000010  -0.000020  -0.008874   0.000046  -0.000156
    23  H   -0.001639  -0.000093   0.000001  -0.005106   0.000098   0.000098
    24  H    0.001651  -0.000313   0.000088   0.001141  -0.000076  -0.000785
    25  H    0.520580  -0.004104  -0.002065   0.000217  -0.001656   0.000400
    26  H    0.443346  -0.001718   0.000994  -0.000222  -0.009656  -0.000810
    27  H   -0.076040   0.001683   0.000649  -0.000996   0.001974  -0.000597
    28  H    0.000587   0.000010   0.000005  -0.005395  -0.000000  -0.000070
    29  H    0.000505  -0.000009  -0.000004  -0.001658   0.000015   0.000041
    30  H    0.000756   0.000042   0.000164   0.000082   0.000162  -0.003757
    31  H    0.053311   0.001195   0.000176  -0.010027   0.000559   0.001127
              19         20         21         22         23         24
     1  C   -0.079927  -0.016434   0.001994  -0.000534  -0.002097   0.008417
     2  C    0.036156  -0.013690  -0.011827   0.007758   0.001818   0.008427
     3  C    0.003312   0.002701  -0.017324  -0.039999  -0.038669   0.023300
     4  C   -0.002596   0.012766  -0.000233   0.000811   0.004379  -0.007501
     5  C    0.002503  -0.000040  -0.101100  -0.018872   0.002060   0.006583
     6  O    0.000006   0.000097  -0.012237   0.011239  -0.061632  -0.063799
     7  C    0.468332   0.421518  -0.000395  -0.000104   0.000240   0.000643
     8  C   -0.015664   0.003125  -0.018344  -0.015797  -0.037904  -0.064384
     9  C    0.002723  -0.000008   0.507007   0.448595   0.036395  -0.000245
    10  C   -0.016386  -0.000613   0.031105  -0.019611   0.433301   0.436764
    11  O   -0.036140  -0.056521   0.000715  -0.000155  -0.002471   0.003807
    12  O    0.006272   0.001459  -0.005256   0.002506   0.016626  -0.015099
    13  C    0.004558   0.001381  -0.001079  -0.000299  -0.001639   0.001651
    14  H    0.004480  -0.004139  -0.000003  -0.000010  -0.000093  -0.000313
    15  H   -0.001460  -0.010574   0.000050  -0.000020   0.000001   0.000088
    16  H   -0.000825   0.000085   0.004359  -0.008874  -0.005106   0.001141
    17  H   -0.002210   0.001477  -0.000025   0.000046   0.000098  -0.000076
    18  H    0.000402  -0.002584  -0.000308  -0.000156   0.000098  -0.000785
    19  H    0.523159  -0.015637  -0.000936   0.000724   0.002235  -0.003056
    20  H   -0.015637   0.471784   0.000019   0.000015  -0.000559   0.001034
    21  H   -0.000936   0.000019   0.479557  -0.016763  -0.001490   0.000197
    22  H    0.000724   0.000015  -0.016763   0.484677   0.000792   0.000885
    23  H    0.002235  -0.000559  -0.001490   0.000792   0.492990  -0.017004
    24  H   -0.003056   0.001034   0.000197   0.000885  -0.017004   0.479174
    25  H   -0.001585   0.000960   0.000196  -0.000004  -0.000041   0.000961
    26  H    0.000477   0.000868  -0.002055   0.000180  -0.000039  -0.000347
    27  H    0.004195  -0.001597  -0.001562   0.000478   0.002890  -0.016860
    28  H   -0.000363   0.000004   0.000434   0.003013   0.007164  -0.002002
    29  H    0.000187  -0.000000  -0.004803  -0.007115  -0.001169   0.000079
    30  H   -0.002415   0.000467  -0.002512  -0.007219  -0.002010   0.001324
    31  H   -0.017388  -0.001459   0.002122  -0.002626  -0.019668  -0.006873
              25         26         27         28         29         30
     1  C   -0.022032  -0.002527  -0.001696  -0.000065  -0.000168   0.000427
     2  C   -0.138903  -0.020856   0.536465  -0.006219   0.003246  -0.007988
     3  C    0.004639  -0.007830  -0.009856  -0.029197   0.011933   0.406501
     4  C   -0.002087  -0.046278  -0.001358  -0.000112   0.000078  -0.000194
     5  C   -0.000127   0.001265   0.002232   0.457903   0.448361  -0.002901
     6  O   -0.000073  -0.000100  -0.000480  -0.056215  -0.067197  -0.002885
     7  C    0.013209   0.006509  -0.021528   0.000367   0.000109   0.003128
     8  C    0.004778  -0.006236   0.004483   0.033401   0.007361   0.001219
     9  C   -0.000591   0.001399   0.003880  -0.020742  -0.062343  -0.018434
    10  C    0.000026   0.000258  -0.028294  -0.027909  -0.004264  -0.006502
    11  O   -0.010809   0.008657  -0.061650   0.000231  -0.000257   0.000523
    12  O    0.009562  -0.004240  -0.045123   0.001084   0.001604   0.005777
    13  C    0.520580   0.443346  -0.076040   0.000587   0.000505   0.000756
    14  H   -0.004104  -0.001718   0.001683   0.000010  -0.000009   0.000042
    15  H   -0.002065   0.000994   0.000649   0.000005  -0.000004   0.000164
    16  H    0.000217  -0.000222  -0.000996  -0.005395  -0.001658   0.000082
    17  H   -0.001656  -0.009656   0.001974  -0.000000   0.000015   0.000162
    18  H    0.000400  -0.000810  -0.000597  -0.000070   0.000041  -0.003757
    19  H   -0.001585   0.000477   0.004195  -0.000363   0.000187  -0.002415
    20  H    0.000960   0.000868  -0.001597   0.000004  -0.000000   0.000467
    21  H    0.000196  -0.002055  -0.001562   0.000434  -0.004803  -0.002512
    22  H   -0.000004   0.000180   0.000478   0.003013  -0.007115  -0.007219
    23  H   -0.000041  -0.000039   0.002890   0.007164  -0.001169  -0.002010
    24  H    0.000961  -0.000347  -0.016860  -0.002002   0.000079   0.001324
    25  H    0.444325  -0.006103  -0.008746  -0.000013  -0.000056   0.000142
    26  H   -0.006103   0.476530  -0.012184  -0.000069   0.000218   0.000046
    27  H   -0.008746  -0.012184   0.488992   0.000027   0.000848   0.000646
    28  H   -0.000013  -0.000069   0.000027   0.497193  -0.005088   0.000596
    29  H   -0.000056   0.000218   0.000848  -0.005088   0.478181   0.000389
    30  H    0.000142   0.000046   0.000646   0.000596   0.000389   0.476290
    31  H    0.000290  -0.001612  -0.005564   0.003600  -0.000494  -0.008338
              31
     1  C   -0.008679
     2  C   -0.142746
     3  C   -0.006757
     4  C   -0.009202
     5  C   -0.021569
     6  O    0.015290
     7  C    0.009008
     8  C    0.459735
     9  C   -0.049407
    10  C    0.022338
    11  O    0.004423
    12  O   -0.025937
    13  C    0.053311
    14  H    0.001195
    15  H    0.000176
    16  H   -0.010027
    17  H    0.000559
    18  H    0.001127
    19  H   -0.017388
    20  H   -0.001459
    21  H    0.002122
    22  H   -0.002626
    23  H   -0.019668
    24  H   -0.006873
    25  H    0.000290
    26  H   -0.001612
    27  H   -0.005564
    28  H    0.003600
    29  H   -0.000494
    30  H   -0.008338
    31  H    0.531256
 Mulliken charges:
               1
     1  C   -0.398973
     2  C   -0.084224
     3  C   -0.451855
     4  C   -0.281848
     5  C   -0.186934
     6  O   -0.272261
     7  C   -0.128830
     8  C   -0.071522
     9  C   -0.297596
    10  C   -0.366037
    11  O   -0.244376
    12  O   -0.236633
    13  C   -0.373967
    14  H    0.170828
    15  H    0.179069
    16  H    0.216537
    17  H    0.186867
    18  H    0.164239
    19  H    0.136866
    20  H    0.204095
    21  H    0.170501
    22  H    0.176442
    23  H    0.190507
    24  H    0.223871
    25  H    0.198710
    26  H    0.182136
    27  H    0.244685
    28  H    0.147839
    29  H    0.201473
    30  H    0.166472
    31  H    0.233917
 Sum of Mulliken charges =  -0.00000
 Mulliken charges with hydrogens summed into heavy atoms:
               1
     1  C   -0.049076
     2  C    0.160462
     3  C   -0.068846
     4  C    0.069259
     5  C    0.162378
     6  O   -0.272261
     7  C    0.212131
     8  C    0.162395
     9  C    0.049347
    10  C    0.048341
    11  O   -0.244376
    12  O   -0.236633
    13  C    0.006880
 Electronic spatial extent (au):  <R**2>=           2836.2127
 Charge=             -0.0000 electrons
 Dipole moment (field-independent basis, Debye):
    X=             -1.1814    Y=              1.0094    Z=              2.7700  Tot=              3.1761
 Quadrupole moment (field-independent basis, Debye-Ang):
   XX=            -71.7418   YY=            -81.9805   ZZ=            -78.5632
   XY=              0.7218   XZ=              4.4968   YZ=             -2.4206
 Traceless Quadrupole moment (field-independent basis, Debye-Ang):
   XX=              5.6867   YY=             -4.5520   ZZ=             -1.1347
   XY=              0.7218   XZ=              4.4968   YZ=             -2.4206
 Octapole moment (field-independent basis, Debye-Ang**2):
  XXX=             -0.3139  YYY=             -2.3562  ZZZ=             -0.2836  XYY=              4.2191
  XXY=             12.9279  XXZ=             15.4552  XZZ=             -9.0834  YZZ=             -1.1230
  YYZ=              1.7783  XYZ=             -1.6765
 Hexadecapole moment (field-independent basis, Debye-Ang**3):
 XXXX=          -2690.2673 YYYY=           -531.1811 ZZZZ=           -448.2191 XXXY=             39.7354
 XXXZ=              9.3905 YYYX=             -4.1596 YYYZ=             -3.5623 ZZZX=              0.5777
 ZZZY=             -1.7277 XXYY=           -558.7246 XXZZ=           -539.4522 YYZZ=           -157.5808
 XXYZ=            -26.2119 YYXZ=             -1.1660 ZZXY=             10.1444
 N-N= 9.070169545291D+02 E-N=-3.256107035901D+03  KE= 6.153301029154D+02
 D1PCM: PCM CHGder 1st derivatives, ID1Alg=3 FixD1E=F DoIter=F DoCFld=F I1PDM=0.
 Calling FoFJK, ICntrl=      2127 FMM=F ISym2X=0 I1Cent= 0 IOpClX= 0 NMat=1 NMatS=1 NMatT=0.
 ***** Axes restored to original set *****
 -------------------------------------------------------------------
 Center     Atomic                   Forces (Hartrees/Bohr)
 Number     Number              X              Y              Z
 -------------------------------------------------------------------
      1        6          -0.002535809    0.001377564   -0.000737051
      2        6          -0.002431078   -0.004053550   -0.001312196
      3        6          -0.001100488   -0.001263455    0.004008381
      4        6          -0.001054151   -0.003809110    0.000795440
      5        6           0.006490770    0.001279710   -0.002171298
      6        8           0.000628807   -0.001872846    0.008711447
      7        6           0.001358981    0.004501646    0.005651214
      8        6          -0.003682076   -0.001240587    0.007798195
      9        6          -0.000190560   -0.002149904   -0.001490963
     10        6          -0.002064851    0.006486393   -0.001379106
     11        8           0.001522445   -0.006634162    0.000201479
     12        8           0.003726865    0.017101438   -0.007825366
     13        6          -0.000542332    0.000607022   -0.002715091
     14        1           0.001488581   -0.001914294    0.002248431
     15        1           0.001587597    0.001082747   -0.002080978
     16        1          -0.001792768   -0.001853093   -0.002516346
     17        1           0.001892974    0.001432441    0.000933208
     18        1          -0.002725563    0.001173780   -0.002086627
     19        1          -0.003675198    0.004065859   -0.004485143
     20        1           0.001667170   -0.003742272   -0.001806302
     21        1           0.002175386    0.000925584    0.002525134
     22        1          -0.001626626    0.001785837   -0.001632814
     23        1          -0.002479421   -0.003287611   -0.005010445
     24        1           0.004214127   -0.002831863    0.002763553
     25        1           0.002060285   -0.001922016    0.001992565
     26        1          -0.001903491    0.002379866    0.001136018
     27        1          -0.001858362   -0.004852259    0.006167249
     28        1          -0.003092110   -0.002341293   -0.004983814
     29        1          -0.002646282    0.001544447    0.003113668
     30        1           0.002390780    0.001997646   -0.000682873
     31        1           0.004196399   -0.003973666   -0.005129568
 -------------------------------------------------------------------
 Cartesian Forces:  Max     0.017101438 RMS     0.003647834

 GradGradGradGradGradGradGradGradGradGradGradGradGradGradGradGradGradGrad
 Berny optimization.
 FormGI is forming the generalized inverse of G from B-inverse, IUseBI=4.
 Internal  Forces:  Max     0.016876191 RMS     0.002273945
 Search for a local minimum.
 Step number   1 out of a maximum of  186
 All quantities printed in internal units (Hartrees-Bohrs-Radians)
 Mixed Optimization -- RFO/linear search
 Second derivative matrix not updated -- first step.
 ITU=  0
     Eigenvalues ---    0.00616   0.00650   0.00719   0.00741   0.01366
     Eigenvalues ---    0.01431   0.01435   0.02684   0.02822   0.03081
     Eigenvalues ---    0.03104   0.04110   0.04354   0.04734   0.04741
     Eigenvalues ---    0.04837   0.04892   0.05059   0.05092   0.05241
     Eigenvalues ---    0.05299   0.05728   0.05844   0.06195   0.06208
     Eigenvalues ---    0.06424   0.06613   0.06741   0.07369   0.07787
     Eigenvalues ---    0.07901   0.07951   0.07972   0.08177   0.08187
     Eigenvalues ---    0.08332   0.08936   0.09432   0.10842   0.11649
     Eigenvalues ---    0.11717   0.11730   0.11771   0.12452   0.12548
     Eigenvalues ---    0.14583   0.14809   0.16241   0.16292   0.17574
     Eigenvalues ---    0.19262   0.21717   0.21823   0.25000   0.28574
     Eigenvalues ---    0.28650   0.28786   0.28991   0.29082   0.29123
     Eigenvalues ---    0.30162   0.30439   0.35031   0.35076   0.35108
     Eigenvalues ---    0.35130   0.35153   0.35202   0.35248   0.35256
     Eigenvalues ---    0.35302   0.35336   0.35390   0.35451   0.35452
     Eigenvalues ---    0.35778   0.35811   0.35873   0.35921   0.36084
     Eigenvalues ---    0.40397   0.41516   0.42210   0.42548   0.44291
     Eigenvalues ---    0.443131000.000001000.000001000.000001000.00000
     Eigenvalues --- 1000.000001000.000001000.000001000.000001000.00000
     Eigenvalues --- 1000.000001000.000001000.000001000.000001000.00000
     Eigenvalues --- 1000.000001000.000001000.000001000.000001000.00000
     Eigenvalues --- 1000.000001000.000001000.000001000.000001000.00000
     Eigenvalues --- 1000.000001000.000001000.000001000.000001000.00000
     Eigenvalues --- 1000.000001000.000001000.000001000.000001000.00000
     Eigenvalues --- 1000.000001000.000001000.000001000.000001000.00000
     Eigenvalues --- 1000.000001000.000001000.000001000.000001000.00000
     Eigenvalues --- 1000.000001000.000001000.000001000.000001000.00000
     Eigenvalues --- 1000.000001000.000001000.000001000.000001000.00000
     Eigenvalues --- 1000.000001000.000001000.000001000.000001000.00000
     Eigenvalues --- 1000.000001000.000001000.000001000.000001000.00000
     Eigenvalues --- 1000.000001000.000001000.000001000.000001000.00000
     Eigenvalues --- 1000.000001000.000001000.000001000.000001000.00000
     Eigenvalues --- 1000.000001000.000001000.000001000.000001000.00000
     Eigenvalues --- 1000.000001000.000001000.000001000.000001000.00000
     Eigenvalues --- 1000.000001000.000001000.000001000.000001000.00000
     Eigenvalues --- 1000.000001000.000001000.000001000.000001000.00000
     Eigenvalues --- 1000.000001000.000001000.000001000.000001000.00000
 RFO step:  Lambda=-4.10020127D-03 EMin= 6.15849740D-03
 Linear search not attempted -- first point.
 Iteration  1 RMS(Cart)=  0.05837471 RMS(Int)=  0.00077390
 Iteration  2 RMS(Cart)=  0.00262301 RMS(Int)=  0.00005228
 Iteration  3 RMS(Cart)=  0.00000318 RMS(Int)=  0.00005225
 Iteration  4 RMS(Cart)=  0.00000000 RMS(Int)=  0.00005225
 Iteration  1 RMS(Cart)=  0.00003900 RMS(Int)=  0.00000817
 Iteration  2 RMS(Cart)=  0.00002038 RMS(Int)=  0.00000913
 Iteration  3 RMS(Cart)=  0.00001065 RMS(Int)=  0.00001026
 Iteration  4 RMS(Cart)=  0.00000557 RMS(Int)=  0.00001097
 Iteration  5 RMS(Cart)=  0.00000291 RMS(Int)=  0.00001137
 Iteration  6 RMS(Cart)=  0.00000152 RMS(Int)=  0.00001159
 Iteration  7 RMS(Cart)=  0.00000079 RMS(Int)=  0.00001170
 Variable       Old X    -DE/DX   Delta X   Delta X   Delta X     New X
                                 (Linear)    (Quad)   (Total)
    R1        2.88619  -0.00130   0.00000  -0.00269  -0.00271   2.88348
    R2        2.86859  -0.00027   0.00000  -0.00007  -0.00008   2.86850
    R3        2.05499   0.00323   0.00000   0.00909   0.00909   2.06408
    R4        2.05261   0.00281   0.00000   0.00787   0.00787   2.06049
    R5        2.64327   0.00337   0.00000   0.00624   0.00627   2.64954
    R6        2.66082   0.00264   0.00000   0.00591   0.00591   2.66672
    R7        2.87332  -0.00071   0.00000  -0.00324  -0.00322   2.87009
    R8        2.04430   0.00796   0.00000   0.02201   0.02201   2.06631
    R9        2.88330  -0.00203   0.00000  -0.00703  -0.00705   2.87625
   R10        2.89156  -0.00119   0.00000  -0.00439  -0.00441   2.88715
   R11        2.05465   0.00358   0.00000   0.01007   0.01007   2.06472
   R12        2.05047   0.00309   0.00000   0.00863   0.00863   2.05910
   R13        2.88645  -0.00149   0.00000  -0.00473  -0.00473   2.88172
   R14        2.05133   0.00255   0.00000   0.00712   0.00712   2.05845
   R15        2.05428   0.00346   0.00000   0.00973   0.00973   2.06401
   R16        2.67592   0.00332   0.00000   0.00788   0.00790   2.68382
   R17        2.87361   0.00055   0.00000   0.00155   0.00154   2.87514
   R18        2.05625   0.00621   0.00000   0.01751   0.01751   2.07376
   R19        2.04378   0.00437   0.00000   0.01207   0.01207   2.05584
   R20        2.66792   0.00226   0.00000   0.00537   0.00538   2.67331
   R21        2.69343   0.00280   0.00000   0.00644   0.00643   2.69986
   R22        2.04948   0.00700   0.00000   0.01953   0.01953   2.06901
   R23        2.04280   0.00448   0.00000   0.01235   0.01235   2.05515
   R24        2.87965   0.00014   0.00000   0.00076   0.00078   2.88043
   R25        2.68231  -0.00017   0.00000  -0.00039  -0.00039   2.68192
   R26        2.03951   0.00772   0.00000   0.02115   0.02115   2.06065
   R27        2.05188   0.00324   0.00000   0.00907   0.00907   2.06095
   R28        2.05275   0.00290   0.00000   0.00813   0.00813   2.06088
   R29        2.05551   0.00642   0.00000   0.01808   0.01808   2.07359
   R30        2.04206   0.00560   0.00000   0.01542   0.01542   2.05748
   R31        2.05348   0.00341   0.00000   0.00958   0.00958   2.06306
   R32        2.04947   0.00321   0.00000   0.00895   0.00895   2.05843
    A1        1.91561  -0.00126   0.00000  -0.00530  -0.00551   1.91009
    A2        1.91869   0.00094   0.00000   0.00180   0.00188   1.92057
    A3        1.94193  -0.00034   0.00000  -0.00125  -0.00122   1.94070
    A4        1.91252   0.00007   0.00000  -0.00246  -0.00241   1.91011
    A5        1.89756   0.00066   0.00000   0.00389   0.00396   1.90152
    A6        1.87694  -0.00004   0.00000   0.00349   0.00346   1.88040
    A7        1.97164  -0.00038   0.00000  -0.01472  -0.01461   1.95702
    A8        1.97261   0.00236   0.00000   0.01135   0.01099   1.98361
    A9        1.81506  -0.00020   0.00000  -0.00373  -0.00369   1.81137
   A10        1.89757  -0.00415   0.00000  -0.01937  -0.01937   1.87819
   A11        1.88611   0.00335   0.00000   0.02385   0.02393   1.91004
   A12        1.91747  -0.00066   0.00000   0.00520   0.00526   1.92273
   A13        1.94608   0.00028   0.00000  -0.00981  -0.00987   1.93622
   A14        1.88019  -0.00023   0.00000   0.00388   0.00388   1.88408
   A15        1.91436  -0.00043   0.00000  -0.00599  -0.00597   1.90840
   A16        1.90855  -0.00014   0.00000   0.00460   0.00463   1.91318
   A17        1.93967   0.00021   0.00000   0.00202   0.00194   1.94161
   A18        1.87254   0.00030   0.00000   0.00605   0.00603   1.87857
   A19        1.90562   0.00194   0.00000  -0.00008  -0.00003   1.90559
   A20        1.93386  -0.00027   0.00000   0.00184   0.00187   1.93572
   A21        1.91394  -0.00087   0.00000  -0.00245  -0.00253   1.91141
   A22        1.91598  -0.00054   0.00000   0.00188   0.00187   1.91785
   A23        1.92581  -0.00093   0.00000  -0.00642  -0.00645   1.91936
   A24        1.86854   0.00062   0.00000   0.00522   0.00524   1.87377
   A25        1.93836   0.00129   0.00000   0.00792   0.00786   1.94621
   A26        1.90073   0.00101   0.00000   0.00759   0.00765   1.90839
   A27        1.85650  -0.00115   0.00000  -0.00448  -0.00445   1.85205
   A28        1.92962  -0.00128   0.00000  -0.00861  -0.00862   1.92100
   A29        1.94570  -0.00034   0.00000  -0.00340  -0.00340   1.94231
   A30        1.89060   0.00051   0.00000   0.00132   0.00129   1.89189
   A31        1.97768  -0.00392   0.00000  -0.02576  -0.02568   1.95200
   A32        1.95470   0.00225   0.00000   0.00575   0.00564   1.96034
   A33        1.91882  -0.00139   0.00000  -0.00645  -0.00648   1.91234
   A34        1.94990  -0.00041   0.00000  -0.00229  -0.00222   1.94768
   A35        1.91264   0.00015   0.00000   0.00275   0.00284   1.91548
   A36        1.83730  -0.00122   0.00000  -0.00230  -0.00229   1.83501
   A37        1.88783   0.00062   0.00000   0.00282   0.00280   1.89063
   A38        1.91806   0.00074   0.00000   0.00253   0.00245   1.92050
   A39        1.87060   0.00012   0.00000  -0.00379  -0.00377   1.86683
   A40        1.91610  -0.00017   0.00000   0.00717   0.00718   1.92328
   A41        1.94729  -0.00084   0.00000  -0.00771  -0.00768   1.93962
   A42        1.89032  -0.00043   0.00000  -0.00396  -0.00397   1.88635
   A43        1.92157   0.00060   0.00000   0.00611   0.00608   1.92765
   A44        1.92488  -0.00028   0.00000  -0.00566  -0.00571   1.91917
   A45        1.92721   0.00037   0.00000  -0.00317  -0.00316   1.92405
   A46        1.92561  -0.00067   0.00000  -0.00044  -0.00044   1.92517
   A47        1.90670  -0.00037   0.00000  -0.00194  -0.00200   1.90470
   A48        1.90599   0.00069   0.00000   0.00541   0.00546   1.91145
   A49        1.87257   0.00028   0.00000   0.00620   0.00620   1.87876
   A50        1.95369   0.00095   0.00000   0.00411   0.00413   1.95782
   A51        1.91334   0.00114   0.00000   0.01153   0.01150   1.92484
   A52        1.86059  -0.00041   0.00000  -0.00094  -0.00097   1.85962
   A53        1.89988  -0.00100   0.00000  -0.00218  -0.00227   1.89762
   A54        1.94655  -0.00130   0.00000  -0.01502  -0.01504   1.93151
   A55        1.88847   0.00068   0.00000   0.00295   0.00290   1.89137
   A56        2.04551  -0.00473   0.00000  -0.03516  -0.03504   2.01047
   A57        2.10251  -0.01688   0.00000  -0.06642  -0.06642   2.03609
   A58        1.96263  -0.00089   0.00000  -0.01311  -0.01321   1.94942
   A59        1.87145  -0.00013   0.00000   0.00463   0.00465   1.87609
   A60        1.89487   0.00040   0.00000  -0.00311  -0.00314   1.89173
   A61        1.90688   0.00118   0.00000   0.00959   0.00968   1.91655
   A62        1.95081  -0.00061   0.00000  -0.00341  -0.00355   1.94726
   A63        1.87346   0.00011   0.00000   0.00662   0.00661   1.88007
    D1        0.96423  -0.00014   0.00000   0.00441   0.00437   0.96861
    D2        3.07653   0.00028   0.00000   0.00786   0.00787   3.08440
    D3       -1.14773   0.00034   0.00000   0.01387   0.01387  -1.13386
    D4       -1.14060  -0.00003   0.00000   0.00967   0.00965  -1.13095
    D5        0.97170   0.00039   0.00000   0.01312   0.01315   0.98485
    D6        3.03063   0.00045   0.00000   0.01914   0.01915   3.04978
    D7        3.06527  -0.00036   0.00000   0.00496   0.00491   3.07017
[...]
 514,-0.00002934,-0.00001549,-0.00015987,0.00058183,-0.00023802,0.00056
 523,-0.00166806,-0.00147514,-0.00023885,-0.10337457,0.07915096,-0.1703
 4490,0.00044944,-0.00064641,-0.00013818,0.00028638,-0.00006391,0.00037
 502,-0.00003635,0.00003505,-0.00003007,0.00001647,-0.00028120,0.001222
 04,0.00326416,0.00122351,-0.00306924,0.00006093,0.00006822,0.00008369,
 -0.00004158,-0.00006352,-0.00001602,0.00000147,-0.00000901,-0.00000386
 ,-0.00001611,0.00000588,0.00000205,-0.00004031,-0.00004572,0.00001769,
 0.00001302,0.00001548,0.00001474,0.11137226,-0.09095916,0.18609986,-0.
 00163138,-0.00254651,0.00342911,0.01142005,-0.01617568,-0.01010168,0.0
 0001974,0.00007095,0.00004067,-0.00820703,0.01509249,0.00657734,-0.000
 00971,-0.00000104,0.00000051,-0.00000089,0.00001059,-0.00000647,-0.001
 17171,-0.00054576,0.00088754,0.00047879,-0.00001682,0.00005813,-0.0000
 0621,-0.00000605,-0.00000416,0.00003158,-0.00001659,0.00007424,-0.0022
 6789,-0.00555716,-0.00408797,0.00021174,0.00002985,0.00002946,-0.10547
 974,0.09743362,0.05469361,0.00018460,-0.00038553,-0.00022654,-0.000148
 07,0.00111821,0.00094514,0.00001715,-0.00001798,0.00001590,0.00017429,
 0.00016118,-0.00072630,0.00086555,-0.00031972,-0.00031242,0.00012027,0
 .00006474,-0.00010479,0.00018739,0.00014729,-0.00010009,0.00000821,0.0
 0000845,0.00000875,0.00000377,-0.00000053,-0.00000075,0.00000930,0.000
 02420,-0.00000927,0.00001556,0.00001091,-0.00002627,-0.00823909,0.0136
 8379,0.00838229,0.11287953,-0.00149303,-0.00015425,0.00204391,0.013640
 70,-0.01630874,-0.00843279,-0.00002917,-0.00000890,0.00001246,-0.00562
 422,0.01103324,0.00556359,-0.00000355,-0.00000286,0.00000448,-0.000028
 40,0.00001249,-0.00000308,-0.00086066,-0.00030770,0.00154489,-0.000166
 83,0.00024904,-0.00010285,-0.00001053,0.00000558,-0.00000953,0.0000850
 3,-0.00001706,0.00009808,-0.00339013,-0.00413123,-0.00332351,0.0010932
 9,0.00137074,0.00140415,0.09403834,-0.21029274,-0.09219866,-0.00009394
 ,0.00006423,0.00002043,-0.00034495,0.00051561,0.00045756,-0.00000074,-
 0.00000309,-0.00000260,0.00048291,0.00040290,-0.00073544,0.00053084,0.
 00047976,-0.00059682,0.00007959,0.00009525,-0.00019501,0.00014733,0.00
 004104,-0.00012614,-0.00000710,-0.00000065,-0.00000688,-0.00000210,0.0
 0000273,0.00000394,0.00000146,0.00003355,-0.00002934,0.00002714,0.0000
 4576,-0.00003476,0.00513998,-0.01053953,-0.00556731,-0.10302172,0.2269
 2043,0.00282330,0.00331582,-0.00323559,0.00497959,-0.00781683,-0.00653
 413,0.00000760,0.00003624,0.00002750,0.01055896,-0.02007571,-0.0112165
 8,-0.00001153,-0.00000445,0.00000249,-0.00000065,0.00000830,-0.0000107
 4,0.00014340,0.00038043,0.00075267,-0.00002896,0.00003037,-0.00004588,
 -0.00001000,-0.00000153,-0.00000040,0.00003965,0.00000382,0.00008587,-
 0.00146477,-0.00213065,-0.00005088,0.00039829,0.00046167,0.00072280,0.
 05258107,-0.08983326,-0.09793953,0.00014873,-0.00018685,0.00013784,0.0
 0052855,-0.00133893,-0.00063747,0.00001891,-0.00000883,0.00001020,-0.0
 0035919,0.00024625,0.00095536,-0.00082025,-0.00026157,0.00077314,-0.00
 005027,0.00003428,-0.00005827,-0.00004625,-0.00005965,0.00001861,-0.00
 000655,0.00000579,0.00000249,0.00000502,-0.00000084,0.00000090,0.00002
 083,0.00002939,-0.00001807,0.00001085,0.00002727,-0.00001513,-0.008994
 55,0.01755794,0.01073183,-0.06017804,0.09956684,0.10540878,0.00047392,
 -0.00004353,-0.00018745,-0.09527976,-0.05451715,0.08279513,-0.00034258
 ,-0.00036586,-0.00021324,-0.00159600,-0.00295085,-0.00294172,0.0000176
 0,0.00012365,0.00000566,0.00025491,0.00008191,0.00047898,0.00197047,0.
 00234741,-0.00003495,0.00255339,0.00277874,0.00066324,0.00002377,-0.00
 005504,-0.00007399,-0.00016977,-0.00102200,-0.00016236,-0.00858566,0.0
 0050934,0.01775470,0.00228600,0.02003837,-0.02931996,-0.00984732,-0.01
 143762,0.01712964,-0.00007632,0.00008660,-0.00007016,-0.00003687,0.000
 02353,0.00003078,-0.00023039,0.00001015,-0.00004276,-0.00082897,-0.000
 38588,0.00101648,0.00003687,-0.00010045,0.00016692,-0.00016436,-0.0001
 6176,0.00040984,-0.00035692,-0.00007842,0.00053596,0.00002388,-0.00000
 567,0.00001103,-0.00004053,0.00002292,0.00001652,0.00012075,0.00010672
 ,0.00002432,-0.00086968,-0.00057335,-0.00063426,0.00033519,0.00048629,
 0.00035495,0.00049275,-0.00027174,-0.00036114,0.10998034,0.00025864,-0
 .00027113,-0.00044129,-0.06019904,-0.10260610,0.09422517,0.00022051,0.
 00035987,0.00027986,-0.00228031,-0.00217767,-0.00313422,-0.00011357,-0
 .00002749,-0.00001597,0.00030035,-0.00003998,-0.00015978,-0.00018480,-
 0.00330080,-0.00244802,-0.00237048,-0.00237329,-0.00154223,-0.00003255
 ,-0.00002013,0.00006625,0.00001688,-0.00009517,0.00027761,0.01923221,0
 .00608541,-0.03100999,0.00959214,-0.01112538,0.02166952,-0.01185951,-0
 .00773091,0.01737687,0.00001196,0.00009921,0.00008051,0.00009029,0.000
 23024,0.00019913,0.00023433,-0.00007618,0.00006067,-0.00086281,-0.0003
 7619,0.00118189,0.00023604,0.00000557,-0.00002961,0.00026426,0.0001372
 6,-0.00052188,0.00072585,0.00022492,-0.00093153,-0.00001185,0.00002478
 ,0.00002420,0.00006459,-0.00001762,-0.00000808,0.00020047,0.00029521,-
 0.00009603,-0.00067420,-0.00007220,-0.00060138,0.00029035,0.00095307,-
 0.00035703,0.00080436,0.00043941,-0.00003524,0.04576938,0.12097848,0.0
 0005759,-0.00011437,-0.00042681,0.08041936,0.08495969,-0.20031915,-0.0
 0036093,-0.00042934,-0.00021041,-0.00132847,-0.00182942,-0.00024858,0.
 00003843,0.00015275,-0.00007942,0.00003392,-0.00019138,0.00025749,-0.0
 0129986,-0.00452820,0.00162918,0.00241338,0.00226271,0.00137736,0.0000
 3590,0.00005194,-0.00007690,-0.00043233,0.00031774,-0.00044807,0.01984
 086,0.00000867,-0.02637414,-0.00778799,0.01800313,-0.01717679,-0.00532
 868,-0.00385364,0.00959743,0.00003352,0.00005211,0.00005149,0.00010654
 ,0.00021672,0.00008411,-0.00025530,0.00006580,-0.00008249,-0.00045989,
 -0.00020495,0.00041335,-0.00005618,-0.00011354,0.00011894,-0.00003816,
 0.00015097,-0.00015834,0.00080366,0.00029411,-0.00098169,0.00001786,-0
 .00003451,-0.00003227,-0.00006931,0.00000661,0.00002141,0.00009073,-0.
 00032851,0.00021991,-0.00039403,-0.00080677,-0.00009198,0.00047604,0.0
 0029054,0.00074703,0.00071382,0.00050238,0.00004983,-0.08722697,-0.094
 52739,0.23217149,-0.00000099,0.00000194,0.00000241,0.00018436,-0.00004
 343,0.00004213,0.00032613,0.00032542,-0.00121719,-0.00000393,-0.000004
 53,-0.00001071,-0.11230250,-0.06618964,-0.07565493,-0.02300587,0.00141
 961,-0.02332143,0.00002771,-0.00000053,-0.00002220,-0.00039442,0.00026
 364,0.00028462,-0.00684686,-0.01059092,-0.00997751,0.00176793,-0.00298
 020,-0.00393474,-0.00008066,0.00004238,0.00003064,-0.00009011,0.000055
 43,0.00009018,-0.00000445,0.00000632,0.00001740,-0.00000308,-0.0000010
 6,-0.00000272,-0.00000446,-0.00000146,0.00000171,-0.00022729,0.0000916
 9,0.00044686,-0.00000592,-0.00000356,0.00000336,0.00000092,0.00000254,
 -0.00000068,0.00000168,0.00000366,-0.00000678,-0.00000671,0.00000384,0
 .00000343,-0.00035512,-0.00234660,0.00126498,0.00048241,-0.00001936,0.
 00019895,0.00019339,0.00041668,0.00095209,0.00018582,0.00026874,0.0003
 4429,-0.00000790,-0.00000250,-0.00000367,-0.00000005,-0.00000082,0.000
 00154,0.00000875,0.00000449,0.00001875,0.12808809,-0.00000122,-0.00000
 096,0.00000168,0.00010489,-0.00007749,0.00015656,0.00124632,0.00084887
 ,-0.00082750,0.00000195,0.00000431,-0.00000030,-0.06756100,-0.12207607
 ,-0.09278488,0.02030764,0.00815318,0.01897003,0.00002019,-0.00000122,-
 0.00001640,0.00001454,-0.00027722,-0.00025740,-0.01426272,-0.01572522,
 -0.01879559,-0.00062781,0.00289870,0.00396877,-0.00006421,0.00005974,-
 0.00000696,-0.00026049,0.00003373,-0.00013461,0.00000194,0.00001259,-0
 .00001856,-0.00000152,0.00000035,-0.00000106,-0.00000164,-0.00000096,0
 .00000094,-0.00028260,0.00043439,0.00065058,-0.00000135,-0.00000065,-0
 .00000065,0.00000129,0.00000234,-0.00000174,0.00000229,-0.00000101,-0.
 00000171,-0.00000216,0.00000157,0.00000153,-0.00277612,-0.00345742,0.0
 0328912,0.00064957,0.00070364,-0.00003646,-0.00140606,-0.00003572,-0.0
 0049539,-0.00019185,0.00001928,0.00003821,-0.00000984,-0.00000286,-0.0
 0000260,0.00000159,0.00000130,0.00000342,-0.00001988,0.00002644,-0.000
 03963,0.06963779,0.13230191,-0.00000335,0.00000154,0.00000558,0.000277
 01,-0.00016130,0.00011457,-0.00019792,0.00035510,0.00129455,-0.0000046
 2,-0.00000331,-0.00001404,-0.07858980,-0.09056242,-0.16059549,-0.01906
 372,0.00227495,-0.01485733,0.00004591,-0.00000449,-0.00004117,-0.00002
 114,0.00036728,0.00005490,0.00848807,0.00768071,0.00958828,0.00353170,
 -0.00065809,0.00012012,-0.00013120,0.00003042,0.00003733,-0.00035947,-
 0.00017958,-0.00007284,-0.00002096,0.00002609,0.00000712,-0.00000471,-
 0.00000170,-0.00000464,-0.00000723,-0.00000300,0.00000266,-0.00041317,
 -0.00005691,-0.00007065,-0.00000929,-0.00000503,0.00000331,0.00000201,
 0.00000408,-0.00000128,0.00000341,0.00000567,-0.00001116,-0.00001046,0
 .00000607,0.00000460,0.00196957,0.00243755,-0.00039489,-0.00065791,-0.
 00096044,0.00053288,-0.00083515,0.00049235,0.00084441,0.00004468,0.000
 31979,0.00027867,-0.00001859,-0.00000724,-0.00000664,0.00000155,0.0000
 0074,0.00000152,0.00002649,0.00002164,0.00000453,0.09761242,0.09176464
 ,0.17742390,-0.00000656,0.00000205,0.00001063,0.00030297,-0.00012860,0
 .00014734,0.00011737,-0.00294664,0.00057380,-0.00000763,-0.00000380,-0
 .00001689,-0.14618017,0.04430470,0.11555781,-0.02185218,0.01537634,0.0
 1563259,0.00006329,-0.00000810,-0.00006720,0.00044373,0.00040830,0.000
 05904,-0.00835963,0.00314724,0.01173616,-0.00070521,0.00104680,-0.0045
 6364,-0.00019557,0.00002739,0.00004371,-0.00038032,-0.00003189,-0.0001
 9457,-0.00002397,0.00003281,0.00000503,-0.00000628,-0.00000179,-0.0000
 0595,-0.00000993,-0.00000547,0.00000288,-0.00002413,0.00013561,0.00023
 201,-0.00001146,-0.00000682,0.00000449,0.00000245,0.00000543,-0.000000
 76,0.00000848,0.00000505,-0.00001188,-0.00001339,0.00000808,0.00000631
 ,0.00030680,0.00066380,-0.00046073,0.00030475,-0.00022095,0.00007499,0
 .00009842,0.00022332,0.00037562,-0.00075919,0.00049846,0.00088582,-0.0
 0002394,-0.00000940,-0.00000851,0.00000187,-0.00000328,0.00000125,-0.0
 0000645,0.00002601,0.00000242,0.01194049,-0.00478729,-0.01129763,0.165
 48884,0.00000628,0.00000151,-0.00001113,-0.00007908,-0.00008275,0.0000
 0312,-0.00211152,-0.00492211,0.00172920,0.00000662,0.00000133,0.000008
 47,0.04393865,-0.07141572,-0.05634329,0.02051114,-0.01242096,-0.015569
 93,-0.00000821,0.00000518,0.00004061,0.00030736,-0.00078729,0.00008547
 ,-0.01745983,0.00985089,0.02025160,0.00177691,-0.00147617,0.00388803,0
 .00007363,0.00005505,-0.00004434,0.00004733,0.00024058,-0.00010061,-0.
 00000298,0.00000770,-0.00002722,0.00000084,0.00000008,0.00000182,0.000
 00491,0.00000330,-0.00000026,0.00014796,0.00002294,0.00009652,0.000003
 47,0.00000273,-0.00000240,0.00000004,0.00000031,-0.00000002,0.00000845
 ,-0.00000319,0.00000042,0.00000408,-0.00000192,-0.00000322,0.00056058,
 0.00116485,-0.00079917,0.00100698,0.00077394,-0.00063621,-0.00021395,0
 .00013320,0.00013801,0.00112479,-0.00029955,-0.00070976,-0.00000020,-0
 .00000231,-0.00000019,0.00000145,0.00000262,0.00000183,-0.00000386,0.0
 0001161,-0.00003802,0.00961749,-0.00406075,-0.01299349,-0.05799956,0.0
 8241543,-0.00000235,0.00000098,0.00000122,-0.00011703,0.00013219,-0.00
 005661,0.00108066,0.00355793,0.00008941,-0.00000128,0.00000261,0.00000
 548,0.12553049,-0.06327418,-0.20232608,-0.01380706,0.00768825,0.014353
 72,-0.00003225,-0.00000414,0.00001172,-0.00067358,0.00040849,-0.000074
 12,0.00681342,-0.00511130,-0.00917412,-0.00217458,0.00187472,-0.000533
 76,0.00005634,-0.00005921,0.00000175,0.00025491,-0.00011538,0.00014511
 ,0.00001102,-0.00002478,0.00000998,0.00000193,0.00000018,0.00000186,0.
 00000206,0.00000033,-0.00000162,-0.00033771,0.00007972,0.00035393,0.00
 000482,0.00000172,-0.00000120,-0.00000246,-0.00000346,0.00000101,-0.00
 000813,0.00000180,0.00000310,0.00000376,-0.00000226,-0.00000204,-0.000
 19591,0.00026097,0.00096706,-0.00022512,0.00007725,0.00004291,0.000001
 57,0.00027826,0.00025279,-0.00038329,0.00038214,0.00049940,0.00001415,
 0.00000696,0.00000492,-0.00000067,0.00000020,-0.00000192,0.00001673,-0
 .00001592,0.00002034,0.01257025,-0.00555635,-0.01436400,-0.12937883,0.
 06003118,0.21025117,0.00000499,-0.00001982,0.00001724,0.00019265,0.000
 17116,0.00014562,-0.12535332,-0.11019804,0.05435817,-0.00001711,0.0000
 3058,-0.00001775,-0.00304429,0.00420348,0.00295738,0.00104761,-0.00091
 287,-0.00015314,-0.00001586,0.00003039,-0.00010470,0.01122307,0.017034
 19,-0.00951390,-0.01170308,-0.01736623,0.00702815,-0.00344370,0.002717
 54,-0.00165563,-0.00004018,-0.00005282,0.00003878,0.00149854,-0.000009
 01,0.00134699,0.00002365,-0.00006998,0.00004052,0.00000584,0.00000377,
 0.00000421,-0.00000031,-0.00000172,-0.00000225,-0.00825862,-0.01098678
 ,0.00573493,0.00000494,-0.00000229,0.00000124,0.00004537,-0.00002374,0
 .00003973,0.00008418,-0.00009866,0.00007024,0.00001213,-0.00000459,0.0
 0000977,0.00104923,0.00025168,-0.00029039,0.00031330,-0.00012406,-0.00
 077971,-0.00004319,0.00000654,-0.00000590,0.00064353,0.00088604,-0.000
 72587,0.00002202,0.00001909,0.00000921,-0.00000386,-0.00000121,0.00000
 142,0.00004123,-0.00000168,0.00003818,0.00024988,0.00030379,-0.0002374
 9,-0.00043279,-0.00130013,0.00098448,0.13500970,0.00001579,-0.00000849
 ,-0.00000739,0.00017979,0.00020545,-0.00032859,-0.10840832,-0.20115664
 ,0.07592834,0.00000376,0.00000368,0.00000683,0.00249553,-0.00087177,-0
 .00165559,-0.00112198,0.00062827,0.00017782,-0.00003901,0.00000837,0.0
 0008473,-0.01356248,-0.01958990,0.00818963,0.00724965,0.01126008,-0.00
 519329,0.00562677,-0.00210785,0.00099019,0.00015033,0.00003226,0.00001
 878,-0.00095229,0.00188872,-0.00147588,0.00005421,-0.00005764,0.000020
 56,0.00000452,0.00000432,0.00000235,0.00000899,0.00000581,-0.00000211,
 -0.00633427,-0.01032575,0.00476442,0.00000381,0.00000633,-0.00000561,0
 .00003281,-0.00001034,0.00002069,0.00004895,-0.00005860,0.00002829,0.0
 0000607,-0.00000446,-0.00000649,-0.00063259,0.00054157,0.00053717,-0.0
 0060412,0.00039213,0.00068839,0.00011802,0.00036759,-0.00020417,-0.000
 93931,-0.00086765,0.00106232,0.00002223,0.00000919,0.00000888,-0.00000
 193,-0.00000224,-0.00000128,-0.00010052,0.00007698,-0.00012315,0.00010
 215,0.00005741,-0.00007911,0.00040039,0.00055432,-0.00042325,0.1163625
 7,0.21843524,-0.00001115,0.00001916,-0.00000394,-0.00014608,0.00008957
 ,0.00014783,0.05299021,0.07369116,-0.08437159,-0.00000781,0.00000275,0
 .00000701,0.00306657,-0.00388489,-0.00193274,-0.00043821,-0.00011520,0
 .00048268,-0.00000591,-0.00004447,0.00002817,0.00638237,0.01218501,-0.
 00736061,0.01208288,0.01722405,-0.00914434,-0.00291073,0.00086033,-0.0
 0022981,0.00000679,-0.00011476,-0.00006527,0.00125142,-0.00039108,0.00
 111618,0.00000604,-0.00002378,0.00000546,-0.00000430,-0.00000704,-0.00
 000423,-0.00000106,-0.00000330,-0.00000117,-0.01239213,-0.01875487,0.0
 1026118,0.00000447,-0.00000113,-0.00000100,-0.00001487,-0.00000380,-0.
 00000354,-0.00005148,0.00005976,-0.00003936,-0.00000202,0.00000327,-0.
 00000349,-0.00079588,0.00033761,0.00065204,-0.00043554,-0.00025030,0.0
 0076650,0.00023751,0.00020696,0.00015621,0.00051226,0.00056368,-0.0002
 2506,0.00001516,0.00000570,0.00000401,-0.00000105,-0.00000245,-0.00000
 719,0.00006949,-0.00006118,0.00008960,0.00017993,0.00025437,0.00005555
 ,0.00059593,0.00117574,-0.00053150,-0.05993743,-0.08248438,0.08980736,
 -0.00014329,-0.00021084,0.00015733,0.00269903,-0.00127617,-0.00020513,
 -0.01201310,0.00736888,0.01236375,0.00001542,0.00001360,-0.00005819,0.
 00131683,-0.00043321,0.00013427,-0.00256439,-0.00269536,0.00268239,-0.
 00269865,0.00038704,-0.00200770,-0.14021222,0.06645633,0.11256298,-0.0
 0073721,0.00245763,-0.00298708,-0.00893635,0.00945267,0.01051070,-0.00
 327085,0.00078372,-0.00036159,0.00883872,-0.01376150,-0.02177455,-0.00
 002503,0.00009085,0.00022313,0.00004391,0.00000909,0.00008127,0.000012
 16,0.00001423,0.00000159,0.00009415,-0.00022342,0.00002273,-0.00001946
 ,0.00002483,0.00002925,0.00000597,-0.00001119,0.00000915,-0.00296111,-
 0.00075229,0.00023698,0.00003835,0.00013248,0.00013646,-0.00001171,0.0
 0008978,0.00012154,-0.00068998,0.00034925,0.00076164,-0.00007853,0.000
 01766,-0.00038158,0.00043186,-0.00026653,-0.00012555,-0.00002692,0.000
 03406,0.00003574,0.00004349,0.00008751,0.00006317,-0.00018822,0.000247
 66,-0.00010286,-0.00011723,-0.00003602,-0.00011900,-0.00008067,0.00003
 035,-0.00000636,0.00088443,-0.00018954,-0.00024541,0.16035059,0.000110
 38,-0.00024615,0.00023983,0.00319327,-0.00253445,0.00138883,0.01485327
 ,-0.00880143,-0.01482560,0.00000633,0.00000479,-0.00012630,0.00082607,
 -0.00136989,0.00082535,-0.00528245,-0.00255872,0.00482381,0.00049507,0
 .00070154,-0.00056961,0.06328560,-0.09732920,-0.07532767,0.00206646,-0
 .00192019,0.00307251,-0.01213072,0.01215111,0.01464175,0.00103170,0.00
 100009,0.00216777,0.00047797,-0.01150666,-0.02135021,-0.00004255,0.000
 06000,-0.00019327,0.00009109,0.00009490,0.00004333,-0.00003544,0.00000
 061,0.00000322,-0.00039183,0.00093303,0.00016076,-0.00003355,-0.000011
 72,0.00003761,0.00001424,-0.00000142,0.00000962,-0.00075860,0.00005275
 ,0.00051503,0.00001793,-0.00021228,0.00015133,-0.00021610,0.00003119,0
 .00004349,0.00090365,-0.00031315,-0.00092503,0.00032232,0.00083410,-0.
 00105863,0.00094949,0.00035916,-0.00030227,-0.00013535,-0.00002584,-0.
 00002041,-0.00005066,0.00005334,0.00004595,-0.00029143,0.00036179,-0.0
 0017304,-0.00007922,0.00015781,-0.00011252,-0.00015820,0.00022515,-0.0
 0019565,-0.00084719,0.00058362,-0.00053647,-0.06819156,0.10922610,0.00
 018942,-0.00026399,0.00017568,0.00454461,-0.00421189,0.00050787,-0.009
 98469,0.00671137,0.01205826,0.00002014,-0.00009780,-0.00010718,-0.0007
 5741,0.00084618,-0.00064355,0.00347673,0.00199942,-0.00163165,-0.00017
 389,0.00056650,0.00033385,0.10778538,-0.07391329,-0.17266359,-0.001732
 59,0.00247248,-0.00113603,0.01060469,-0.00736395,-0.00992287,-0.000684
 31,0.00171751,0.00062533,-0.00174535,-0.01607509,-0.02413449,-0.000225
 13,0.00026441,-0.00000188,0.00012299,0.00011837,0.00007403,0.00000250,
 0.00003659,0.00000323,0.00049308,-0.00055790,0.00074393,-0.00005918,0.
 00002276,0.00003992,-0.00001608,0.00002788,-0.00003832,0.00081713,-0.0
 0016074,0.00081818,0.00004135,-0.00018160,0.00004427,-0.00003223,0.000
 12334,0.00011464,-0.00071397,0.00036280,0.00053478,0.00000834,0.000542
 84,0.00053908,-0.00060089,-0.00027747,0.00010104,-0.00015532,-0.000038
 30,-0.00002292,0.00002842,0.00014352,0.00008993,-0.00023789,0.00047345
 ,-0.00014642,0.00008663,-0.00012205,0.00005965,0.00005875,-0.00017275,
 0.00005008,0.00059788,-0.00053909,0.00034505,-0.11175910,0.08754650,0.
 19319009\\0.00000321,-0.00000494,-0.00001046,0.00884461,0.00667622,-0.
 00628956,0.00002428,0.00002077,-0.00000842,0.00001062,0.00002255,0.000
 00788,-0.00001656,0.00001584,0.00000422,-0.00000254,-0.00001235,0.0000
 0882,0.00002117,0.00001382,-0.00006272,0.00454626,0.00154714,-0.005366
 86,-0.00001332,0.00000511,0.00000947,0.00001906,-0.00001442,0.00000809
 ,-0.00486136,-0.00432360,0.00279270,-0.00857314,-0.00395491,0.00888540
 ,-0.00000533,0.00000978,-0.00001131,-0.00000439,0.00000481,-0.00001157
 ,-0.00000093,-0.00000607,-0.00000769,-0.00000488,0.00000465,0.00001237
 ,-0.00000499,0.00000019,-0.00001244,-0.00000015,-0.00000553,0.00000088
 ,0.00000690,-0.00000343,0.00001219,-0.00001008,0.00000889,-0.00000425,
 0.00000477,-0.00000859,-0.00000042,-0.00000345,-0.00000361,0.00002291,
 0.00000432,0.00000847,0.00001350,0.00000494,0.00000416,-0.00000350,0.0
 0000549,-0.00000306,-0.00001076,0.00000798,-0.00000828,0.00000403,-0.0
 0000379,0.00001136,-0.00002376,0.00000558,0.00000015,0.00001558,0.0000
 0551,-0.00000649,0.00000500,-0.00001394,-0.00000287,-0.00000005,0.0000
 0415,0.00000424,0.00002074\\\@


 IN THE WOODS WE RETURN TO REASON AND FAITH.

                                 -- EMERSON
 Job cpu time:       0 days 16 hours  4 minutes 53.1 seconds.
 Elapsed time:       0 days  1 hours  0 minutes 20.8 seconds.
 File lengths (MBytes):  RWF=    690 Int=      0 D2E=      0 Chk=     33 Scr=      1
 Normal termination of Gaussian 16 at Mon Nov  5 05:06:02 2018.
