 Entering Gaussian System, Link 0=g16
 Initial command:
 /apps/gaussian/g16a03/g16/l1.exe "/jobfs/local/2011874.r-man2/Gau-1915.inp" -scrdir="/jobfs/local/2011874.r-man2/"
 Entering Link 1 = /apps/gaussian/g16a03/g16/l1.exe PID=      1916.
  
 Copyright (c) 1988,1990,1992,1993,1995,1998,2003,2009,2016,
            Gaussian, Inc.  All Rights Reserved.
  
 This is part of the Gaussian(R) 16 program.  It is based on
 the Gaussian(R) 09 system (copyright 2009, Gaussian, Inc.),
 the Gaussian(R) 03 system (copyright 2003, Gaussian, Inc.),
 the Gaussian(R) 98 system (copyright 1998, Gaussian, Inc.),
 the Gaussian(R) 94 system (copyright 1995, Gaussian, Inc.),
 the Gaussian 92(TM) system (copyright 1992, Gaussian, Inc.),
 the Gaussian 90(TM) system (copyright 1990, Gaussian, Inc.),
 the Gaussian 88(TM) system (copyright 1988, Gaussian, Inc.),
 the Gaussian 86(TM) system (copyright 1986, Carnegie Mellon
 University), and the Gaussian 82(TM) system (copyright 1983,
 Carnegie Mellon University). Gaussian is a federally registered
 trademark of Gaussian, Inc.
  
 This software contains proprietary and confidential information,
 including trade secrets, belonging to Gaussian, Inc.
  
 This software is provided under written license and may be
 used, copied, transmitted, or stored only in accord with that
 written license.
  
 The following legend is applicable only to US Government
 contracts under FAR:
  
                    RESTRICTED RIGHTS LEGEND
  
 Use, reproduction and disclosure by the US Government is
 subject to restrictions as set forth in subparagraphs (a)
 and (c) of the Commercial Computer Software - Restricted
 Rights clause in FAR 52.227-19.
  
 Gaussian, Inc.
 340 Quinnipiac St., Bldg. 40, Wallingford CT 06492
  
  
 ---------------------------------------------------------------
 Warning -- This program may not be used in any manner that
 competes with the business of Gaussian, Inc. or will provide
 assistance to any competitor of Gaussian, Inc.  The licensee
 of this program is prohibited from giving any competitor of
 Gaussian, Inc. access to this program.  By using this program,
 the user acknowledges that Gaussian, Inc. is engaged in the
 business of creating and licensing software in the field of
 computational chemistry and represents and warrants to the
 licensee that it is not a competitor of Gaussian, Inc. and that
 it will not use this program in any manner prohibited above.
 ---------------------------------------------------------------
  

 Cite this work as:
 Gaussian 16, Revision A.03,
 M. J. Frisch, G. W. Trucks, H. B. Schlegel, G. E. Scuseria, 
 M. A. Robb, J. R. Cheeseman, G. Scalmani, V. Barone, 
 G. A. Petersson, H. Nakatsuji, X. Li, M. Caricato, A. V. Marenich, 
 J. Bloino, B. G. Janesko, R. Gomperts, B. Mennucci, H. P. Hratchian, 
 J. V. Ortiz, A. F. Izmaylov, J. L. Sonnenberg, D. Williams-Young, 
 F. Ding, F. Lipparini, F. Egidi, J. Goings, B. Peng, A. Petrone, 
 T. Henderson, D. Ranasinghe, V. G. Zakrzewski, J. Gao, N. Rega, 
 G. Zheng, W. Liang, M. Hada, M. Ehara, K. Toyota, R. Fukuda, 
 J. Hasegawa, M. Ishida, T. Nakajima, Y. Honda, O. Kitao, H. Nakai, 
 T. Vreven, K. Throssell, J. A. Montgomery, Jr., J. E. Peralta, 
 F. Ogliaro, M. J. Bearpark, J. J. Heyd, E. N. Brothers, K. N. Kudin, 
 V. N. Staroverov, T. A. Keith, R. Kobayashi, J. Normand, 
 K. Raghavachari, A. P. Rendell, J. C. Burant, S. S. Iyengar, 
 J. Tomasi, M. Cossi, J. M. Millam, M. Klene, C. Adamo, R. Cammi, 
 J. W. Ochterski, R. L. Martin, K. Morokuma, O. Farkas, 
 J. B. Foresman, and D. J. Fox, Gaussian, Inc., Wallingford CT, 2016.
 
 ******************************************
 Gaussian 16:  ES64L-G16RevA.03 25-Dec-2016
                 5-Nov-2018 
 ******************************************
 %mem=6000mb
 %nproc=24
 Will use up to   24 processors via shared memory.
 %chk=D_1a_4a_L_PHI.inp_extract_11.chk
 ----------------------------------------------------------------------
 #M062X/6-311++G(2d,2p) opt=ModRedundant freq=noraman SCRF=(Solvent=Wat
 er)
 ----------------------------------------------------------------------
 1/18=120,19=15,26=3,38=1/1,3;
 2/9=110,12=2,17=6,18=5,40=1/2;
 3/5=4,6=6,7=1212,11=2,25=1,30=1,70=2201,71=1,72=1,74=-55/1,2,3;
 4//1;
 5/5=2,38=5,53=1/2;
 6/7=2,8=2,9=2,10=2,28=1/1;
 7//1,2,3,16;
 1/18=20,19=15,26=3/3(2);
 2/9=110/2;
 99//99;
 2/9=110/2;
 3/5=4,6=6,7=1212,11=2,25=1,30=1,70=2205,71=1,72=1,74=-55/1,2,3;
 4/5=5,16=3,69=1/1;
 5/5=2,38=5,53=1/2;
 7//1,2,3,16;
 1/18=20,19=15,26=3/3(-5);
 2/9=110/2;
 6/7=2,8=2,9=2,10=2,19=2,28=1/1;
 99/9=1/99;
 ----------------------------
 D_1a_4a_L_PHI.inp_extract_11
 ----------------------------
 Symbolic Z-matrix:
 Charge =  0 Multiplicity = 1
 C                     3.42381  -0.01531   0.83888 
 C                     1.11592  -0.14438  -0.90681 
 C                    -1.99715   1.50964   0.10205 
 C                     2.42418  -1.15998   1.00318 
 C                    -3.29824  -0.52273   0.7666 
 O                    -2.4343   -1.31092  -0.03232 
 C                     2.73352   1.20012   0.24315 
 C                    -1.16864   0.6127   -0.81159 
 C                    -2.58578   0.72097   1.27411 
 C                    -1.96036  -0.63567  -1.17735 
 O                     2.07642   0.87888  -0.97611 
 O                     0.03039   0.27439  -0.12931 
 C                     1.71628  -1.4178   -0.32772 
 H                     4.23355  -0.32501   0.18216 
 H                     3.86453   0.25996   1.7929 
 H                    -2.80569   1.93073  -0.49027 
 H                     2.92775  -2.06316   1.33385 
 H                     1.69703  -0.90354   1.76925 
 H                     2.0137    1.61252   0.94194 
 H                     3.44319   1.9768   -0.00618 
 H                    -1.80108   0.42687   1.96471 
 H                    -3.28941   1.33631   1.82732 
 H                    -2.79964  -0.34993  -1.80738 
 H                    -1.35063  -1.34208  -1.72292 
 H                     2.43286  -1.79993  -1.05007 
 H                     0.93067  -2.15833  -0.22329 
 H                     0.8      -0.30113  -1.92699 
 H                    -4.17198  -0.25016   0.17833 
 H                    -3.62064  -1.15547   1.58223 
 H                    -1.38792   2.33606   0.45236 
 H                    -0.91767   1.14539  -1.72303 
 
 The following ModRedundant input section has been read:
 D      11       2      12       8 F                                           
 

 GradGradGradGradGradGradGradGradGradGradGradGradGradGradGradGradGradGrad
 Berny optimization.
 Initialization pass.
                           ----------------------------
                           !    Initial Parameters    !
                           ! (Angstroms and Degrees)  !
 --------------------------                            --------------------------
 ! Name  Definition              Value          Derivative Info.                !
 --------------------------------------------------------------------------------
 ! R1    R(1,4)                  1.5286         estimate D2E/DX2                !
 ! R2    R(1,7)                  1.5194         estimate D2E/DX2                !
 ! R3    R(1,14)                 1.0876         estimate D2E/DX2                !
 ! R4    R(1,15)                 1.0864         estimate D2E/DX2                !
 ! R5    R(2,11)                 1.4051         estimate D2E/DX2                !
 ! R6    R(2,12)                 1.3994         estimate D2E/DX2                !
 ! R7    R(2,13)                 1.5223         estimate D2E/DX2                !
 ! R8    R(2,27)                 1.0794         estimate D2E/DX2                !
 ! R9    R(3,8)                  1.525          estimate D2E/DX2                !
 ! R10   R(3,9)                  1.5304         estimate D2E/DX2                !
 ! R11   R(3,16)                 1.0872         estimate D2E/DX2                !
 ! R12   R(3,30)                 1.0848         estimate D2E/DX2                !
 ! R13   R(4,13)                 1.5293         estimate D2E/DX2                !
 ! R14   R(4,17)                 1.0857         estimate D2E/DX2                !
 ! R15   R(4,18)                 1.0869         estimate D2E/DX2                !
 ! R16   R(5,6)                  1.4163         estimate D2E/DX2                !
 ! R17   R(5,9)                  1.5205         estimate D2E/DX2                !
 ! R18   R(5,28)                 1.088          estimate D2E/DX2                !
 ! R19   R(5,29)                 1.0815         estimate D2E/DX2                !
 ! R20   R(6,10)                 1.4113         estimate D2E/DX2                !
 ! R21   R(7,11)                 1.4218         estimate D2E/DX2                !
 ! R22   R(7,19)                 1.0847         estimate D2E/DX2                !
 ! R23   R(7,20)                 1.0812         estimate D2E/DX2                !
 ! R24   R(8,10)                 1.5228         estimate D2E/DX2                !
 ! R25   R(8,12)                 1.4204         estimate D2E/DX2                !
 ! R26   R(8,31)                 1.0851         estimate D2E/DX2                !
 ! R27   R(9,21)                 1.0859         estimate D2E/DX2                !
 ! R28   R(9,22)                 1.0862         estimate D2E/DX2                !
 ! R29   R(10,23)                1.0877         estimate D2E/DX2                !
 ! R30   R(10,24)                1.0809         estimate D2E/DX2                !
 ! R31   R(13,25)                1.0869         estimate D2E/DX2                !
 ! R32   R(13,26)                1.0847         estimate D2E/DX2                !
 ! A1    A(4,1,7)              110.1245         estimate D2E/DX2                !
 ! A2    A(4,1,14)             109.7889         estimate D2E/DX2                !
 ! A3    A(4,1,15)             111.1407         estimate D2E/DX2                !
 ! A4    A(7,1,14)             109.2255         estimate D2E/DX2                !
 ! A5    A(7,1,15)             109.0224         estimate D2E/DX2                !
 ! A6    A(14,1,15)            107.4802         estimate D2E/DX2                !
 ! A7    A(11,2,12)            109.8607         estimate D2E/DX2                !
 ! A8    A(11,2,13)            110.9991         estimate D2E/DX2                !
 ! A9    A(11,2,27)            105.0228         estimate D2E/DX2                !
 ! A10   A(12,2,13)            110.1758         estimate D2E/DX2                !
 ! A11   A(12,2,27)            109.9699         estimate D2E/DX2                !
 ! A12   A(13,2,27)            110.7004         estimate D2E/DX2                !
 ! A13   A(8,3,9)              111.3882         estimate D2E/DX2                !
 ! A14   A(8,3,16)             107.7852         estimate D2E/DX2                !
 ! A15   A(8,3,30)             109.6583         estimate D2E/DX2                !
 ! A16   A(9,3,16)             109.3184         estimate D2E/DX2                !
 ! A17   A(9,3,30)             111.1784         estimate D2E/DX2                !
 ! A18   A(16,3,30)            107.3691         estimate D2E/DX2                !
 ! A19   A(1,4,13)             109.5974         estimate D2E/DX2                !
 ! A20   A(1,4,17)             110.6334         estimate D2E/DX2                !
 ! A21   A(1,4,18)             109.6692         estimate D2E/DX2                !
 ! A22   A(13,4,17)            109.8467         estimate D2E/DX2                !
 ! A23   A(13,4,18)            110.0882         estimate D2E/DX2                !
 ! A24   A(17,4,18)            106.9729         estimate D2E/DX2                !
 ! A25   A(6,5,9)              110.9564         estimate D2E/DX2                !
 ! A26   A(6,5,28)             108.9227         estimate D2E/DX2                !
 ! A27   A(6,5,29)             106.3603         estimate D2E/DX2                !
 ! A28   A(9,5,28)             110.5992         estimate D2E/DX2                !
 ! A29   A(9,5,29)             111.5014         estimate D2E/DX2                !
 ! A30   A(28,5,29)            108.3579         estimate D2E/DX2                !
 ! A31   A(5,6,10)             113.3439         estimate D2E/DX2                !
 ! A32   A(1,7,11)             111.4356         estimate D2E/DX2                !
 ! A33   A(1,7,19)             110.6733         estimate D2E/DX2                !
 ! A34   A(1,7,20)             111.5207         estimate D2E/DX2                !
 ! A35   A(11,7,19)            109.3692         estimate D2E/DX2                !
 ! A36   A(11,7,20)            105.5392         estimate D2E/DX2                !
 ! A37   A(19,7,20)            108.1206         estimate D2E/DX2                !
 ! A38   A(3,8,10)             110.0958         estimate D2E/DX2                !
 ! A39   A(3,8,12)             108.1145         estimate D2E/DX2                !
 ! A40   A(3,8,31)             109.8856         estimate D2E/DX2                !
 ! A41   A(10,8,12)            111.0378         estimate D2E/DX2                !
 ! A42   A(10,8,31)            108.7194         estimate D2E/DX2                !
 ! A43   A(12,8,31)            108.9737         estimate D2E/DX2                !
 ! A44   A(3,9,5)              110.2496         estimate D2E/DX2                !
 ! A45   A(3,9,21)             110.4067         estimate D2E/DX2                !
 ! A46   A(3,9,22)             110.3207         estimate D2E/DX2                !
 ! A47   A(5,9,21)             109.2281         estimate D2E/DX2                !
 ! A48   A(5,9,22)             109.2597         estimate D2E/DX2                !
 ! A49   A(21,9,22)            107.3162         estimate D2E/DX2                !
 ! A50   A(6,10,8)             111.8365         estimate D2E/DX2                !
 ! A51   A(6,10,23)            109.6663         estimate D2E/DX2                !
 ! A52   A(6,10,24)            106.6331         estimate D2E/DX2                !
 ! A53   A(8,10,23)            108.962          estimate D2E/DX2                !
 ! A54   A(8,10,24)            111.3277         estimate D2E/DX2                !
 ! A55   A(23,10,24)           108.3359         estimate D2E/DX2                !
 ! A56   A(2,11,7)             115.9858         estimate D2E/DX2                !
 ! A57   A(2,12,8)             117.3366         estimate D2E/DX2                !
 ! A58   A(2,13,4)             111.8743         estimate D2E/DX2                !
 ! A59   A(2,13,25)            107.5354         estimate D2E/DX2                !
 ! A60   A(2,13,26)            108.7896         estimate D2E/DX2                !
 ! A61   A(4,13,25)            109.4189         estimate D2E/DX2                !
 ! A62   A(4,13,26)            111.5043         estimate D2E/DX2                !
 ! A63   A(25,13,26)           107.5466         estimate D2E/DX2                !
 ! D1    D(7,1,4,13)            53.0244         estimate D2E/DX2                !
 ! D2    D(7,1,4,17)           174.2992         estimate D2E/DX2                !
 ! D3    D(7,1,4,18)           -67.9357         estimate D2E/DX2                !
 ! D4    D(14,1,4,13)          -67.2771         estimate D2E/DX2                !
 ! D5    D(14,1,4,17)           53.9976         estimate D2E/DX2                !
 ! D6    D(14,1,4,18)          171.7628         estimate D2E/DX2                !
 ! D7    D(15,1,4,13)          173.9465         estimate D2E/DX2                !
 ! D8    D(15,1,4,17)          -64.7787         estimate D2E/DX2                !
 ! D9    D(15,1,4,18)           52.9865         estimate D2E/DX2                !
 ! D10   D(4,1,7,11)           -54.7048         estimate D2E/DX2                !
 ! D11   D(4,1,7,19)            67.231          estimate D2E/DX2                !
 ! D12   D(4,1,7,20)          -172.3627         estimate D2E/DX2                !
 ! D13   D(14,1,7,11)           65.9359         estimate D2E/DX2                !
 ! D14   D(14,1,7,19)         -172.1283         estimate D2E/DX2                !
 ! D15   D(14,1,7,20)          -51.722          estimate D2E/DX2                !
 ! D16   D(15,1,7,11)         -176.8881         estimate D2E/DX2                !
 ! D17   D(15,1,7,19)          -54.9523         estimate D2E/DX2                !
 ! D18   D(15,1,7,20)           65.454          estimate D2E/DX2                !
 ! D19   D(12,2,11,7)           66.7003         estimate D2E/DX2                !
 ! D20   D(13,2,11,7)          -55.4034         estimate D2E/DX2                !
 ! D21   D(27,2,11,7)         -175.0759         estimate D2E/DX2                !
 ! D22   D(11,2,12,8)          105.5423         Frozen                          !
 ! D23   D(13,2,12,8)         -131.8657         estimate D2E/DX2                !
 ! D24   D(27,2,12,8)           -9.5757         estimate D2E/DX2                !
 ! D25   D(11,2,13,4)           52.3037         estimate D2E/DX2                !
 ! D26   D(11,2,13,25)         -67.8674         estimate D2E/DX2                !
 ! D27   D(11,2,13,26)         175.9345         estimate D2E/DX2                !
 ! D28   D(12,2,13,4)          -69.6164         estimate D2E/DX2                !
 ! D29   D(12,2,13,25)         170.2125         estimate D2E/DX2                !
 ! D30   D(12,2,13,26)          54.0144         estimate D2E/DX2                !
 ! D31   D(27,2,13,4)          168.5257         estimate D2E/DX2                !
 ! D32   D(27,2,13,25)          48.3547         estimate D2E/DX2                !
 ! D33   D(27,2,13,26)         -67.8435         estimate D2E/DX2                !
 ! D34   D(9,3,8,10)            49.8556         estimate D2E/DX2                !
 ! D35   D(9,3,8,12)           -71.6024         estimate D2E/DX2                !
 ! D36   D(9,3,8,31)           169.5745         estimate D2E/DX2                !
 ! D37   D(16,3,8,10)          -70.0619         estimate D2E/DX2                !
 ! D38   D(16,3,8,12)          168.48           estimate D2E/DX2                !
 ! D39   D(16,3,8,31)           49.6569         estimate D2E/DX2                !
 ! D40   D(30,3,8,10)          173.3544         estimate D2E/DX2                !
 ! D41   D(30,3,8,12)           51.8964         estimate D2E/DX2                !
 ! D42   D(30,3,8,31)          -66.9268         estimate D2E/DX2                !
 ! D43   D(8,3,9,5)            -50.7513         estimate D2E/DX2                !
 ! D44   D(8,3,9,21)            70.031          estimate D2E/DX2                !
 ! D45   D(8,3,9,22)          -171.517          estimate D2E/DX2                !
 ! D46   D(16,3,9,5)            68.2553         estimate D2E/DX2                !
 ! D47   D(16,3,9,21)         -170.9624         estimate D2E/DX2                !
 ! D48   D(16,3,9,22)          -52.5104         estimate D2E/DX2                !
 ! D49   D(30,3,9,5)          -173.3808         estimate D2E/DX2                !
 ! D50   D(30,3,9,21)          -52.5985         estimate D2E/DX2                !
 ! D51   D(30,3,9,22)           65.8534         estimate D2E/DX2                !
 ! D52   D(1,4,13,2)           -52.3214         estimate D2E/DX2                !
 ! D53   D(1,4,13,25)           66.7425         estimate D2E/DX2                !
 ! D54   D(1,4,13,26)         -174.4101         estimate D2E/DX2                !
 ! D55   D(17,4,13,2)         -174.0693         estimate D2E/DX2                !
 ! D56   D(17,4,13,25)         -55.0054         estimate D2E/DX2                !
 ! D57   D(17,4,13,26)          63.842          estimate D2E/DX2                !
 ! D58   D(18,4,13,2)           68.3848         estimate D2E/DX2                !
 ! D59   D(18,4,13,25)        -172.5514         estimate D2E/DX2                !
 ! D60   D(18,4,13,26)         -53.704          estimate D2E/DX2                !
 ! D61   D(9,5,6,10)           -60.6973         estimate D2E/DX2                !
 ! D62   D(28,5,6,10)           61.2791         estimate D2E/DX2                !
 ! D63   D(29,5,6,10)          177.8711         estimate D2E/DX2                !
 ! D64   D(6,5,9,3)             54.9127         estimate D2E/DX2                !
 ! D65   D(6,5,9,21)           -66.5727         estimate D2E/DX2                !
 ! D66   D(6,5,9,22)           176.3118         estimate D2E/DX2                !
 ! D67   D(28,5,9,3)           -66.0803         estimate D2E/DX2                !
 ! D68   D(28,5,9,21)          172.4343         estimate D2E/DX2                !
 ! D69   D(28,5,9,22)           55.3188         estimate D2E/DX2                !
 ! D70   D(29,5,9,3)           173.2762         estimate D2E/DX2                !
 ! D71   D(29,5,9,21)           51.7908         estimate D2E/DX2                !
 ! D72   D(29,5,9,22)          -65.3247         estimate D2E/DX2                !
 ! D73   D(5,6,10,8)            60.3245         estimate D2E/DX2                !
 ! D74   D(5,6,10,23)          -60.6698         estimate D2E/DX2                !
 ! D75   D(5,6,10,24)         -177.7624         estimate D2E/DX2                !
 ! D76   D(1,7,11,2)            57.3484         estimate D2E/DX2                !
 ! D77   D(19,7,11,2)          -65.3388         estimate D2E/DX2                !
 ! D78   D(20,7,11,2)          178.5613         estimate D2E/DX2                !
 ! D79   D(3,8,10,6)           -53.795          estimate D2E/DX2                !
 ! D80   D(3,8,10,23)           67.6068         estimate D2E/DX2                !
 ! D81   D(3,8,10,24)         -172.9708         estimate D2E/DX2                !
 ! D82   D(12,8,10,6)           65.9035         estimate D2E/DX2                !
 ! D83   D(12,8,10,23)        -172.6947         estimate D2E/DX2                !
 ! D84   D(12,8,10,24)         -53.2723         estimate D2E/DX2                !
 ! D85   D(31,8,10,6)         -174.2193         estimate D2E/DX2                !
 ! D86   D(31,8,10,23)         -52.8175         estimate D2E/DX2                !
 ! D87   D(31,8,10,24)          66.6049         estimate D2E/DX2                !
 ! D88   D(3,8,12,2)          -158.8697         estimate D2E/DX2                !
 ! D89   D(10,8,12,2)           80.2566         estimate D2E/DX2                !
 ! D90   D(31,8,12,2)          -39.469          estimate D2E/DX2                !
 --------------------------------------------------------------------------------
 Trust Radius=3.00D-01 FncErr=1.00D-07 GrdErr=1.00D-06 EigMax=2.50D+02 EigMin=1.00D-04
 Number of steps in this run=    186 maximum allowed number of steps=    186.
 GradGradGradGradGradGradGradGradGradGradGradGradGradGradGradGradGradGrad

                          Input orientation:                          
 ---------------------------------------------------------------------
 Center     Atomic      Atomic             Coordinates (Angstroms)
 Number     Number       Type             X           Y           Z
 ---------------------------------------------------------------------
      1          6           0        3.423813   -0.015308    0.838877
      2          6           0        1.115923   -0.144377   -0.906811
      3          6           0       -1.997154    1.509635    0.102054
      4          6           0        2.424178   -1.159977    1.003181
      5          6           0       -3.298237   -0.522734    0.766601
      6          8           0       -2.434295   -1.310923   -0.032320
      7          6           0        2.733521    1.200116    0.243145
      8          6           0       -1.168640    0.612695   -0.811587
      9          6           0       -2.585784    0.720973    1.274110
     10          6           0       -1.960356   -0.635669   -1.177347
     11          8           0        2.076419    0.878884   -0.976110
     12          8           0        0.030389    0.274387   -0.129314
     13          6           0        1.716282   -1.417801   -0.327718
     14          1           0        4.233554   -0.325011    0.182164
     15          1           0        3.864533    0.259957    1.792896
     16          1           0       -2.805688    1.930734   -0.490270
     17          1           0        2.927747   -2.063160    1.333847
     18          1           0        1.697027   -0.903537    1.769250
     19          1           0        2.013696    1.612517    0.941936
     20          1           0        3.443189    1.976801   -0.006175
     21          1           0       -1.801076    0.426865    1.964712
     22          1           0       -3.289410    1.336313    1.827323
     23          1           0       -2.799641   -0.349925   -1.807376
     24          1           0       -1.350633   -1.342084   -1.722923
     25          1           0        2.432861   -1.799930   -1.050070
     26          1           0        0.930667   -2.158330   -0.223287
     27          1           0        0.799998   -0.301125   -1.926989
     28          1           0       -4.171980   -0.250156    0.178329
     29          1           0       -3.620635   -1.155474    1.582226
     30          1           0       -1.387919    2.336064    0.452363
     31          1           0       -0.917665    1.145385   -1.723028
 ---------------------------------------------------------------------
                    Distance matrix (angstroms):
                    1          2          3          4          5
     1  C    0.000000
     2  C    2.896626   0.000000
     3  C    5.679370   3.666717   0.000000
     4  C    1.528572   2.528051   5.242808   0.000000
     5  C    6.741562   4.735849   2.502991   5.762645   0.000000
     6  O    6.062593   3.837918   2.857393   4.969890   1.416302
     7  C    1.519426   2.397224   4.742889   2.498677   6.294785
     8  C    4.920269   2.408621   1.525017   4.398192   2.883585
     9  C    6.070156   4.382680   1.530421   5.358273   1.520514
    10  C    5.782671   3.126987   2.498109   4.924809   2.362544
    11  O    2.430890   1.405140   4.260784   2.862775   5.821383
    12  O    3.540712   1.399374   2.385435   3.011672   3.538053
    13  C    2.498718   1.522297   4.748072   1.529340   5.209998
    14  H    1.087598   3.307283   6.495696   2.155244   7.557019
    15  H    1.086350   3.873856   6.227360   2.171286   7.278129
    16  H    6.660360   4.456302   1.087152   6.255748   2.800328
    17  H    2.164434   3.461933   6.207804   1.085662   6.438754
    18  H    2.153215   2.841709   4.716982   1.086909   5.109107
    19  H    2.156123   2.703801   4.099135   2.803385   5.727711
    20  H    2.164021   3.275165   5.461437   3.449139   7.231299
    21  H    5.363067   4.132898   2.163408   4.614692   2.139790
    22  H    6.918907   5.392114   2.162526   6.289337   2.140389
    23  H    6.770968   4.023047   2.783500   5.986961   2.627512
    24  H    5.578395   2.860846   3.446858   4.659829   3.265306
    25  H    2.781184   2.120308   5.648508   2.150687   6.146300
    26  H    3.454926   2.134838   4.704461   2.175203   4.640979
    27  H    3.823102   1.079417   3.901272   3.458538   4.909182
    28  H    7.628076   5.399133   2.798669   6.709505   1.088021
    29  H    7.174733   5.445420   3.453897   6.072485   1.081455
    30  H    5.369461   3.777455   1.084836   5.201710   3.452649
    31  H    5.172910   2.542671   2.151488   4.890279   3.827270
                    6          7          8          9         10
     6  O    0.000000
     7  C    5.752175   0.000000
     8  C    2.430935   4.084652   0.000000
     9  C    2.420395   5.439437   2.523916   0.000000
    10  C    1.411266   5.236448   1.522829   2.870763   0.000000
    11  O    5.102209   1.421814   3.260112   5.179243   4.316239
    12  O    2.932112   2.881427   1.420429   3.002232   2.426858
    13  C    4.162448   2.866034   3.560873   5.064383   3.853734
    14  H    6.743755   2.140054   5.572301   6.984970   6.348961
    15  H    6.743464   2.136543   5.678079   6.487547   6.599532
    16  H    3.294843   5.635116   2.126123   2.150562   2.788025
    17  H    5.584243   3.446204   5.342609   6.176892   5.677797
    18  H    4.525421   2.797976   4.143878   4.607241   4.704321
    19  H    5.411127   1.084680   3.768521   4.696851   5.033765
    20  H    6.734585   1.081216   4.876314   6.290052   6.115140
    21  H    2.721950   4.911647   2.853479   1.085909   3.320675
    22  H    3.346244   6.229275   3.461955   1.086176   3.831858
    23  H    2.051297   6.101077   2.139719   3.269268   1.087651
    24  H    2.008341   5.196972   2.164444   3.842396   1.080943
    25  H    4.996414   3.280713   4.341479   6.078122   4.546654
    26  H    3.475275   3.840182   3.525871   4.785187   3.403930
    27  H    3.882024   3.271348   2.440230   4.770245   2.879833
    28  H    2.046741   7.056446   3.277880   2.158667   2.622548
    29  H    2.009559   6.907767   3.856040   2.164926   3.262203
    30  H    3.824962   4.280236   2.148407   2.172249   3.437272
    31  H    3.345461   4.147287   1.085114   3.456238   2.134743
                   11         12         13         14         15
    11  O    0.000000
    12  O    2.295369   0.000000
    13  C    2.413477   2.396894   0.000000
    14  H    2.728405   4.257099   2.791205   0.000000
    15  H    3.353776   4.289028   3.453528   1.752947   0.000000
    16  H    5.017708   3.304105   5.629149   7.422364   7.245426
    17  H    3.836181   3.999956   2.155211   2.460217   2.546599
    18  H    3.295143   2.787424   2.159193   3.047541   2.460154
    19  H    2.054520   2.621388   3.298985   3.042867   2.445230
    20  H    2.003561   3.815833   3.822162   2.441001   2.522249
    21  H    4.887507   2.786119   4.585830   6.337157   5.670671
    22  H    6.071293   3.997147   6.106251   7.877914   7.234544
    23  H    5.096757   3.348840   4.870658   7.309222   7.599022
    24  H    4.151519   2.657027   3.370207   5.987231   6.490414
    25  H    2.703436   3.304914   1.086876   2.633682   3.791474
    26  H    3.332290   2.595659   1.084657   3.799278   4.303565
    27  H    1.981374   2.038418   2.155043   4.029690   4.852188
    28  H    6.453677   4.246139   6.024210   8.405868   8.212952
    29  H    6.568114   4.278300   5.674450   8.021105   7.620733
    30  H    4.020640   2.569136   4.933163   6.225374   5.804783
    31  H    3.097329   2.048748   3.931220   5.685673   6.001260
                   16         17         18         19         20
    16  H    0.000000
    17  H    7.221556   0.000000
    18  H    5.780395   1.746131   0.000000
    19  H    5.037751   3.807845   2.667444   0.000000
    20  H    6.267769   4.287496   3.807567   1.753587   0.000000
    21  H    3.049230   5.381448   3.747653   4.123630   5.812832
    22  H    2.441016   7.103026   5.466704   5.383598   7.007127
    23  H    2.633669   6.753179   5.772241   5.880315   6.901515
    24  H    3.787870   5.307384   4.655731   5.210552   6.078071
    25  H    6.455511   2.448931   3.048530   3.973485   4.046502
    26  H    5.545455   2.534177   2.476291   4.092674   4.843471
    27  H    4.477313   4.273773   3.850941   3.655929   3.983081
    28  H    2.658958   7.418108   6.115814   6.505016   7.936257
    29  H    3.805793   6.615655   5.326911   6.310105   7.888712
    30  H    1.750120   6.225364   4.663271   3.512006   4.866100
    31  H    2.387697   5.867405   4.819824   3.989126   4.759820
                   21         22         23         24         25
    21  H    0.000000
    22  H    1.749603   0.000000
    23  H    3.978591   4.036621   0.000000
    24  H    4.114697   4.851486   1.758163   0.000000
    25  H    5.654533   7.131605   5.482254   3.870036   0.000000
    26  H    4.351206   5.850349   4.437890   2.849473   1.751744
    27  H    4.737182   5.787860   3.601956   2.398010   2.383620
    28  H    3.044784   2.452549   2.415842   3.573103   6.894540
    29  H    2.441493   2.525626   3.579433   4.013943   6.632429
    30  H    2.470413   2.550624   3.783374   4.273410   5.827702
    31  H    3.859548   4.273947   2.405182   2.524869   4.511516
                   26         27         28         29         30
    26  H    0.000000
    27  H    2.523665   0.000000
    28  H    5.462548   5.399586   0.000000
    29  H    4.997994   5.708458   1.759122   0.000000
    30  H    5.102149   4.171698   3.809806   4.295631   0.000000
    31  H    4.071865   2.254852   4.019112   4.850227   2.524120
                   31
    31  H    0.000000
 Stoichiometry    C10H18O3
 Framework group  C1[X(C10H18O3)]
 Deg. of freedom    87
 Full point group                 C1      NOp   1
 Largest Abelian subgroup         C1      NOp   1
 Largest concise Abelian subgroup C1      NOp   1
                         Standard orientation:                         
 ---------------------------------------------------------------------
 Center     Atomic      Atomic             Coordinates (Angstroms)
 Number     Number       Type             X           Y           Z
 ---------------------------------------------------------------------
      1          6           0       -3.423813    0.015308    0.838877
      2          6           0       -1.115923    0.144377   -0.906811
      3          6           0        1.997154   -1.509635    0.102054
      4          6           0       -2.424178    1.159977    1.003181
      5          6           0        3.298237    0.522734    0.766601
      6          8           0        2.434295    1.310923   -0.032320
      7          6           0       -2.733521   -1.200116    0.243145
      8          6           0        1.168640   -0.612695   -0.811587
      9          6           0        2.585784   -0.720973    1.274110
     10          6           0        1.960356    0.635669   -1.177347
     11          8           0       -2.076419   -0.878884   -0.976110
     12          8           0       -0.030389   -0.274387   -0.129314
     13          6           0       -1.716282    1.417801   -0.327718
     14          1           0       -4.233554    0.325011    0.182164
     15          1           0       -3.864533   -0.259957    1.792896
     16          1           0        2.805688   -1.930734   -0.490270
     17          1           0       -2.927747    2.063160    1.333847
     18          1           0       -1.697027    0.903537    1.769250
     19          1           0       -2.013696   -1.612517    0.941936
     20          1           0       -3.443189   -1.976801   -0.006175
     21          1           0        1.801076   -0.426865    1.964712
     22          1           0        3.289410   -1.336313    1.827323
     23          1           0        2.799641    0.349925   -1.807376
     24          1           0        1.350633    1.342084   -1.722923
     25          1           0       -2.432861    1.799930   -1.050070
     26          1           0       -0.930667    2.158330   -0.223287
     27          1           0       -0.799998    0.301125   -1.926989
     28          1           0        4.171980    0.250156    0.178329
     29          1           0        3.620635    1.155474    1.582226
     30          1           0        1.387919   -2.336064    0.452363
     31          1           0        0.917665   -1.145385   -1.723028
 ---------------------------------------------------------------------
 Rotational constants (GHZ):           1.6131617           0.4585146           0.4391914
 Standard basis: 6-311++G(2d,2p) (5D, 7F)
 There are   557 symmetry adapted cartesian basis functions of A   symmetry.
 There are   531 symmetry adapted basis functions of A   symmetry.
   531 basis functions,   762 primitive gaussians,   557 cartesian basis functions
    51 alpha electrons       51 beta electrons
       nuclear repulsion energy       903.8953838841 Hartrees.
 NAtoms=   31 NActive=   31 NUniq=   31 SFac= 1.00D+00 NAtFMM=   60 NAOKFM=F Big=F
 Integral buffers will be    131072 words long.
 Raffenetti 2 integral format.
 Two-electron integral symmetry is turned on.
 ------------------------------------------------------------------------------
 Polarizable Continuum Model (PCM)
 =================================
 Model                : PCM.
 Atomic radii         : UFF (Universal Force Field).
 Polarization charges : Total charges.
 Charge compensation  : None.
 Solution method      : On-the-fly selection.
 Cavity type          : Scaled VdW (van der Waals Surface) (Alpha=1.100).
 Cavity algorithm     : GePol (No added spheres)
                        Default sphere list used, NSphG=   31.
                        Lebedev-Laikov grids with approx.  5.0 points / Ang**2.
                        Smoothing algorithm: York/Karplus (Gamma=1.0000).
                        Polarization charges: spherical gaussians, with
                                              point-specific exponents (IZeta= 3).
                        Self-potential: point-specific (ISelfS= 7).
                        Self-field    : sphere-specific E.n sum rule (ISelfD= 2).
 1st derivatives      : Analytical E(r).r(x)/FMM algorithm (CHGder, D1EAlg=3).
                        Cavity 1st derivative terms included.
 Solvent              : Water, Eps=  78.355300 Eps(inf)=   1.777849
 ------------------------------------------------------------------------------
 One-electron integrals computed using PRISM.
 NBasis=   531 RedAO= T EigKep=  4.43D-06  NBF=   531
 NBsUse=   531 1.00D-06 EigRej= -1.00D+00 NBFU=   531
 ExpMin= 3.60D-02 ExpMax= 8.59D+03 ExpMxC= 1.30D+03 IAcc=3 IRadAn=         5 AccDes= 0.00D+00
 Harris functional with IExCor= 1009 and IRadAn=       5 diagonalized for initial guess.
 HarFok:  IExCor= 1009 AccDes= 0.00D+00 IRadAn=         5 IDoV= 1 UseB2=F ITyADJ=14
 ICtDFT=  3500011 ScaDFX=  1.000000  1.000000  1.000000  1.000000
 FoFCou: FMM=F IPFlag=           0 FMFlag=      100000 FMFlg1=           0
         NFxFlg=           0 DoJE=T BraDBF=F KetDBF=T FulRan=T
         wScrn=  0.000000 ICntrl=       500 IOpCl=  0 I1Cent=   200000004 NGrid=           0
         NMat0=    1 NMatS0=      1 NMatT0=    0 NMatD0=    1 NMtDS0=    0 NMtDT0=    0
 Petite list used in FoFCou.
 Requested convergence on RMS density matrix=1.00D-08 within 128 cycles.
 Requested convergence on MAX density matrix=1.00D-06.
 Requested convergence on             energy=1.00D-06.
 No special actions if energy rises.
 Inv3:  Mode=1 IEnd=    12966723.
 Iteration    1 A*A^-1 deviation from unit magnitude is 5.88D-15 for   2069.
 Iteration    1 A*A^-1 deviation from orthogonality  is 1.89D-15 for   1928   1203.
 Iteration    1 A^-1*A deviation from unit magnitude is 5.88D-15 for   2069.
 Iteration    1 A^-1*A deviation from orthogonality  is 3.22D-15 for   2060   1114.
 Error on total polarization charges =  0.01468
 SCF Done:  E(RM062X) =  -617.499751735     A.U. after   12 cycles
            NFock= 12  Conv=0.68D-08     -V/T= 2.0035

 **********************************************************************

            Population analysis using the SCF density.

 **********************************************************************

 Orbital symmetries:
       Occupied  (A) (A) (A) (A) (A) (A) (A) (A) (A) (A) (A) (A)
                 (A) (A) (A) (A) (A) (A) (A) (A) (A) (A) (A) (A)
                 (A) (A) (A) (A) (A) (A) (A) (A) (A) (A) (A) (A)
                 (A) (A) (A) (A) (A) (A) (A) (A) (A) (A) (A) (A)
                 (A) (A) (A)
       Virtual   (A) (A) (A) (A) (A) (A) (A) (A) (A) (A) (A) (A)
                 (A) (A) (A) (A) (A) (A) (A) (A) (A) (A) (A) (A)
                 (A) (A) (A) (A) (A) (A) (A) (A) (A) (A) (A) (A)
                 (A) (A) (A) (A) (A) (A) (A) (A) (A) (A) (A) (A)
                 (A) (A) (A) (A) (A) (A) (A) (A) (A) (A) (A) (A)
                 (A) (A) (A) (A) (A) (A) (A) (A) (A) (A) (A) (A)
                 (A) (A) (A) (A) (A) (A) (A) (A) (A) (A) (A) (A)
                 (A) (A) (A) (A) (A) (A) (A) (A) (A) (A) (A) (A)
                 (A) (A) (A) (A) (A) (A) (A) (A) (A) (A) (A) (A)
                 (A) (A) (A) (A) (A) (A) (A) (A) (A) (A) (A) (A)
                 (A) (A) (A) (A) (A) (A) (A) (A) (A) (A) (A) (A)
                 (A) (A) (A) (A) (A) (A) (A) (A) (A) (A) (A) (A)
                 (A) (A) (A) (A) (A) (A) (A) (A) (A) (A) (A) (A)
                 (A) (A) (A) (A) (A) (A) (A) (A) (A) (A) (A) (A)
                 (A) (A) (A) (A) (A) (A) (A) (A) (A) (A) (A) (A)
                 (A) (A) (A) (A) (A) (A) (A) (A) (A) (A) (A) (A)
                 (A) (A) (A) (A) (A) (A) (A) (A) (A) (A) (A) (A)
                 (A) (A) (A) (A) (A) (A) (A) (A) (A) (A) (A) (A)
                 (A) (A) (A) (A) (A) (A) (A) (A) (A) (A) (A) (A)
                 (A) (A) (A) (A) (A) (A) (A) (A) (A) (A) (A) (A)
                 (A) (A) (A) (A) (A) (A) (A) (A) (A) (A) (A) (A)
                 (A) (A) (A) (A) (A) (A) (A) (A) (A) (A) (A) (A)
                 (A) (A) (A) (A) (A) (A) (A) (A) (A) (A) (A) (A)
                 (A) (A) (A) (A) (A) (A) (A) (A) (A) (A) (A) (A)
                 (A) (A) (A) (A) (A) (A) (A) (A) (A) (A) (A) (A)
                 (A) (A) (A) (A) (A) (A) (A) (A) (A) (A) (A) (A)
                 (A) (A) (A) (A) (A) (A) (A) (A) (A) (A) (A) (A)
                 (A) (A) (A) (A) (A) (A) (A) (A) (A) (A) (A) (A)
                 (A) (A) (A) (A) (A) (A) (A) (A) (A) (A) (A) (A)
                 (A) (A) (A) (A) (A) (A) (A) (A) (A) (A) (A) (A)
                 (A) (A) (A) (A) (A) (A) (A) (A) (A) (A) (A) (A)
                 (A) (A) (A) (A) (A) (A) (A) (A) (A) (A) (A) (A)
                 (A) (A) (A) (A) (A) (A) (A) (A) (A) (A) (A) (A)
                 (A) (A) (A) (A) (A) (A) (A) (A) (A) (A) (A) (A)
                 (A) (A) (A) (A) (A) (A) (A) (A) (A) (A) (A) (A)
                 (A) (A) (A) (A) (A) (A) (A) (A) (A) (A) (A) (A)
                 (A) (A) (A) (A) (A) (A) (A) (A) (A) (A) (A) (A)
                 (A) (A) (A) (A) (A) (A) (A) (A) (A) (A) (A) (A)
                 (A) (A) (A) (A) (A) (A) (A) (A) (A) (A) (A) (A)
                 (A) (A) (A) (A) (A) (A) (A) (A) (A) (A) (A) (A)
 The electronic state is 1-A.
 Alpha  occ. eigenvalues --  -19.62720 -19.62669 -19.62600 -10.63369 -10.58911
 Alpha  occ. eigenvalues --  -10.57942 -10.57746 -10.57543 -10.53254 -10.52937
 Alpha  occ. eigenvalues --  -10.52850 -10.52849 -10.52708  -1.20016  -1.16601
 Alpha  occ. eigenvalues --   -1.13345  -0.90833  -0.89730  -0.87189  -0.84951
 Alpha  occ. eigenvalues --   -0.74751  -0.73921  -0.73251  -0.71836  -0.66505
 Alpha  occ. eigenvalues --   -0.62857  -0.59681  -0.57994  -0.57955  -0.55924
 Alpha  occ. eigenvalues --   -0.54675  -0.53585  -0.52035  -0.51016  -0.50004
 Alpha  occ. eigenvalues --   -0.48270  -0.47304  -0.46048  -0.45416  -0.45115
 Alpha  occ. eigenvalues --   -0.43783  -0.42419  -0.41524  -0.40384  -0.38863
 Alpha  occ. eigenvalues --   -0.38390  -0.37591  -0.36902  -0.34450  -0.33182
 Alpha  occ. eigenvalues --   -0.31670
 Alpha virt. eigenvalues --   -0.00164   0.00802   0.00818   0.01095   0.02213
 Alpha virt. eigenvalues --    0.02558   0.02666   0.03235   0.03274   0.04656
 Alpha virt. eigenvalues --    0.04770   0.04881   0.05233   0.05825   0.07007
 Alpha virt. eigenvalues --    0.07524   0.07749   0.08255   0.08998   0.09386
 Alpha virt. eigenvalues --    0.09809   0.10914   0.10945   0.11510   0.12011
 Alpha virt. eigenvalues --    0.12268   0.12662   0.13026   0.13203   0.13431
 Alpha virt. eigenvalues --    0.13704   0.13989   0.14303   0.14509   0.14816
 Alpha virt. eigenvalues --    0.15003   0.15129   0.15608   0.15676   0.15873
 Alpha virt. eigenvalues --    0.16475   0.16928   0.17245   0.17331   0.17761
 Alpha virt. eigenvalues --    0.18014   0.18440   0.18683   0.19235   0.19455
 Alpha virt. eigenvalues --    0.19848   0.20133   0.20650   0.20831   0.21053
 Alpha virt. eigenvalues --    0.21354   0.22159   0.22491   0.23557   0.24072
 Alpha virt. eigenvalues --    0.24484   0.25928   0.26312   0.26447   0.26735
 Alpha virt. eigenvalues --    0.27170   0.27935   0.28386   0.28948   0.29251
 Alpha virt. eigenvalues --    0.29952   0.30209   0.30873   0.31807   0.32262
 Alpha virt. eigenvalues --    0.32545   0.33173   0.33431   0.34264   0.34604
 Alpha virt. eigenvalues --    0.34716   0.35395   0.35841   0.35991   0.36586
 Alpha virt. eigenvalues --    0.37152   0.37337   0.37601   0.37880   0.38204
 Alpha virt. eigenvalues --    0.38444   0.38709   0.39675   0.39875   0.40475
 Alpha virt. eigenvalues --    0.41116   0.42788   0.43379   0.44991   0.45923
 Alpha virt. eigenvalues --    0.46891   0.47993   0.49288   0.49612   0.50236
 Alpha virt. eigenvalues --    0.51813   0.52615   0.53387   0.54077   0.55349
 Alpha virt. eigenvalues --    0.56484   0.56704   0.58327   0.58743   0.59780
 Alpha virt. eigenvalues --    0.60206   0.60722   0.61246   0.61542   0.61677
 Alpha virt. eigenvalues --    0.61870   0.62628   0.63154   0.63891   0.64347
 Alpha virt. eigenvalues --    0.64759   0.65281   0.65854   0.66325   0.66981
 Alpha virt. eigenvalues --    0.67803   0.68218   0.68927   0.69061   0.70453
 Alpha virt. eigenvalues --    0.70579   0.71366   0.72127   0.72469   0.73101
 Alpha virt. eigenvalues --    0.73814   0.74230   0.74575   0.75567   0.76026
 Alpha virt. eigenvalues --    0.77269   0.78008   0.78324   0.78503   0.78747
 Alpha virt. eigenvalues --    0.81044   0.82758   0.83133   0.84839   0.85725
 Alpha virt. eigenvalues --    0.86742   0.87062   0.87455   0.88574   0.89502
 Alpha virt. eigenvalues --    0.90506   0.91889   0.94022   0.94408   0.96873
 Alpha virt. eigenvalues --    0.97486   0.98663   0.99020   1.01259   1.02459
 Alpha virt. eigenvalues --    1.02828   1.03578   1.04299   1.05351   1.06303
 Alpha virt. eigenvalues --    1.06836   1.08614   1.10617   1.11498   1.12440
 Alpha virt. eigenvalues --    1.13724   1.14410   1.14750   1.16111   1.17330
 Alpha virt. eigenvalues --    1.17577   1.18292   1.19454   1.20360   1.20853
 Alpha virt. eigenvalues --    1.21276   1.22535   1.23156   1.23486   1.24565
 Alpha virt. eigenvalues --    1.25162   1.25664   1.26098   1.26886   1.27929
 Alpha virt. eigenvalues --    1.29189   1.29796   1.30063   1.31597   1.32139
 Alpha virt. eigenvalues --    1.32873   1.33156   1.33636   1.33690   1.33766
 Alpha virt. eigenvalues --    1.35672   1.36600   1.36864   1.37495   1.37809
 Alpha virt. eigenvalues --    1.38842   1.39384   1.39922   1.40386   1.41692
 Alpha virt. eigenvalues --    1.42176   1.42441   1.43630   1.44322   1.44493
 Alpha virt. eigenvalues --    1.45772   1.46474   1.47458   1.47890   1.48302
 Alpha virt. eigenvalues --    1.48760   1.49381   1.50675   1.51091   1.51819
 Alpha virt. eigenvalues --    1.52904   1.53846   1.54601   1.54779   1.56015
 Alpha virt. eigenvalues --    1.56655   1.56904   1.57238   1.58197   1.58750
 Alpha virt. eigenvalues --    1.59631   1.60267   1.61177   1.61380   1.62568
 Alpha virt. eigenvalues --    1.63667   1.64337   1.65498   1.65820   1.66599
 Alpha virt. eigenvalues --    1.68143   1.68536   1.70673   1.71179   1.71682
 Alpha virt. eigenvalues --    1.72421   1.73454   1.75866   1.76494   1.77396
 Alpha virt. eigenvalues --    1.78719   1.79972   1.81332   1.82821   1.84736
 Alpha virt. eigenvalues --    1.86056   1.87076   1.94465   1.96669   2.01885
 Alpha virt. eigenvalues --    2.04315   2.06111   2.12145   2.17171   2.22838
 Alpha virt. eigenvalues --    2.25555   2.26829   2.30431   2.32126   2.40238
 Alpha virt. eigenvalues --    2.42941   2.44939   2.45548   2.47019   2.49506
 Alpha virt. eigenvalues --    2.56398   2.76300   2.77267   2.79906   2.81635
 Alpha virt. eigenvalues --    2.82420   2.86389   2.92146   2.92397   2.93724
 Alpha virt. eigenvalues --    2.96097   2.97428   2.98375   3.01006   3.03574
 Alpha virt. eigenvalues --    3.06041   3.07245   3.09006   3.09351   3.11048
 Alpha virt. eigenvalues --    3.13248   3.14242   3.16520   3.18763   3.22835
 Alpha virt. eigenvalues --    3.24759   3.29408   3.31693   3.33262   3.34176
 Alpha virt. eigenvalues --    3.35064   3.36030   3.38054   3.40070   3.40436
 Alpha virt. eigenvalues --    3.42395   3.43616   3.45623   3.46125   3.47072
 Alpha virt. eigenvalues --    3.47679   3.49123   3.49611   3.50470   3.52739
 Alpha virt. eigenvalues --    3.52917   3.53355   3.54894   3.55365   3.55709
 Alpha virt. eigenvalues --    3.56997   3.57641   3.58820   3.59012   3.59703
 Alpha virt. eigenvalues --    3.60801   3.61612   3.63603   3.64337   3.65438
 Alpha virt. eigenvalues --    3.65813   3.66229   3.67019   3.67595   3.68871
 Alpha virt. eigenvalues --    3.70409   3.71132   3.72282   3.73356   3.74098
 Alpha virt. eigenvalues --    3.74306   3.74967   3.75712   3.76433   3.77741
 Alpha virt. eigenvalues --    3.79227   3.79777   3.80658   3.83151   3.83746
 Alpha virt. eigenvalues --    3.86753   3.87819   3.89612   3.91252   3.91439
 Alpha virt. eigenvalues --    3.93008   3.94902   3.95021   3.97031   3.97950
 Alpha virt. eigenvalues --    3.99965   4.00814   4.01646   4.02279   4.03892
 Alpha virt. eigenvalues --    4.04772   4.05552   4.06384   4.06994   4.07641
 Alpha virt. eigenvalues --    4.08478   4.09485   4.09706   4.11096   4.11302
 Alpha virt. eigenvalues --    4.11755   4.12296   4.13749   4.14457   4.15100
 Alpha virt. eigenvalues --    4.15587   4.18337   4.18828   4.20507   4.20795
 Alpha virt. eigenvalues --    4.21054   4.22393   4.22693   4.26646   4.27538
 Alpha virt. eigenvalues --    4.27998   4.28661   4.31404   4.31648   4.32111
 Alpha virt. eigenvalues --    4.33149   4.33857   4.34587   4.35650   4.39006
 Alpha virt. eigenvalues --    4.39909   4.41351   4.45434   4.46205   4.47254
 Alpha virt. eigenvalues --    4.58431   4.61026   4.74072   4.75739   4.82045
 Alpha virt. eigenvalues --    4.85773   4.93685   4.96201   5.00371   5.03143
 Alpha virt. eigenvalues --    5.06424   5.07131   5.08276   5.08660   5.10984
 Alpha virt. eigenvalues --    5.12264   5.13997   5.14188   5.33048   5.36898
 Alpha virt. eigenvalues --    5.44291   5.57629   5.59808   5.65404   5.86987
 Alpha virt. eigenvalues --    5.87491   6.07389   7.02994   7.05254   7.06717
 Alpha virt. eigenvalues --    7.10022   7.10656   7.12416   7.14270   7.15694
 Alpha virt. eigenvalues --    7.27672   7.36148   7.41928   7.43736   7.52953
 Alpha virt. eigenvalues --    7.57059   7.62956  23.94992  23.98571  24.05514
 Alpha virt. eigenvalues --   24.07789  24.10448  24.12480  24.13454  24.16272
 Alpha virt. eigenvalues --   24.17547  24.21126  50.17132  50.18445  50.26557
          Condensed to atoms (all electrons):
               1          2          3          4          5          6
     1  C    5.722502   0.320998   0.004298   0.021265  -0.004059  -0.000704
     2  C    0.320998   7.759605   0.166965   0.046152   0.017826  -0.011433
     3  C    0.004298   0.166965   6.665930   0.020709  -0.080834  -0.027452
     4  C    0.021265   0.046152   0.020709   5.584140   0.002995   0.007898
     5  C   -0.004059   0.017826  -0.080834   0.002995   5.443665   0.098818
     6  O   -0.000704  -0.011433  -0.027452   0.007898   0.098818   8.249371
     7  C   -0.020927  -0.503397  -0.047756  -0.014198  -0.002841  -0.000520
     8  C   -0.011709  -0.994362  -0.923083  -0.006912   0.205074   0.032373
     9  C    0.001384   0.035065  -0.176083  -0.010044   0.042094   0.018672
    10  C    0.015543   0.268602   0.353481   0.007078  -0.274725   0.144553
    11  O   -0.079628   0.211776  -0.020991   0.014532  -0.002090   0.001053
    12  O   -0.026823   0.200487  -0.054778  -0.027495  -0.004599   0.034509
    13  C   -0.271717  -1.489887  -0.209120  -0.144458   0.021995  -0.005515
    14  H    0.478263   0.000827  -0.000682  -0.017720   0.000036   0.000044
    15  H    0.443255   0.006274   0.001812  -0.042228  -0.000191  -0.000032
    16  H   -0.000320  -0.002857   0.506351   0.000129  -0.019351   0.002417
    17  H   -0.022537   0.005290  -0.001301   0.409927   0.000611  -0.000023
    18  H   -0.093363  -0.024083   0.005725   0.534793   0.002250  -0.001036
    19  H   -0.101040  -0.010526  -0.005681   0.002603   0.002610   0.000277
    20  H   -0.016226   0.005793  -0.000467   0.002147  -0.000223  -0.000057
    21  H    0.005878  -0.006004  -0.025215  -0.000298  -0.102464  -0.013528
    22  H    0.000101   0.004602  -0.059434  -0.000336  -0.022036   0.010200
    23  H    0.000650   0.004053  -0.042758   0.001202  -0.011964  -0.055280
    24  H   -0.003071  -0.014120   0.017144  -0.007867   0.007510  -0.082303
    25  H   -0.020153  -0.139455  -0.002629  -0.027296   0.000162   0.000108
    26  H   -0.006619  -0.056960  -0.008643  -0.015855  -0.001338   0.001888
    27  H    0.017863   0.477413   0.022596  -0.000436  -0.001160  -0.000093
    28  H    0.000010  -0.002236  -0.044984   0.000149   0.461028  -0.064230
    29  H   -0.000441   0.000619   0.008860   0.000286   0.449976  -0.065348
    30  H    0.000359  -0.018480   0.396970  -0.000340   0.001295  -0.002878
    31  H    0.002854  -0.011198   0.021353   0.000098  -0.015350   0.008806
               7          8          9         10         11         12
     1  C   -0.020927  -0.011709   0.001384   0.015543  -0.079628  -0.026823
     2  C   -0.503397  -0.994362   0.035065   0.268602   0.211776   0.200487
     3  C   -0.047756  -0.923083  -0.176083   0.353481  -0.020991  -0.054778
     4  C   -0.014198  -0.006912  -0.010044   0.007078   0.014532  -0.027495
     5  C   -0.002841   0.205074   0.042094  -0.274725  -0.002090  -0.004599
     6  O   -0.000520   0.032373   0.018672   0.144553   0.001053   0.034509
     7  C    5.462716   0.124197   0.007771  -0.017322   0.115681   0.019152
     8  C    0.124197   7.672079  -0.177753  -0.754672  -0.019910   0.024120
     9  C    0.007771  -0.177753   5.630206   0.073043   0.007488  -0.017566
    10  C   -0.017322  -0.754672   0.073043   6.133956  -0.001012  -0.110450
    11  O    0.115681  -0.019910   0.007488  -0.001012   8.268223  -0.047867
    12  O    0.019152   0.024120  -0.017566  -0.110450  -0.047867   8.287703
    13  C    0.243123   0.384330   0.029545  -0.247884   0.004953  -0.008126
    14  H   -0.080229  -0.005249   0.000475  -0.000572  -0.006286  -0.000457
    15  H   -0.038318   0.003637  -0.000921   0.000819   0.010757   0.000009
    16  H    0.000541  -0.083628  -0.028065  -0.005175  -0.000375   0.005244
    17  H    0.012624   0.004282  -0.000984  -0.000266  -0.001308   0.000007
    18  H    0.002335  -0.001770  -0.001171  -0.009045   0.000922   0.005002
    19  H    0.489850  -0.011118   0.001174   0.000809  -0.035298  -0.004596
    20  H    0.429379   0.004892  -0.000391   0.000166  -0.073974   0.000028
    21  H   -0.001996  -0.014529   0.510760   0.026955   0.000674  -0.002333
    22  H   -0.000174   0.001063   0.450136  -0.006049   0.000080   0.001250
    23  H    0.000814  -0.059418   0.028557   0.488927  -0.000040   0.009743
    24  H    0.004586  -0.013087   0.009318   0.382538   0.003593  -0.009288
    25  H    0.013370   0.005455   0.000721  -0.006823  -0.008284   0.011759
    26  H    0.002402   0.011819   0.003209  -0.016291   0.011933   0.003948
    27  H   -0.021252   0.026926  -0.013323   0.025179  -0.065678  -0.043809
    28  H   -0.000129   0.042999  -0.019081  -0.026549  -0.000018   0.001187
    29  H    0.000380   0.010003  -0.058722  -0.007535  -0.000005   0.000974
    30  H    0.000790   0.028159  -0.033661  -0.005552  -0.001221   0.002259
    31  H   -0.001595   0.383742  -0.005732  -0.015349  -0.000074  -0.012653
              13         14         15         16         17         18
     1  C   -0.271717   0.478263   0.443255  -0.000320  -0.022537  -0.093363
     2  C   -1.489887   0.000827   0.006274  -0.002857   0.005290  -0.024083
     3  C   -0.209120  -0.000682   0.001812   0.506351  -0.001301   0.005725
     4  C   -0.144458  -0.017720  -0.042228   0.000129   0.409927   0.534793
     5  C    0.021995   0.000036  -0.000191  -0.019351   0.000611   0.002250
     6  O   -0.005515   0.000044  -0.000032   0.002417  -0.000023  -0.001036
     7  C    0.243123  -0.080229  -0.038318   0.000541   0.012624   0.002335
     8  C    0.384330  -0.005249   0.003637  -0.083628   0.004282  -0.001770
     9  C    0.029545   0.000475  -0.000921  -0.028065  -0.000984  -0.001171
    10  C   -0.247884  -0.000572   0.000819  -0.005175  -0.000266  -0.009045
    11  O    0.004953  -0.006286   0.010757  -0.000375  -0.001308   0.000922
    12  O   -0.008126  -0.000457   0.000009   0.005244   0.000007   0.005002
    13  C    7.103319  -0.004745  -0.011510   0.005012  -0.031988  -0.046298
    14  H   -0.004745   0.480885  -0.008968   0.000004  -0.001200   0.000682
    15  H   -0.011510  -0.008968   0.488527  -0.000006  -0.008840  -0.004567
    16  H    0.005012   0.000004  -0.000006   0.428914   0.000048  -0.000076
    17  H   -0.031988  -0.001200  -0.008840   0.000048   0.472224  -0.005857
    18  H   -0.046298   0.000682  -0.004567  -0.000076  -0.005857   0.470135
    19  H    0.032951   0.004029   0.000406  -0.000150  -0.000441  -0.000469
    20  H   -0.009620  -0.006412  -0.008498   0.000073   0.000463  -0.002811
    21  H   -0.006320  -0.000046   0.000412   0.004215   0.000019  -0.005837
    22  H   -0.000544   0.000020  -0.000050  -0.007134  -0.000101   0.000521
    23  H   -0.008283  -0.000055   0.000054  -0.005530  -0.000037  -0.000334
    24  H    0.029596  -0.000188  -0.000069  -0.001718  -0.000190   0.000766
    25  H    0.554568  -0.002064  -0.003045  -0.000048  -0.004024   0.003281
    26  H    0.427783  -0.000288   0.001055   0.000129  -0.009970  -0.001819
    27  H   -0.110800   0.000970   0.001778   0.001184   0.001765  -0.003075
    28  H   -0.002008  -0.000001   0.000012  -0.004827  -0.000024  -0.000111
    29  H    0.002923   0.000014  -0.000043  -0.001633   0.000029   0.000400
    30  H    0.000625  -0.000107   0.000311   0.002771   0.000120   0.000316
    31  H   -0.021673  -0.000357   0.000181  -0.008312  -0.000102  -0.000171
              19         20         21         22         23         24
     1  C   -0.101040  -0.016226   0.005878   0.000101   0.000650  -0.003071
     2  C   -0.010526   0.005793  -0.006004   0.004602   0.004053  -0.014120
     3  C   -0.005681  -0.000467  -0.025215  -0.059434  -0.042758   0.017144
     4  C    0.002603   0.002147  -0.000298  -0.000336   0.001202  -0.007867
     5  C    0.002610  -0.000223  -0.102464  -0.022036  -0.011964   0.007510
     6  O    0.000277  -0.000057  -0.013528   0.010200  -0.055280  -0.082303
     7  C    0.489850   0.429379  -0.001996  -0.000174   0.000814   0.004586
     8  C   -0.011118   0.004892  -0.014529   0.001063  -0.059418  -0.013087
     9  C    0.001174  -0.000391   0.510760   0.450136   0.028557   0.009318
    10  C    0.000809   0.000166   0.026955  -0.006049   0.488927   0.382538
    11  O   -0.035298  -0.073974   0.000674   0.000080  -0.000040   0.003593
    12  O   -0.004596   0.000028  -0.002333   0.001250   0.009743  -0.009288
    13  C    0.032951  -0.009620  -0.006320  -0.000544  -0.008283   0.029596
    14  H    0.004029  -0.006412  -0.000046   0.000020  -0.000055  -0.000188
    15  H    0.000406  -0.008498   0.000412  -0.000050   0.000054  -0.000069
    16  H   -0.000150   0.000073   0.004215  -0.007134  -0.005530  -0.001718
    17  H   -0.000441   0.000463   0.000019  -0.000101  -0.000037  -0.000190
    18  H   -0.000469  -0.002811  -0.005837   0.000521  -0.000334   0.000766
    19  H    0.501701  -0.015671  -0.002732   0.000379  -0.000221   0.000131
    20  H   -0.015671   0.476804   0.000415  -0.000041   0.000112  -0.000015
    21  H   -0.002732   0.000415   0.491046  -0.016574  -0.000185  -0.002003
    22  H    0.000379  -0.000041  -0.016574   0.479260   0.000015   0.001801
    23  H   -0.000221   0.000112  -0.000185   0.000015   0.471940  -0.009782
    24  H    0.000131  -0.000015  -0.002003   0.001801  -0.009782   0.496271
    25  H   -0.001256   0.000141  -0.000254   0.000066  -0.000281   0.001803
    26  H    0.000550   0.001060   0.000017   0.000195   0.000820  -0.004075
    27  H   -0.000806   0.000635   0.001964  -0.000771  -0.000813  -0.018362
    28  H   -0.000041   0.000009   0.000340   0.004095   0.007464  -0.001213
    29  H    0.000151  -0.000014  -0.005732  -0.007520  -0.002318   0.001217
    30  H   -0.002590   0.000401  -0.001767  -0.008780   0.000175   0.000284
    31  H   -0.001327  -0.000045   0.000018   0.001153  -0.000753  -0.002668
              25         26         27         28         29         30
     1  C   -0.020153  -0.006619   0.017863   0.000010  -0.000441   0.000359
     2  C   -0.139455  -0.056960   0.477413  -0.002236   0.000619  -0.018480
     3  C   -0.002629  -0.008643   0.022596  -0.044984   0.008860   0.396970
     4  C   -0.027296  -0.015855  -0.000436   0.000149   0.000286  -0.000340
     5  C    0.000162  -0.001338  -0.001160   0.461028   0.449976   0.001295
     6  O    0.000108   0.001888  -0.000093  -0.064230  -0.065348  -0.002878
     7  C    0.013370   0.002402  -0.021252  -0.000129   0.000380   0.000790
     8  C    0.005455   0.011819   0.026926   0.042999   0.010003   0.028159
     9  C    0.000721   0.003209  -0.013323  -0.019081  -0.058722  -0.033661
    10  C   -0.006823  -0.016291   0.025179  -0.026549  -0.007535  -0.005552
    11  O   -0.008284   0.011933  -0.065678  -0.000018  -0.000005  -0.001221
    12  O    0.011759   0.003948  -0.043809   0.001187   0.000974   0.002259
    13  C    0.554568   0.427783  -0.110800  -0.002008   0.002923   0.000625
    14  H   -0.002064  -0.000288   0.000970  -0.000001   0.000014  -0.000107
    15  H   -0.003045   0.001055   0.001778   0.000012  -0.000043   0.000311
    16  H   -0.000048   0.000129   0.001184  -0.004827  -0.001633   0.002771
    17  H   -0.004024  -0.009970   0.001765  -0.000024   0.000029   0.000120
    18  H    0.003281  -0.001819  -0.003075  -0.000111   0.000400   0.000316
    19  H   -0.001256   0.000550  -0.000806  -0.000041   0.000151  -0.002590
    20  H    0.000141   0.001060   0.000635   0.000009  -0.000014   0.000401
    21  H   -0.000254   0.000017   0.001964   0.000340  -0.005732  -0.001767
    22  H    0.000066   0.000195  -0.000771   0.004095  -0.007520  -0.008780
    23  H   -0.000281   0.000820  -0.000813   0.007464  -0.002318   0.000175
    24  H    0.001803  -0.004075  -0.018362  -0.001213   0.001217   0.000284
    25  H    0.457972  -0.007316  -0.016061   0.000013   0.000010  -0.000088
    26  H   -0.007316   0.501937  -0.007370   0.000152   0.000497  -0.000103
    27  H   -0.016061  -0.007370   0.462913  -0.000518  -0.000321   0.000655
    28  H    0.000013   0.000152  -0.000518   0.494392  -0.006589   0.000703
    29  H    0.000010   0.000497  -0.000321  -0.006589   0.479893   0.000004
    30  H   -0.000088  -0.000103   0.000655   0.000703   0.000004   0.471450
    31  H    0.000897  -0.000817  -0.002963   0.002219   0.000060  -0.006667
              31
     1  C    0.002854
     2  C   -0.011198
     3  C    0.021353
     4  C    0.000098
     5  C   -0.015350
     6  O    0.008806
     7  C   -0.001595
     8  C    0.383742
     9  C   -0.005732
    10  C   -0.015349
    11  O   -0.000074
    12  O   -0.012653
    13  C   -0.021673
    14  H   -0.000357
    15  H    0.000181
    16  H   -0.008312
    17  H   -0.000102
    18  H   -0.000171
    19  H   -0.001327
    20  H   -0.000045
    21  H    0.000018
    22  H    0.001153
    23  H   -0.000753
    24  H   -0.002668
    25  H    0.000897
    26  H   -0.000817
    27  H   -0.002963
    28  H    0.002219
    29  H    0.000060
    30  H   -0.006667
    31  H    0.429078
 Mulliken charges:
               1
     1  C   -0.355884
     2  C   -0.247348
     3  C   -0.460301
     4  C   -0.340621
     5  C   -0.214720
     6  O   -0.280556
     7  C   -0.179058
     8  C    0.112049
     9  C   -0.306120
    10  C   -0.416379
    11  O   -0.287606
    12  O   -0.236541
    13  C   -0.210228
    14  H    0.169377
    15  H    0.167986
    16  H    0.212174
    17  H    0.181783
    18  H    0.174767
    19  H    0.156340
    20  H    0.211947
    21  H    0.165102
    22  H    0.174605
    23  H    0.183528
    24  H    0.213462
    25  H    0.188753
    26  H    0.168069
    27  H    0.265772
    28  H    0.157789
    29  H    0.199924
    30  H    0.174589
    31  H    0.257347
 Sum of Mulliken charges =  -0.00000
 Mulliken charges with hydrogens summed into heavy atoms:
               1
     1  C   -0.018522
     2  C    0.018423
     3  C   -0.073539
     4  C    0.015930
     5  C    0.142993
     6  O   -0.280556
     7  C    0.189230
     8  C    0.369395
     9  C    0.033588
    10  C   -0.019390
    11  O   -0.287606
    12  O   -0.236541
    13  C    0.146594
 Electronic spatial extent (au):  <R**2>=           2820.5844
 Charge=             -0.0000 electrons
 Dipole moment (field-independent basis, Debye):
    X=              0.9032    Y=             -0.8096    Z=              0.0310  Tot=              1.2133
 Quadrupole moment (field-independent basis, Debye-Ang):
   XX=            -72.3724   YY=            -82.4961   ZZ=            -77.3566
   XY=             -6.9641   XZ=             -3.9663   YZ=             -2.7925
 Traceless Quadrupole moment (field-independent basis, Debye-Ang):
   XX=              5.0360   YY=             -5.0877   ZZ=              0.0517
   XY=             -6.9641   XZ=             -3.9663   YZ=             -2.7925
 Octapole moment (field-independent basis, Debye-Ang**2):
  XXX=             11.3741  YYY=             -6.7028  ZZZ=             -4.6389  XYY=             -9.0470
  XXY=            -11.1144  XXZ=             14.1004  XZZ=             11.2972  YZZ=              4.5292
  YYZ=              0.8003  XYZ=              6.4386
 Hexadecapole moment (field-independent basis, Debye-Ang**3):
 XXXX=          -2587.9862 YYYY=           -600.0136 ZZZZ=           -469.0107 XXXY=             -3.4634
 XXXZ=              1.0515 YYYX=             -1.2609 YYYZ=             -0.8740 ZZZX=             -1.8427
 ZZZY=             -2.8287 XXYY=           -553.1981 XXZZ=           -518.4868 YYZZ=           -176.8382
 XXYZ=             -4.6962 YYXZ=              0.3615 ZZXY=              2.5062
 N-N= 9.038953838841D+02 E-N=-3.249928979366D+03  KE= 6.153358883042D+02
 D1PCM: PCM CHGder 1st derivatives, ID1Alg=3 FixD1E=F DoIter=F DoCFld=F I1PDM=0.
 Calling FoFJK, ICntrl=      2127 FMM=F ISym2X=0 I1Cent= 0 IOpClX= 0 NMat=1 NMatS=1 NMatT=0.
 ***** Axes restored to original set *****
 -------------------------------------------------------------------
 Center     Atomic                   Forces (Hartrees/Bohr)
 Number     Number              X              Y              Z
 -------------------------------------------------------------------
      1        6          -0.002639029    0.000329383    0.000625571
      2        6           0.004472252    0.000080664    0.008950540
      3        6          -0.000182239   -0.004080856    0.000361450
      4        6           0.000308471    0.002247353   -0.003220561
      5        6           0.005729975    0.003754951   -0.001650805
      6        8           0.002938094   -0.008095418    0.001353271
      7        6          -0.000870530   -0.006938570    0.000188183
      8        6           0.001117114    0.000021163    0.001833549
      9        6          -0.001004385    0.000161591   -0.002345057
     10        6          -0.001574853    0.003872934    0.006504905
     11        8           0.001879800    0.004494519   -0.010909853
     12        8          -0.003080337   -0.002356920    0.010877709
     13        6           0.000015787    0.001442855    0.001880965
     14        1           0.001978796   -0.000923031   -0.002519792
     15        1           0.001200184    0.000343431    0.002566352
     16        1          -0.002853049    0.001062388   -0.002020555
     17        1           0.001206788   -0.002150889    0.000697834
     18        1          -0.002945411    0.001508349    0.001691369
     19        1          -0.004230489    0.001325565    0.004422446
     20        1           0.003040312    0.003042842   -0.001094325
     21        1           0.003022119   -0.001352087    0.001141960
     22        1          -0.001664086    0.001937484    0.001377250
     23        1          -0.004378538    0.002260468   -0.004147166
     24        1           0.003950783   -0.003352583   -0.002569719
     25        1           0.002574345   -0.000785394   -0.002218372
     26        1          -0.002938261   -0.002196104    0.000546199
     27        1          -0.002083528   -0.001180279   -0.007959280
     28        1          -0.004849528    0.002637919   -0.003023752
     29        1          -0.001238088   -0.002526065    0.003303903
     30        1           0.002261060    0.001904383    0.000730696
     31        1           0.000836471    0.003509954   -0.005374914
 -------------------------------------------------------------------
 Cartesian Forces:  Max     0.010909853 RMS     0.003406757

 GradGradGradGradGradGradGradGradGradGradGradGradGradGradGradGradGradGrad
 Berny optimization.
 FormGI is forming the generalized inverse of G from B-inverse, IUseBI=4.
 Internal  Forces:  Max     0.009122362 RMS     0.001951685
 Search for a local minimum.
 Step number   1 out of a maximum of  186
 All quantities printed in internal units (Hartrees-Bohrs-Radians)
 Mixed Optimization -- RFO/linear search
 Second derivative matrix not updated -- first step.
 ITU=  0
     Eigenvalues ---    0.00620   0.00627   0.00724   0.00726   0.01409
     Eigenvalues ---    0.01422   0.01438   0.02702   0.02824   0.03074
     Eigenvalues ---    0.03108   0.04100   0.04348   0.04741   0.04746
     Eigenvalues ---    0.04866   0.04884   0.05067   0.05108   0.05182
     Eigenvalues ---    0.05290   0.05678   0.05842   0.06166   0.06211
     Eigenvalues ---    0.06607   0.06794   0.06827   0.07351   0.07845
     Eigenvalues ---    0.07950   0.07954   0.07964   0.08161   0.08161
     Eigenvalues ---    0.08221   0.08903   0.09458   0.10822   0.11578
     Eigenvalues ---    0.11706   0.11720   0.11758   0.12396   0.12545
     Eigenvalues ---    0.14484   0.14633   0.16032   0.16260   0.17584
     Eigenvalues ---    0.19014   0.21593   0.21825   0.25000   0.28493
     Eigenvalues ---    0.28611   0.28776   0.28830   0.28939   0.29189
     Eigenvalues ---    0.30211   0.30291   0.35042   0.35085   0.35092
     Eigenvalues ---    0.35144   0.35172   0.35176   0.35238   0.35258
     Eigenvalues ---    0.35290   0.35319   0.35383   0.35416   0.35435
     Eigenvalues ---    0.35438   0.35819   0.35848   0.35881   0.36065
     Eigenvalues ---    0.40816   0.41474   0.42288   0.42396   0.43201
     Eigenvalues ---    0.457241000.000001000.000001000.000001000.00000
     Eigenvalues --- 1000.000001000.000001000.000001000.000001000.00000
     Eigenvalues --- 1000.000001000.000001000.000001000.000001000.00000
     Eigenvalues --- 1000.000001000.000001000.000001000.000001000.00000
     Eigenvalues --- 1000.000001000.000001000.000001000.000001000.00000
     Eigenvalues --- 1000.000001000.000001000.000001000.000001000.00000
     Eigenvalues --- 1000.000001000.000001000.000001000.000001000.00000
     Eigenvalues --- 1000.000001000.000001000.000001000.000001000.00000
     Eigenvalues --- 1000.000001000.000001000.000001000.000001000.00000
     Eigenvalues --- 1000.000001000.000001000.000001000.000001000.00000
     Eigenvalues --- 1000.000001000.000001000.000001000.000001000.00000
     Eigenvalues --- 1000.000001000.000001000.000001000.000001000.00000
     Eigenvalues --- 1000.000001000.000001000.000001000.000001000.00000
     Eigenvalues --- 1000.000001000.000001000.000001000.000001000.00000
     Eigenvalues --- 1000.000001000.000001000.000001000.000001000.00000
     Eigenvalues --- 1000.000001000.000001000.000001000.000001000.00000
     Eigenvalues --- 1000.000001000.000001000.000001000.000001000.00000
     Eigenvalues --- 1000.000001000.000001000.000001000.000001000.00000
     Eigenvalues --- 1000.000001000.000001000.000001000.000001000.00000
     Eigenvalues --- 1000.000001000.000001000.000001000.000001000.00000
 RFO step:  Lambda=-2.95230350D-03 EMin= 6.19551236D-03
 Linear search not attempted -- first point.
 Iteration  1 RMS(Cart)=  0.03832415 RMS(Int)=  0.00040756
 Iteration  2 RMS(Cart)=  0.00076880 RMS(Int)=  0.00005306
 Iteration  3 RMS(Cart)=  0.00000022 RMS(Int)=  0.00005306
 Iteration  1 RMS(Cart)=  0.00002627 RMS(Int)=  0.00000600
 Iteration  2 RMS(Cart)=  0.00001384 RMS(Int)=  0.00000670
 Iteration  3 RMS(Cart)=  0.00000729 RMS(Int)=  0.00000754
 Iteration  4 RMS(Cart)=  0.00000384 RMS(Int)=  0.00000807
 Iteration  5 RMS(Cart)=  0.00000202 RMS(Int)=  0.00000837
 Iteration  6 RMS(Cart)=  0.00000107 RMS(Int)=  0.00000853
 Iteration  7 RMS(Cart)=  0.00000056 RMS(Int)=  0.00000862
 Variable       Old X    -DE/DX   Delta X   Delta X   Delta X     New X
                                 (Linear)    (Quad)   (Total)
    R1        2.88858  -0.00089   0.00000  -0.00269  -0.00269   2.88589
    R2        2.87130   0.00017   0.00000   0.00072   0.00078   2.87208
    R3        2.05526   0.00325   0.00000   0.00920   0.00920   2.06446
    R4        2.05290   0.00283   0.00000   0.00797   0.00797   2.06087
    R5        2.65533   0.00270   0.00000   0.00580   0.00580   2.66113
    R6        2.64443   0.00406   0.00000   0.00883   0.00883   2.65326
    R7        2.87672  -0.00041   0.00000  -0.00153  -0.00159   2.87514
    R8        2.03980   0.00830   0.00000   0.02283   0.02283   2.06264
    R9        2.88186  -0.00195   0.00000  -0.00672  -0.00675   2.87512
   R10        2.89208  -0.00112   0.00000  -0.00442  -0.00444   2.88763
   R11        2.05442   0.00363   0.00000   0.01026   0.01026   2.06467
   R12        2.05004   0.00295   0.00000   0.00827   0.00827   2.05831
   R13        2.89003  -0.00167   0.00000  -0.00558  -0.00559   2.88445
   R14        2.05160   0.00256   0.00000   0.00719   0.00719   2.05879
   R15        2.05396   0.00352   0.00000   0.00992   0.00992   2.06388
   R16        2.67642   0.00310   0.00000   0.00735   0.00738   2.68380
   R17        2.87335   0.00040   0.00000   0.00091   0.00090   2.87425
   R18        2.05606   0.00619   0.00000   0.01752   0.01752   2.07358
   R19        2.04365   0.00434   0.00000   0.01201   0.01201   2.05567
   R20        2.66691   0.00189   0.00000   0.00472   0.00474   2.67165
   R21        2.68684   0.00288   0.00000   0.00676   0.00677   2.69361
   R22        2.04975   0.00617   0.00000   0.01726   0.01726   2.06701
   R23        2.04320   0.00443   0.00000   0.01227   0.01227   2.05547
   R24        2.87773   0.00070   0.00000   0.00274   0.00276   2.88049
   R25        2.68422   0.00081   0.00000   0.00190   0.00190   2.68612
   R26        2.05057   0.00643   0.00000   0.01803   0.01803   2.06859
   R27        2.05207   0.00328   0.00000   0.00920   0.00920   2.06127
   R28        2.05257   0.00287   0.00000   0.00809   0.00809   2.06066
   R29        2.05536   0.00638   0.00000   0.01802   0.01802   2.07338
   R30        2.04269   0.00572   0.00000   0.01581   0.01581   2.05850
   R31        2.05390   0.00345   0.00000   0.00972   0.00972   2.06362
   R32        2.04970   0.00368   0.00000   0.01029   0.01029   2.05999
    A1        1.92203  -0.00102   0.00000  -0.00604  -0.00626   1.91578
    A2        1.91618   0.00089   0.00000   0.00128   0.00136   1.91754
    A3        1.93977  -0.00052   0.00000  -0.00159  -0.00155   1.93822
    A4        1.90634   0.00007   0.00000  -0.00110  -0.00104   1.90531
    A5        1.90280   0.00062   0.00000   0.00400   0.00404   1.90684
    A6        1.87588  -0.00000   0.00000   0.00372   0.00368   1.87957
    A7        1.91743   0.00103   0.00000   0.00597   0.00614   1.92357
    A8        1.93730   0.00349   0.00000   0.01060   0.01041   1.94771
    A9        1.83299  -0.00247   0.00000  -0.00490  -0.00493   1.82806
   A10        1.92293  -0.00322   0.00000  -0.01679  -0.01673   1.90620
   A11        1.91934   0.00134   0.00000   0.00801   0.00793   1.92726
   A12        1.93209  -0.00005   0.00000  -0.00191  -0.00184   1.93025
   A13        1.94409   0.00025   0.00000  -0.01029  -0.01038   1.93371
   A14        1.88121  -0.00011   0.00000   0.00539   0.00541   1.88662
   A15        1.91390  -0.00044   0.00000  -0.00631  -0.00630   1.90760
   A16        1.90797  -0.00012   0.00000   0.00511   0.00515   1.91312
   A17        1.94043   0.00015   0.00000   0.00107   0.00099   1.94142
   A18        1.87394   0.00027   0.00000   0.00585   0.00583   1.87978
   A19        1.91284   0.00168   0.00000  -0.00348  -0.00350   1.90934
   A20        1.93092  -0.00019   0.00000   0.00254   0.00262   1.93354
   A21        1.91409  -0.00072   0.00000  -0.00083  -0.00094   1.91315
   A22        1.91719  -0.00048   0.00000   0.00192   0.00192   1.91910
   A23        1.92140  -0.00094   0.00000  -0.00620  -0.00620   1.91520
   A24        1.86703   0.00060   0.00000   0.00620   0.00620   1.87323
   A25        1.93655   0.00136   0.00000   0.00720   0.00714   1.94369
   A26        1.90106   0.00098   0.00000   0.00781   0.00787   1.90893
   A27        1.85634  -0.00120   0.00000  -0.00446  -0.00444   1.85190
   A28        1.93032  -0.00132   0.00000  -0.00857  -0.00858   1.92174
   A29        1.94607  -0.00027   0.00000  -0.00274  -0.00274   1.94333
   A30        1.89120   0.00048   0.00000   0.00113   0.00110   1.89230
   A31        1.97822  -0.00389   0.00000  -0.02522  -0.02515   1.95307
   A32        1.94492   0.00247   0.00000   0.00697   0.00692   1.95184
   A33        1.93161  -0.00165   0.00000  -0.00767  -0.00772   1.92389
   A34        1.94640  -0.00033   0.00000  -0.00226  -0.00219   1.94421
   A35        1.90885   0.00011   0.00000   0.00123   0.00130   1.91015
   A36        1.84201  -0.00137   0.00000  -0.00222  -0.00223   1.83978
   A37        1.88706   0.00077   0.00000   0.00428   0.00426   1.89132
   A38        1.92153   0.00043   0.00000  -0.00135  -0.00145   1.92008
   A39        1.88695   0.00016   0.00000  -0.00471  -0.00472   1.88224
   A40        1.91787  -0.00061   0.00000   0.00059   0.00061   1.91847
   A41        1.93798  -0.00084   0.00000  -0.00747  -0.00746   1.93051
   A42        1.89751   0.00001   0.00000   0.00102   0.00104   1.89855
   A43        1.90195   0.00084   0.00000   0.01210   0.01210   1.91405
   A44        1.92422  -0.00021   0.00000  -0.00645  -0.00653   1.91769
   A45        1.92696   0.00032   0.00000  -0.00331  -0.00330   1.92366
   A46        1.92546  -0.00069   0.00000  -0.00039  -0.00037   1.92509
   A47        1.90639  -0.00034   0.00000  -0.00163  -0.00167   1.90472
   A48        1.90694   0.00063   0.00000   0.00554   0.00559   1.91253
   A49        1.87302   0.00030   0.00000   0.00666   0.00665   1.87967
   A50        1.95191   0.00109   0.00000   0.00503   0.00504   1.95695
   A51        1.91404   0.00108   0.00000   0.01154   0.01152   1.92556
   A52        1.86110  -0.00082   0.00000  -0.00460  -0.00461   1.85649
   A53        1.90175  -0.00102   0.00000  -0.00229  -0.00237   1.89938
   A54        1.94303  -0.00080   0.00000  -0.01095  -0.01096   1.93207
   A55        1.89082   0.00051   0.00000   0.00151   0.00149   1.89231
   A56        2.02433  -0.00594   0.00000  -0.03714  -0.03710   1.98724
   A57        2.04791  -0.00912   0.00000  -0.03606  -0.03606   2.01185
   A58        1.95257  -0.00177   0.00000  -0.01541  -0.01562   1.93695
   A59        1.87685   0.00029   0.00000   0.00609   0.00609   1.88294
   A60        1.89874   0.00064   0.00000  -0.00224  -0.00220   1.89654
   A61        1.90972   0.00115   0.00000   0.00729   0.00742   1.91714
   A62        1.94612  -0.00021   0.00000  -0.00169  -0.00180   1.94432
   A63        1.87704  -0.00002   0.00000   0.00710   0.00707   1.88411
    D1        0.92545  -0.00010   0.00000   0.01034   0.01035   0.93580
    D2        3.04209   0.00028   0.00000   0.01209   0.01213   3.05422
    D3       -1.18570   0.00045   0.00000   0.02071   0.02075  -1.16495
    D4       -1.17421  -0.00011   0.00000   0.01471   0.01470  -1.15951
    D5        0.94244   0.00027   0.00000   0.01646   0.01648   0.95892
    D6        2.99783   0.00044   0.00000   0.02508   0.02510   3.02293
    D7        3.03594  -0.00036   0.00000   0.01027   0.01023   3.04617
[...]
 0.00036847,0.00038166,-0.00026953,0.00036191,0.00017600,-0.00007502,0.
 00002960,0.00003924,0.00027141,0.00061938,0.00122522,-0.00350529,-0.00
 139338,-0.00452312,-0.00003638,0.00007116,-0.00004160,0.00004402,-0.00
 007929,0.00006686,0.00000794,-0.00000195,-0.00000050,-0.00000529,-0.00
 000210,0.00001121,-0.00002481,-0.00001944,-0.00000296,-0.00000019,-0.0
 0002237,-0.00001677,-0.12077757,0.06867598,0.16984768,-0.00003608,0.00
 001382,-0.00370584,0.00715317,0.00855325,-0.00002982,0.00006676,-0.000
 01706,0.00002212,-0.00996061,-0.00825998,0.00269817,0.00000824,-0.0000
 1203,-0.00005061,0.00035553,-0.00015163,-0.00001514,-0.00051688,0.0004
 3058,-0.00058948,-0.00001671,-0.00030661,0.00000321,0.00000151,-0.0000
 1377,-0.00001565,0.00000836,0.00000272,0.00018891,0.00139249,0.0036811
 4,-0.00097990,0.00180083,0.00082928,-0.00054691,-0.19656018,-0.1329798
 8,0.02356566,0.00032833,0.00034233,-0.00003528,-0.00045457,-0.00108805
 ,0.00012594,0.00001100,-0.00000629,-0.00001110,0.00004248,0.00033888,0
 .00029138,0.00073702,0.00019605,-0.00012249,0.00004218,-0.00003936,0.0
 0004633,0.00007288,-0.00007363,0.00015623,0.00000953,-0.00000405,-0.00
 000408,0.00000054,0.00000554,0.00000057,0.00003355,-0.00002270,-0.0000
 3954,0.00003196,-0.00007178,-0.00006567,-0.01474991,-0.01371462,0.0020
 0226,0.20986720,0.00003098,0.00115215,-0.00126548,-0.02247209,-0.01697
 463,0.00099049,0.00001950,-0.00000234,-0.00000554,-0.00299690,-0.00357
 536,-0.00008603,0.00004951,-0.00006149,-0.00007236,-0.00028364,0.00008
 466,0.00014363,0.00085267,0.00097408,0.00156049,0.00028131,0.00002245,
 0.00009404,-0.00000424,0.00000582,-0.00000256,0.00021702,-0.00022083,-
 0.00016747,0.00039440,-0.00766434,0.00279440,-0.00047665,0.00237887,-0
 .00012042,-0.12813636,-0.16485896,0.02012442,-0.00019885,-0.00008342,0
 .00013280,-0.00025010,-0.00007312,0.00024350,-0.00000997,-0.00000450,-
 0.00000110,0.00010050,0.00036487,-0.00032306,0.00002364,0.00007214,0.0
 0006702,-0.00001844,-0.00006688,-0.00021714,-0.00011324,-0.00003189,-0
 .00013714,-0.00000656,-0.00001266,-0.00000973,-0.00000590,0.00000752,0
 .00000898,-0.00007854,0.00007144,0.00006038,0.00013180,0.00007932,0.00
 021012,0.00945397,0.00942788,-0.00076032,0.14319787,0.17824070,-0.0020
 0774,-0.00039347,-0.00598243,0.01171076,0.00621785,-0.00192889,-0.0000
 2452,-0.00000651,-0.00000808,-0.02249697,-0.02120567,0.00459325,-0.000
 02684,0.00004618,0.00005871,0.00009513,-0.00003612,-0.00003040,-0.0007
 1471,0.00021007,-0.00127727,-0.00009300,0.00009191,-0.00004771,0.00002
 060,-0.00001019,0.00001333,-0.00017279,0.00014567,0.00013993,-0.000165
 62,0.00509921,-0.00009579,0.00008858,-0.00131388,0.00029662,0.02312829
 ,0.02189774,-0.05106248,-0.00014847,0.00006327,0.00011526,-0.00124249,
 -0.00145994,0.00018722,0.00000093,0.00000416,-0.00000366,0.00057601,0.
 00070602,0.00121258,0.00089232,0.00014021,0.00127048,0.00008243,0.0000
 0935,0.00017610,0.00012777,-0.00001998,0.00023644,-0.00001676,0.000000
 43,-0.00001377,-0.00000086,-0.00000447,-0.00000843,0.00006498,-0.00004
 546,-0.00004167,-0.00016640,0.00001611,-0.00014432,0.01345004,0.013937
 60,-0.00260650,-0.02306905,-0.02337432,0.05489072,0.00023127,-0.000200
 32,0.00007325,-0.07722425,-0.00999269,-0.08264615,0.00001011,-0.000059
 90,-0.00018599,0.00026361,0.00246479,-0.00010317,-0.00004734,0.0001568
 4,0.00012392,0.00012810,0.00006075,-0.00025198,-0.00057248,-0.00271082
 ,0.00321231,0.00116510,0.00002344,0.00380556,-0.00002519,-0.00000957,0
 .00003223,-0.00093822,-0.00023555,0.00061372,-0.01707589,-0.01428453,-
 0.02497968,-0.00137875,0.01025282,0.03127691,-0.00236240,-0.00083716,-
 0.01170291,-0.00008719,0.00005543,0.00006403,-0.00005419,0.00012817,-0
 .00005315,-0.00008556,0.00000006,-0.00000123,-0.00032086,-0.00011978,-
 0.00061046,-0.00000949,-0.00002822,-0.00016416,-0.00013062,-0.00017503
 ,-0.00043180,-0.00059461,-0.00040032,-0.00098189,-0.00000958,0.0000489
 6,-0.00012600,-0.00006762,-0.00000778,-0.00003143,0.00012929,-0.000044
 02,-0.00008204,-0.00135396,-0.00070225,0.00030109,0.00013510,-0.000350
 93,0.00002609,0.00033168,0.00038119,0.00008007,0.09993194,-0.00048240,
 -0.00054083,-0.00039390,-0.00613807,-0.05634176,-0.02644437,-0.0000517
 9,-0.00011919,0.00017451,0.00141406,-0.00540307,0.00080207,-0.00004581
 ,0.00000579,0.00002351,0.00000234,-0.00004413,0.00003437,-0.00226835,-
 0.00213287,0.00319160,-0.00130441,0.00092877,-0.00287669,0.00001218,0.
 00000517,-0.00000209,0.00000798,0.00038184,0.00045412,-0.02082170,-0.0
 1144762,-0.02772583,0.00376540,-0.00186414,-0.01549562,0.01084114,0.00
 608186,0.02624170,0.00006179,0.00010212,-0.00004001,0.00002426,0.00035
 969,-0.00012518,0.00006022,-0.00000153,0.00000638,0.00094073,0.0003345
 6,0.00158821,-0.00019376,0.00004548,0.00004712,0.00012217,-0.00006058,
 -0.00013269,-0.00069202,-0.00032097,-0.00114161,0.00000602,-0.00003298
 ,0.00007346,0.00003498,-0.00001100,0.00002649,0.00016973,-0.00002433,-
 0.00007867,-0.00082472,-0.00019864,0.00008105,-0.00023349,0.00097585,-
 0.00075286,-0.00085723,0.00068597,-0.00068362,0.01622438,0.06919555,0.
 00026803,0.00010563,0.00006866,-0.08095210,-0.03767732,-0.27747126,0.0
 0006853,-0.00023153,0.00048861,-0.00039473,0.00244575,0.00093877,0.000
 01156,-0.00017076,0.00002546,-0.00028418,0.00019372,0.00039921,0.00101
 532,0.00109155,0.00230823,-0.00445352,0.00151348,-0.00088912,-0.000226
 42,0.00009857,0.00003216,0.00043836,-0.00054511,-0.00014175,-0.0012679
 0,-0.00105340,0.00523121,0.00732165,-0.00826382,-0.02433693,-0.0048604
 6,-0.00113269,-0.00982635,-0.00004290,-0.00002621,0.00001558,-0.000000
 32,-0.00009424,-0.00002923,0.00014582,-0.00007479,-0.00008044,-0.00033
 345,-0.00027041,-0.00066502,0.00014416,-0.00005524,0.00012547,0.000108
 04,0.00012060,0.00007761,0.00002291,0.00003220,-0.00000020,0.00004077,
 -0.00002070,0.00011076,0.00002673,-0.00002554,0.00005099,-0.00008808,0
 .00034608,0.00022389,0.00014632,0.00062138,0.00050822,-0.00021515,0.00
 026733,0.00063748,0.00017404,0.00011905,0.00008043,0.08273871,0.043075
 40,0.30092463,0.00000376,-0.00000074,-0.00001126,0.00031753,-0.0000231
 9,-0.00011881,0.00039210,0.00122512,-0.00003681,-0.00000044,0.00000531
 ,0.00001484,-0.19814373,0.04406004,-0.10647258,-0.02668353,0.01694275,
 0.00202826,0.00002318,0.00000619,0.00003724,-0.00026966,-0.00010203,0.
 00046098,-0.01198381,0.00290629,-0.01129773,0.00103054,0.00178012,-0.0
 0393791,-0.00012034,-0.00005695,-0.00000545,-0.00019869,-0.00011022,0.
 00009722,-0.00000142,0.00001742,0.00000707,-0.00000241,0.00000104,0.00
 000219,-0.00000523,-0.00000211,-0.00000386,-0.00005465,-0.00035114,0.0
 0049280,-0.00000744,0.00000295,-0.00000702,0.00000393,-0.00000133,0.00
 000437,0.00000043,0.00000441,-0.00000264,-0.00000821,-0.00000414,-0.00
 000341,-0.00027937,-0.00258406,-0.00109545,0.00041506,-0.00031140,-0.0
 0013698,0.00015323,-0.00074986,0.00090943,0.00031610,-0.00016787,0.000
 42117,-0.00002284,0.00000600,-0.00000184,-0.00002258,-0.00001897,0.000
 01378,0.00001008,0.00000537,0.00001029,0.22590677,-0.00000157,0.000000
 63,0.00000931,-0.00019127,-0.00000638,0.00015690,0.00025154,0.00171588
 ,-0.00083897,0.00000346,-0.00000160,-0.00001309,0.04535561,-0.06599201
 ,0.03752907,0.02588126,-0.01065712,0.00142753,-0.00001431,-0.00000523,
 -0.00003184,-0.00016546,-0.00011324,-0.00037110,-0.02299482,0.00647422
 ,-0.01579481,-0.00224886,-0.00082573,0.00255648,0.00008733,0.00004597,
 0.00001193,0.00025552,0.00013963,0.00007594,0.00000192,-0.00001330,-0.
 00001399,0.00000105,-0.00000095,-0.00000146,0.00000480,0.00000178,0.00
 000302,0.00047341,-0.00016351,0.00028909,0.00000474,-0.00000152,0.0000
 0629,0.00000159,-0.00000131,-0.00000313,0.00000093,-0.00000181,0.00000
 051,0.00000619,0.00000292,0.00000359,-0.00310770,-0.00414687,-0.001761
 62,0.00099117,0.00103825,0.00048816,-0.00022113,0.00059849,-0.00076787
 ,-0.00014841,0.00001766,-0.00024002,0.00001619,-0.00000498,0.00000171,
 0.00001352,0.00001565,-0.00001314,-0.00003051,0.00000245,0.00001867,-0
 .05980286,0.07560611,0.00000368,-0.00000096,0.00000060,0.00018640,-0.0
 0007467,-0.00007267,0.00105212,0.00034765,0.00045895,0.00000502,0.0000
 0628,-0.00000536,-0.10944517,0.03981269,-0.13168901,0.02340954,-0.0095
 8193,0.00786000,0.00001740,0.00000001,0.00001585,0.00004695,0.00019590
 ,-0.00030808,-0.01067530,0.00377314,-0.00757001,0.00224775,-0.00259520
 ,0.00459476,-0.00007042,-0.00002665,0.00000056,-0.00040039,0.00010321,
 -0.00000744,-0.00001429,-0.00002737,0.00000952,-0.00000210,0.00000073,
 0.00000170,-0.00000134,0.00000151,-0.00000175,-0.00010708,-0.00029748,
 0.00060094,-0.00000401,0.00000144,-0.00000247,-0.00000025,-0.00000167,
 0.00000566,0.00000057,0.00000415,0.,-0.00000566,-0.00000137,-0.0000009
 6,-0.00103227,-0.00283066,0.00025830,0.00022872,0.00003402,0.00020101,
 -0.00165785,-0.00000499,0.00033512,-0.00020632,-0.00003153,0.00011816,
 -0.00000129,0.00001495,-0.00000270,0.00001135,0.00001352,-0.00000789,-
 0.00001017,0.00000677,0.00001485,0.11457261,-0.03401861,0.13670415,0.0
 0000376,-0.00000297,-0.00000866,0.00028854,-0.00001898,-0.00007956,-0.
 00036110,-0.00206003,-0.00200395,-0.00000436,0.00001191,0.00000917,-0.
 07132855,-0.04344056,0.04874163,-0.01108679,-0.01063946,0.02446867,0.0
 0002499,0.00000414,0.00004635,0.00033028,0.00017423,0.00020782,-0.0043
 6596,-0.01097808,0.01096516,-0.00165829,0.00343600,0.00000017,-0.00013
 733,-0.00006080,-0.00002449,-0.00030505,0.00006745,0.00003222,-0.00001
 938,-0.00000486,0.00000984,-0.00000162,0.00000169,0.00000190,-0.000005
 02,-0.00000039,-0.00000411,0.00006229,-0.00023862,0.00029433,-0.000007
 67,0.00000282,-0.00000800,0.00000051,-0.00000294,0.00000347,0.00000133
 ,0.00000456,-0.00000275,-0.00000891,-0.00000363,-0.00000520,0.00042761
 ,0.00074795,0.00056738,0.00038501,0.00012697,-0.00016434,0.00021844,-0
 .00025088,0.00044732,-0.00022939,-0.00055562,0.00095434,-0.00001764,0.
 00001393,-0.00000452,0.00000332,-0.00000974,0.00000954,0.00000823,-0.0
 0000046,-0.00002293,0.00905852,0.01508085,-0.01823417,0.07891155,0.000
 00225,-0.00000037,-0.00000079,0.00015110,-0.00001328,-0.00017939,-0.00
 281377,-0.00371649,-0.00410432,0.00000120,0.00000516,0.00000341,-0.050
 08424,-0.15564039,0.12966054,0.00937422,0.01341876,-0.02064698,0.00002
 164,0.00000181,0.00001634,0.00065802,-0.00026584,-0.00078290,-0.006444
 15,-0.01507259,0.02052124,0.00240626,-0.00173121,-0.00214612,-0.000071
 39,-0.00002351,0.00002275,-0.00027754,0.00017856,0.00021107,-0.0000364
 4,0.00000148,0.00002467,-0.00000136,0.00000140,0.00000046,-0.00000203,
 -0.00000006,-0.00000200,0.00025420,0.00025090,-0.00025296,-0.00000389,
 0.00000156,-0.00000342,-0.00000052,-0.00000156,0.00000251,0.00000232,0
 .00000351,0.00000069,-0.00000454,-0.00000086,-0.00000004,0.00014599,0.
 00137410,-0.00029431,0.00061447,0.00052279,-0.00011879,-0.00012251,0.0
 0001552,-0.00014027,0.00043637,0.00046223,-0.00080654,-0.00001108,0.00
 001541,-0.00000582,-0.00000047,0.00000199,-0.00000289,-0.00001134,0.00
 000385,0.00003531,-0.00241920,-0.00392276,0.00518988,0.04917325,0.1648
 1588,-0.00000331,0.00000254,0.00001119,-0.00026777,0.00000341,0.000013
 06,-0.00139364,-0.00230978,-0.00066529,0.00000358,-0.00000980,-0.00001
 289,0.05415318,0.12093660,-0.19337113,0.01160525,0.00883248,-0.0222648
 0,-0.00001779,-0.00000331,-0.00004419,-0.00025575,-0.00035151,-0.00050
 973,-0.00484990,-0.00806385,0.01189194,0.00200139,-0.00420953,0.000768
 58,0.00011945,0.00006098,0.00003946,0.00030379,0.00008876,0.00007648,0
 .00000238,0.00000218,-0.00000091,0.00000148,-0.00000141,-0.00000191,0.
 00000508,0.00000128,0.00000361,0.00005390,-0.00011916,0.00005467,0.000
 00735,-0.00000246,0.00000803,-0.00000216,0.00000243,-0.00000205,-0.000
 00018,-0.00000338,0.00000273,0.00000844,0.00000408,0.00000575,0.000428
 31,0.00060707,0.00059185,0.00063779,0.00094745,0.00023312,-0.00014819,
 -0.00005078,0.00022681,0.00078534,0.00065217,-0.00088340,0.00001752,-0
 .00000659,0.00000292,0.00000250,0.00001726,-0.00001296,-0.00001081,-0.
 00000406,0.00004545,0.00392770,0.01121516,-0.01162617,-0.06681581,-0.1
 2789240,0.21475128,0.00000106,0.00000398,-0.00000464,-0.00000837,-0.00
 008713,0.00023769,-0.12986533,-0.11513696,-0.05041918,-0.00000238,-0.0
 0000611,-0.00000353,-0.00021020,-0.00068693,0.00334767,0.00040034,-0.0
 0027080,-0.00083081,-0.00005269,-0.00000871,0.00000498,0.00915358,0.01
 703041,0.00681339,-0.00627849,-0.00718478,-0.00452327,-0.00262473,0.00
 181474,0.00248325,0.00011944,0.00001854,-0.00005800,0.00202686,-0.0006
 1882,0.00011611,0.00006433,-0.00000638,-0.00003733,0.00000131,-0.00000
 434,0.00000046,0.00000306,-0.00000094,0.00000256,-0.01288250,-0.018695
 19,-0.00772223,0.00000458,-0.00000148,0.00000438,0.00000360,0.,-0.0000
 0246,0.00007272,-0.00005299,-0.00001456,0.00000409,0.00000126,0.000002
 08,0.00063857,0.00027648,0.00020980,-0.00009688,0.00025373,-0.00022964
 ,0.00007722,0.00006943,0.00010187,0.00056544,0.00090610,0.00033771,0.0
 0002177,-0.00002334,0.00000599,0.00000417,-0.00000467,0.00000595,0.000
 03980,0.00000572,-0.00003734,0.00032068,0.00041884,0.00014479,-0.00008
 229,-0.00094567,-0.00033563,0.13792555,0.00000271,0.00000177,0.0000053
 3,0.00013636,0.00027674,-0.00010118,-0.11221705,-0.20452012,-0.0676599
 2,0.00000925,-0.00000553,-0.00000696,-0.00065963,0.00004940,0.00441853
 ,-0.00001503,0.00044700,0.00002773,0.00002125,-0.00001823,0.00000619,-
 0.01017484,-0.01672777,-0.00786728,-0.00932630,-0.01340230,-0.00548998
 ,0.00401099,-0.00010866,-0.00241098,0.00000532,-0.00001322,0.00001323,
 -0.00106639,0.00155612,0.00098528,-0.00007862,0.00001198,0.00007739,-0
 .00000153,0.00000269,-0.00000103,0.00000131,0.00000154,-0.00000029,0.0
 0642685,0.01063413,0.00405234,0.00000101,0.00000207,0.00000164,-0.0000
 0375,-0.00000331,-0.00000058,0.00005318,-0.00001577,0.00000442,-0.0000
 0380,0.00000289,0.00000471,0.00045414,0.00041587,-0.00033732,0.0000838
 6,0.00062594,0.00009086,-0.00021897,0.00015378,-0.00005358,-0.00066376
 ,-0.00094574,-0.00017863,-0.00001353,0.00002627,-0.00001549,0.00000309
 ,0.00001452,-0.00000832,-0.00010338,0.00003494,0.00010270,-0.00013180,
 0.00003426,-0.00015157,-0.00046219,-0.00090272,-0.00056507,0.12365017,
 0.22165590,-0.00000173,0.00000280,0.00000349,-0.00015062,0.00025668,-0
 .00003764,-0.04885449,-0.06865487,-0.07779686,-0.00000013,-0.00000855,
 -0.00000530,0.00229141,0.00187452,-0.00573785,-0.00107748,-0.00021801,
 0.00130438,-0.00001225,0.00000462,-0.00000597,-0.01350583,-0.01672275,
 -0.00844678,0.01534302,0.02159480,0.01027427,0.00441084,-0.00139946,-0
 .00309948,0.00010919,0.00004321,0.00000222,-0.00053060,0.00148834,0.00
 111753,-0.00005806,0.00001039,0.00005051,0.00000201,-0.00000210,-0.000
 00169,0.00000357,0.00000100,0.00000250,-0.00789665,-0.01244737,-0.0059
 4685,0.00000643,-0.00000247,0.00000362,0.00000113,0.00000049,-0.000007
 35,0.00004364,-0.00002690,-0.00000942,0.00000891,0.00000279,0.00000106
 ,-0.00076424,-0.00066961,0.00112432,-0.00032452,-0.00099228,0.00092721
 ,0.00022352,0.00030220,0.00022018,-0.00059415,-0.00144151,-0.00002689,
 0.00000100,0.00000729,-0.00001151,0.00000303,0.00001017,-0.00001072,-0
 .00005106,0.00000604,0.00004445,0.00009916,0.00001258,0.00003063,0.000
 69531,0.00151164,0.00060326,0.05112668,0.07485590,0.08498328,0.0000415
 3,0.00006447,0.00004188,0.00327516,0.00024881,-0.00410105,-0.00522613,
 -0.00973375,0.01457214,0.00003383,0.00007913,0.00001723,0.00112725,-0.
 00007162,-0.00072643,-0.00200640,-0.00440705,-0.00012974,0.00006106,-0
 .00016939,-0.00015236,-0.06617933,-0.03782044,0.05745605,-0.00101091,0
 .00352346,0.00156549,-0.00183616,-0.00495235,0.01441707,0.00051162,-0.
 00053073,-0.00004514,-0.00770506,0.02055926,-0.03251217,-0.00013035,0.
 00015162,0.00041543,-0.00002098,-0.00000536,0.00000500,-0.00001177,-0.
 00002528,0.00000048,0.00020516,-0.00028139,-0.00010387,-0.00010215,0.0
 0002175,0.00002177,-0.00001904,0.00001325,0.00016301,-0.00002959,0.000
 07173,0.00004987,-0.00003988,-0.00000258,0.00002302,0.00002898,-0.0001
 0002,0.00019832,-0.00038056,-0.00059846,0.00086388,-0.00003630,0.00048
 467,0.00008817,0.00037986,-0.00009180,-0.00051832,-0.00016596,0.000163
 41,-0.00003536,0.00001482,-0.00004952,-0.00000096,-0.00004608,0.000215
 72,0.00049826,-0.00014756,0.00007701,-0.00005882,-0.00010503,0.0000088
 3,0.00003649,0.00065570,0.00028108,-0.00054704,0.07886429,-0.00000319,
 0.00000302,-0.00000309,-0.00140186,0.00100906,0.00270908,0.00588104,0.
 01152648,-0.01724964,-0.00005130,0.00010128,-0.00003440,0.00113661,-0.
 00128216,-0.00126567,-0.00493966,-0.00595426,0.00050414,-0.00003635,-0
 .00000278,-0.00006294,-0.03703066,-0.11971861,0.10398083,0.00220297,-0
 .00241000,-0.00224975,-0.00701427,-0.01087582,0.02375094,0.00081107,-0
 .00004945,-0.00026554,0.00720441,-0.00284431,0.00797937,0.00000785,-0.
 00022592,-0.00043578,0.00000521,-0.00000238,-0.00000069,0.00000173,0.0
 0000290,0.00000516,-0.00052953,0.00076682,0.00071311,0.00000721,-0.000
 01497,-0.00004145,0.00000702,-0.00000536,-0.00005537,-0.00003458,-0.00
 001506,-0.00002941,0.00001018,-0.00000969,-0.00000256,-0.00011342,-0.0
 0000895,-0.00005858,0.00054150,0.00062951,-0.00091304,-0.00024122,0.00
 081106,-0.00056258,0.00105746,0.00054387,-0.00011007,0.00008279,-0.000
 08083,0.00003171,0.00001108,0.00003036,-0.00000781,0.00050728,-0.00060
 025,-0.00054568,-0.00012516,0.00016441,0.00013879,-0.00011556,0.000216
 73,0.00021924,-0.00071414,0.00071554,0.00060041,0.03287552,0.12757974,
 0.00002657,-0.00000460,-0.00001557,0.00435109,-0.00259928,-0.00164231,
 0.00667943,0.00992786,-0.01544857,0.00011733,-0.00007979,0.00001772,-0
 .00015002,-0.00067583,-0.00041619,-0.00137073,-0.00267798,0.00119578,0
 .00023844,0.00004026,0.00016957,0.05268625,0.10435364,-0.21563754,0.00
 193797,-0.00349597,-0.00057784,-0.00116005,-0.00350724,0.00721018,-0.0
 0149689,-0.00050707,0.00065095,-0.01029847,0.01296513,-0.01847228,-0.0
 0023076,0.00014678,0.00043263,-0.00002230,0.00000372,0.00001757,-0.000
 02710,-0.00000189,-0.00002280,0.00006576,-0.00008433,0.00076339,-0.000
 03737,0.00003388,0.00000881,-0.00002972,-0.00000347,0.00010415,0.00000
 509,0.00005277,-0.00000323,-0.00005381,-0.00000796,0.00000394,-0.00016
 347,-0.00002336,0.00011676,0.00042452,0.00079206,-0.00084142,0.0003491
 7,0.00101121,0.00036069,0.00052639,0.00044311,0.00005694,-0.00015987,0
 .00017526,-0.00004430,-0.00001112,-0.00004759,0.00001190,0.00007620,0.
 00006441,0.00108818,0.00003264,0.00006370,0.00008376,-0.00007611,0.000
 17941,0.00006524,-0.00072676,0.00020191,0.00045139,-0.05150231,-0.1167
 3874,0.24031251\\0.00000296,0.00000224,0.00000476,-0.00124163,0.000080
 93,-0.00168397,0.00001099,0.00001652,-0.00000488,-0.00000014,-0.000006
 49,0.00000829,-0.00000480,-0.00000813,0.00000613,-0.00000734,0.0000082
 7,0.00000459,0.00000602,0.00002015,-0.00000309,-0.00056368,-0.00153941
 ,0.00018048,-0.00000592,0.00000535,0.00000568,0.00000522,-0.00000635,-
 0.00002111,0.00075560,-0.00056485,0.00130922,0.00104100,0.00200859,0.0
 0018236,-0.00000746,-0.00000637,0.00000557,-0.00000421,0.00000031,0.00
 000280,0.00000108,0.00000179,-0.00000335,-0.00000025,-0.00000067,-0.00
 000412,-0.00000547,0.00000480,0.00000192,0.00000143,0.00000084,-0.0000
 0225,0.00000569,-0.00000522,-0.00000981,-0.00000139,-0.00000222,0.0000
 0075,0.00000028,0.00000374,-0.00000484,0.00000458,-0.00000186,-0.00000
 552,0.00000454,-0.00000895,0.00000920,0.00000063,0.00000462,0.00000312
 ,0.00000093,0.00000018,0.00000435,0.00000580,0.00000218,0.00000099,0.0
 0000146,-0.00000328,0.00001439,0.00000461,-0.00000090,0.00000141,-0.00
 000523,0.00000705,-0.00000121,-0.00000517,-0.00000265,-0.00000894,-0.0
 0000011,-0.00001021,0.00000706\\\@


 WHAT, THEN, IS TIME?  IF NO ONE ASKS ME, I KNOW WHAT IT IS.
 IF I WISH TO EXPLAIN WHAT IT IS TO HIM WHO ASKS ME, I DO NOT KNOW.
                                   -- ST. AUGUSTINE (FIFTH CENTURY)
 Job cpu time:       0 days 13 hours 57 minutes 26.1 seconds.
 Elapsed time:       0 days  0 hours 52 minutes 21.6 seconds.
 File lengths (MBytes):  RWF=    690 Int=      0 D2E=      0 Chk=     33 Scr=      1
 Normal termination of Gaussian 16 at Mon Nov  5 02:16:08 2018.
