 Entering Gaussian System, Link 0=g16
 Initial command:
 /apps/gaussian/g16a03/g16/l1.exe "/jobfs/local/2011872.r-man2/Gau-18206.inp" -scrdir="/jobfs/local/2011872.r-man2/"
 Entering Link 1 = /apps/gaussian/g16a03/g16/l1.exe PID=     18207.
  
 Copyright (c) 1988,1990,1992,1993,1995,1998,2003,2009,2016,
            Gaussian, Inc.  All Rights Reserved.
  
 This is part of the Gaussian(R) 16 program.  It is based on
 the Gaussian(R) 09 system (copyright 2009, Gaussian, Inc.),
 the Gaussian(R) 03 system (copyright 2003, Gaussian, Inc.),
 the Gaussian(R) 98 system (copyright 1998, Gaussian, Inc.),
 the Gaussian(R) 94 system (copyright 1995, Gaussian, Inc.),
 the Gaussian 92(TM) system (copyright 1992, Gaussian, Inc.),
 the Gaussian 90(TM) system (copyright 1990, Gaussian, Inc.),
 the Gaussian 88(TM) system (copyright 1988, Gaussian, Inc.),
 the Gaussian 86(TM) system (copyright 1986, Carnegie Mellon
 University), and the Gaussian 82(TM) system (copyright 1983,
 Carnegie Mellon University). Gaussian is a federally registered
 trademark of Gaussian, Inc.
  
 This software contains proprietary and confidential information,
 including trade secrets, belonging to Gaussian, Inc.
  
 This software is provided under written license and may be
 used, copied, transmitted, or stored only in accord with that
 written license.
  
 The following legend is applicable only to US Government
 contracts under FAR:
  
                    RESTRICTED RIGHTS LEGEND
  
 Use, reproduction and disclosure by the US Government is
 subject to restrictions as set forth in subparagraphs (a)
 and (c) of the Commercial Computer Software - Restricted
 Rights clause in FAR 52.227-19.
  
 Gaussian, Inc.
 340 Quinnipiac St., Bldg. 40, Wallingford CT 06492
  
  
 ---------------------------------------------------------------
 Warning -- This program may not be used in any manner that
 competes with the business of Gaussian, Inc. or will provide
 assistance to any competitor of Gaussian, Inc.  The licensee
 of this program is prohibited from giving any competitor of
 Gaussian, Inc. access to this program.  By using this program,
 the user acknowledges that Gaussian, Inc. is engaged in the
 business of creating and licensing software in the field of
 computational chemistry and represents and warrants to the
 licensee that it is not a competitor of Gaussian, Inc. and that
 it will not use this program in any manner prohibited above.
 ---------------------------------------------------------------
  

 Cite this work as:
 Gaussian 16, Revision A.03,
 M. J. Frisch, G. W. Trucks, H. B. Schlegel, G. E. Scuseria, 
 M. A. Robb, J. R. Cheeseman, G. Scalmani, V. Barone, 
 G. A. Petersson, H. Nakatsuji, X. Li, M. Caricato, A. V. Marenich, 
 J. Bloino, B. G. Janesko, R. Gomperts, B. Mennucci, H. P. Hratchian, 
 J. V. Ortiz, A. F. Izmaylov, J. L. Sonnenberg, D. Williams-Young, 
 F. Ding, F. Lipparini, F. Egidi, J. Goings, B. Peng, A. Petrone, 
 T. Henderson, D. Ranasinghe, V. G. Zakrzewski, J. Gao, N. Rega, 
 G. Zheng, W. Liang, M. Hada, M. Ehara, K. Toyota, R. Fukuda, 
 J. Hasegawa, M. Ishida, T. Nakajima, Y. Honda, O. Kitao, H. Nakai, 
 T. Vreven, K. Throssell, J. A. Montgomery, Jr., J. E. Peralta, 
 F. Ogliaro, M. J. Bearpark, J. J. Heyd, E. N. Brothers, K. N. Kudin, 
 V. N. Staroverov, T. A. Keith, R. Kobayashi, J. Normand, 
 K. Raghavachari, A. P. Rendell, J. C. Burant, S. S. Iyengar, 
 J. Tomasi, M. Cossi, J. M. Millam, M. Klene, C. Adamo, R. Cammi, 
 J. W. Ochterski, R. L. Martin, K. Morokuma, O. Farkas, 
 J. B. Foresman, and D. J. Fox, Gaussian, Inc., Wallingford CT, 2016.
 
 ******************************************
 Gaussian 16:  ES64L-G16RevA.03 25-Dec-2016
                 5-Nov-2018 
 ******************************************
 %mem=6000mb
 %nproc=24
 Will use up to   24 processors via shared memory.
 %chk=D_1a_4a_L_PHI.inp_extract_0.chk
 ----------------------------------------------------------------------
 #M062X/6-311++G(2d,2p) opt=ModRedundant freq=noraman SCRF=(Solvent=Wat
 er)
 ----------------------------------------------------------------------
 1/18=120,19=15,26=3,38=1/1,3;
 2/9=110,12=2,17=6,18=5,40=1/2;
 3/5=4,6=6,7=1212,11=2,25=1,30=1,70=2201,71=1,72=1,74=-55/1,2,3;
 4//1;
 5/5=2,38=5,53=1/2;
 6/7=2,8=2,9=2,10=2,28=1/1;
 7//1,2,3,16;
 1/18=20,19=15,26=3/3(2);
 2/9=110/2;
 99//99;
 2/9=110/2;
 3/5=4,6=6,7=1212,11=2,25=1,30=1,70=2205,71=1,72=1,74=-55/1,2,3;
 4/5=5,16=3,69=1/1;
 5/5=2,38=5,53=1/2;
 7//1,2,3,16;
 1/18=20,19=15,26=3/3(-5);
 2/9=110/2;
 6/7=2,8=2,9=2,10=2,19=2,28=1/1;
 99/9=1/99;
 ---------------------------
 D_1a_4a_L_PHI.inp_extract_0
 ---------------------------
 Symbolic Z-matrix:
 Charge =  0 Multiplicity = 1
 C                     3.33425  -0.35119  -0.71245 
 C                     1.15361   0.23084   1.15679 
 C                    -1.76026   1.26209  -0.74878 
 C                     2.71101   1.04085  -0.75181 
 C                    -3.54741  -0.32946  -0.01945 
 O                    -2.54316  -1.27401   0.30351 
 C                     2.28362  -1.3759   -0.32896 
 C                    -0.73816   0.1632   -0.46215 
 C                    -3.01879   1.09076   0.10451 
 C                    -1.41174  -1.2008   -0.53852 
 O                     1.64279  -1.05917   0.90285 
 O                    -0.20832   0.37566   0.83912 
 C                     2.05506   1.33862   0.59753 
 H                     4.14421  -0.37349   0.01294 
 H                     3.75155  -0.62398  -1.67739 
 H                    -2.029     1.2016   -1.8008 
 H                     3.46776   1.79307  -0.9521 
 H                     1.99007   1.0983   -1.56147 
 H                     1.5433   -1.47227  -1.11443 
 H                     2.72466  -2.35001  -0.16941 
 H                    -2.80144   1.30196   1.14724 
 H                    -3.78835   1.78864  -0.21277 
 H                    -1.71075  -1.39254  -1.56668 
 H                    -0.74153  -1.98555  -0.22171 
 H                     2.8469    1.47907   1.32864 
 H                     1.48419   2.25998   0.57008 
 H                     1.14737   0.31105   2.23172 
 H                    -3.89844  -0.51958  -1.0317 
 H                    -4.366    -0.50917   0.66413 
 H                    -1.30592   2.2337   -0.58596 
 H                     0.04378   0.2054   -1.20438 
 
 The following ModRedundant input section has been read:
 D      11       2      12       8 F                                           
 

 GradGradGradGradGradGradGradGradGradGradGradGradGradGradGradGradGradGrad
 Berny optimization.
 Initialization pass.
                           ----------------------------
                           !    Initial Parameters    !
                           ! (Angstroms and Degrees)  !
 --------------------------                            --------------------------
 ! Name  Definition              Value          Derivative Info.                !
 --------------------------------------------------------------------------------
 ! R1    R(1,4)                  1.5257         estimate D2E/DX2                !
 ! R2    R(1,7)                  1.5169         estimate D2E/DX2                !
 ! R3    R(1,14)                 1.0875         estimate D2E/DX2                !
 ! R4    R(1,15)                 1.0861         estimate D2E/DX2                !
 ! R5    R(2,11)                 1.4028         estimate D2E/DX2                !
 ! R6    R(2,12)                 1.406          estimate D2E/DX2                !
 ! R7    R(2,13)                 1.5338         estimate D2E/DX2                !
 ! R8    R(2,27)                 1.0779         estimate D2E/DX2                !
 ! R9    R(3,8)                  1.5279         estimate D2E/DX2                !
 ! R10   R(3,9)                  1.5301         estimate D2E/DX2                !
 ! R11   R(3,16)                 1.0875         estimate D2E/DX2                !
 ! R12   R(3,30)                 1.0849         estimate D2E/DX2                !
 ! R13   R(4,13)                 1.5296         estimate D2E/DX2                !
 ! R14   R(4,17)                 1.0856         estimate D2E/DX2                !
 ! R15   R(4,18)                 1.0856         estimate D2E/DX2                !
 ! R16   R(5,6)                  1.416          estimate D2E/DX2                !
 ! R17   R(5,9)                  1.5205         estimate D2E/DX2                !
 ! R18   R(5,28)                 1.0881         estimate D2E/DX2                !
 ! R19   R(5,29)                 1.0815         estimate D2E/DX2                !
 ! R20   R(6,10)                 1.4123         estimate D2E/DX2                !
 ! R21   R(7,11)                 1.4242         estimate D2E/DX2                !
 ! R22   R(7,19)                 1.0837         estimate D2E/DX2                !
 ! R23   R(7,20)                 1.0811         estimate D2E/DX2                !
 ! R24   R(8,10)                 1.5232         estimate D2E/DX2                !
 ! R25   R(8,12)                 1.421          estimate D2E/DX2                !
 ! R26   R(8,31)                 1.0789         estimate D2E/DX2                !
 ! R27   R(9,21)                 1.0859         estimate D2E/DX2                !
 ! R28   R(9,22)                 1.0862         estimate D2E/DX2                !
 ! R29   R(10,23)                1.0878         estimate D2E/DX2                !
 ! R30   R(10,24)                1.0795         estimate D2E/DX2                !
 ! R31   R(13,25)                1.0869         estimate D2E/DX2                !
 ! R32   R(13,26)                1.0842         estimate D2E/DX2                !
 ! A1    A(4,1,7)              109.8738         estimate D2E/DX2                !
 ! A2    A(4,1,14)             109.8859         estimate D2E/DX2                !
 ! A3    A(4,1,15)             111.2957         estimate D2E/DX2                !
 ! A4    A(7,1,14)             109.4737         estimate D2E/DX2                !
 ! A5    A(7,1,15)             108.7264         estimate D2E/DX2                !
 ! A6    A(14,1,15)            107.535          estimate D2E/DX2                !
 ! A7    A(11,2,12)            113.0544         estimate D2E/DX2                !
 ! A8    A(11,2,13)            113.1547         estimate D2E/DX2                !
 ! A9    A(11,2,27)            104.5343         estimate D2E/DX2                !
 ! A10   A(12,2,13)            114.3644         estimate D2E/DX2                !
 ! A11   A(12,2,27)            102.2417         estimate D2E/DX2                !
 ! A12   A(13,2,27)            108.2564         estimate D2E/DX2                !
 ! A13   A(8,3,9)              111.4117         estimate D2E/DX2                !
 ! A14   A(8,3,16)             107.8657         estimate D2E/DX2                !
 ! A15   A(8,3,30)             109.6222         estimate D2E/DX2                !
 ! A16   A(9,3,16)             109.2682         estimate D2E/DX2                !
 ! A17   A(9,3,30)             111.1639         estimate D2E/DX2                !
 ! A18   A(16,3,30)            107.3677         estimate D2E/DX2                !
 ! A19   A(1,4,13)             109.2711         estimate D2E/DX2                !
 ! A20   A(1,4,17)             110.6223         estimate D2E/DX2                !
 ! A21   A(1,4,18)             109.8035         estimate D2E/DX2                !
 ! A22   A(13,4,17)            109.0737         estimate D2E/DX2                !
 ! A23   A(13,4,18)            111.2734         estimate D2E/DX2                !
 ! A24   A(17,4,18)            106.7762         estimate D2E/DX2                !
 ! A25   A(6,5,9)              110.9722         estimate D2E/DX2                !
 ! A26   A(6,5,28)             108.9307         estimate D2E/DX2                !
 ! A27   A(6,5,29)             106.3679         estimate D2E/DX2                !
 ! A28   A(9,5,28)             110.5612         estimate D2E/DX2                !
 ! A29   A(9,5,29)             111.5199         estimate D2E/DX2                !
 ! A30   A(28,5,29)            108.3471         estimate D2E/DX2                !
 ! A31   A(5,6,10)             113.4291         estimate D2E/DX2                !
 ! A32   A(1,7,11)             112.3386         estimate D2E/DX2                !
 ! A33   A(1,7,19)             110.4879         estimate D2E/DX2                !
 ! A34   A(1,7,20)             111.3103         estimate D2E/DX2                !
 ! A35   A(11,7,19)            109.834          estimate D2E/DX2                !
 ! A36   A(11,7,20)            104.8499         estimate D2E/DX2                !
 ! A37   A(19,7,20)            107.7907         estimate D2E/DX2                !
 ! A38   A(3,8,10)             109.8057         estimate D2E/DX2                !
 ! A39   A(3,8,12)             108.2824         estimate D2E/DX2                !
 ! A40   A(3,8,31)             109.1251         estimate D2E/DX2                !
 ! A41   A(10,8,12)            110.1631         estimate D2E/DX2                !
 ! A42   A(10,8,31)            108.7251         estimate D2E/DX2                !
 ! A43   A(12,8,31)            110.7259         estimate D2E/DX2                !
 ! A44   A(3,9,5)              110.1863         estimate D2E/DX2                !
 ! A45   A(3,9,21)             110.4317         estimate D2E/DX2                !
 ! A46   A(3,9,22)             110.3573         estimate D2E/DX2                !
 ! A47   A(5,9,21)             109.2416         estimate D2E/DX2                !
 ! A48   A(5,9,22)             109.2678         estimate D2E/DX2                !
 ! A49   A(21,9,22)            107.2976         estimate D2E/DX2                !
 ! A50   A(6,10,8)             111.7659         estimate D2E/DX2                !
 ! A51   A(6,10,23)            109.5235         estimate D2E/DX2                !
 ! A52   A(6,10,24)            106.5423         estimate D2E/DX2                !
 ! A53   A(8,10,23)            109.0743         estimate D2E/DX2                !
 ! A54   A(8,10,24)            111.2052         estimate D2E/DX2                !
 ! A55   A(23,10,24)           108.6565         estimate D2E/DX2                !
 ! A56   A(2,11,7)             121.1968         estimate D2E/DX2                !
 ! A57   A(2,12,8)             123.5524         estimate D2E/DX2                !
 ! A58   A(2,13,4)             115.664          estimate D2E/DX2                !
 ! A59   A(2,13,25)            106.0363         estimate D2E/DX2                !
 ! A60   A(2,13,26)            108.2723         estimate D2E/DX2                !
 ! A61   A(4,13,25)            107.8263         estimate D2E/DX2                !
 ! A62   A(4,13,26)            111.6475         estimate D2E/DX2                !
 ! A63   A(25,13,26)           106.9065         estimate D2E/DX2                !
 ! D1    D(7,1,4,13)            55.6638         estimate D2E/DX2                !
 ! D2    D(7,1,4,17)           175.7601         estimate D2E/DX2                !
 ! D3    D(7,1,4,18)           -66.6403         estimate D2E/DX2                !
 ! D4    D(14,1,4,13)          -64.848          estimate D2E/DX2                !
 ! D5    D(14,1,4,17)           55.2483         estimate D2E/DX2                !
 ! D6    D(14,1,4,18)          172.8479         estimate D2E/DX2                !
 ! D7    D(15,1,4,13)          176.1481         estimate D2E/DX2                !
 ! D8    D(15,1,4,17)          -63.7556         estimate D2E/DX2                !
 ! D9    D(15,1,4,18)           53.844          estimate D2E/DX2                !
 ! D10   D(4,1,7,11)           -55.4274         estimate D2E/DX2                !
 ! D11   D(4,1,7,19)            67.6062         estimate D2E/DX2                !
 ! D12   D(4,1,7,20)          -172.6669         estimate D2E/DX2                !
 ! D13   D(14,1,7,11)           65.3333         estimate D2E/DX2                !
 ! D14   D(14,1,7,19)         -171.6331         estimate D2E/DX2                !
 ! D15   D(14,1,7,20)          -51.9062         estimate D2E/DX2                !
 ! D16   D(15,1,7,11)         -177.4536         estimate D2E/DX2                !
 ! D17   D(15,1,7,19)          -54.42           estimate D2E/DX2                !
 ! D18   D(15,1,7,20)           65.3069         estimate D2E/DX2                !
 ! D19   D(12,2,11,7)           94.4093         estimate D2E/DX2                !
 ! D20   D(13,2,11,7)          -37.6299         estimate D2E/DX2                !
 ! D21   D(27,2,11,7)         -155.2014         estimate D2E/DX2                !
 ! D22   D(11,2,12,8)          -59.4578         Frozen                          !
 ! D23   D(13,2,12,8)           71.9845         estimate D2E/DX2                !
 ! D24   D(27,2,12,8)         -171.2617         estimate D2E/DX2                !
 ! D25   D(11,2,13,4)           37.3794         estimate D2E/DX2                !
 ! D26   D(11,2,13,25)         -82.0597         estimate D2E/DX2                !
 ! D27   D(11,2,13,26)         163.5118         estimate D2E/DX2                !
 ! D28   D(12,2,13,4)          -94.0144         estimate D2E/DX2                !
 ! D29   D(12,2,13,25)         146.5465         estimate D2E/DX2                !
 ! D30   D(12,2,13,26)          32.118          estimate D2E/DX2                !
 ! D31   D(27,2,13,4)          152.7512         estimate D2E/DX2                !
 ! D32   D(27,2,13,25)          33.3121         estimate D2E/DX2                !
 ! D33   D(27,2,13,26)         -81.1164         estimate D2E/DX2                !
 ! D34   D(9,3,8,10)            50.2806         estimate D2E/DX2                !
 ! D35   D(9,3,8,12)           -70.0389         estimate D2E/DX2                !
 ! D36   D(9,3,8,31)           169.3605         estimate D2E/DX2                !
 ! D37   D(16,3,8,10)          -69.6406         estimate D2E/DX2                !
 ! D38   D(16,3,8,12)          170.0399         estimate D2E/DX2                !
 ! D39   D(16,3,8,31)           49.4393         estimate D2E/DX2                !
 ! D40   D(30,3,8,10)          173.7517         estimate D2E/DX2                !
 ! D41   D(30,3,8,12)           53.4322         estimate D2E/DX2                !
 ! D42   D(30,3,8,31)          -67.1684         estimate D2E/DX2                !
 ! D43   D(8,3,9,5)            -50.9991         estimate D2E/DX2                !
 ! D44   D(8,3,9,21)            69.7749         estimate D2E/DX2                !
 ! D45   D(8,3,9,22)          -171.7576         estimate D2E/DX2                !
 ! D46   D(16,3,9,5)            68.0896         estimate D2E/DX2                !
 ! D47   D(16,3,9,21)         -171.1364         estimate D2E/DX2                !
 ! D48   D(16,3,9,22)          -52.6689         estimate D2E/DX2                !
 ! D49   D(30,3,9,5)          -173.5886         estimate D2E/DX2                !
 ! D50   D(30,3,9,21)          -52.8146         estimate D2E/DX2                !
 ! D51   D(30,3,9,22)           65.6529         estimate D2E/DX2                !
 ! D52   D(1,4,13,2)           -47.8266         estimate D2E/DX2                !
 ! D53   D(1,4,13,25)           70.6272         estimate D2E/DX2                !
 ! D54   D(1,4,13,26)         -172.2252         estimate D2E/DX2                !
 ! D55   D(17,4,13,2)         -168.8693         estimate D2E/DX2                !
 ! D56   D(17,4,13,25)         -50.4155         estimate D2E/DX2                !
 ! D57   D(17,4,13,26)          66.7321         estimate D2E/DX2                !
 ! D58   D(18,4,13,2)           73.5913         estimate D2E/DX2                !
 ! D59   D(18,4,13,25)        -167.9548         estimate D2E/DX2                !
 ! D60   D(18,4,13,26)         -50.8072         estimate D2E/DX2                !
 ! D61   D(9,5,6,10)           -60.5951         estimate D2E/DX2                !
 ! D62   D(28,5,6,10)           61.3494         estimate D2E/DX2                !
 ! D63   D(29,5,6,10)          177.9368         estimate D2E/DX2                !
 ! D64   D(6,5,9,3)             54.8189         estimate D2E/DX2                !
 ! D65   D(6,5,9,21)           -66.666          estimate D2E/DX2                !
 ! D66   D(6,5,9,22)           176.2284         estimate D2E/DX2                !
 ! D67   D(28,5,9,3)           -66.1692         estimate D2E/DX2                !
 ! D68   D(28,5,9,21)          172.3459         estimate D2E/DX2                !
 ! D69   D(28,5,9,22)           55.2403         estimate D2E/DX2                !
 ! D70   D(29,5,9,3)           173.2143         estimate D2E/DX2                !
 ! D71   D(29,5,9,21)           51.7294         estimate D2E/DX2                !
 ! D72   D(29,5,9,22)          -65.3761         estimate D2E/DX2                !
 ! D73   D(5,6,10,8)            60.4909         estimate D2E/DX2                !
 ! D74   D(5,6,10,23)          -60.5015         estimate D2E/DX2                !
 ! D75   D(5,6,10,24)         -177.8485         estimate D2E/DX2                !
 ! D76   D(1,7,11,2)            47.8649         estimate D2E/DX2                !
 ! D77   D(19,7,11,2)          -75.5353         estimate D2E/DX2                !
 ! D78   D(20,7,11,2)          168.8913         estimate D2E/DX2                !
 ! D79   D(3,8,10,6)           -54.0931         estimate D2E/DX2                !
 ! D80   D(3,8,10,23)           67.1598         estimate D2E/DX2                !
 ! D81   D(3,8,10,24)         -173.0242         estimate D2E/DX2                !
 ! D82   D(12,8,10,6)           65.0788         estimate D2E/DX2                !
 ! D83   D(12,8,10,23)        -173.6682         estimate D2E/DX2                !
 ! D84   D(12,8,10,24)         -53.8523         estimate D2E/DX2                !
 ! D85   D(31,8,10,6)         -173.4183         estimate D2E/DX2                !
 ! D86   D(31,8,10,23)         -52.1654         estimate D2E/DX2                !
 ! D87   D(31,8,10,24)          67.6505         estimate D2E/DX2                !
 ! D88   D(3,8,12,2)          -138.3301         estimate D2E/DX2                !
 ! D89   D(10,8,12,2)          101.5736         estimate D2E/DX2                !
 ! D90   D(31,8,12,2)          -18.7306         estimate D2E/DX2                !
 --------------------------------------------------------------------------------
 Trust Radius=3.00D-01 FncErr=1.00D-07 GrdErr=1.00D-06 EigMax=2.50D+02 EigMin=1.00D-04
 Number of steps in this run=    186 maximum allowed number of steps=    186.
 GradGradGradGradGradGradGradGradGradGradGradGradGradGradGradGradGradGrad

                          Input orientation:                          
 ---------------------------------------------------------------------
 Center     Atomic      Atomic             Coordinates (Angstroms)
 Number     Number       Type             X           Y           Z
 ---------------------------------------------------------------------
      1          6           0        3.334249   -0.351192   -0.712447
      2          6           0        1.153612    0.230841    1.156787
      3          6           0       -1.760263    1.262094   -0.748783
      4          6           0        2.711013    1.040847   -0.751812
      5          6           0       -3.547405   -0.329459   -0.019452
      6          8           0       -2.543156   -1.274013    0.303513
      7          6           0        2.283618   -1.375903   -0.328964
      8          6           0       -0.738161    0.163202   -0.462152
      9          6           0       -3.018789    1.090760    0.104513
     10          6           0       -1.411742   -1.200798   -0.538516
     11          8           0        1.642788   -1.059174    0.902847
     12          8           0       -0.208319    0.375657    0.839123
     13          6           0        2.055058    1.338618    0.597526
     14          1           0        4.144207   -0.373486    0.012939
     15          1           0        3.751547   -0.623982   -1.677386
     16          1           0       -2.028998    1.201600   -1.800801
     17          1           0        3.467759    1.793073   -0.952100
     18          1           0        1.990074    1.098298   -1.561468
     19          1           0        1.543302   -1.472270   -1.114427
     20          1           0        2.724662   -2.350008   -0.169408
     21          1           0       -2.801441    1.301958    1.147241
     22          1           0       -3.788349    1.788635   -0.212772
     23          1           0       -1.710751   -1.392544   -1.566684
     24          1           0       -0.741526   -1.985546   -0.221714
     25          1           0        2.846902    1.479073    1.328642
     26          1           0        1.484186    2.259984    0.570081
     27          1           0        1.147369    0.311048    2.231716
     28          1           0       -3.898437   -0.519582   -1.031702
     29          1           0       -4.366001   -0.509168    0.664128
     30          1           0       -1.305924    2.233696   -0.585958
     31          1           0        0.043775    0.205403   -1.204384
 ---------------------------------------------------------------------
                    Distance matrix (angstroms):
                    1          2          3          4          5
     1  C    0.000000
     2  C    2.930525   0.000000
     3  C    5.343975   3.631163   0.000000
     4  C    1.525695   2.593137   4.476748   0.000000
     5  C    6.916493   4.878220   2.501768   6.448402   0.000000
     6  O    6.035533   4.081514   2.855186   5.837686   1.415982
     7  C    1.516877   2.462924   4.846468   2.490411   5.932257
     8  C    4.112392   2.490852   1.527879   3.570849   2.886269
     9  C    6.565649   4.388128   1.530149   5.793653   1.520468
    10  C    4.824574   3.391855   2.496300   4.697614   2.364258
    11  O    2.443656   1.402825   4.438122   2.879078   5.321769
    12  O    3.935158   1.405965   2.390763   3.390583   3.519067
    13  C    2.491549   1.533802   4.046613   1.529594   5.877987
    14  H    1.087526   3.258413   6.173986   2.153886   7.691806
    15  H    1.086121   3.938594   5.899122   2.170496   7.490673
    16  H    5.688593   4.451821   1.087483   4.857358   2.796946
    17  H    2.161743   3.499036   5.258849   1.085644   7.388335
    18  H    2.151433   2.973392   3.840874   1.085632   5.922835
    19  H    2.150789   2.865460   4.303950   2.794780   5.331068
    20  H    2.159109   3.299663   5.787703   3.440535   6.591201
    21  H    6.621030   4.097539   2.163457   5.836243   2.139896
    22  H    7.453854   5.359607   2.162796   6.564408   2.140502
    23  H    5.221701   4.272850   2.778222   5.112475   2.626285
    24  H    4.418583   3.225552   3.444240   4.621697   3.264428
    25  H    2.784497   2.110651   5.058532   2.130445   6.780509
    26  H    3.447586   2.137972   3.641653   2.176879   5.689435
    27  H    3.726809   1.077935   4.271087   3.446597   5.245847
    28  H    7.241687   5.556601   2.797535   6.796919   1.088127
    29  H    7.823923   5.590747   3.453050   7.381840   1.081516
    30  H    5.313083   3.619103   1.084872   4.193588   3.451801
    31  H    3.373280   2.609121   2.139795   2.831421   3.819256
                    6          7          8          9         10
     6  O    0.000000
     7  C    4.869102   0.000000
     8  C    2.431016   3.393778   0.000000
     9  C    2.420326   5.864115   2.526408   0.000000
    10  C    1.412257   3.705436   1.523167   2.871816   0.000000
    11  O    4.234086   1.424198   3.004387   5.195176   3.380494
    12  O    2.908565   3.262229   1.420981   2.991616   2.414814
    13  C    5.296778   2.877368   3.210388   5.103765   4.444989
    14  H    6.753977   2.140918   4.934700   7.311697   5.644211
    15  H    6.630972   2.130362   4.717407   7.207840   5.318768
    16  H    3.289552   5.235311   2.129909   2.149929   2.783143
    17  H    6.864013   3.439898   4.537212   6.609461   5.739673
    18  H    5.445750   2.779731   3.086449   5.278661   4.231386
    19  H    4.330011   1.083654   2.881893   5.372859   3.022856
    20  H    5.397344   1.081138   4.288714   6.700832   4.308917
    21  H    2.722906   5.933628   2.853776   1.085876   3.322172
    22  H    3.346172   6.848108   3.465237   1.086242   3.832894
    23  H    2.050508   4.181771   2.141557   3.266598   1.087797
    24  H    2.006991   3.087825   2.162161   3.841355   1.079529
    25  H    6.138656   3.349005   4.217954   6.004632   5.366939
    26  H    5.364669   3.829758   3.225031   4.675534   4.646762
    27  H    4.455374   3.270160   3.291505   4.742343   4.063116
    28  H    2.046644   6.280520   3.282975   2.158232   2.625060
    29  H    2.009427   6.779004   3.857695   2.165160   3.263794
    30  H    3.824385   5.097064   2.150495   2.171856   3.436451
    31  H    3.339856   2.878157   1.078941   3.446210   2.130566
                   11         12         13         14         15
    11  O    0.000000
    12  O    2.342946   0.000000
    13  C    2.452059   2.471546   0.000000
    14  H    2.742116   4.493137   2.763618   0.000000
    15  H    3.360634   4.797149   3.450377   1.753319   0.000000
    16  H    5.089482   3.311533   4.738171   6.624123   6.063224
    17  H    3.860914   4.327944   2.145599   2.466345   2.539435
    18  H    3.293652   3.334363   2.173300   3.047162   2.466267
    19  H    2.061538   3.209263   3.330731   3.040228   2.431638
    20  H    1.996606   4.129015   3.826554   2.440286   2.511505
    21  H    5.038437   2.770785   4.887649   7.234347   7.391171
    22  H    6.233127   3.989938   5.916460   8.225032   8.050829
    23  H    4.178031   3.342416   5.130728   6.149327   5.517213
    24  H    2.794236   2.642908   4.420645   5.150164   4.915337
    25  H    2.841459   3.285047   1.086865   2.616496   3.778548
    26  H    3.339565   2.547086   1.084234   3.784347   4.302243
    27  H    1.972014   1.944577   2.133161   3.791121   4.789270
    28  H    5.893964   4.233014   6.446037   8.111519   7.677894
    29  H    6.038629   4.254393   6.681972   8.536164   8.449287
    30  H    4.664165   2.586098   3.673962   6.071244   5.910630
    31  H    2.931965   2.066025   2.928535   4.316310   3.828731
                   16         17         18         19         20
    16  H    0.000000
    17  H    5.593252   0.000000
    18  H    4.027517   1.742870   0.000000
    19  H    4.514645   3.793725   2.647125   0.000000
    20  H    6.154076   4.281346   3.790549   1.749027   0.000000
    21  H    3.049212   6.629577   5.507921   5.629234   6.753387
    22  H    2.441672   7.293677   5.973752   6.314506   7.716836
    23  H    2.624057   6.110878   4.460989   3.286298   4.747842
    24  H    3.782724   5.703464   4.332052   2.506158   3.485689
    25  H    5.800414   2.384501   3.038401   4.047022   4.113509
    26  H    4.368492   2.543541   2.479705   4.095215   4.830906
    27  H    5.209950   4.209191   3.964613   3.812304   3.915925
    28  H    2.654954   7.721111   6.129661   5.525123   6.925276
    29  H    3.803181   8.323479   6.923649   6.245853   7.372990
    30  H    1.750400   4.807937   3.619993   4.704418   6.117964
    31  H    2.375818   3.782593   2.170910   2.251946   3.845576
                   21         22         23         24         25
    21  H    0.000000
    22  H    1.749422   0.000000
    23  H    3.976850   4.033533   0.000000
    24  H    4.113997   4.850531   1.760680   0.000000
    25  H    5.654030   6.818969   6.115660   5.223409   0.000000
    26  H    4.429168   5.351136   5.302296   4.858524   1.744199
    27  H    4.213204   5.702639   5.049645   3.855073   2.251275
    28  H    3.044536   2.451659   2.415417   3.573684   7.420609
    29  H    2.441603   2.526368   3.578719   4.012633   7.511368
    30  H    2.471576   2.549467   3.778270   4.272379   4.634772
    31  H    3.850692   4.263226   2.400637   2.526380   3.986976
                   26         27         28         29         30
    26  H    0.000000
    27  H    2.583182   0.000000
    28  H    6.266125   6.066300   0.000000
    29  H    6.473155   5.790279   1.759137   0.000000
    30  H    3.020237   4.201727   3.807933   4.295357   0.000000
    31  H    3.073241   3.610521   4.012039   4.842321   2.513585
                   31
    31  H    0.000000
 Stoichiometry    C10H18O3
 Framework group  C1[X(C10H18O3)]
 Deg. of freedom    87
 Full point group                 C1      NOp   1
 Largest Abelian subgroup         C1      NOp   1
 Largest concise Abelian subgroup C1      NOp   1
                         Standard orientation:                         
 ---------------------------------------------------------------------
 Center     Atomic      Atomic             Coordinates (Angstroms)
 Number     Number       Type             X           Y           Z
 ---------------------------------------------------------------------
      1          6           0        3.334249   -0.351192   -0.712447
      2          6           0        1.153612    0.230841    1.156787
      3          6           0       -1.760263    1.262094   -0.748783
      4          6           0        2.711013    1.040847   -0.751812
      5          6           0       -3.547405   -0.329459   -0.019452
      6          8           0       -2.543156   -1.274013    0.303513
      7          6           0        2.283618   -1.375903   -0.328964
      8          6           0       -0.738161    0.163202   -0.462152
      9          6           0       -3.018789    1.090760    0.104513
     10          6           0       -1.411742   -1.200798   -0.538516
     11          8           0        1.642788   -1.059174    0.902847
     12          8           0       -0.208319    0.375657    0.839123
     13          6           0        2.055058    1.338618    0.597526
     14          1           0        4.144207   -0.373486    0.012939
     15          1           0        3.751547   -0.623982   -1.677386
     16          1           0       -2.028998    1.201600   -1.800801
     17          1           0        3.467759    1.793073   -0.952100
     18          1           0        1.990074    1.098298   -1.561468
     19          1           0        1.543302   -1.472270   -1.114427
     20          1           0        2.724662   -2.350008   -0.169408
     21          1           0       -2.801441    1.301958    1.147241
     22          1           0       -3.788349    1.788635   -0.212772
     23          1           0       -1.710751   -1.392544   -1.566684
     24          1           0       -0.741526   -1.985546   -0.221714
     25          1           0        2.846902    1.479073    1.328642
     26          1           0        1.484186    2.259984    0.570081
     27          1           0        1.147369    0.311048    2.231716
     28          1           0       -3.898437   -0.519582   -1.031702
     29          1           0       -4.366001   -0.509168    0.664128
     30          1           0       -1.305924    2.233696   -0.585958
     31          1           0        0.043775    0.205403   -1.204384
 ---------------------------------------------------------------------
 Rotational constants (GHZ):           1.7195627           0.4769675           0.4365940
 Standard basis: 6-311++G(2d,2p) (5D, 7F)
 There are   557 symmetry adapted cartesian basis functions of A   symmetry.
 There are   531 symmetry adapted basis functions of A   symmetry.
   531 basis functions,   762 primitive gaussians,   557 cartesian basis functions
    51 alpha electrons       51 beta electrons
       nuclear repulsion energy       908.5871492505 Hartrees.
 NAtoms=   31 NActive=   31 NUniq=   31 SFac= 1.00D+00 NAtFMM=   60 NAOKFM=F Big=F
 Integral buffers will be    131072 words long.
 Raffenetti 2 integral format.
 Two-electron integral symmetry is turned on.
 ------------------------------------------------------------------------------
 Polarizable Continuum Model (PCM)
 =================================
 Model                : PCM.
 Atomic radii         : UFF (Universal Force Field).
 Polarization charges : Total charges.
 Charge compensation  : None.
 Solution method      : On-the-fly selection.
 Cavity type          : Scaled VdW (van der Waals Surface) (Alpha=1.100).
 Cavity algorithm     : GePol (No added spheres)
                        Default sphere list used, NSphG=   31.
                        Lebedev-Laikov grids with approx.  5.0 points / Ang**2.
                        Smoothing algorithm: York/Karplus (Gamma=1.0000).
                        Polarization charges: spherical gaussians, with
                                              point-specific exponents (IZeta= 3).
                        Self-potential: point-specific (ISelfS= 7).
                        Self-field    : sphere-specific E.n sum rule (ISelfD= 2).
 1st derivatives      : Analytical E(r).r(x)/FMM algorithm (CHGder, D1EAlg=3).
                        Cavity 1st derivative terms included.
 Solvent              : Water, Eps=  78.355300 Eps(inf)=   1.777849
 ------------------------------------------------------------------------------
 One-electron integrals computed using PRISM.
 NBasis=   531 RedAO= T EigKep=  5.36D-06  NBF=   531
 NBsUse=   531 1.00D-06 EigRej= -1.00D+00 NBFU=   531
 ExpMin= 3.60D-02 ExpMax= 8.59D+03 ExpMxC= 1.30D+03 IAcc=3 IRadAn=         5 AccDes= 0.00D+00
 Harris functional with IExCor= 1009 and IRadAn=       5 diagonalized for initial guess.
 HarFok:  IExCor= 1009 AccDes= 0.00D+00 IRadAn=         5 IDoV= 1 UseB2=F ITyADJ=14
 ICtDFT=  3500011 ScaDFX=  1.000000  1.000000  1.000000  1.000000
 FoFCou: FMM=F IPFlag=           0 FMFlag=      100000 FMFlg1=           0
         NFxFlg=           0 DoJE=T BraDBF=F KetDBF=T FulRan=T
         wScrn=  0.000000 ICntrl=       500 IOpCl=  0 I1Cent=   200000004 NGrid=           0
         NMat0=    1 NMatS0=      1 NMatT0=    0 NMatD0=    1 NMtDS0=    0 NMtDT0=    0
 Petite list used in FoFCou.
 Requested convergence on RMS density matrix=1.00D-08 within 128 cycles.
 Requested convergence on MAX density matrix=1.00D-06.
 Requested convergence on             energy=1.00D-06.
 No special actions if energy rises.
 Inv3:  Mode=1 IEnd=    12558348.
 Iteration    1 A*A^-1 deviation from unit magnitude is 3.77D-15 for   2042.
 Iteration    1 A*A^-1 deviation from orthogonality  is 2.52D-15 for   2033    853.
 Iteration    1 A^-1*A deviation from unit magnitude is 3.77D-15 for   2042.
 Iteration    1 A^-1*A deviation from orthogonality  is 1.07D-14 for   1741   1721.
 Error on total polarization charges =  0.01466
 SCF Done:  E(RM062X) =  -617.489513453     A.U. after   12 cycles
            NFock= 12  Conv=0.67D-08     -V/T= 2.0035

 **********************************************************************

            Population analysis using the SCF density.

 **********************************************************************

 Orbital symmetries:
       Occupied  (A) (A) (A) (A) (A) (A) (A) (A) (A) (A) (A) (A)
                 (A) (A) (A) (A) (A) (A) (A) (A) (A) (A) (A) (A)
                 (A) (A) (A) (A) (A) (A) (A) (A) (A) (A) (A) (A)
                 (A) (A) (A) (A) (A) (A) (A) (A) (A) (A) (A) (A)
                 (A) (A) (A)
       Virtual   (A) (A) (A) (A) (A) (A) (A) (A) (A) (A) (A) (A)
                 (A) (A) (A) (A) (A) (A) (A) (A) (A) (A) (A) (A)
                 (A) (A) (A) (A) (A) (A) (A) (A) (A) (A) (A) (A)
                 (A) (A) (A) (A) (A) (A) (A) (A) (A) (A) (A) (A)
                 (A) (A) (A) (A) (A) (A) (A) (A) (A) (A) (A) (A)
                 (A) (A) (A) (A) (A) (A) (A) (A) (A) (A) (A) (A)
                 (A) (A) (A) (A) (A) (A) (A) (A) (A) (A) (A) (A)
                 (A) (A) (A) (A) (A) (A) (A) (A) (A) (A) (A) (A)
                 (A) (A) (A) (A) (A) (A) (A) (A) (A) (A) (A) (A)
                 (A) (A) (A) (A) (A) (A) (A) (A) (A) (A) (A) (A)
                 (A) (A) (A) (A) (A) (A) (A) (A) (A) (A) (A) (A)
                 (A) (A) (A) (A) (A) (A) (A) (A) (A) (A) (A) (A)
                 (A) (A) (A) (A) (A) (A) (A) (A) (A) (A) (A) (A)
                 (A) (A) (A) (A) (A) (A) (A) (A) (A) (A) (A) (A)
                 (A) (A) (A) (A) (A) (A) (A) (A) (A) (A) (A) (A)
                 (A) (A) (A) (A) (A) (A) (A) (A) (A) (A) (A) (A)
                 (A) (A) (A) (A) (A) (A) (A) (A) (A) (A) (A) (A)
                 (A) (A) (A) (A) (A) (A) (A) (A) (A) (A) (A) (A)
                 (A) (A) (A) (A) (A) (A) (A) (A) (A) (A) (A) (A)
                 (A) (A) (A) (A) (A) (A) (A) (A) (A) (A) (A) (A)
                 (A) (A) (A) (A) (A) (A) (A) (A) (A) (A) (A) (A)
                 (A) (A) (A) (A) (A) (A) (A) (A) (A) (A) (A) (A)
                 (A) (A) (A) (A) (A) (A) (A) (A) (A) (A) (A) (A)
                 (A) (A) (A) (A) (A) (A) (A) (A) (A) (A) (A) (A)
                 (A) (A) (A) (A) (A) (A) (A) (A) (A) (A) (A) (A)
                 (A) (A) (A) (A) (A) (A) (A) (A) (A) (A) (A) (A)
                 (A) (A) (A) (A) (A) (A) (A) (A) (A) (A) (A) (A)
                 (A) (A) (A) (A) (A) (A) (A) (A) (A) (A) (A) (A)
                 (A) (A) (A) (A) (A) (A) (A) (A) (A) (A) (A) (A)
                 (A) (A) (A) (A) (A) (A) (A) (A) (A) (A) (A) (A)
                 (A) (A) (A) (A) (A) (A) (A) (A) (A) (A) (A) (A)
                 (A) (A) (A) (A) (A) (A) (A) (A) (A) (A) (A) (A)
                 (A) (A) (A) (A) (A) (A) (A) (A) (A) (A) (A) (A)
                 (A) (A) (A) (A) (A) (A) (A) (A) (A) (A) (A) (A)
                 (A) (A) (A) (A) (A) (A) (A) (A) (A) (A) (A) (A)
                 (A) (A) (A) (A) (A) (A) (A) (A) (A) (A) (A) (A)
                 (A) (A) (A) (A) (A) (A) (A) (A) (A) (A) (A) (A)
                 (A) (A) (A) (A) (A) (A) (A) (A) (A) (A) (A) (A)
                 (A) (A) (A) (A) (A) (A) (A) (A) (A) (A) (A) (A)
                 (A) (A) (A) (A) (A) (A) (A) (A) (A) (A) (A) (A)
 The electronic state is 1-A.
 Alpha  occ. eigenvalues --  -19.62995 -19.62582 -19.62261 -10.63734 -10.58783
 Alpha  occ. eigenvalues --  -10.58122 -10.57688 -10.57665 -10.53272 -10.53135
 Alpha  occ. eigenvalues --  -10.53134 -10.53025 -10.52773  -1.19474  -1.16439
 Alpha  occ. eigenvalues --   -1.13223  -0.90709  -0.90363  -0.87509  -0.84771
 Alpha  occ. eigenvalues --   -0.75160  -0.74200  -0.73909  -0.71413  -0.66303
 Alpha  occ. eigenvalues --   -0.62822  -0.59713  -0.57996  -0.57407  -0.55422
 Alpha  occ. eigenvalues --   -0.54761  -0.53707  -0.52817  -0.50994  -0.50226
 Alpha  occ. eigenvalues --   -0.49259  -0.47058  -0.46376  -0.45512  -0.45146
 Alpha  occ. eigenvalues --   -0.43696  -0.41755  -0.41408  -0.40328  -0.38938
 Alpha  occ. eigenvalues --   -0.38447  -0.38211  -0.36446  -0.34074  -0.33469
 Alpha  occ. eigenvalues --   -0.31286
 Alpha virt. eigenvalues --   -0.00238   0.00704   0.00874   0.01182   0.02262
 Alpha virt. eigenvalues --    0.02548   0.02693   0.03203   0.03623   0.04590
 Alpha virt. eigenvalues --    0.04674   0.04832   0.05515   0.06021   0.07464
 Alpha virt. eigenvalues --    0.07567   0.08080   0.08476   0.08844   0.09263
 Alpha virt. eigenvalues --    0.09795   0.10733   0.10986   0.11400   0.11923
 Alpha virt. eigenvalues --    0.12282   0.12679   0.13014   0.13203   0.13378
 Alpha virt. eigenvalues --    0.13844   0.13972   0.14287   0.14588   0.14919
 Alpha virt. eigenvalues --    0.15114   0.15467   0.15627   0.16039   0.16121
 Alpha virt. eigenvalues --    0.16461   0.16751   0.17011   0.17190   0.17713
 Alpha virt. eigenvalues --    0.17899   0.18407   0.18575   0.19074   0.19600
 Alpha virt. eigenvalues --    0.19672   0.19741   0.20700   0.21128   0.21618
 Alpha virt. eigenvalues --    0.22081   0.22186   0.23334   0.23669   0.23846
 Alpha virt. eigenvalues --    0.24622   0.25293   0.25902   0.26400   0.26968
 Alpha virt. eigenvalues --    0.28256   0.28387   0.28905   0.29360   0.29712
 Alpha virt. eigenvalues --    0.30435   0.30802   0.31023   0.31867   0.32145
 Alpha virt. eigenvalues --    0.32465   0.33671   0.33862   0.34381   0.34708
 Alpha virt. eigenvalues --    0.34918   0.35108   0.35945   0.36363   0.36695
 Alpha virt. eigenvalues --    0.36828   0.37328   0.37672   0.37829   0.38396
 Alpha virt. eigenvalues --    0.38696   0.39601   0.39641   0.40025   0.40492
 Alpha virt. eigenvalues --    0.41004   0.42094   0.42663   0.44633   0.44752
 Alpha virt. eigenvalues --    0.47402   0.48631   0.49284   0.49902   0.50964
 Alpha virt. eigenvalues --    0.51140   0.52260   0.52464   0.54014   0.55062
 Alpha virt. eigenvalues --    0.55873   0.57275   0.57830   0.58170   0.59429
 Alpha virt. eigenvalues --    0.60415   0.60819   0.61146   0.61662   0.61855
 Alpha virt. eigenvalues --    0.62208   0.62852   0.63232   0.63764   0.64333
 Alpha virt. eigenvalues --    0.64695   0.65202   0.66404   0.66680   0.68074
 Alpha virt. eigenvalues --    0.68265   0.68580   0.69000   0.70202   0.70850
 Alpha virt. eigenvalues --    0.71174   0.71675   0.72419   0.72614   0.72976
 Alpha virt. eigenvalues --    0.73911   0.74197   0.74629   0.75447   0.76329
 Alpha virt. eigenvalues --    0.76890   0.76977   0.77783   0.77976   0.79404
 Alpha virt. eigenvalues --    0.80780   0.81613   0.83071   0.85344   0.85628
 Alpha virt. eigenvalues --    0.86490   0.87247   0.88229   0.88784   0.90129
 Alpha virt. eigenvalues --    0.90437   0.91138   0.92885   0.94886   0.96662
 Alpha virt. eigenvalues --    0.97113   0.98601   0.99763   1.00540   1.01870
 Alpha virt. eigenvalues --    1.03022   1.03609   1.04190   1.05107   1.06111
 Alpha virt. eigenvalues --    1.07245   1.07871   1.08917   1.11349   1.12889
 Alpha virt. eigenvalues --    1.13315   1.14676   1.15679   1.16297   1.16527
 Alpha virt. eigenvalues --    1.17679   1.18441   1.19131   1.19847   1.20483
 Alpha virt. eigenvalues --    1.21325   1.22613   1.23640   1.23939   1.24763
 Alpha virt. eigenvalues --    1.25005   1.25357   1.26375   1.26902   1.27175
 Alpha virt. eigenvalues --    1.28000   1.29126   1.30096   1.31805   1.32385
 Alpha virt. eigenvalues --    1.32932   1.33076   1.33939   1.34552   1.35675
 Alpha virt. eigenvalues --    1.35689   1.36411   1.37079   1.37531   1.37960
 Alpha virt. eigenvalues --    1.38373   1.40230   1.40796   1.41406   1.41651
 Alpha virt. eigenvalues --    1.42631   1.43223   1.43640   1.44620   1.45266
 Alpha virt. eigenvalues --    1.45747   1.46296   1.47483   1.47998   1.48970
 Alpha virt. eigenvalues --    1.49345   1.49935   1.50893   1.52578   1.53015
 Alpha virt. eigenvalues --    1.53686   1.53833   1.54404   1.55874   1.55931
 Alpha virt. eigenvalues --    1.56720   1.56940   1.57685   1.58294   1.58385
 Alpha virt. eigenvalues --    1.60161   1.60614   1.61632   1.62229   1.62656
 Alpha virt. eigenvalues --    1.63609   1.64518   1.65390   1.66488   1.67162
 Alpha virt. eigenvalues --    1.68081   1.68896   1.70186   1.71820   1.72816
 Alpha virt. eigenvalues --    1.74125   1.74360   1.75909   1.76474   1.76929
 Alpha virt. eigenvalues --    1.78981   1.79563   1.80136   1.80705   1.82848
 Alpha virt. eigenvalues --    1.85398   1.87438   1.89418   1.95134   1.98620
 Alpha virt. eigenvalues --    2.04395   2.06936   2.13535   2.14793   2.22054
 Alpha virt. eigenvalues --    2.24328   2.27270   2.28587   2.31665   2.39684
 Alpha virt. eigenvalues --    2.41156   2.44577   2.45584   2.47387   2.54808
 Alpha virt. eigenvalues --    2.56588   2.76930   2.77945   2.79740   2.81802
 Alpha virt. eigenvalues --    2.85191   2.86230   2.91977   2.93108   2.93749
 Alpha virt. eigenvalues --    2.95110   2.98349   2.99246   3.02367   3.03191
 Alpha virt. eigenvalues --    3.06395   3.07518   3.08167   3.10084   3.11475
 Alpha virt. eigenvalues --    3.12759   3.13321   3.15468   3.18778   3.20418
 Alpha virt. eigenvalues --    3.23635   3.28162   3.31288   3.33340   3.33652
 Alpha virt. eigenvalues --    3.34853   3.38153   3.38601   3.39361   3.40484
 Alpha virt. eigenvalues --    3.42944   3.43253   3.44859   3.45546   3.47755
 Alpha virt. eigenvalues --    3.48804   3.48918   3.49837   3.50997   3.51635
 Alpha virt. eigenvalues --    3.52747   3.54055   3.54511   3.55167   3.55427
 Alpha virt. eigenvalues --    3.57152   3.57973   3.58439   3.58975   3.59750
 Alpha virt. eigenvalues --    3.60830   3.61509   3.63229   3.64482   3.64886
 Alpha virt. eigenvalues --    3.66015   3.67497   3.67932   3.68932   3.69834
 Alpha virt. eigenvalues --    3.70503   3.71232   3.71692   3.72765   3.74451
 Alpha virt. eigenvalues --    3.75186   3.75784   3.76957   3.77558   3.78475
 Alpha virt. eigenvalues --    3.79272   3.80675   3.81790   3.82483   3.84285
 Alpha virt. eigenvalues --    3.85516   3.87690   3.89338   3.90313   3.91274
 Alpha virt. eigenvalues --    3.92286   3.93745   3.94832   3.96578   3.97591
 Alpha virt. eigenvalues --    3.98982   4.00601   4.02163   4.03430   4.04741
 Alpha virt. eigenvalues --    4.04980   4.06392   4.06500   4.06947   4.07303
 Alpha virt. eigenvalues --    4.08337   4.08683   4.09710   4.10652   4.11899
 Alpha virt. eigenvalues --    4.12777   4.13017   4.13420   4.15172   4.15652
 Alpha virt. eigenvalues --    4.16399   4.17341   4.19059   4.19616   4.20314
 Alpha virt. eigenvalues --    4.21009   4.24179   4.25085   4.27031   4.27762
 Alpha virt. eigenvalues --    4.28097   4.28846   4.29470   4.31566   4.32114
 Alpha virt. eigenvalues --    4.33208   4.34687   4.36684   4.38787   4.41088
 Alpha virt. eigenvalues --    4.41822   4.44387   4.45532   4.47533   4.50750
 Alpha virt. eigenvalues --    4.59015   4.60154   4.74219   4.75392   4.82116
 Alpha virt. eigenvalues --    4.86126   4.93027   4.94156   4.99323   5.04402
 Alpha virt. eigenvalues --    5.07116   5.07574   5.08210   5.08702   5.11653
 Alpha virt. eigenvalues --    5.13730   5.14231   5.15259   5.32054   5.36811
 Alpha virt. eigenvalues --    5.43101   5.58008   5.59557   5.62921   5.87051
 Alpha virt. eigenvalues --    5.87908   6.01604   7.00998   7.04513   7.06253
 Alpha virt. eigenvalues --    7.08675   7.10117   7.11898   7.13751   7.16180
 Alpha virt. eigenvalues --    7.28867   7.37316   7.42818   7.47786   7.52676
 Alpha virt. eigenvalues --    7.54738   7.63983  23.95754  23.97821  24.06705
 Alpha virt. eigenvalues --   24.06938  24.08040  24.13189  24.13423  24.15647
 Alpha virt. eigenvalues --   24.16793  24.18878  50.16897  50.18882  50.24645
          Condensed to atoms (all electrons):
               1          2          3          4          5          6
     1  C    6.289938  -0.107951   0.112561  -0.182096  -0.001898  -0.000213
     2  C   -0.107951   7.282426   0.196173   0.142167  -0.020849  -0.006655
     3  C    0.112561   0.196173   7.245277   0.002485  -0.171526  -0.005950
     4  C   -0.182096   0.142167   0.002485   5.813101  -0.004704   0.000087
     5  C   -0.001898  -0.020849  -0.171526  -0.004704   5.475843   0.079878
     6  O   -0.000213  -0.006655  -0.005950   0.000087   0.079878   8.282675
     7  C   -0.296104  -0.263470  -0.130166   0.046196   0.003078   0.002464
     8  C    0.105986  -0.816598  -0.998335  -0.057165   0.246558   0.025761
     9  C   -0.010453   0.148418  -0.098454   0.014376   0.067571   0.004686
    10  C   -0.063544   0.028384  -0.207121  -0.013838  -0.262974   0.129125
    11  O   -0.112443   0.248195   0.005361  -0.000907  -0.001674  -0.003568
    12  O   -0.030669   0.108154  -0.071833  -0.010944  -0.000565   0.023040
    13  C    0.052458  -1.025663  -0.163582  -0.304511   0.012410   0.000705
    14  H    0.431062   0.036974   0.001137   0.014436   0.000006  -0.000011
    15  H    0.452823  -0.010326   0.001422  -0.056752   0.000013   0.000058
    16  H   -0.004924  -0.006316   0.462852   0.001983  -0.016977  -0.000384
    17  H   -0.016908  -0.002842  -0.005101   0.409902   0.000006   0.000070
    18  H   -0.149812   0.048520  -0.003398   0.571875   0.001203  -0.000954
    19  H   -0.175602   0.045311  -0.021286   0.047271  -0.004907   0.001657
    20  H    0.001718  -0.012374  -0.003480   0.001222   0.000431   0.000447
    21  H    0.001186  -0.012311  -0.003640   0.000567  -0.102898  -0.011085
    22  H    0.000165   0.009399  -0.020202   0.000115  -0.021156   0.009205
    23  H    0.004638   0.003744  -0.012617  -0.000396  -0.010295  -0.048426
    24  H   -0.002661  -0.012156   0.021817  -0.002724   0.027157  -0.080251
    25  H   -0.014373  -0.059843   0.004567  -0.014710  -0.000148  -0.000010
    26  H   -0.018383  -0.105734  -0.028572  -0.047452   0.004221  -0.000136
    27  H    0.004690   0.515865  -0.002363  -0.007903  -0.000655   0.000856
    28  H    0.000327   0.001213  -0.009997   0.000114   0.456140  -0.055197
    29  H   -0.000161   0.000743  -0.002258  -0.000210   0.443315  -0.067435
    30  H    0.006548   0.009156   0.420514  -0.002835  -0.004237  -0.002097
    31  H    0.114543  -0.130460   0.066272  -0.066582  -0.007377   0.021464
               7          8          9         10         11         12
     1  C   -0.296104   0.105986  -0.010453  -0.063544  -0.112443  -0.030669
     2  C   -0.263470  -0.816598   0.148418   0.028384   0.248195   0.108154
     3  C   -0.130166  -0.998335  -0.098454  -0.207121   0.005361  -0.071833
     4  C    0.046196  -0.057165   0.014376  -0.013838  -0.000907  -0.010944
     5  C    0.003078   0.246558   0.067571  -0.262974  -0.001674  -0.000565
     6  O    0.002464   0.025761   0.004686   0.129125  -0.003568   0.023040
     7  C    5.557182   0.025350  -0.004455   0.044168   0.213546   0.055422
     8  C    0.025350   7.679022  -0.340783  -0.620784   0.016692   0.164376
     9  C   -0.004455  -0.340783   5.652617   0.175617  -0.010738  -0.039431
    10  C    0.044168  -0.620784   0.175617   6.433671  -0.013027  -0.117737
    11  O    0.213546   0.016692  -0.010738  -0.013027   8.123528  -0.009624
    12  O    0.055422   0.164376  -0.039431  -0.117737  -0.009624   8.268177
    13  C    0.146757   0.255204  -0.041393   0.071938  -0.027988  -0.034767
    14  H   -0.064617  -0.007478   0.000380   0.001487  -0.005231   0.000027
    15  H   -0.034899   0.001330  -0.000297  -0.001779   0.008597  -0.000953
    16  H    0.001960  -0.061332  -0.017742   0.012154   0.000431   0.004719
    17  H    0.014280  -0.001983   0.000701   0.003263  -0.000804  -0.001770
    18  H    0.022876  -0.014286   0.008326   0.000517  -0.004477   0.002466
    19  H    0.516000  -0.087155   0.010539   0.075839  -0.044530   0.006677
    20  H    0.408480   0.010801  -0.000803  -0.000966  -0.056975   0.000287
    21  H   -0.000840  -0.027772   0.503596   0.019976   0.001443   0.000362
    22  H   -0.000800  -0.025570   0.430708  -0.006912  -0.000281   0.000280
    23  H   -0.000210  -0.054464   0.031532   0.426215   0.002136   0.010858
    24  H    0.003105  -0.019686  -0.012319   0.403147   0.004157  -0.013280
    25  H    0.007429   0.009709  -0.000557  -0.004363  -0.014518  -0.000299
    26  H    0.017707   0.028355  -0.000501   0.003216   0.012181  -0.003314
    27  H   -0.028472  -0.040941   0.008154   0.022724  -0.057215  -0.071947
    28  H   -0.000356   0.017085  -0.022331  -0.036479  -0.000105   0.001886
    29  H    0.000331   0.014483  -0.058110   0.007137  -0.000116   0.000856
    30  H   -0.003935  -0.007877  -0.019164  -0.017343  -0.001462   0.006333
    31  H   -0.040626   0.461817  -0.103258  -0.093393   0.016536  -0.014167
              13         14         15         16         17         18
     1  C    0.052458   0.431062   0.452823  -0.004924  -0.016908  -0.149812
     2  C   -1.025663   0.036974  -0.010326  -0.006316  -0.002842   0.048520
     3  C   -0.163582   0.001137   0.001422   0.462852  -0.005101  -0.003398
     4  C   -0.304511   0.014436  -0.056752   0.001983   0.409902   0.571875
     5  C    0.012410   0.000006   0.000013  -0.016977   0.000006   0.001203
     6  O    0.000705  -0.000011   0.000058  -0.000384   0.000070  -0.000954
     7  C    0.146757  -0.064617  -0.034899   0.001960   0.014280   0.022876
     8  C    0.255204  -0.007478   0.001330  -0.061332  -0.001983  -0.014286
     9  C   -0.041393   0.000380  -0.000297  -0.017742   0.000701   0.008326
    10  C    0.071938   0.001487  -0.001779   0.012154   0.003263   0.000517
    11  O   -0.027988  -0.005231   0.008597   0.000431  -0.000804  -0.004477
    12  O   -0.034767   0.000027  -0.000953   0.004719  -0.001770   0.002466
    13  C    6.462509  -0.045407   0.017698   0.006050  -0.035499  -0.095544
    14  H   -0.045407   0.472829  -0.006618   0.000046  -0.001089   0.002680
    15  H    0.017698  -0.006618   0.474591  -0.000343  -0.005679  -0.006943
    16  H    0.006050   0.000046  -0.000343   0.437449  -0.000058   0.001876
    17  H   -0.035499  -0.001089  -0.005679  -0.000058   0.459890  -0.009776
    18  H   -0.095544   0.002680  -0.006943   0.001876  -0.009776   0.485335
    19  H   -0.014581   0.006112  -0.003915   0.003960  -0.000744   0.009396
    20  H    0.006687  -0.005284  -0.009300  -0.000076   0.002058  -0.002777
    21  H    0.002963  -0.000011  -0.000007   0.004456   0.000012  -0.000375
    22  H   -0.003366   0.000018  -0.000013  -0.009045  -0.000067   0.000602
    23  H   -0.002675  -0.000160   0.000074  -0.005114  -0.000015   0.002832
    24  H    0.003331   0.000606  -0.000113  -0.003015  -0.000159  -0.000422
    25  H    0.460476  -0.003901  -0.001294  -0.000090  -0.009366   0.003861
    26  H    0.498261  -0.002187   0.000818   0.001520  -0.005550  -0.003057
    27  H   -0.041866   0.003534   0.000371  -0.000465   0.001762   0.000823
    28  H   -0.001138   0.000004   0.000041  -0.005685   0.000006  -0.000140
    29  H    0.000850  -0.000004  -0.000010  -0.001406   0.000004   0.000063
    30  H   -0.003991  -0.000053   0.000179  -0.003946   0.000180  -0.001336
    31  H    0.047089  -0.004189   0.005923  -0.023540   0.006092  -0.052895
              19         20         21         22         23         24
     1  C   -0.175602   0.001718   0.001186   0.000165   0.004638  -0.002661
     2  C    0.045311  -0.012374  -0.012311   0.009399   0.003744  -0.012156
     3  C   -0.021286  -0.003480  -0.003640  -0.020202  -0.012617   0.021817
     4  C    0.047271   0.001222   0.000567   0.000115  -0.000396  -0.002724
     5  C   -0.004907   0.000431  -0.102898  -0.021156  -0.010295   0.027157
     6  O    0.001657   0.000447  -0.011085   0.009205  -0.048426  -0.080251
     7  C    0.516000   0.408480  -0.000840  -0.000800  -0.000210   0.003105
     8  C   -0.087155   0.010801  -0.027772  -0.025570  -0.054464  -0.019686
     9  C    0.010539  -0.000803   0.503596   0.430708   0.031532  -0.012319
    10  C    0.075839  -0.000966   0.019976  -0.006912   0.426215   0.403147
    11  O   -0.044530  -0.056975   0.001443  -0.000281   0.002136   0.004157
    12  O    0.006677   0.000287   0.000362   0.000280   0.010858  -0.013280
    13  C   -0.014581   0.006687   0.002963  -0.003366  -0.002675   0.003331
    14  H    0.006112  -0.005284  -0.000011   0.000018  -0.000160   0.000606
    15  H   -0.003915  -0.009300  -0.000007  -0.000013   0.000074  -0.000113
    16  H    0.003960  -0.000076   0.004456  -0.009045  -0.005114  -0.003015
    17  H   -0.000744   0.002058   0.000012  -0.000067  -0.000015  -0.000159
    18  H    0.009396  -0.002777  -0.000375   0.000602   0.002832  -0.000422
    19  H    0.566688  -0.023846   0.000782  -0.000110  -0.007250  -0.004475
    20  H   -0.023846   0.457853  -0.000043  -0.000042   0.001059  -0.003642
    21  H    0.000782  -0.000043   0.474641  -0.011989  -0.000725  -0.002486
    22  H   -0.000110  -0.000042  -0.011989   0.478596   0.000304   0.002074
    23  H   -0.007250   0.001059  -0.000725   0.000304   0.488356  -0.012154
    24  H   -0.004475  -0.003642  -0.002486   0.002074  -0.012154   0.480732
    25  H   -0.001994   0.001302  -0.000005   0.000044   0.000586  -0.000624
    26  H    0.002550   0.000248  -0.000601  -0.000240  -0.001363   0.000826
    27  H   -0.000748   0.000471  -0.002513   0.000357   0.000395  -0.002433
    28  H   -0.000450  -0.000028   0.000032   0.005992   0.007650  -0.001645
    29  H   -0.000035   0.000052  -0.003574  -0.009872  -0.001448   0.001032
    30  H   -0.002375   0.000141  -0.000797  -0.009101  -0.000284   0.000215
    31  H   -0.060939   0.005672  -0.001331  -0.001178  -0.022414   0.001847
              25         26         27         28         29         30
     1  C   -0.014373  -0.018383   0.004690   0.000327  -0.000161   0.006548
     2  C   -0.059843  -0.105734   0.515865   0.001213   0.000743   0.009156
     3  C    0.004567  -0.028572  -0.002363  -0.009997  -0.002258   0.420514
     4  C   -0.014710  -0.047452  -0.007903   0.000114  -0.000210  -0.002835
     5  C   -0.000148   0.004221  -0.000655   0.456140   0.443315  -0.004237
     6  O   -0.000010  -0.000136   0.000856  -0.055197  -0.067435  -0.002097
     7  C    0.007429   0.017707  -0.028472  -0.000356   0.000331  -0.003935
     8  C    0.009709   0.028355  -0.040941   0.017085   0.014483  -0.007877
     9  C   -0.000557  -0.000501   0.008154  -0.022331  -0.058110  -0.019164
    10  C   -0.004363   0.003216   0.022724  -0.036479   0.007137  -0.017343
    11  O   -0.014518   0.012181  -0.057215  -0.000105  -0.000116  -0.001462
    12  O   -0.000299  -0.003314  -0.071947   0.001886   0.000856   0.006333
    13  C    0.460476   0.498261  -0.041866  -0.001138   0.000850  -0.003991
    14  H   -0.003901  -0.002187   0.003534   0.000004  -0.000004  -0.000053
    15  H   -0.001294   0.000818   0.000371   0.000041  -0.000010   0.000179
    16  H   -0.000090   0.001520  -0.000465  -0.005685  -0.001406  -0.003946
    17  H   -0.009366  -0.005550   0.001762   0.000006   0.000004   0.000180
    18  H    0.003861  -0.003057   0.000823  -0.000140   0.000063  -0.001336
    19  H   -0.001994   0.002550  -0.000748  -0.000450  -0.000035  -0.002375
    20  H    0.001302   0.000248   0.000471  -0.000028   0.000052   0.000141
    21  H   -0.000005  -0.000601  -0.002513   0.000032  -0.003574  -0.000797
    22  H    0.000044  -0.000240   0.000357   0.005992  -0.009872  -0.009101
    23  H    0.000586  -0.001363   0.000395   0.007650  -0.001448  -0.000284
    24  H   -0.000624   0.000826  -0.002433  -0.001645   0.001032   0.000215
    25  H    0.450783  -0.009320  -0.006221  -0.000006   0.000010   0.000912
    26  H   -0.009320   0.491159  -0.014083  -0.000307   0.000167  -0.008838
    27  H   -0.006221  -0.014083   0.470973   0.000102   0.000110   0.001419
    28  H   -0.000006  -0.000307   0.000102   0.501980  -0.005980   0.001598
    29  H    0.000010   0.000167   0.000110  -0.005980   0.479585   0.000133
    30  H    0.000912  -0.008838   0.001419   0.001598   0.000133   0.486841
    31  H   -0.002705  -0.001632  -0.002714   0.001994   0.000725  -0.003008
              31
     1  C    0.114543
     2  C   -0.130460
     3  C    0.066272
     4  C   -0.066582
     5  C   -0.007377
     6  O    0.021464
     7  C   -0.040626
     8  C    0.461817
     9  C   -0.103258
    10  C   -0.093393
    11  O    0.016536
    12  O   -0.014167
    13  C    0.047089
    14  H   -0.004189
    15  H    0.005923
    16  H   -0.023540
    17  H    0.006092
    18  H   -0.052895
    19  H   -0.060939
    20  H    0.005672
    21  H   -0.001331
    22  H   -0.001178
    23  H   -0.022414
    24  H    0.001847
    25  H   -0.002705
    26  H   -0.001632
    27  H   -0.002714
    28  H    0.001994
    29  H    0.000725
    30  H   -0.003008
    31  H    0.668496
 Mulliken charges:
               1
     1  C   -0.390450
     2  C   -0.231297
     3  C   -0.580557
     4  C   -0.292169
     5  C   -0.184992
     6  O   -0.299806
     7  C   -0.217385
     8  C    0.119679
     9  C   -0.276433
    10  C   -0.398318
    11  O   -0.287119
    12  O   -0.232617
    13  C   -0.203415
    14  H    0.174902
    15  H    0.175302
    16  H    0.221002
    17  H    0.199185
    18  H    0.182940
    19  H    0.162158
    20  H    0.220709
    21  H    0.172984
    22  H    0.182085
    23  H    0.199632
    24  H    0.224198
    25  H    0.204666
    26  H    0.190040
    27  H    0.247933
    28  H    0.143678
    29  H    0.201023
    30  H    0.158508
    31  H    0.213935
 Sum of Mulliken charges =  -0.00000
 Mulliken charges with hydrogens summed into heavy atoms:
               1
     1  C   -0.040247
     2  C    0.016636
     3  C   -0.201047
     4  C    0.089957
     5  C    0.159709
     6  O   -0.299806
     7  C    0.165483
     8  C    0.333614
     9  C    0.078635
    10  C    0.025512
    11  O   -0.287119
    12  O   -0.232617
    13  C    0.191291
 Electronic spatial extent (au):  <R**2>=           2765.7734
 Charge=              0.0000 electrons
 Dipole moment (field-independent basis, Debye):
    X=              1.8220    Y=              2.4728    Z=             -3.9927  Tot=              5.0375
 Quadrupole moment (field-independent basis, Debye-Ang):
   XX=            -71.9185   YY=            -81.9143   ZZ=            -80.2651
   XY=             -3.4447   XZ=              1.8922   YZ=              4.2453
 Traceless Quadrupole moment (field-independent basis, Debye-Ang):
   XX=              6.1141   YY=             -3.8816   ZZ=             -2.2325
   XY=             -3.4447   XZ=              1.8922   YZ=              4.2453
 Octapole moment (field-independent basis, Debye-Ang**2):
  XXX=             -5.0843  YYY=             -1.3229  ZZZ=              4.6256  XYY=             10.1436
  XXY=             12.7099  XXZ=             -8.6553  XZZ=              0.1247  YZZ=              0.9799
  YYZ=             -4.5643  XYZ=              2.6185
 Hexadecapole moment (field-independent basis, Debye-Ang**3):
 XXXX=          -2542.0527 YYYY=           -627.5301 ZZZZ=           -355.7603 XXXY=            -29.8936
 XXXZ=             -2.5801 YYYX=            -19.6656 YYYZ=              4.0482 ZZZX=              6.9398
 ZZZY=              5.6801 XXYY=           -563.0784 XXZZ=           -503.9172 YYZZ=           -173.9565
 XXYZ=             15.5898 YYXZ=              2.2906 ZZXY=              6.3655
 N-N= 9.085871492505D+02 E-N=-3.259123845963D+03  KE= 6.153121371457D+02
 D1PCM: PCM CHGder 1st derivatives, ID1Alg=3 FixD1E=F DoIter=F DoCFld=F I1PDM=0.
 Calling FoFJK, ICntrl=      2127 FMM=F ISym2X=0 I1Cent= 0 IOpClX= 0 NMat=1 NMatS=1 NMatT=0.
 ***** Axes restored to original set *****
 -------------------------------------------------------------------
 Center     Atomic                   Forces (Hartrees/Bohr)
 Number     Number              X              Y              Z
 -------------------------------------------------------------------
      1        6          -0.002765107    0.000369608   -0.001321522
      2        6           0.002338139    0.001537635   -0.014602027
      3        6          -0.001370467   -0.003055499    0.001759531
      4        6          -0.000472002   -0.003050343    0.003604543
      5        6           0.006311791    0.003069175    0.000056375
      6        8           0.000084641   -0.005556746    0.006256675
      7        6           0.001172851    0.008294748    0.002348826
      8        6           0.001357325    0.001038984    0.003059323
      9        6           0.000576506   -0.001202607   -0.002149499
     10        6          -0.003652863    0.005628296    0.001263063
     11        8          -0.000461713   -0.007123562    0.007300508
     12        8          -0.008251222    0.001768035    0.008027772
     13        6          -0.000098781   -0.002242301   -0.002401505
     14        1           0.001857115   -0.000060397    0.002718530
     15        1           0.001242841   -0.000378983   -0.002476420
     16        1          -0.001167917   -0.000526108   -0.003502253
     17        1           0.001746084    0.001776815   -0.000761539
     18        1          -0.002847598   -0.000099832   -0.002800824
     19        1          -0.004601116   -0.000010230   -0.005894608
     20        1           0.001928820   -0.004111012    0.000359813
     21        1           0.001616436   -0.000133482    0.003049287
     22        1          -0.001730364    0.002109776   -0.000938766
     23        1          -0.001256310   -0.000505970   -0.006492109
     24        1           0.004943787   -0.003111763    0.002408845
     25        1           0.002901809    0.000383220    0.002139106
     26        1          -0.002360593    0.002566290   -0.000094760
     27        1          -0.000179638    0.000595969    0.007020577
     28        1          -0.001927102   -0.000000616   -0.006015931
     29        1          -0.003270753   -0.000657466    0.002818227
     30        1           0.001965572    0.002442099    0.000828981
     31        1           0.006369827    0.000246267   -0.005568219
 -------------------------------------------------------------------
 Cartesian Forces:  Max     0.014602027 RMS     0.003637732

 GradGradGradGradGradGradGradGradGradGradGradGradGradGradGradGradGradGrad
 Berny optimization.
 FormGI is forming the generalized inverse of G from B-inverse, IUseBI=4.
 Internal  Forces:  Max     0.024791182 RMS     0.002622798
 Search for a local minimum.
 Step number   1 out of a maximum of  186
 All quantities printed in internal units (Hartrees-Bohrs-Radians)
 Mixed Optimization -- RFO/linear search
 Second derivative matrix not updated -- first step.
 ITU=  0
     Eigenvalues ---    0.00525   0.00608   0.00722   0.00732   0.01259
     Eigenvalues ---    0.01414   0.01435   0.02535   0.02825   0.02994
     Eigenvalues ---    0.03103   0.03909   0.04370   0.04424   0.04732
     Eigenvalues ---    0.04756   0.04902   0.04999   0.05069   0.05101
     Eigenvalues ---    0.05311   0.05645   0.05727   0.05857   0.06176
     Eigenvalues ---    0.06216   0.06647   0.06689   0.07491   0.07812
     Eigenvalues ---    0.07929   0.07940   0.07956   0.08153   0.08602
     Eigenvalues ---    0.08791   0.09357   0.09402   0.10800   0.11702
     Eigenvalues ---    0.11717   0.11767   0.11918   0.12531   0.12583
     Eigenvalues ---    0.14573   0.15728   0.16240   0.17030   0.17516
     Eigenvalues ---    0.19872   0.21818   0.21888   0.25000   0.28118
     Eigenvalues ---    0.28587   0.28787   0.28885   0.28959   0.29134
     Eigenvalues ---    0.30106   0.30199   0.35030   0.35068   0.35100
     Eigenvalues ---    0.35105   0.35177   0.35251   0.35265   0.35294
     Eigenvalues ---    0.35321   0.35322   0.35412   0.35488   0.35556
     Eigenvalues ---    0.35812   0.35857   0.36051   0.36123   0.36245
     Eigenvalues ---    0.40590   0.41514   0.42146   0.42313   0.43851
     Eigenvalues ---    0.446461000.000001000.000001000.000001000.00000
     Eigenvalues --- 1000.000001000.000001000.000001000.000001000.00000
     Eigenvalues --- 1000.000001000.000001000.000001000.000001000.00000
     Eigenvalues --- 1000.000001000.000001000.000001000.000001000.00000
     Eigenvalues --- 1000.000001000.000001000.000001000.000001000.00000
     Eigenvalues --- 1000.000001000.000001000.000001000.000001000.00000
     Eigenvalues --- 1000.000001000.000001000.000001000.000001000.00000
     Eigenvalues --- 1000.000001000.000001000.000001000.000001000.00000
     Eigenvalues --- 1000.000001000.000001000.000001000.000001000.00000
     Eigenvalues --- 1000.000001000.000001000.000001000.000001000.00000
     Eigenvalues --- 1000.000001000.000001000.000001000.000001000.00000
     Eigenvalues --- 1000.000001000.000001000.000001000.000001000.00000
     Eigenvalues --- 1000.000001000.000001000.000001000.000001000.00000
     Eigenvalues --- 1000.000001000.000001000.000001000.000001000.00000
     Eigenvalues --- 1000.000001000.000001000.000001000.000001000.00000
     Eigenvalues --- 1000.000001000.000001000.000001000.000001000.00000
     Eigenvalues --- 1000.000001000.000001000.000001000.000001000.00000
     Eigenvalues --- 1000.000001000.000001000.000001000.000001000.00000
     Eigenvalues --- 1000.000001000.000001000.000001000.000001000.00000
     Eigenvalues --- 1000.000001000.000001000.000001000.000001000.00000
 RFO step:  Lambda=-5.76560451D-03 EMin= 5.24655346D-03
 Linear search not attempted -- first point.
 Iteration  1 RMS(Cart)=  0.13498529 RMS(Int)=  0.00326249
 Iteration  2 RMS(Cart)=  0.01017825 RMS(Int)=  0.00008801
 Iteration  3 RMS(Cart)=  0.00002590 RMS(Int)=  0.00008696
 Iteration  4 RMS(Cart)=  0.00000000 RMS(Int)=  0.00008696
 Iteration  1 RMS(Cart)=  0.00012233 RMS(Int)=  0.00002572
 Iteration  2 RMS(Cart)=  0.00006465 RMS(Int)=  0.00002874
 Iteration  3 RMS(Cart)=  0.00003417 RMS(Int)=  0.00003235
 Iteration  4 RMS(Cart)=  0.00001806 RMS(Int)=  0.00003464
 Iteration  5 RMS(Cart)=  0.00000954 RMS(Int)=  0.00003594
 Iteration  6 RMS(Cart)=  0.00000504 RMS(Int)=  0.00003664
 Iteration  7 RMS(Cart)=  0.00000267 RMS(Int)=  0.00003702
 Iteration  8 RMS(Cart)=  0.00000141 RMS(Int)=  0.00003722
 Iteration  9 RMS(Cart)=  0.00000074 RMS(Int)=  0.00003733
 Variable       Old X    -DE/DX   Delta X   Delta X   Delta X     New X
                                 (Linear)    (Quad)   (Total)
    R1        2.88315  -0.00125   0.00000  -0.00455  -0.00465   2.87850
    R2        2.86648   0.00005   0.00000  -0.00137  -0.00145   2.86503
    R3        2.05513   0.00320   0.00000   0.00896   0.00896   2.06409
    R4        2.05247   0.00277   0.00000   0.00774   0.00774   2.06021
    R5        2.65095   0.00290   0.00000   0.00667   0.00675   2.65771
    R6        2.65689  -0.00152   0.00000  -0.00336  -0.00336   2.65353
    R7        2.89847  -0.00052   0.00000  -0.00022  -0.00013   2.89834
    R8        2.03700   0.00705   0.00000   0.01914   0.01914   2.05614
    R9        2.88727  -0.00161   0.00000  -0.00584  -0.00587   2.88140
   R10        2.89156  -0.00123   0.00000  -0.00467  -0.00468   2.88688
   R11        2.05505   0.00370   0.00000   0.01038   0.01038   2.06543
   R12        2.05011   0.00314   0.00000   0.00871   0.00871   2.05882
   R13        2.89051  -0.00092   0.00000  -0.00269  -0.00266   2.88785
   R14        2.05157   0.00259   0.00000   0.00721   0.00721   2.05878
   R15        2.05155   0.00397   0.00000   0.01107   0.01107   2.06262
   R16        2.67582   0.00313   0.00000   0.00753   0.00756   2.68338
   R17        2.87327   0.00059   0.00000   0.00184   0.00182   2.87509
   R18        2.05626   0.00622   0.00000   0.01747   0.01747   2.07373
   R19        2.04377   0.00437   0.00000   0.01200   0.01200   2.05577
   R20        2.66878   0.00184   0.00000   0.00454   0.00455   2.67333
   R21        2.69134   0.00278   0.00000   0.00628   0.00626   2.69760
   R22        2.04781   0.00742   0.00000   0.02053   0.02053   2.06834
   R23        2.04305   0.00454   0.00000   0.01247   0.01247   2.05552
   R24        2.87837   0.00001   0.00000   0.00019   0.00021   2.87858
   R25        2.68526  -0.00037   0.00000  -0.00086  -0.00086   2.68440
   R26        2.03890   0.00846   0.00000   0.02304   0.02304   2.06195
   R27        2.05201   0.00323   0.00000   0.00900   0.00900   2.06100
   R28        2.05270   0.00285   0.00000   0.00797   0.00797   2.06067
   R29        2.05564   0.00657   0.00000   0.01844   0.01844   2.07408
   R30        2.04001   0.00604   0.00000   0.01648   0.01648   2.05650
   R31        2.05388   0.00360   0.00000   0.01008   0.01008   2.06396
   R32        2.04891   0.00343   0.00000   0.00950   0.00950   2.05840
    A1        1.91766  -0.00109   0.00000  -0.00651  -0.00671   1.91095
    A2        1.91787   0.00094   0.00000   0.00147   0.00154   1.91941
    A3        1.94248  -0.00049   0.00000  -0.00090  -0.00087   1.94161
    A4        1.91068   0.00003   0.00000  -0.00229  -0.00227   1.90840
    A5        1.89763   0.00064   0.00000   0.00473   0.00482   1.90245
    A6        1.87684  -0.00000   0.00000   0.00371   0.00368   1.88052
    A7        1.97317  -0.00185   0.00000  -0.02464  -0.02485   1.94832
    A8        1.97492   0.00364   0.00000   0.00741   0.00675   1.98167
    A9        1.82447  -0.00129   0.00000   0.01067   0.01074   1.83521
   A10        1.99603  -0.00289   0.00000  -0.02262  -0.02301   1.97302
   A11        1.78445   0.00215   0.00000   0.02405   0.02439   1.80884
   A12        1.88943   0.00032   0.00000   0.01297   0.01296   1.90239
   A13        1.94450   0.00005   0.00000  -0.01102  -0.01108   1.93342
   A14        1.88261   0.00001   0.00000   0.00566   0.00566   1.88827
   A15        1.91327  -0.00046   0.00000  -0.00615  -0.00612   1.90715
   A16        1.90709  -0.00018   0.00000   0.00375   0.00379   1.91088
   A17        1.94018   0.00033   0.00000   0.00275   0.00266   1.94284
   A18        1.87392   0.00025   0.00000   0.00580   0.00579   1.87971
   A19        1.90714   0.00173   0.00000  -0.00042  -0.00036   1.90678
   A20        1.93072  -0.00002   0.00000   0.00134   0.00134   1.93207
   A21        1.91643  -0.00111   0.00000  -0.00239  -0.00244   1.91400
   A22        1.90370  -0.00046   0.00000   0.00252   0.00254   1.90623
   A23        1.94209  -0.00052   0.00000  -0.00171  -0.00176   1.94032
   A24        1.86360   0.00032   0.00000   0.00073   0.00074   1.86434
   A25        1.93683   0.00125   0.00000   0.00783   0.00775   1.94458
   A26        1.90120   0.00105   0.00000   0.00839   0.00845   1.90965
   A27        1.85647  -0.00118   0.00000  -0.00531  -0.00529   1.85118
   A28        1.92966  -0.00125   0.00000  -0.00780  -0.00781   1.92185
   A29        1.94639  -0.00032   0.00000  -0.00376  -0.00375   1.94264
   A30        1.89101   0.00047   0.00000   0.00097   0.00094   1.89195
   A31        1.97971  -0.00383   0.00000  -0.02410  -0.02402   1.95569
   A32        1.96068   0.00268   0.00000   0.00894   0.00875   1.96943
   A33        1.92838  -0.00160   0.00000  -0.00643  -0.00641   1.92197
   A34        1.94273  -0.00057   0.00000  -0.00522  -0.00520   1.93753
   A35        1.91696   0.00025   0.00000   0.00489   0.00499   1.92196
   A36        1.82998  -0.00131   0.00000  -0.00208  -0.00202   1.82795
   A37        1.88130   0.00053   0.00000  -0.00004  -0.00009   1.88122
   A38        1.91647   0.00064   0.00000   0.00370   0.00364   1.92011
   A39        1.88989   0.00075   0.00000   0.00281   0.00284   1.89273
   A40        1.90459  -0.00036   0.00000   0.00415   0.00417   1.90877
   A41        1.92271  -0.00082   0.00000  -0.00513  -0.00510   1.91761
   A42        1.89761  -0.00031   0.00000  -0.00448  -0.00450   1.89311
   A43        1.93253   0.00012   0.00000  -0.00087  -0.00092   1.93162
   A44        1.92311  -0.00025   0.00000  -0.00565  -0.00570   1.91742
   A45        1.92740   0.00036   0.00000  -0.00266  -0.00265   1.92474
   A46        1.92610  -0.00073   0.00000  -0.00145  -0.00145   1.92465
   A47        1.90662  -0.00034   0.00000  -0.00131  -0.00137   1.90526
   A48        1.90708   0.00069   0.00000   0.00536   0.00540   1.91249
   A49        1.87270   0.00029   0.00000   0.00611   0.00610   1.87880
   A50        1.95068   0.00101   0.00000   0.00376   0.00379   1.95448
   A51        1.91155   0.00099   0.00000   0.01008   0.01005   1.92160
   A52        1.85951  -0.00018   0.00000   0.00064   0.00061   1.86012
   A53        1.90371  -0.00101   0.00000  -0.00284  -0.00291   1.90080
   A54        1.94090  -0.00170   0.00000  -0.01707  -0.01710   1.92380
   A55        1.89641   0.00096   0.00000   0.00597   0.00591   1.90232
   A56        2.11528  -0.00585   0.00000  -0.03179  -0.03150   2.08378
   A57        2.15640  -0.02479   0.00000  -0.09693  -0.09693   2.05947
   A58        2.01872  -0.00155   0.00000  -0.00843  -0.00843   2.01029
   A59        1.85068   0.00036   0.00000   0.01000   0.00999   1.86068
   A60        1.88971   0.00049   0.00000  -0.00790  -0.00802   1.88169
   A61        1.88192   0.00116   0.00000   0.00920   0.00927   1.89119
   A62        1.94862  -0.00027   0.00000  -0.00550  -0.00571   1.94290
   A63        1.86587  -0.00006   0.00000   0.00475   0.00480   1.87067
    D1        0.97152  -0.00007   0.00000   0.00280   0.00272   0.97424
    D2        3.06759   0.00046   0.00000   0.00649   0.00647   3.07406
    D3       -1.16309   0.00016   0.00000   0.00673   0.00669  -1.15640
    D4       -1.13181  -0.00001   0.00000   0.00882   0.00878  -1.12303
    D5        0.96426   0.00052   0.00000   0.01251   0.01253   0.97680
[...]
 911,0.00039485,0.00018994,0.00026132,0.00002902,-0.00002068,0.00001394
 ,-0.00028745,0.00046547,0.00131816,0.00317846,-0.00210388,-0.00450394,
 0.00006540,0.00006659,-0.00002106,-0.00005278,-0.00005260,0.00006703,-
 0.00000764,0.00000215,0.00001251,0.00000101,-0.00000067,0.00000918,0.0
 0002693,0.00004707,0.00001022,0.00000359,-0.00000063,-0.00000380,0.135
 36932,0.02200024,0.17852907,-0.00026200,-0.00028567,0.00304243,0.00821
 469,-0.01725804,0.00028762,-0.00006286,0.00000737,-0.00000597,-0.00591
 593,0.00942619,-0.00187375,-0.00001678,-0.00000148,-0.00001919,0.00006
 021,0.00005769,-0.00001166,-0.00060964,0.00023764,0.00099882,-0.000009
 61,-0.00008573,-0.00010476,-0.00000528,0.00000346,0.00001709,0.0000230
 6,-0.00009326,-0.00001420,-0.00163176,-0.00562429,0.00076154,0.0013152
 4,-0.00069429,0.00018604,-0.11815649,0.12175896,-0.00652170,0.00020478
 ,-0.00043006,0.00001446,0.00003704,0.00102945,0.00010445,0.00000880,0.
 00000643,0.00000897,-0.00010949,-0.00016983,-0.00029527,0.00067875,-0.
 00041331,0.00007366,0.00007328,-0.00000931,-0.00010830,0.00009821,0.00
 005312,-0.00014416,0.00000042,0.00000232,0.00000488,0.00001372,-0.0000
 0106,-0.00000297,0.00000575,0.00001595,0.00001218,0.00002516,0.0000244
 7,0.00001032,-0.01191048,0.02056567,-0.00075063,0.12771508,0.00027158,
 0.00116497,-0.00155102,0.01393031,-0.02056971,0.00014284,-0.00005988,-
 0.00008508,-0.00003788,0.00245288,-0.00438124,-0.00001972,-0.00001707,
 -0.00000886,-0.00001352,0.00002126,0.00005745,0.00000532,-0.00021179,0
 .00098717,0.00137094,-0.00055811,-0.00025570,-0.00066914,-0.00000891,0
 .00001687,0.00002465,0.00003928,-0.00008791,0.00008357,-0.00303876,-0.
 00508101,0.00178401,0.00195667,0.00308848,-0.00073135,0.11717949,-0.24
 561401,0.01145949,0.00002111,0.00002834,0.00009532,0.00009087,-0.00035
 706,0.00018188,0.00003189,0.00001739,0.00001710,0.00011920,0.00017100,
 -0.00032862,-0.00028663,0.00026986,-0.00004911,-0.00002193,-0.00004050
 ,-0.00021263,0.00006254,-0.00005734,-0.00009412,-0.00000566,0.00000516
 ,0.00000293,0.00001319,-0.00000179,0.00000234,0.00002169,0.00005845,0.
 00001080,0.00004506,0.00006854,0.00000560,-0.00242260,0.00483855,0.000
 38026,-0.12896284,0.26580193,0.00251528,-0.00003814,-0.00596537,-0.007
 65842,0.00767796,-0.00092010,-0.00001004,-0.00001165,0.00003138,0.0153
 9986,-0.02766609,0.00236437,-0.00001656,0.00000383,-0.00001755,0.00005
 832,0.00002624,-0.00002212,0.00054648,0.00005669,-0.00086807,0.0000539
 1,0.00009403,0.00011634,-0.00000688,0.00000218,0.00002077,-0.00000513,
 -0.00007684,-0.00000056,0.00148487,0.00278133,0.00025794,-0.00041208,-
 0.00049997,0.00083279,-0.00573548,0.01242813,-0.04813582,0.00015881,-0
 .00001458,0.00013760,0.00060315,-0.00187048,0.00001640,0.00002449,0.00
 000410,0.00000700,-0.00026454,0.00069987,0.00089810,-0.00102098,0.0002
 8152,0.00151009,-0.00008821,0.00000732,0.00009351,-0.00011850,-0.00001
 723,0.00015810,0.,0.00000140,-0.00000323,0.00001133,-0.00000200,-0.000
 00334,0.00000773,0.00001031,0.00000830,-0.00001739,-0.00000179,-0.0000
 1117,-0.00990027,0.01890214,-0.00121225,0.00418884,-0.01221391,0.05099
 322,0.00029474,-0.00016387,-0.00019839,-0.04205579,-0.00385674,0.00065
 995,-0.00032254,-0.00061427,-0.00161009,-0.00057942,-0.00284037,0.0005
 1562,0.00017705,0.00000663,0.00009540,-0.00030405,-0.00010201,0.000108
 16,0.00202058,0.00130908,0.00003279,-0.00352105,0.00268464,0.00169080,
 0.00009286,0.00005154,-0.00012978,0.00017699,0.00046790,-0.00068549,-0
 .00113571,0.00853454,0.01206975,-0.02338472,-0.00188076,-0.04522331,-0
 .00196007,-0.00168370,0.01881306,-0.00007920,0.00000979,-0.00008619,-0
 .00000291,0.00002613,0.00000364,-0.00049777,0.00038123,-0.00015854,-0.
 00044220,0.00011243,0.00063208,0.00001346,0.00006806,0.00033231,-0.000
 15759,0.00008960,0.00064789,-0.00006520,0.00013409,0.00018240,-0.00000
 119,-0.00002815,0.00004572,-0.00009471,0.00001412,0.00004764,-0.000180
 20,-0.00032134,-0.00004868,-0.00001282,-0.00010804,0.00007671,0.000133
 79,0.00016272,0.00123846,0.00007867,-0.00058899,0.00009286,0.07176344,
 0.00016189,-0.00041091,-0.00021115,-0.00444477,-0.04906047,-0.00908059
 ,-0.00006122,0.00000267,-0.00016739,-0.00160413,-0.00377646,0.00029201
 ,-0.00003630,0.00000523,-0.00000691,0.00004071,0.00005283,-0.00004650,
 -0.00311128,-0.00407488,0.00145749,0.00039315,0.00172202,-0.00025065,-
 0.00000155,-0.00000273,0.00001454,0.00020845,-0.00026146,0.00039220,0.
 01219709,-0.01969605,-0.04147135,0.00207511,0.00420417,0.00331309,-0.0
 0500806,0.00337213,0.02335502,0.00003606,0.00014980,0.00000734,0.00009
 293,0.00028794,-0.00002749,-0.00003029,-0.00000256,-0.00000477,-0.0007
 4032,0.00031754,0.00111389,0.00004664,0.00000090,0.00016961,0.00027270
 ,-0.00029580,-0.00102310,0.00062434,-0.00038841,-0.00102955,-0.0000005
 7,0.00000206,-0.00000099,0.00000870,-0.00000012,-0.00000237,0.00002350
 ,0.00013998,-0.00000281,0.00003057,0.00008817,-0.00004293,0.00010825,0
 .00093537,0.00018757,0.00071783,0.00008207,-0.00063793,-0.00189501,0.0
 6674282,-0.00027906,0.00011528,-0.00001862,-0.00625410,-0.01796719,-0.
 31728667,-0.00017184,-0.00035518,-0.00052762,0.00103334,0.00214439,0.0
 0116486,0.00011656,-0.00001822,0.00006293,-0.00026966,-0.00007394,0.00
 001354,-0.00172257,-0.00039368,0.00313118,-0.00038168,0.00160232,0.003
 63474,-0.00001488,0.00007931,-0.00006276,0.00011689,0.00018878,-0.0001
 8384,0.00554728,-0.00907271,-0.00641037,-0.01111250,-0.00018082,-0.011
 40279,0.00144668,0.00017842,-0.01199597,0.00005785,-0.00001814,0.00005
 034,0.00004241,-0.00002026,-0.00005570,-0.00018394,0.00013308,-0.00007
 316,0.00033913,-0.00025021,-0.00067252,-0.00009209,0.00001884,0.000091
 68,0.00002133,0.00001543,-0.00016050,0.00019549,-0.00014051,-0.0003735
 9,0.00000771,-0.00001587,-0.00002510,-0.00006841,-0.00000167,0.0000167
 4,-0.00007303,-0.00008874,-0.00004633,0.00003348,0.00004557,0.00002550
 ,0.00026407,-0.00015000,0.00120315,0.00018916,0.00037156,-0.00020770,0
 .01105201,0.02386640,0.33980065,-0.00000082,0.00000113,-0.00000357,0.0
 0005295,-0.00002138,0.00005794,0.00019824,0.00058331,-0.00102315,-0.00
 000341,-0.00000465,0.00000375,-0.06632718,-0.01424913,-0.04926543,-0.0
 1908198,0.00831724,-0.02793612,0.00000971,-0.00000604,0.00000537,-0.00
 053402,0.00002038,0.00027126,-0.00116455,-0.00357639,-0.00959727,0.002
 94859,-0.00040376,-0.00525919,-0.00001171,0.00001602,0.00000940,0.0000
 2031,-0.00003008,0.00014992,-0.00001397,0.00000531,-0.00000162,-0.0000
 0286,-0.00000125,-0.00000054,-0.00000190,0.00000018,0.00000149,-0.0000
 6046,-0.00020303,0.00020774,-0.00000485,-0.00000062,0.00000005,0.00000
 037,0.00000172,-0.00000680,-0.00000449,-0.00000468,-0.00000981,-0.0000
 0297,0.00000220,-0.00000131,0.00044238,-0.00162375,-0.00042726,0.00035
 220,-0.00009219,0.00015559,0.00046389,-0.00002763,0.00102471,0.0001144
 3,0.00008812,0.00040122,-0.00000665,-0.00000335,0.00000058,0.00000051,
 0.00000136,-0.00000037,0.00000273,0.00000082,-0.00000432,0.07432808,0.
 00000354,-0.00000218,0.00000911,-0.00001191,0.00001404,0.00003579,0.00
 122412,0.00141637,-0.00082860,0.00000283,0.00000258,-0.00000484,-0.013
 48607,-0.05715229,-0.04474134,0.01776843,-0.00194735,0.02600391,-0.000
 01880,0.00000855,-0.00002041,0.00009696,-0.00022660,-0.00032032,-0.008
 58297,-0.00686125,-0.03208809,-0.00304463,0.00028907,0.00278573,-0.000
 00982,0.00003454,0.00000675,-0.00005497,0.00015216,-0.00000694,0.00000
 501,-0.00000120,-0.00000617,0.00000329,0.00000273,0.00000013,0.0000005
 5,0.00000008,-0.00000127,-0.00020169,-0.00000403,0.00078432,0.00000357
 ,0.00000064,0.00000079,0.00000052,-0.00000115,0.00000607,-0.00000226,0
 .00000307,0.00001338,0.00000222,-0.00000117,0.00000370,-0.00255300,-0.
 00587857,-0.00034408,0.00068032,0.00113711,0.00052241,-0.00054324,0.00
 004118,-0.00097718,-0.00010417,-0.00009737,-0.00015651,0.00000278,-0.0
 0000062,0.00000063,-0.00000087,-0.00000138,0.00000087,0.00000869,-0.00
 000015,0.00000360,0.00698390,0.06670867,-0.00000033,0.00000225,-0.0000
 1105,0.00037512,-0.00009124,0.00012040,0.00029468,0.00062176,0.0008176
 7,-0.00000941,-0.00002115,0.00000970,-0.05284408,-0.04325495,-0.271553
 63,-0.01199670,0.00822358,-0.00834755,0.00005998,-0.00000718,-0.000005
 35,-0.00021793,0.00020689,0.00008885,0.00017600,-0.00154494,-0.0049917
 9,0.00273532,0.00005871,0.00161543,-0.00011639,0.00006378,0.00002681,-
 0.00037658,-0.00021011,-0.00025167,-0.00003009,0.00002299,0.00000382,-
 0.00000932,-0.00000546,-0.00000186,-0.00000554,0.00000090,0.00000592,-
 0.00062315,-0.00010839,0.00031797,-0.00001766,-0.00000234,0.00000147,0
 .00000098,0.00000788,-0.00001922,0.00001338,-0.00001215,-0.00002513,-0
 .00001670,0.00000910,-0.00000286,0.00006558,-0.00091261,0.00126379,-0.
 00007895,-0.00067607,0.00013626,-0.00157722,-0.00017916,0.00058833,-0.
 00015227,0.00012293,0.00044876,-0.00001967,-0.00001061,0.00000112,0.00
 000471,0.00000499,0.00000345,-0.00003539,0.00000627,-0.00002583,0.0684
 7863,0.04196957,0.29643491,-0.00000877,0.00000554,-0.00002648,0.000384
 71,-0.00003529,0.00012820,0.00099051,-0.00171124,-0.00079360,-0.000012
 33,-0.00002136,0.00001209,-0.20271790,-0.04594614,0.11966435,-0.029954
 61,0.00197817,0.01582786,0.00010489,-0.00002808,0.00001570,0.00026244,
 0.00049272,0.00041617,-0.00567378,-0.00339112,0.00561939,-0.00025911,0
 .00345273,-0.00415047,-0.00020637,0.00002851,-0.00000194,-0.00037255,-
 0.00010881,-0.00029877,-0.00002682,0.00002191,0.00000324,-0.00001718,-
 0.00001193,-0.00000081,-0.00000688,0.00000049,0.00000828,-0.00004908,0
 .00002500,0.00017750,-0.00002166,-0.00000478,0.00000078,0.00000365,0.0
 0001028,-0.00002584,0.00002236,-0.00001449,-0.00006100,-0.00002235,0.0
 0001251,-0.00000691,0.00013574,0.00044660,-0.00012398,0.00015133,-0.00
 044633,0.00000374,0.00005312,-0.00001128,0.00035545,-0.00117470,-0.000
 19439,0.00082540,-0.00002420,-0.00001137,0.00000091,0.00000621,0.00000
 379,0.00000635,-0.00004280,-0.00000008,-0.00003090,0.00820748,0.001494
 31,-0.00393309,0.23067776,0.00001230,-0.00000629,0.00002391,0.00013739
 ,-0.00009380,-0.00002750,-0.00087514,-0.00649229,-0.00234030,0.0000088
 9,-0.00000981,-0.00000080,-0.05273729,-0.06329996,0.03958349,0.0261866
 9,0.00220089,-0.01561818,-0.00003074,0.00003144,-0.00003374,0.00081135
 ,-0.00062673,-0.00009845,-0.02491499,-0.00534940,0.02024196,0.00250420
 ,-0.00280391,0.00214402,0.00003837,0.00010056,0.00004193,-0.00021277,0
 .00019186,-0.00007401,-0.00000601,0.00000253,-0.00000684,0.00000664,0.
 00000831,-0.00000294,-0.00000091,0.00000191,-0.00000078,0.00030482,0.0
 0007864,0.00000338,-0.00000303,0.00000254,0.00000133,0.00000590,-0.000
 00163,-0.00000175,-0.00002133,-0.00000432,0.00003156,-0.00000256,-0.00
 000092,0.00000218,0.00053134,0.00148073,-0.00043832,0.00088450,0.00092
 135,0.00007003,-0.00016570,-0.00002825,-0.00001909,0.00117474,0.000200
 97,-0.00054523,-0.00000844,-0.00000029,0.00000130,0.00000674,0.0000120
 2,0.00000402,-0.00002628,0.00000276,-0.00001028,0.00430460,0.00210247,
 -0.00411306,0.04409932,0.07138806,-0.00000195,-0.00000103,-0.00000492,
 -0.00009178,0.00001835,-0.00000915,-0.00016252,-0.00055565,0.00078843,
 -0.00000034,0.00000335,0.00000035,0.12889437,0.03563849,-0.15377776,-0
 .00978187,-0.00182152,0.00768943,-0.00001262,-0.00000437,0.00002081,-0
 .00031509,0.00004378,-0.00006294,-0.00543996,-0.00219940,0.00344454,-0
 .00153979,0.00068557,0.00044333,0.00004507,-0.00001793,-0.00000560,0.0
 0013639,0.00003828,0.00006661,0.00000739,-0.00000082,0.00000119,0.,-0.
 00000053,0.00000088,0.00000114,0.00000020,-0.00000128,-0.00028607,-0.0
 0013755,0.00035871,0.00000193,0.00000012,-0.00000154,0.00000036,-0.000
 00073,0.00000118,0.00000255,-0.00000104,-0.00000104,0.00000325,-0.0000
 0108,-0.00000123,-0.00010054,0.00065248,0.00073999,0.00028621,0.000497
 10,0.00006304,-0.00024013,0.00008350,0.00044303,-0.00011621,0.00011183
 ,0.00038599,0.00000457,0.00000074,-0.00000080,-0.00000099,-0.00000321,
 0.00000003,0.00001049,-0.00000130,0.00000590,0.02256633,0.00701959,-0.
 01679961,-0.13394832,-0.03987379,0.15601430,0.00000252,0.00001427,-0.0
 0001173,-0.00023081,0.00010080,0.00015059,-0.08565276,-0.09372071,-0.0
 1693324,-0.00001001,-0.00001870,-0.00001677,-0.00558299,0.00160099,0.0
 0428986,0.00156163,-0.00058341,-0.00037820,0.00006421,-0.00001288,0.00
 001738,0.00850085,0.02422777,0.00342513,-0.00977319,-0.02546344,-0.006
 03299,-0.00473008,0.00294547,-0.00117280,-0.00001424,-0.00013138,-0.00
 007811,0.00184578,-0.00084899,0.00179733,-0.00001261,0.00005273,0.0000
 2973,-0.00000305,-0.00001059,0.00000141,0.00000065,-0.00000532,-0.0000
 0054,-0.00341922,-0.00660395,-0.00111381,0.00000617,-0.00000278,-0.000
 00063,0.00004037,-0.00001895,0.00002486,0.00004626,-0.00000998,-0.0000
 3136,-0.00000192,-0.00000266,-0.00000845,0.00122282,0.00050330,-0.0000
 7091,0.00069103,0.00044692,-0.00083426,-0.00005829,-0.00012096,-0.0000
 4309,0.00068645,0.00141841,-0.00006621,0.00001603,-0.00002126,0.000001
 91,0.00001318,-0.00006826,-0.00001128,0.00003737,0.00000705,0.00002989
 ,0.00015255,0.00034648,-0.00000069,-0.00034203,-0.00198697,0.00007347,
 0.09384341,0.00000842,-0.00000654,0.00005575,0.00022147,0.00003304,0.0
 0005731,-0.09177305,-0.26994270,-0.04019447,0.00002967,0.00000591,-0.0
 0008344,-0.00040692,0.00157025,0.00092327,-0.00062183,0.00040723,-0.00
 006035,-0.00011993,-0.00001942,-0.00008574,-0.00854982,-0.02381269,-0.
 00483484,-0.00132859,-0.00244274,-0.00016935,0.00581323,-0.00106111,0.
 00116507,-0.00003972,0.00018745,0.00001916,-0.00116627,0.00272048,-0.0
 0090521,0.00002999,-0.00011325,-0.00002552,0.00001743,0.00000815,-0.00
 000217,0.00000001,0.00000655,-0.00000240,-0.00000732,-0.00062570,-0.00
 072238,0.00002093,0.00000412,0.00002024,0.00007215,-0.00003958,0.00005
 663,-0.00004541,0.00002342,0.00007814,0.00002609,0.00000083,0.00002455
 ,-0.00009091,0.00022025,0.00021633,-0.00034427,0.00032016,0.00021255,-
 0.00005545,0.00027077,-0.00014300,-0.00080621,-0.00135047,0.00008598,-
 0.00002969,0.00005024,0.00000023,0.00006454,0.00008125,0.00003629,0.00
 004288,-0.00002752,0.00000114,0.00006548,0.00004936,-0.00011476,0.0000
 5553,-0.00031030,-0.00010444,0.09891541,0.29295695,-0.00000437,-0.0000
 0189,-0.00001841,-0.00035372,0.00013471,0.00011090,-0.01671168,-0.0432
 9551,-0.05577620,0.00001740,0.00000576,0.00003121,0.00375465,-0.000906
 86,-0.00195151,-0.00063250,-0.00035813,0.00019209,0.00000076,-0.000003
 11,0.00004833,0.00073589,0.00751841,-0.00121241,0.00748118,0.01904463,
 0.00281572,-0.00077089,0.00043006,-0.00002554,0.00008016,-0.00012707,-
 0.00006451,0.00116591,0.00038753,0.00112194,0.00001986,0.00003052,0.00
 000516,-0.00000216,0.00000258,0.00000045,0.00000330,-0.00000101,-0.000
 00162,-0.01066083,-0.02837592,-0.00420419,0.00000129,-0.00000026,-0.00
 000884,-0.00000844,-0.00000156,-0.00001951,0.00000768,-0.00000629,-0.0
 0001520,0.00000284,-0.00000086,-0.00001099,-0.00095573,0.00002578,0.00
 068491,-0.00065917,-0.00053602,0.00051295,0.00012632,0.00032390,0.0002
 2762,0.00008582,0.00020532,0.00031001,0.00001686,-0.00000206,-0.000010
 22,0.00004420,-0.00002418,0.00000147,0.00006249,-0.00000653,0.00002411
 ,0.00018705,0.00034235,0.00020764,0.00037330,0.00106872,0.00026338,0.0
 1657634,0.04460493,0.05680793,-0.00018841,0.00012973,-0.00000869,0.002
 57976,0.00110485,-0.00047758,-0.01822112,-0.00191975,0.01291033,-0.002
 73518,-0.00124528,0.00038482,0.00115926,-0.00001966,0.00024570,-0.0012
 6392,-0.00296699,-0.00012568,-0.00053394,0.00191444,0.00039329,-0.2034
 6395,-0.02141972,0.13300977,-0.00117714,0.00395595,-0.00220896,-0.0089
 9374,0.00130445,0.00779740,0.00023410,-0.00013704,0.00054362,0.0116784
 7,-0.00010194,-0.01494487,0.00071877,-0.00019111,0.00097992,0.00002427
 ,-0.00009096,0.00003194,0.00001950,-0.00002883,-0.00001378,0.00027998,
 -0.00023763,-0.00022535,-0.00042777,0.00014218,-0.00002069,-0.00327992
 ,-0.00152142,0.00002811,-0.00158361,0.00183759,-0.00083753,-0.00033352
 ,-0.00007194,-0.00018286,0.00006659,0.00002084,0.00012131,-0.00106080,
 -0.00029299,0.00074543,-0.00001662,-0.00018183,-0.00029335,0.00026774,
 -0.00019559,-0.00002463,0.00012987,0.00012002,0.00010539,0.00011754,-0
 .00001075,0.00011385,0.00004826,-0.00011222,0.00016572,-0.00007263,-0.
 00001310,-0.00014319,-0.00006711,-0.00002563,0.00000467,0.00109991,0.0
 0000216,0.00001620,0.22499536,0.00017599,0.00011292,0.00000084,0.00035
 484,0.00143451,0.00091840,0.02048394,0.00278958,-0.01528339,-0.0008963
 7,-0.00012427,-0.00016735,0.00143241,-0.00165027,0.00039581,-0.0058037
 6,-0.00669381,0.00093479,0.00118977,-0.00031675,0.00061314,-0.02230031
 ,-0.05432169,0.01544243,0.00274327,-0.00324866,0.00190077,-0.02263642,
 0.00171208,0.01926902,-0.00052587,-0.00009578,-0.00065909,0.00493359,0
 .00148404,-0.00657042,0.00012541,0.00013598,0.00009301,-0.00006841,-0.
 00013996,0.00001356,-0.00001474,-0.00003512,0.00001153,-0.00078555,0.0
 0091662,0.00014181,-0.00004831,-0.00003630,0.00002126,-0.00146117,0.00
 006656,0.00033837,0.00163693,-0.00204656,-0.00001490,-0.00018472,0.000
 00248,-0.00013906,-0.00019926,-0.00005414,-0.00004827,0.00127108,0.000
 30605,-0.00072981,0.00032100,0.00101487,-0.00080334,0.00113437,0.00077
 538,0.00026280,0.00009546,-0.00006757,0.00007273,0.00005219,-0.0002078
 9,0.00003238,0.00000545,-0.00011094,-0.00000668,-0.00014386,0.00021269
 ,-0.00005741,-0.00019070,0.00030084,-0.00006900,-0.00094842,0.00083561
 ,-0.00047793,0.02025214,0.05704952,-0.00007777,0.00004058,0.00017820,0
 .00503674,-0.00132265,0.00096291,-0.00600139,-0.00118276,0.00605289,0.
 00027852,0.00032883,-0.00074047,0.00019750,0.00004362,-0.00007466,-0.0
 0060047,-0.00119661,0.00123622,-0.00041635,-0.00053528,-0.00124668,0.1
 2533352,0.01511499,-0.15693726,-0.00112201,0.00160470,0.00035021,-0.00
 019882,0.00149586,0.00213114,-0.00112516,0.00129451,0.00048662,0.01556
 940,-0.00007582,-0.03905332,-0.00137810,-0.00029875,-0.00019026,0.0001
 2476,0.00000542,0.00001615,0.00002091,-0.00002540,-0.00001411,0.000131
 24,-0.00034990,0.00061596,0.00042397,-0.00003104,0.00034250,0.00138212
 ,0.00033793,0.00106982,0.00071760,-0.00020635,0.00083648,0.00025255,0.
 00001001,0.00037360,-0.00018104,0.00002015,0.00014984,-0.00046078,0.00
 004795,0.00022061,-0.00007381,0.00067681,0.00025871,0.00020739,-0.0001
 1885,-0.00007069,0.00001377,0.00004958,0.00012312,-0.00009584,0.000004
 80,-0.00008357,-0.00023436,-0.00016112,0.00030376,0.00001568,-0.000012
 96,-0.00005675,-0.00003660,-0.00001275,-0.00006525,0.00038716,-0.00010
 951,-0.00004670,-0.13809033,-0.01543599,0.18287097\\-0.00000389,-0.000
 00271,-0.00000753,-0.00050072,-0.00094579,0.00167026,0.00000226,0.0000
 0790,0.00000965,0.00000839,-0.00000062,-0.00000818,0.00000452,0.000004
 34,0.00000291,0.00000323,-0.00000079,0.00000842,0.00000136,0.00000191,
 0.00001114,-0.00024865,-0.00117238,0.00026416,-0.00000682,0.00000407,-
 0.00000282,0.00000200,0.00001209,0.00001378,0.00025639,0.00027289,-0.0
 0111749,0.00047328,0.00182811,-0.00084432,0.00000597,-0.00000295,0.000
 00397,0.00000327,-0.00000196,-0.00000410,-0.00000104,-0.00000507,-0.00
 000533,-0.00000280,-0.00000036,-0.00000222,-0.00000111,-0.00000130,-0.
 00000547,0.00000077,-0.00000355,-0.00000213,-0.00001014,-0.00000111,-0
 .00000693,0.00000013,-0.00000205,0.00000297,0.00000420,0.00000331,0.00
 000635,0.00000399,0.00000518,0.00000497,-0.00000291,0.00000294,-0.0000
 0028,0.00000297,-0.00000310,0.00000576,0.00000573,0.00000288,-0.000008
 11,-0.00000111,0.00000365,-0.00000364,0.00000538,-0.00000265,-0.000001
 80,-0.00000442,0.00000111,0.00000240,0.00000130,0.00000016,0.00000883,
 0.00000200,0.00000269,-0.00000073,-0.00000356,-0.00000685,0.00000550\\
 \@


 TO DETECT ERRORS, THE PROGRAMMER MUST HAVE A CONNIVING MIND,
 ONE THAT DELIGHTS IN UNCOVERING FLAWS WHERE BEAUTY AND
 PERFECTION WERE ONCE THOUGHT TO LIE.

             -- THE PSYCHOLOGY OF COMPUTER PROGRAMMING
                GERALD M. WEINBERG
 Job cpu time:       0 days 16 hours 36 minutes 12.9 seconds.
 Elapsed time:       0 days  1 hours  2 minutes 17.7 seconds.
 File lengths (MBytes):  RWF=    686 Int=      0 D2E=      0 Chk=     33 Scr=      1
 Normal termination of Gaussian 16 at Mon Nov  5 02:41:11 2018.
