 Entering Gaussian System, Link 0=g16
 Initial command:
 /sw/Projects/G16/g16/l1.exe "/nvme/pbs/tmpdir/pbs.74205[5].flm1/Gau-15606.inp" -scrdir="/nvme/pbs/tmpdir/pbs.74205[5].flm1/"
 Entering Link 1 = /sw/Projects/G16/g16/l1.exe PID=     15607.
  
 Copyright (c) 1988-2017, Gaussian, Inc.  All Rights Reserved.
  
 This is part of the Gaussian(R) 16 program.  It is based on
 the Gaussian(R) 09 system (copyright 2009, Gaussian, Inc.),
 the Gaussian(R) 03 system (copyright 2003, Gaussian, Inc.),
 the Gaussian(R) 98 system (copyright 1998, Gaussian, Inc.),
 the Gaussian(R) 94 system (copyright 1995, Gaussian, Inc.),
 the Gaussian 92(TM) system (copyright 1992, Gaussian, Inc.),
 the Gaussian 90(TM) system (copyright 1990, Gaussian, Inc.),
 the Gaussian 88(TM) system (copyright 1988, Gaussian, Inc.),
 the Gaussian 86(TM) system (copyright 1986, Carnegie Mellon
 University), and the Gaussian 82(TM) system (copyright 1983,
 Carnegie Mellon University). Gaussian is a federally registered
 trademark of Gaussian, Inc.
  
 This software contains proprietary and confidential information,
 including trade secrets, belonging to Gaussian, Inc.
  
 This software is provided under written license and may be
 used, copied, transmitted, or stored only in accord with that
 written license.
  
 The following legend is applicable only to US Government
 contracts under FAR:
  
                    RESTRICTED RIGHTS LEGEND
  
 Use, reproduction and disclosure by the US Government is
 subject to restrictions as set forth in subparagraphs (a)
 and (c) of the Commercial Computer Software - Restricted
 Rights clause in FAR 52.227-19.
  
 Gaussian, Inc.
 340 Quinnipiac St., Bldg. 40, Wallingford CT 06492
  
  
 ---------------------------------------------------------------
 Warning -- This program may not be used in any manner that
 competes with the business of Gaussian, Inc. or will provide
 assistance to any competitor of Gaussian, Inc.  The licensee
 of this program is prohibited from giving any competitor of
 Gaussian, Inc. access to this program.  By using this program,
 the user acknowledges that Gaussian, Inc. is engaged in the
 business of creating and licensing software in the field of
 computational chemistry and represents and warrants to the
 licensee that it is not a competitor of Gaussian, Inc. and that
 it will not use this program in any manner prohibited above.
 ---------------------------------------------------------------
  

 Cite this work as:
 Gaussian 16, Revision B.01,
 M. J. Frisch, G. W. Trucks, H. B. Schlegel, G. E. Scuseria, 
 M. A. Robb, J. R. Cheeseman, G. Scalmani, V. Barone, 
 G. A. Petersson, H. Nakatsuji, X. Li, M. Caricato, A. V. Marenich, 
 J. Bloino, B. G. Janesko, R. Gomperts, B. Mennucci, H. P. Hratchian, 
 J. V. Ortiz, A. F. Izmaylov, J. L. Sonnenberg, D. Williams-Young, 
 F. Ding, F. Lipparini, F. Egidi, J. Goings, B. Peng, A. Petrone, 
 T. Henderson, D. Ranasinghe, V. G. Zakrzewski, J. Gao, N. Rega, 
 G. Zheng, W. Liang, M. Hada, M. Ehara, K. Toyota, R. Fukuda, 
 J. Hasegawa, M. Ishida, T. Nakajima, Y. Honda, O. Kitao, H. Nakai, 
 T. Vreven, K. Throssell, J. A. Montgomery, Jr., J. E. Peralta, 
 F. Ogliaro, M. J. Bearpark, J. J. Heyd, E. N. Brothers, K. N. Kudin, 
 V. N. Staroverov, T. A. Keith, R. Kobayashi, J. Normand, 
 K. Raghavachari, A. P. Rendell, J. C. Burant, S. S. Iyengar, 
 J. Tomasi, M. Cossi, J. M. Millam, M. Klene, C. Adamo, R. Cammi, 
 J. W. Ochterski, R. L. Martin, K. Morokuma, O. Farkas, 
 J. B. Foresman, and D. J. Fox, Gaussian, Inc., Wallingford CT, 2016.
 
 ******************************************
 Gaussian 16:  ES64L-G16RevB.01 20-Dec-2017
                 9-Mar-2019 
 ******************************************
 %mem=20gb
 %nproc=12
 Will use up to   12 processors via shared memory.
 %chk=4c1_b1_e3_4c1_PSI.inp_extract_5.chk
 ----------------------------------------------------------------------
 #M062X/6-311++G(2d,2p) opt=ModRedundant freq=noraman SCRF=(SMD,solvent
 =water)
 ----------------------------------------------------------------------
 1/18=120,19=15,26=3,38=1/1,3;
 2/9=110,12=2,17=6,18=5,40=1/2;
 3/5=4,6=6,7=1212,11=2,25=1,30=1,70=32201,71=1,72=1,74=-55/1,2,3;
 4//1;
 5/5=2,38=5,53=1/2;
 6/7=2,8=2,9=2,10=2,28=1/1;
 7//1,2,3,16;
 1/18=20,19=15,26=3/3(2);
 2/9=110/2;
 99//99;
 2/9=110/2;
 3/5=4,6=6,7=1212,11=2,25=1,30=1,70=32205,71=1,72=1,74=-55/1,2,3;
 4/5=5,16=3,69=1/1;
 5/5=2,38=5,53=1/2;
 7//1,2,3,16;
 1/18=20,19=15,26=3/3(-5);
 2/9=110/2;
 6/7=2,8=2,9=2,10=2,19=2,28=1/1;
 99/9=1/99;
 -------------------------------
 4c1_b1_e3_4c1_PSI.inp_extract_5
 -------------------------------
 Symbolic Z-matrix:
 Charge =  0 Multiplicity = 1
 C                     1.42977   0.90007  -0.50988 
 C                     3.6858   -0.65598   0.357 
 C                    -2.23595  -1.33124  -0.37688 
 C                     1.22178  -0.25789   0.46237 
 C                     2.31094  -1.30198   0.26453 
 O                    -1.58119   0.65832   0.80758 
 C                    -3.53646  -0.6479   -0.80803 
 O                     3.81036   0.41134  -0.56197 
 C                    -3.90959   0.45851   0.17975 
 C                    -1.15319  -0.29545  -0.13881 
 C                    -2.72631   1.38786   0.39719 
 C                     2.8517    1.42853  -0.3551 
 O                    -0.03306  -0.9304    0.37178 
 H                     1.2876    0.56584  -1.53364 
 H                     0.73653   1.71117  -0.31906 
 H                     4.4636   -1.3662    0.11416 
 H                     3.86688  -0.28252   1.36229 
 H                    -2.38912  -1.88436   0.54599 
 H                    -1.89624  -2.03079  -1.1338 
 H                     1.29497   0.13814   1.47113 
 H                     2.22678  -2.08008   1.01713 
 H                     2.1902   -1.76465  -0.71122 
 H                    -4.33388  -1.38042  -0.88169 
 H                    -3.40772  -0.21828  -1.79943 
 H                    -4.19827   0.02237   1.13304 
 H                    -4.75495   1.0349   -0.18526 
 H                    -0.91914   0.22108  -1.06159 
 H                    -2.49294   1.93161  -0.51557 
 H                    -2.92071   2.10757   1.18 
 H                     2.9943    1.85689   0.63433 
 H                     3.05234   2.19646  -1.08872 
 
 The following ModRedundant input section has been read:
 D       1       4      13      10 F                                           
 

 GradGradGradGradGradGradGradGradGradGradGradGradGradGradGradGradGradGrad
 Berny optimization.
 Initialization pass.
                           ----------------------------
                           !    Initial Parameters    !
                           ! (Angstroms and Degrees)  !
 --------------------------                            --------------------------
 ! Name  Definition              Value          Derivative Info.                !
 --------------------------------------------------------------------------------
 ! R1    R(1,4)                  1.5262         estimate D2E/DX2                !
 ! R2    R(1,12)                 1.5248         estimate D2E/DX2                !
 ! R3    R(1,14)                 1.0863         estimate D2E/DX2                !
 ! R4    R(1,15)                 1.0839         estimate D2E/DX2                !
 ! R5    R(2,5)                  1.5219         estimate D2E/DX2                !
 ! R6    R(2,8)                  1.4139         estimate D2E/DX2                !
 ! R7    R(2,16)                 1.0809         estimate D2E/DX2                !
 ! R8    R(2,17)                 1.0876         estimate D2E/DX2                !
 ! R9    R(3,7)                  1.5311         estimate D2E/DX2                !
 ! R10   R(3,10)                 1.5172         estimate D2E/DX2                !
 ! R11   R(3,18)                 1.0868         estimate D2E/DX2                !
 ! R12   R(3,19)                 1.0852         estimate D2E/DX2                !
 ! R13   R(4,5)                  1.5217         estimate D2E/DX2                !
 ! R14   R(4,13)                 1.4266         estimate D2E/DX2                !
 ! R15   R(4,20)                 1.0862         estimate D2E/DX2                !
 ! R16   R(5,21)                 1.0858         estimate D2E/DX2                !
 ! R17   R(5,22)                 1.0866         estimate D2E/DX2                !
 ! R18   R(6,10)                 1.4101         estimate D2E/DX2                !
 ! R19   R(6,11)                 1.4184         estimate D2E/DX2                !
 ! R20   R(7,9)                  1.5294         estimate D2E/DX2                !
 ! R21   R(7,23)                 1.0853         estimate D2E/DX2                !
 ! R22   R(7,24)                 1.0881         estimate D2E/DX2                !
 ! R23   R(8,12)                 1.413          estimate D2E/DX2                !
 ! R24   R(9,11)                 1.5202         estimate D2E/DX2                !
 ! R25   R(9,25)                 1.0873         estimate D2E/DX2                !
 ! R26   R(9,26)                 1.0863         estimate D2E/DX2                !
 ! R27   R(10,13)                1.3851         estimate D2E/DX2                !
 ! R28   R(10,27)                1.0831         estimate D2E/DX2                !
 ! R29   R(11,28)                1.0878         estimate D2E/DX2                !
 ! R30   R(11,29)                1.081          estimate D2E/DX2                !
 ! R31   R(12,30)                1.0876         estimate D2E/DX2                !
 ! R32   R(12,31)                1.0808         estimate D2E/DX2                !
 ! A1    A(4,1,12)             108.9872         estimate D2E/DX2                !
 ! A2    A(4,1,14)             110.4312         estimate D2E/DX2                !
 ! A3    A(4,1,15)             111.619          estimate D2E/DX2                !
 ! A4    A(12,1,14)            108.926          estimate D2E/DX2                !
 ! A5    A(12,1,15)            108.6143         estimate D2E/DX2                !
 ! A6    A(14,1,15)            108.2074         estimate D2E/DX2                !
 ! A7    A(5,2,8)              111.1317         estimate D2E/DX2                !
 ! A8    A(5,2,16)             110.9467         estimate D2E/DX2                !
 ! A9    A(5,2,17)             110.6297         estimate D2E/DX2                !
 ! A10   A(8,2,16)             106.6535         estimate D2E/DX2                !
 ! A11   A(8,2,17)             109.08           estimate D2E/DX2                !
 ! A12   A(16,2,17)            108.2693         estimate D2E/DX2                !
 ! A13   A(7,3,10)             110.2229         estimate D2E/DX2                !
 ! A14   A(7,3,18)             110.2776         estimate D2E/DX2                !
 ! A15   A(7,3,19)             110.9276         estimate D2E/DX2                !
 ! A16   A(10,3,18)            108.3486         estimate D2E/DX2                !
 ! A17   A(10,3,19)            109.0332         estimate D2E/DX2                !
 ! A18   A(18,3,19)            107.9586         estimate D2E/DX2                !
 ! A19   A(1,4,5)              109.8898         estimate D2E/DX2                !
 ! A20   A(1,4,13)             115.9181         estimate D2E/DX2                !
 ! A21   A(1,4,20)             107.8066         estimate D2E/DX2                !
 ! A22   A(5,4,13)             107.3303         estimate D2E/DX2                !
 ! A23   A(5,4,20)             108.825          estimate D2E/DX2                !
 ! A24   A(13,4,20)            106.8663         estimate D2E/DX2                !
 ! A25   A(2,5,4)              110.3324         estimate D2E/DX2                !
 ! A26   A(2,5,21)             109.3964         estimate D2E/DX2                !
 ! A27   A(2,5,22)             109.6142         estimate D2E/DX2                !
 ! A28   A(4,5,21)             110.2495         estimate D2E/DX2                !
 ! A29   A(4,5,22)             109.2303         estimate D2E/DX2                !
 ! A30   A(21,5,22)            107.9791         estimate D2E/DX2                !
 ! A31   A(10,6,11)            113.4987         estimate D2E/DX2                !
 ! A32   A(3,7,9)              110.3796         estimate D2E/DX2                !
 ! A33   A(3,7,23)             109.9971         estimate D2E/DX2                !
 ! A34   A(3,7,24)             109.4077         estimate D2E/DX2                !
 ! A35   A(9,7,23)             110.6617         estimate D2E/DX2                !
 ! A36   A(9,7,24)             109.3709         estimate D2E/DX2                !
 ! A37   A(23,7,24)            106.9524         estimate D2E/DX2                !
 ! A38   A(2,8,12)             112.8608         estimate D2E/DX2                !
 ! A39   A(7,9,11)             110.1651         estimate D2E/DX2                !
 ! A40   A(7,9,25)             109.9278         estimate D2E/DX2                !
 ! A41   A(7,9,26)             110.8971         estimate D2E/DX2                !
 ! A42   A(11,9,25)            109.0533         estimate D2E/DX2                !
 ! A43   A(11,9,26)            109.2323         estimate D2E/DX2                !
 ! A44   A(25,9,26)            107.5059         estimate D2E/DX2                !
 ! A45   A(3,10,6)             110.5148         estimate D2E/DX2                !
 ! A46   A(3,10,13)            108.7842         estimate D2E/DX2                !
 ! A47   A(3,10,27)            110.2493         estimate D2E/DX2                !
 ! A48   A(6,10,13)            107.9451         estimate D2E/DX2                !
 ! A49   A(6,10,27)            108.3503         estimate D2E/DX2                !
 ! A50   A(13,10,27)           110.9731         estimate D2E/DX2                !
 ! A51   A(6,11,9)             110.8141         estimate D2E/DX2                !
 ! A52   A(6,11,28)            109.0668         estimate D2E/DX2                !
 ! A53   A(6,11,29)            106.1466         estimate D2E/DX2                !
 ! A54   A(9,11,28)            110.6435         estimate D2E/DX2                !
 ! A55   A(9,11,29)            111.753          estimate D2E/DX2                !
 ! A56   A(28,11,29)           108.2654         estimate D2E/DX2                !
 ! A57   A(1,12,8)             111.6126         estimate D2E/DX2                !
 ! A58   A(1,12,30)            110.5563         estimate D2E/DX2                !
 ! A59   A(1,12,31)            110.5146         estimate D2E/DX2                !
 ! A60   A(8,12,30)            109.1343         estimate D2E/DX2                !
 ! A61   A(8,12,31)            106.6279         estimate D2E/DX2                !
 ! A62   A(30,12,31)           108.2602         estimate D2E/DX2                !
 ! A63   A(4,13,10)            121.2409         estimate D2E/DX2                !
 ! D1    D(12,1,4,5)           -53.6403         estimate D2E/DX2                !
 ! D2    D(12,1,4,13)         -175.5119         estimate D2E/DX2                !
 ! D3    D(12,1,4,20)           64.8246         estimate D2E/DX2                !
 ! D4    D(14,1,4,5)            65.9775         estimate D2E/DX2                !
 ! D5    D(14,1,4,13)          -55.8941         estimate D2E/DX2                !
 ! D6    D(14,1,4,20)         -175.5576         estimate D2E/DX2                !
 ! D7    D(15,1,4,5)          -173.605          estimate D2E/DX2                !
 ! D8    D(15,1,4,13)           64.5233         estimate D2E/DX2                !
 ! D9    D(15,1,4,20)          -55.1401         estimate D2E/DX2                !
 ! D10   D(4,1,12,8)            56.8836         estimate D2E/DX2                !
 ! D11   D(4,1,12,30)          -64.7925         estimate D2E/DX2                !
 ! D12   D(4,1,12,31)          175.3651         estimate D2E/DX2                !
 ! D13   D(14,1,12,8)          -63.6636         estimate D2E/DX2                !
 ! D14   D(14,1,12,30)         174.6603         estimate D2E/DX2                !
 ! D15   D(14,1,12,31)          54.818          estimate D2E/DX2                !
 ! D16   D(15,1,12,8)          178.6886         estimate D2E/DX2                !
 ! D17   D(15,1,12,30)          57.0125         estimate D2E/DX2                !
 ! D18   D(15,1,12,31)         -62.8299         estimate D2E/DX2                !
 ! D19   D(8,2,5,4)            -55.48           estimate D2E/DX2                !
 ! D20   D(8,2,5,21)          -176.9318         estimate D2E/DX2                !
 ! D21   D(8,2,5,22)            64.8473         estimate D2E/DX2                !
 ! D22   D(16,2,5,4)          -173.9657         estimate D2E/DX2                !
 ! D23   D(16,2,5,21)           64.5825         estimate D2E/DX2                !
 ! D24   D(16,2,5,22)          -53.6383         estimate D2E/DX2                !
 ! D25   D(17,2,5,4)            65.8505         estimate D2E/DX2                !
 ! D26   D(17,2,5,21)          -55.6014         estimate D2E/DX2                !
 ! D27   D(17,2,5,22)         -173.8222         estimate D2E/DX2                !
 ! D28   D(5,2,8,12)            59.323          estimate D2E/DX2                !
 ! D29   D(16,2,8,12)         -179.6349         estimate D2E/DX2                !
 ! D30   D(17,2,8,12)          -62.9107         estimate D2E/DX2                !
 ! D31   D(10,3,7,9)           -52.0051         estimate D2E/DX2                !
 ! D32   D(10,3,7,23)         -174.3999         estimate D2E/DX2                !
 ! D33   D(10,3,7,24)           68.3943         estimate D2E/DX2                !
 ! D34   D(18,3,7,9)            67.5821         estimate D2E/DX2                !
 ! D35   D(18,3,7,23)          -54.8127         estimate D2E/DX2                !
 ! D36   D(18,3,7,24)         -172.0185         estimate D2E/DX2                !
 ! D37   D(19,3,7,9)          -172.8664         estimate D2E/DX2                !
 ! D38   D(19,3,7,23)           64.7387         estimate D2E/DX2                !
 ! D39   D(19,3,7,24)          -52.467          estimate D2E/DX2                !
 ! D40   D(7,3,10,6)            55.9696         estimate D2E/DX2                !
 ! D41   D(7,3,10,13)          174.3121         estimate D2E/DX2                !
 ! D42   D(7,3,10,27)          -63.7875         estimate D2E/DX2                !
 ! D43   D(18,3,10,6)          -64.7807         estimate D2E/DX2                !
 ! D44   D(18,3,10,13)          53.5619         estimate D2E/DX2                !
 ! D45   D(18,3,10,27)         175.4622         estimate D2E/DX2                !
 ! D46   D(19,3,10,6)          177.9583         estimate D2E/DX2                !
 ! D47   D(19,3,10,13)         -63.6992         estimate D2E/DX2                !
 ! D48   D(19,3,10,27)          58.2011         estimate D2E/DX2                !
 ! D49   D(1,4,5,2)             53.4855         estimate D2E/DX2                !
 ! D50   D(1,4,5,21)           174.4296         estimate D2E/DX2                !
 ! D51   D(1,4,5,22)           -67.0721         estimate D2E/DX2                !
 ! D52   D(13,4,5,2)          -179.658          estimate D2E/DX2                !
 ! D53   D(13,4,5,21)          -58.714          estimate D2E/DX2                !
 ! D54   D(13,4,5,22)           59.7844         estimate D2E/DX2                !
 ! D55   D(20,4,5,2)           -64.3493         estimate D2E/DX2                !
 ! D56   D(20,4,5,21)           56.5947         estimate D2E/DX2                !
 ! D57   D(20,4,5,22)          175.0931         estimate D2E/DX2                !
 ! D58   D(1,4,13,10)          -24.6168         Frozen                          !
 ! D59   D(5,4,13,10)         -147.8391         estimate D2E/DX2                !
 ! D60   D(20,4,13,10)          95.5567         estimate D2E/DX2                !
 ! D61   D(11,6,10,3)          -61.4766         estimate D2E/DX2                !
 ! D62   D(11,6,10,13)         179.6699         estimate D2E/DX2                !
 ! D63   D(11,6,10,27)          59.4174         estimate D2E/DX2                !
 ! D64   D(10,6,11,9)           61.0521         estimate D2E/DX2                !
 ! D65   D(10,6,11,28)         -60.9838         estimate D2E/DX2                !
 ! D66   D(10,6,11,29)        -177.4261         estimate D2E/DX2                !
 ! D67   D(3,7,9,11)            51.4297         estimate D2E/DX2                !
 ! D68   D(3,7,9,25)           -68.7725         estimate D2E/DX2                !
 ! D69   D(3,7,9,26)           172.4826         estimate D2E/DX2                !
 ! D70   D(23,7,9,11)          173.4336         estimate D2E/DX2                !
 ! D71   D(23,7,9,25)           53.2314         estimate D2E/DX2                !
 ! D72   D(23,7,9,26)          -65.5136         estimate D2E/DX2                !
 ! D73   D(24,7,9,11)          -68.9917         estimate D2E/DX2                !
 ! D74   D(24,7,9,25)          170.8061         estimate D2E/DX2                !
 ! D75   D(24,7,9,26)           52.0611         estimate D2E/DX2                !
 ! D76   D(2,8,12,1)           -60.5744         estimate D2E/DX2                !
 ! D77   D(2,8,12,30)           61.9203         estimate D2E/DX2                !
 ! D78   D(2,8,12,31)          178.6476         estimate D2E/DX2                !
 ! D79   D(7,9,11,6)           -54.8888         estimate D2E/DX2                !
 ! D80   D(7,9,11,28)           66.2206         estimate D2E/DX2                !
 ! D81   D(7,9,11,29)         -173.0536         estimate D2E/DX2                !
 ! D82   D(25,9,11,6)           65.8397         estimate D2E/DX2                !
 ! D83   D(25,9,11,28)        -173.051          estimate D2E/DX2                !
 ! D84   D(25,9,11,29)         -52.3251         estimate D2E/DX2                !
 ! D85   D(26,9,11,6)         -176.9321         estimate D2E/DX2                !
 ! D86   D(26,9,11,28)         -55.8227         estimate D2E/DX2                !
 ! D87   D(26,9,11,29)          64.9031         estimate D2E/DX2                !
 ! D88   D(3,10,13,4)          168.2672         estimate D2E/DX2                !
 ! D89   D(6,10,13,4)          -71.7827         estimate D2E/DX2                !
 ! D90   D(27,10,13,4)          46.808          estimate D2E/DX2                !
 --------------------------------------------------------------------------------
 Trust Radius=3.00D-01 FncErr=1.00D-07 GrdErr=1.00D-06 EigMax=2.50D+02 EigMin=1.00D-04
 Number of steps in this run=    186 maximum allowed number of steps=    186.
 GradGradGradGradGradGradGradGradGradGradGradGradGradGradGradGradGradGrad

                          Input orientation:                          
 ---------------------------------------------------------------------
 Center     Atomic      Atomic             Coordinates (Angstroms)
 Number     Number       Type             X           Y           Z
 ---------------------------------------------------------------------
      1          6           0        1.429765    0.900070   -0.509882
      2          6           0        3.685803   -0.655975    0.357002
      3          6           0       -2.235952   -1.331243   -0.376879
      4          6           0        1.221776   -0.257888    0.462368
      5          6           0        2.310943   -1.301979    0.264530
      6          8           0       -1.581189    0.658318    0.807579
      7          6           0       -3.536459   -0.647902   -0.808028
      8          8           0        3.810359    0.411344   -0.561968
      9          6           0       -3.909592    0.458507    0.179747
     10          6           0       -1.153187   -0.295446   -0.138814
     11          6           0       -2.726312    1.387860    0.397191
     12          6           0        2.851700    1.428532   -0.355095
     13          8           0       -0.033061   -0.930404    0.371775
     14          1           0        1.287596    0.565837   -1.533641
     15          1           0        0.736529    1.711168   -0.319056
     16          1           0        4.463596   -1.366203    0.114156
     17          1           0        3.866878   -0.282523    1.362287
     18          1           0       -2.389121   -1.884363    0.545994
     19          1           0       -1.896237   -2.030790   -1.133801
     20          1           0        1.294975    0.138142    1.471128
     21          1           0        2.226781   -2.080080    1.017125
     22          1           0        2.190202   -1.764649   -0.711217
     23          1           0       -4.333880   -1.380423   -0.881690
     24          1           0       -3.407718   -0.218280   -1.799426
     25          1           0       -4.198270    0.022368    1.133041
     26          1           0       -4.754945    1.034897   -0.185258
     27          1           0       -0.919142    0.221077   -1.061591
     28          1           0       -2.492937    1.931612   -0.515570
     29          1           0       -2.920714    2.107568    1.180004
     30          1           0        2.994301    1.856894    0.634328
     31          1           0        3.052342    2.196456   -1.088725
 ---------------------------------------------------------------------
                    Distance matrix (angstroms):
                    1          2          3          4          5
     1  C    0.000000
     2  C    2.874451   0.000000
     3  C    4.293475   6.005144   0.000000
     4  C    1.526236   2.498200   3.716492   0.000000
     5  C    2.495037   1.521878   4.592006   1.521693   0.000000
     6  O    3.295450   5.447164   2.406244   2.969043   4.391624
     7  C    5.210421   7.315629   1.531066   4.940326   5.980828
     8  O    2.430801   1.413927   6.295137   2.863197   2.422153
     9  C    5.401787   7.678770   2.512789   5.188837   6.465412
    10  C    2.870295   4.877667   1.517211   2.450159   3.629875
    11  C    4.281787   6.730089   2.869348   4.277866   5.711985
    12  C    1.524838   2.355415   5.788008   2.483729   2.851674
    13  O    2.503560   3.729005   2.360907   1.426570   2.375694
    14  H    1.086281   3.289187   4.165621   2.160303   2.787363
    15  H    1.083915   3.841697   4.253851   2.173308   3.449407
    16  H    3.837909   1.080907   6.717610   3.443691   2.158854
    17  H    3.292881   1.087590   6.431877   2.794106   2.159929
    18  H    4.842709   6.200755   1.086783   3.961186   4.744365
    19  H    4.476774   5.939005   1.085220   3.925932   4.492979
    20  H    2.126759   2.754625   4.247548   1.086183   2.135888
    21  H    3.442133   2.143031   4.734975   2.153642   1.085783
    22  H    2.778404   2.146409   4.459872   2.141373   1.086611
    23  H    6.209549   8.147055   2.158369   5.825109   6.743415
    24  H    5.129802   7.426964   2.152989   5.152620   6.175549
    25  H    5.928266   7.951163   2.821846   5.468569   6.699109
    26  H    6.194691   8.625504   3.461309   6.149139   7.455875
    27  H    2.506547   4.897667   2.147677   2.671215   3.809429
    28  H    4.056070   6.755281   3.275897   4.421466   5.843110
    29  H    4.820833   7.208368   3.836431   4.823962   6.311366
    30  H    2.161597   2.620991   6.208245   2.764727   3.253030
    31  H    2.156022   3.260025   6.396674   3.432297   3.823613
                    6          7          8          9         10
     6  O    0.000000
     7  C    2.852977   0.000000
     8  O    5.568253   7.426862   0.000000
     9  C    2.419826   1.529401   7.755644   0.000000
    10  C    1.410146   2.500412   5.031441   2.875360   0.000000
    11  C    1.418435   2.500644   6.678446   1.520240   2.365490
    12  C    4.647101   6.732407   1.412974   6.851429   4.365547
    13  O    2.260678   3.707498   4.176606   4.122310   1.385119
    14  H    3.704024   5.027045   2.707831   5.473388   2.940199
    15  H    2.783813   4.905378   3.346189   4.837810   2.762248
    16  H    6.412406   8.085002   2.010854   8.569956   5.723527
    17  H    5.556466   7.723546   2.046315   7.900697   5.239706
    18  H    2.680748   2.163006   6.703089   2.816915   2.126300
    19  H    3.331593   2.169985   6.233478   3.460579   2.133903
    20  H    2.997199   5.399553   3.245809   5.371947   2.961994
    21  H    4.695037   6.212669   3.347902   6.693332   3.993156
    22  H    4.732959   5.835336   2.717007   6.553146   3.696546
    23  H    3.819346   1.085308   8.345135   2.165256   3.441780
    24  H    3.301682   1.088127   7.350399   2.151056   2.801160
    25  H    2.712834   2.157546   8.195273   1.087346   3.315291
    26  H    3.346680   2.168954   8.596229   1.086313   3.839874
    27  H    2.030587   2.769434   4.759622   3.246550   1.083093
    28  H    2.050192   2.797921   6.484205   2.158800   2.626150
    29  H    2.008321   3.453119   7.156744   2.167440   3.261581
    30  H    4.733044   7.141794   2.046140   7.058744   4.736240
    31  H    5.237504   7.182024   2.009649   7.286838   4.979797
                   11         12         13         14         15
    11  C    0.000000
    12  C    5.628659   0.000000
    13  O    3.553673   3.796678   0.000000
    14  H    4.529381   2.140008   2.759254   0.000000
    15  H    3.550888   2.134275   2.836797   1.758031   0.000000
    16  H    7.704528   3.260207   4.525065   4.066324   4.852722
    17  H    6.869625   2.628250   4.075584   3.969737   4.074408
    18  H    3.292914   6.265257   2.547824   4.883299   4.842091
    19  H    3.836682   5.925892   2.636102   4.127849   4.647313
    20  H    4.345789   2.724626   2.028311   3.035064   2.447658
    21  H    6.078162   3.818883   2.616318   3.793330   4.287166
    22  H    5.944661   3.280367   2.609930   2.631016   3.787910
    23  H    3.447202   7.733052   4.502303   5.984477   5.965194
    24  H    2.805196   6.631621   4.075481   4.767752   4.805106
    25  H    2.138388   7.341248   4.340077   6.123829   5.414136
    26  H    2.139902   7.618717   5.144792   6.208901   5.534576
    27  H    2.599094   4.021981   2.040977   2.282845   2.347973
    28  H    1.087779   5.370660   3.876791   4.146594   3.242941
    29  H    1.081003   6.011521   4.268612   5.239339   3.972372
    30  H    5.744705   1.087560   4.123455   3.046270   2.455140
    31  H    6.021181   1.080823   4.629258   2.443603   2.488149
                   16         17         18         19         20
    16  H    0.000000
    17  H    1.757346   0.000000
    18  H    6.885834   6.509205   0.000000
    19  H    6.515102   6.519232   1.756726   0.000000
    20  H    3.760929   2.608350   4.303366   4.655508   0.000000
    21  H    2.515614   2.457695   4.644009   4.650612   2.448446
    22  H    2.451187   3.050796   4.750275   4.116842   3.030623
    23  H    8.853671   8.572820   2.464615   2.535476   6.286955
    24  H    8.181510   7.932232   3.051945   2.452106   5.739241
    25  H    8.831431   8.074164   2.693189   3.827974   5.504857
    26  H    9.530815   8.858122   3.828045   4.297718   6.336349
    27  H    5.733734   5.388394   3.029529   2.455776   3.365094
    28  H    7.724344   6.991136   3.962242   4.054490   4.638079
    29  H    8.229894   7.198414   4.076772   4.850696   4.662127
    30  H    3.580190   2.422482   6.556374   6.492898   2.557743
    31  H    4.016354   3.579981   6.995349   6.508462   3.725298
                   21         22         23         24         25
    21  H    0.000000
    22  H    1.757271   0.000000
    23  H    6.865660   6.537609   0.000000
    24  H    6.568625   5.908652   1.746594   0.000000
    25  H    6.761287   6.885295   2.458730   3.046678   0.000000
    26  H    7.739076   7.506608   2.548742   2.447654   1.753002
    27  H    4.417377   3.705926   3.775924   2.632574   3.950769
    28  H    6.381110   5.969289   3.806927   2.665923   3.044880
    29  H    6.637743   6.685226   4.291119   3.811003   2.445897
    30  H    4.029316   3.946218   8.153574   7.156490   7.439575
    31  H    4.837863   4.071382   8.209336   6.933139   7.888870
                   26         27         28         29         30
    26  H    0.000000
    27  H    4.017916   0.000000
    28  H    2.455582   2.387656   0.000000
    29  H    2.525662   3.548223   1.757534   0.000000
    30  H    7.835701   4.568049   5.606927   5.945419   0.000000
    31  H    7.944759   4.435712   5.581108   6.390026   1.757152
                   31
    31  H    0.000000
 Stoichiometry    C10H18O3
 Framework group  C1[X(C10H18O3)]
 Deg. of freedom    87
 Full point group                 C1      NOp   1
 Largest Abelian subgroup         C1      NOp   1
 Largest concise Abelian subgroup C1      NOp   1
                         Standard orientation:                         
 ---------------------------------------------------------------------
 Center     Atomic      Atomic             Coordinates (Angstroms)
 Number     Number       Type             X           Y           Z
 ---------------------------------------------------------------------
      1          6           0       -1.429765    0.900070    0.509882
      2          6           0       -3.685803   -0.655975   -0.357002
      3          6           0        2.235952   -1.331243    0.376879
      4          6           0       -1.221776   -0.257888   -0.462368
      5          6           0       -2.310943   -1.301979   -0.264530
      6          8           0        1.581189    0.658318   -0.807579
      7          6           0        3.536459   -0.647902    0.808028
      8          8           0       -3.810359    0.411344    0.561968
      9          6           0        3.909592    0.458507   -0.179747
     10          6           0        1.153187   -0.295446    0.138814
     11          6           0        2.726312    1.387860   -0.397191
     12          6           0       -2.851700    1.428532    0.355095
     13          8           0        0.033061   -0.930404   -0.371775
     14          1           0       -1.287596    0.565837    1.533641
     15          1           0       -0.736529    1.711168    0.319056
     16          1           0       -4.463596   -1.366203   -0.114156
     17          1           0       -3.866878   -0.282523   -1.362287
     18          1           0        2.389121   -1.884363   -0.545994
     19          1           0        1.896237   -2.030790    1.133801
     20          1           0       -1.294975    0.138142   -1.471128
     21          1           0       -2.226781   -2.080080   -1.017125
     22          1           0       -2.190202   -1.764649    0.711217
     23          1           0        4.333880   -1.380423    0.881690
     24          1           0        3.407718   -0.218280    1.799426
     25          1           0        4.198270    0.022368   -1.133041
     26          1           0        4.754945    1.034897    0.185258
     27          1           0        0.919142    0.221077    1.061591
     28          1           0        2.492937    1.931612    0.515570
     29          1           0        2.920714    2.107568   -1.180004
     30          1           0       -2.994301    1.856894   -0.634328
     31          1           0       -3.052342    2.196456    1.088725
 ---------------------------------------------------------------------
 Rotational constants (GHZ):           2.1431227           0.3715401           0.3417752
 Standard basis: 6-311++G(2d,2p) (5D, 7F)
 There are   557 symmetry adapted cartesian basis functions of A   symmetry.
 There are   531 symmetry adapted basis functions of A   symmetry.
   531 basis functions,   762 primitive gaussians,   557 cartesian basis functions
    51 alpha electrons       51 beta electrons
       nuclear repulsion energy       881.9243159211 Hartrees.
 NAtoms=   31 NActive=   31 NUniq=   31 SFac= 1.00D+00 NAtFMM=   60 NAOKFM=F Big=F
 Integral buffers will be    131072 words long.
 Raffenetti 2 integral format.
 Two-electron integral symmetry is turned on.
 ------------------------------------------------------------------------------
 Polarizable Continuum Model (PCM)
 =================================
 Model                : PCM.
 Atomic radii         : SMD-Coulomb.
 Polarization charges : Total charges.
 Charge compensation  : None.
 Solution method      : On-the-fly selection.
 Cavity type          : VdW (van der Waals Surface) (Alpha=1.000).
 Cavity algorithm     : GePol (No added spheres)
                        Default sphere list used, NSphG=   31.
                        Lebedev-Laikov grids with approx.  5.0 points / Ang**2.
                        Smoothing algorithm: York/Karplus (Gamma=1.0000).
                        Polarization charges: spherical gaussians, with
                                              point-specific exponents (IZeta= 3).
                        Self-potential: point-specific (ISelfS= 7).
                        Self-field    : sphere-specific E.n sum rule (ISelfD= 2).
 1st derivatives      : Analytical E(r).r(x)/FMM algorithm (CHGder, D1EAlg=3).
                        Cavity 1st derivative terms included.
 Solvent              : Water, Eps=  78.355300 Eps(inf)=   1.777849
 ------------------------------------------------------------------------------
 ------------------------------------------------------------------------------
 Atomic radii for non-electrostatic terms: SMD-CDS.
 ------------------------------------------------------------------------------
 Nuclear repulsion after PCM non-electrostatic terms =      881.9307222840 Hartrees.
 One-electron integrals computed using PRISM.
 NBasis=   531 RedAO= T EigKep=  4.26D-06  NBF=   531
 NBsUse=   531 1.00D-06 EigRej= -1.00D+00 NBFU=   531
 ExpMin= 3.60D-02 ExpMax= 8.59D+03 ExpMxC= 1.30D+03 IAcc=3 IRadAn=         5 AccDes= 0.00D+00
 Harris functional with IExCor= 1009 and IRadAn=       5 diagonalized for initial guess.
 HarFok:  IExCor= 1009 AccDes= 0.00D+00 IRadAn=         5 IDoV= 1 UseB2=F ITyADJ=14
 ICtDFT=  3500011 ScaDFX=  1.000000  1.000000  1.000000  1.000000
 FoFCou: FMM=F IPFlag=           0 FMFlag=      100000 FMFlg1=           0
         NFxFlg=           0 DoJE=T BraDBF=F KetDBF=T FulRan=T
         wScrn=  0.000000 ICntrl=       500 IOpCl=  0 I1Cent=   200000004 NGrid=           0
         NMat0=    1 NMatS0=      1 NMatT0=    0 NMatD0=    1 NMtDS0=    0 NMtDT0=    0
 Petite list used in FoFCou.
 Requested convergence on RMS density matrix=1.00D-08 within 128 cycles.
 Requested convergence on MAX density matrix=1.00D-06.
 Requested convergence on             energy=1.00D-06.
 No special actions if energy rises.
 Inv3:  Mode=1 IEnd=    12036027.
 Iteration    1 A*A^-1 deviation from unit magnitude is 7.33D-15 for    175.
 Iteration    1 A*A^-1 deviation from orthogonality  is 2.85D-15 for   1846    992.
 Iteration    1 A^-1*A deviation from unit magnitude is 7.88D-15 for    176.
 Iteration    1 A^-1*A deviation from orthogonality  is 1.07D-13 for   1484   1455.
 Error on total polarization charges =  0.06293
 SCF Done:  E(RM062X) =  -617.505267452     A.U. after   12 cycles
            NFock= 12  Conv=0.55D-08     -V/T= 2.0035
 SMD-CDS (non-electrostatic) energy       (kcal/mol) =       4.02
 (included in total energy above)

 **********************************************************************

            Population analysis using the SCF Density.

 **********************************************************************

 Orbital symmetries:
       Occupied  (A) (A) (A) (A) (A) (A) (A) (A) (A) (A) (A) (A)
                 (A) (A) (A) (A) (A) (A) (A) (A) (A) (A) (A) (A)
                 (A) (A) (A) (A) (A) (A) (A) (A) (A) (A) (A) (A)
                 (A) (A) (A) (A) (A) (A) (A) (A) (A) (A) (A) (A)
                 (A) (A) (A)
       Virtual   (A) (A) (A) (A) (A) (A) (A) (A) (A) (A) (A) (A)
                 (A) (A) (A) (A) (A) (A) (A) (A) (A) (A) (A) (A)
                 (A) (A) (A) (A) (A) (A) (A) (A) (A) (A) (A) (A)
                 (A) (A) (A) (A) (A) (A) (A) (A) (A) (A) (A) (A)
                 (A) (A) (A) (A) (A) (A) (A) (A) (A) (A) (A) (A)
                 (A) (A) (A) (A) (A) (A) (A) (A) (A) (A) (A) (A)
                 (A) (A) (A) (A) (A) (A) (A) (A) (A) (A) (A) (A)
                 (A) (A) (A) (A) (A) (A) (A) (A) (A) (A) (A) (A)
                 (A) (A) (A) (A) (A) (A) (A) (A) (A) (A) (A) (A)
                 (A) (A) (A) (A) (A) (A) (A) (A) (A) (A) (A) (A)
                 (A) (A) (A) (A) (A) (A) (A) (A) (A) (A) (A) (A)
                 (A) (A) (A) (A) (A) (A) (A) (A) (A) (A) (A) (A)
                 (A) (A) (A) (A) (A) (A) (A) (A) (A) (A) (A) (A)
                 (A) (A) (A) (A) (A) (A) (A) (A) (A) (A) (A) (A)
                 (A) (A) (A) (A) (A) (A) (A) (A) (A) (A) (A) (A)
                 (A) (A) (A) (A) (A) (A) (A) (A) (A) (A) (A) (A)
                 (A) (A) (A) (A) (A) (A) (A) (A) (A) (A) (A) (A)
                 (A) (A) (A) (A) (A) (A) (A) (A) (A) (A) (A) (A)
                 (A) (A) (A) (A) (A) (A) (A) (A) (A) (A) (A) (A)
                 (A) (A) (A) (A) (A) (A) (A) (A) (A) (A) (A) (A)
                 (A) (A) (A) (A) (A) (A) (A) (A) (A) (A) (A) (A)
                 (A) (A) (A) (A) (A) (A) (A) (A) (A) (A) (A) (A)
                 (A) (A) (A) (A) (A) (A) (A) (A) (A) (A) (A) (A)
                 (A) (A) (A) (A) (A) (A) (A) (A) (A) (A) (A) (A)
                 (A) (A) (A) (A) (A) (A) (A) (A) (A) (A) (A) (A)
                 (A) (A) (A) (A) (A) (A) (A) (A) (A) (A) (A) (A)
                 (A) (A) (A) (A) (A) (A) (A) (A) (A) (A) (A) (A)
                 (A) (A) (A) (A) (A) (A) (A) (A) (A) (A) (A) (A)
                 (A) (A) (A) (A) (A) (A) (A) (A) (A) (A) (A) (A)
                 (A) (A) (A) (A) (A) (A) (A) (A) (A) (A) (A) (A)
                 (A) (A) (A) (A) (A) (A) (A) (A) (A) (A) (A) (A)
                 (A) (A) (A) (A) (A) (A) (A) (A) (A) (A) (A) (A)
                 (A) (A) (A) (A) (A) (A) (A) (A) (A) (A) (A) (A)
                 (A) (A) (A) (A) (A) (A) (A) (A) (A) (A) (A) (A)
                 (A) (A) (A) (A) (A) (A) (A) (A) (A) (A) (A) (A)
                 (A) (A) (A) (A) (A) (A) (A) (A) (A) (A) (A) (A)
                 (A) (A) (A) (A) (A) (A) (A) (A) (A) (A) (A) (A)
                 (A) (A) (A) (A) (A) (A) (A) (A) (A) (A) (A) (A)
                 (A) (A) (A) (A) (A) (A) (A) (A) (A) (A) (A) (A)
                 (A) (A) (A) (A) (A) (A) (A) (A) (A) (A) (A) (A)
 The electronic state is 1-A.
 Alpha  occ. eigenvalues --  -19.63280 -19.62792 -19.62724 -10.63002 -10.58564
 Alpha  occ. eigenvalues --  -10.57549 -10.57439 -10.57290 -10.52578 -10.52424
 Alpha  occ. eigenvalues --  -10.52369 -10.52252 -10.52101  -1.20232  -1.16637
 Alpha  occ. eigenvalues --   -1.13861  -0.90779  -0.89324  -0.86491  -0.84751
 Alpha  occ. eigenvalues --   -0.75381  -0.73496  -0.72442  -0.69743  -0.65620
 Alpha  occ. eigenvalues --   -0.64704  -0.60215  -0.57490  -0.56871  -0.54616
 Alpha  occ. eigenvalues --   -0.54327  -0.52933  -0.52315  -0.51127  -0.50369
 Alpha  occ. eigenvalues --   -0.49870  -0.46712  -0.45527  -0.44425  -0.43746
 Alpha  occ. eigenvalues --   -0.43278  -0.41476  -0.40848  -0.40046  -0.39125
 Alpha  occ. eigenvalues --   -0.37995  -0.37058  -0.36730  -0.34471  -0.33008
 Alpha  occ. eigenvalues --   -0.32257
 Alpha virt. eigenvalues --    0.00464   0.01295   0.01367   0.01496   0.02680
 Alpha virt. eigenvalues --    0.02865   0.03007   0.03995   0.04101   0.04768
 Alpha virt. eigenvalues --    0.05093   0.05494   0.05750   0.06003   0.07266
 Alpha virt. eigenvalues --    0.07468   0.08275   0.08749   0.09242   0.09849
 Alpha virt. eigenvalues --    0.10363   0.10980   0.11229   0.11895   0.12368
 Alpha virt. eigenvalues --    0.12712   0.13135   0.13372   0.13718   0.13971
 Alpha virt. eigenvalues --    0.14062   0.14758   0.14844   0.15148   0.15444
 Alpha virt. eigenvalues --    0.15713   0.16171   0.16498   0.16966   0.17174
 Alpha virt. eigenvalues --    0.17271   0.17490   0.17528   0.17852   0.17988
 Alpha virt. eigenvalues --    0.18526   0.18764   0.18899   0.19780   0.19975
 Alpha virt. eigenvalues --    0.20171   0.20605   0.20726   0.21311   0.21778
 Alpha virt. eigenvalues --    0.22697   0.22981   0.23149   0.24593   0.25285
 Alpha virt. eigenvalues --    0.25506   0.26006   0.26773   0.26900   0.27460
 Alpha virt. eigenvalues --    0.28163   0.28450   0.29080   0.29463   0.30216
 Alpha virt. eigenvalues --    0.30349   0.30700   0.31256   0.32381   0.32504
 Alpha virt. eigenvalues --    0.33050   0.33653   0.33792   0.34276   0.34614
 Alpha virt. eigenvalues --    0.34815   0.35397   0.36086   0.36250   0.36518
 Alpha virt. eigenvalues --    0.37125   0.37252   0.37771   0.38113   0.38657
 Alpha virt. eigenvalues --    0.39468   0.39521   0.40136   0.40511   0.41067
 Alpha virt. eigenvalues --    0.41761   0.42122   0.43262   0.43672   0.44518
 Alpha virt. eigenvalues --    0.46093   0.47328   0.49366   0.50467   0.51431
 Alpha virt. eigenvalues --    0.52080   0.53098   0.53995   0.55257   0.56048
 Alpha virt. eigenvalues --    0.57082   0.57544   0.57820   0.58787   0.59384
 Alpha virt. eigenvalues --    0.60147   0.60844   0.61479   0.61569   0.62510
 Alpha virt. eigenvalues --    0.62855   0.63009   0.63530   0.63761   0.64780
 Alpha virt. eigenvalues --    0.64865   0.66388   0.67054   0.67420   0.67720
 Alpha virt. eigenvalues --    0.68229   0.69277   0.69376   0.69855   0.70641
 Alpha virt. eigenvalues --    0.71695   0.71925   0.73370   0.73618   0.73830
 Alpha virt. eigenvalues --    0.74469   0.74616   0.75473   0.75498   0.76602
 Alpha virt. eigenvalues --    0.76928   0.77770   0.78100   0.78380   0.79955
 Alpha virt. eigenvalues --    0.80869   0.83417   0.83847   0.84546   0.85301
 Alpha virt. eigenvalues --    0.86446   0.87627   0.88311   0.89639   0.90635
 Alpha virt. eigenvalues --    0.91701   0.91820   0.92756   0.94666   0.95409
 Alpha virt. eigenvalues --    0.97051   0.98923   1.00550   1.01297   1.03605
 Alpha virt. eigenvalues --    1.03818   1.05076   1.05968   1.06823   1.07107
 Alpha virt. eigenvalues --    1.08079   1.08306   1.09310   1.09518   1.10295
 Alpha virt. eigenvalues --    1.13432   1.13903   1.14190   1.15565   1.17024
 Alpha virt. eigenvalues --    1.17889   1.18784   1.19291   1.19690   1.20277
 Alpha virt. eigenvalues --    1.21257   1.21843   1.22290   1.22923   1.23313
 Alpha virt. eigenvalues --    1.24722   1.25252   1.26143   1.26986   1.27762
 Alpha virt. eigenvalues --    1.28247   1.29151   1.29681   1.30176   1.31090
 Alpha virt. eigenvalues --    1.31950   1.32277   1.33009   1.33523   1.33999
 Alpha virt. eigenvalues --    1.34934   1.35396   1.36554   1.37059   1.37886
 Alpha virt. eigenvalues --    1.38349   1.39883   1.40955   1.41351   1.41780
 Alpha virt. eigenvalues --    1.42967   1.43662   1.44590   1.45060   1.45614
 Alpha virt. eigenvalues --    1.46534   1.47209   1.47534   1.48778   1.49034
 Alpha virt. eigenvalues --    1.49985   1.50601   1.50782   1.51719   1.52707
 Alpha virt. eigenvalues --    1.53205   1.54227   1.54792   1.55740   1.56386
 Alpha virt. eigenvalues --    1.56989   1.57337   1.58268   1.58484   1.59574
 Alpha virt. eigenvalues --    1.60560   1.61167   1.61698   1.63016   1.63861
 Alpha virt. eigenvalues --    1.64002   1.65401   1.65811   1.66245   1.67137
 Alpha virt. eigenvalues --    1.67988   1.68615   1.69761   1.70629   1.72050
 Alpha virt. eigenvalues --    1.73364   1.74484   1.75803   1.78226   1.78852
 Alpha virt. eigenvalues --    1.80483   1.81069   1.81228   1.82686   1.83418
 Alpha virt. eigenvalues --    1.84008   1.88662   1.90824   1.92527   1.97330
 Alpha virt. eigenvalues --    2.05208   2.09968   2.13325   2.17368   2.22269
 Alpha virt. eigenvalues --    2.23572   2.28978   2.30748   2.32556   2.34625
 Alpha virt. eigenvalues --    2.41298   2.42403   2.45141   2.48774   2.53151
 Alpha virt. eigenvalues --    2.59792   2.76223   2.78248   2.78772   2.79681
 Alpha virt. eigenvalues --    2.86951   2.89425   2.92944   2.94081   2.96285
 Alpha virt. eigenvalues --    2.97083   2.98909   3.01430   3.03967   3.06178
 Alpha virt. eigenvalues --    3.07658   3.08653   3.10298   3.11243   3.11946
 Alpha virt. eigenvalues --    3.13073   3.14408   3.17374   3.18756   3.21501
 Alpha virt. eigenvalues --    3.26686   3.27567   3.32544   3.33707   3.34743
 Alpha virt. eigenvalues --    3.36472   3.38187   3.39150   3.40488   3.41889
 Alpha virt. eigenvalues --    3.42999   3.43878   3.44996   3.46542   3.47836
 Alpha virt. eigenvalues --    3.48268   3.49274   3.50913   3.52319   3.52899
 Alpha virt. eigenvalues --    3.53927   3.54269   3.55841   3.56277   3.56782
 Alpha virt. eigenvalues --    3.57575   3.58008   3.58980   3.59595   3.60212
 Alpha virt. eigenvalues --    3.60932   3.61608   3.63758   3.65069   3.65424
 Alpha virt. eigenvalues --    3.65866   3.67857   3.68036   3.68885   3.71242
 Alpha virt. eigenvalues --    3.71436   3.72548   3.72757   3.72919   3.73940
 Alpha virt. eigenvalues --    3.75003   3.76257   3.76710   3.78139   3.78360
 Alpha virt. eigenvalues --    3.78629   3.79659   3.81253   3.81505   3.83107
 Alpha virt. eigenvalues --    3.86867   3.87887   3.90325   3.90879   3.91556
 Alpha virt. eigenvalues --    3.93311   3.93945   3.94341   3.95061   3.98160
 Alpha virt. eigenvalues --    3.99679   4.02940   4.03484   4.04258   4.05014
 Alpha virt. eigenvalues --    4.06157   4.06320   4.06601   4.07380   4.08147
 Alpha virt. eigenvalues --    4.09199   4.10420   4.10657   4.12112   4.12600
 Alpha virt. eigenvalues --    4.13338   4.13794   4.14301   4.14647   4.16424
 Alpha virt. eigenvalues --    4.17817   4.18080   4.18742   4.19709   4.21776
 Alpha virt. eigenvalues --    4.23289   4.23627   4.25382   4.26317   4.27256
 Alpha virt. eigenvalues --    4.29215   4.30829   4.31731   4.32274   4.33218
 Alpha virt. eigenvalues --    4.33852   4.35379   4.36260   4.38776   4.39472
 Alpha virt. eigenvalues --    4.43311   4.44960   4.48593   4.49151   4.59546
 Alpha virt. eigenvalues --    4.60360   4.62684   4.74100   4.77351   4.88926
 Alpha virt. eigenvalues --    4.90786   4.91664   4.93621   4.99553   5.01239
 Alpha virt. eigenvalues --    5.06819   5.08286   5.08510   5.10313   5.11863
 Alpha virt. eigenvalues --    5.12866   5.13371   5.14654   5.30016   5.33587
 Alpha virt. eigenvalues --    5.38049   5.56702   5.59332   5.65005   5.86881
 Alpha virt. eigenvalues --    5.88542   6.03655   7.03122   7.05594   7.06374
 Alpha virt. eigenvalues --    7.09083   7.10425   7.12286   7.14594   7.17267
 Alpha virt. eigenvalues --    7.22913   7.36341   7.43035   7.44396   7.52569
 Alpha virt. eigenvalues --    7.55239   7.62012  23.95556  23.97166  24.05550
 Alpha virt. eigenvalues --   24.09604  24.12362  24.13166  24.14278  24.17013
 Alpha virt. eigenvalues --   24.18194  24.18630  50.16217  50.20143  50.23763
          Condensed to atoms (all electrons):
               1          2          3          4          5          6
     1  C    6.539819   0.137490  -0.400343  -0.388587  -0.165909  -0.102419
     2  C    0.137490   5.600926   0.025915   0.150723  -0.199578  -0.001922
     3  C   -0.400343   0.025915   8.248945  -0.001844  -0.071782  -0.020103
     4  C   -0.388587   0.150723  -0.001844   7.031727  -0.695580  -0.007290
     5  C   -0.165909  -0.199578  -0.071782  -0.695580   6.486454   0.014148
     6  O   -0.102419  -0.001922  -0.020103  -0.007290   0.014148   8.370508
     7  C   -0.012255  -0.003506  -0.123638  -0.002203  -0.000695   0.023264
     8  O   -0.060079   0.087908   0.001500  -0.002496  -0.009355  -0.000094
     9  C   -0.043703  -0.001574   0.325854  -0.030020  -0.011562  -0.042717
    10  C    0.219327  -0.048876  -1.647579  -0.423382   0.060174   0.334703
    11  C    0.081004   0.002078  -0.293653  -0.019065   0.030889   0.004073
    12  C   -0.493509  -0.314235  -0.145978  -0.160530   0.364649  -0.033173
    13  O    0.020026   0.032856  -0.231753   0.143521  -0.177259   0.010965
    14  H    0.437838   0.021995   0.006231   0.046677  -0.034414   0.001990
    15  H    0.419098  -0.007442   0.007731  -0.049635  -0.016812   0.006020
    16  H    0.000522   0.427176   0.000022   0.002309  -0.028904   0.000082
    17  H   -0.000133   0.469217   0.001787   0.030297  -0.080071  -0.000038
    18  H    0.003676  -0.000734   0.470217   0.013365   0.000453  -0.010777
    19  H    0.009498  -0.000337   0.390546  -0.011804   0.004733   0.006360
    20  H   -0.010440   0.005698   0.004498   0.453179  -0.064399  -0.009134
    21  H   -0.008263  -0.032677  -0.002000  -0.044844   0.459636   0.000025
    22  H   -0.033015  -0.075079  -0.000107   0.041718   0.440844  -0.000249
    23  H   -0.006155   0.000039  -0.036517  -0.002773  -0.000089  -0.003203
    24  H    0.007835  -0.000103  -0.115446   0.004848   0.001628  -0.000215
    25  H    0.000716   0.000118  -0.026517   0.006875  -0.001034  -0.004010
    26  H    0.002406  -0.000081  -0.004311  -0.003152   0.000191   0.007919
    27  H    0.043155   0.004303   0.035422  -0.004137  -0.041878  -0.057596
    28  H    0.006927   0.000540   0.006801   0.012114   0.001144  -0.029583
    29  H    0.002711   0.000062  -0.000761  -0.004695   0.001321  -0.068980
    30  H    0.018469  -0.003437   0.001421   0.027604  -0.029641  -0.000443
    31  H   -0.055310   0.009697  -0.000743   0.004555   0.006404  -0.000451
               7          8          9         10         11         12
     1  C   -0.012255  -0.060079  -0.043703   0.219327   0.081004  -0.493509
     2  C   -0.003506   0.087908  -0.001574  -0.048876   0.002078  -0.314235
     3  C   -0.123638   0.001500   0.325854  -1.647579  -0.293653  -0.145978
     4  C   -0.002203  -0.002496  -0.030020  -0.423382  -0.019065  -0.160530
     5  C   -0.000695  -0.009355  -0.011562   0.060174   0.030889   0.364649
     6  O    0.023264  -0.000094  -0.042717   0.334703   0.004073  -0.033173
     7  C    5.688690  -0.000092  -0.064374   0.046866  -0.032880   0.012087
     8  O   -0.000092   8.439217   0.000090  -0.000265  -0.000143   0.127455
     9  C   -0.064374   0.000090   5.794596  -0.134474  -0.082321  -0.023272
    10  C    0.046866  -0.000265  -0.134474   7.370620   0.021302  -0.289976
    11  C   -0.032880  -0.000143  -0.082321   0.021302   5.523800   0.045234
    12  C    0.012087   0.127455  -0.023272  -0.289976   0.045234   6.599172
    13  O    0.029572  -0.003956   0.002902   0.076726   0.001012   0.032702
    14  H    0.006761  -0.013863  -0.001633  -0.028469  -0.002059  -0.077166
    15  H   -0.003675   0.013798  -0.006991   0.025856   0.003879  -0.009626
    16  H   -0.000050  -0.067119  -0.000114  -0.002946   0.000387   0.010253
    17  H    0.000019  -0.042909   0.000186   0.000897  -0.000600  -0.024160
    18  H   -0.007374   0.000026  -0.024842  -0.080613   0.000114   0.000870
    19  H   -0.022317  -0.000161  -0.005839   0.006331   0.006512   0.003633
    20  H   -0.002162  -0.004343   0.001574   0.033479  -0.004903  -0.026224
    21  H    0.000168   0.007977  -0.000004   0.001856  -0.000266   0.003276
    22  H   -0.000627  -0.004139   0.001192  -0.004171  -0.001924   0.002618
    23  H    0.424526  -0.000006  -0.014439   0.014013   0.002010  -0.000870
    24  H    0.546038  -0.000023  -0.099781   0.033634   0.004708   0.003194
    25  H    0.000739   0.000001   0.461388  -0.001662  -0.070712   0.000259
    26  H   -0.060964   0.000001   0.454079   0.014173  -0.032401   0.000251
    27  H   -0.052030   0.005067   0.050294   0.400802  -0.018469  -0.040317
    28  H    0.005889  -0.000020  -0.078346  -0.045427   0.494440   0.001079
    29  H    0.008105  -0.000006  -0.041441   0.011332   0.438439   0.001217
    30  H   -0.000366  -0.039912   0.000335   0.003851  -0.000767   0.358566
    31  H   -0.000209  -0.074646   0.000598  -0.003301   0.000094   0.455339
              13         14         15         16         17         18
     1  C    0.020026   0.437838   0.419098   0.000522  -0.000133   0.003676
     2  C    0.032856   0.021995  -0.007442   0.427176   0.469217  -0.000734
     3  C   -0.231753   0.006231   0.007731   0.000022   0.001787   0.470217
     4  C    0.143521   0.046677  -0.049635   0.002309   0.030297   0.013365
     5  C   -0.177259  -0.034414  -0.016812  -0.028904  -0.080071   0.000453
     6  O    0.010965   0.001990   0.006020   0.000082  -0.000038  -0.010777
     7  C    0.029572   0.006761  -0.003675  -0.000050   0.000019  -0.007374
     8  O   -0.003956  -0.013863   0.013798  -0.067119  -0.042909   0.000026
     9  C    0.002902  -0.001633  -0.006991  -0.000114   0.000186  -0.024842
    10  C    0.076726  -0.028469   0.025856  -0.002946   0.000897  -0.080613
    11  C    0.001012  -0.002059   0.003879   0.000387  -0.000600   0.000114
    12  C    0.032702  -0.077166  -0.009626   0.010253  -0.024160   0.000870
    13  O    8.569126  -0.000199  -0.006378  -0.002742  -0.000720   0.001913
    14  H   -0.000199   0.435477  -0.024091   0.000738   0.000214   0.000854
    15  H   -0.006378  -0.024091   0.483042  -0.000000  -0.000272  -0.000710
    16  H   -0.002742   0.000738  -0.000000   0.476095  -0.013869   0.000015
    17  H   -0.000720   0.000214  -0.000272  -0.013869   0.489282  -0.000005
    18  H    0.001913   0.000854  -0.000710   0.000015  -0.000005   0.456979
    19  H   -0.002413  -0.000488  -0.000802   0.000139  -0.000125  -0.017585
    20  H   -0.038240   0.001876  -0.008308  -0.000276  -0.006887  -0.000324
    21  H   -0.004036  -0.002976  -0.000029  -0.008204   0.000760   0.000169
    22  H   -0.004017   0.002173  -0.001724  -0.005981   0.002478  -0.000019
    23  H   -0.002630   0.000061   0.000346  -0.000008   0.000015  -0.005367
    24  H    0.001300   0.000787  -0.000295   0.000023  -0.000029   0.006391
    25  H    0.003232   0.000199  -0.000015  -0.000000   0.000002   0.003163
    26  H   -0.000037  -0.000287   0.000065  -0.000001  -0.000001  -0.003363
    27  H   -0.038344  -0.007603  -0.004695  -0.001666   0.002243  -0.008717
    28  H    0.004840   0.001908  -0.002791   0.000072  -0.000081   0.001191
    29  H   -0.002146  -0.000394  -0.000483   0.000006   0.000002  -0.000782
    30  H   -0.001758   0.001549  -0.004635  -0.003875   0.011704   0.000083
    31  H   -0.000173  -0.002467  -0.014671   0.002373  -0.003843   0.000009
              19         20         21         22         23         24
     1  C    0.009498  -0.010440  -0.008263  -0.033015  -0.006155   0.007835
     2  C   -0.000337   0.005698  -0.032677  -0.075079   0.000039  -0.000103
     3  C    0.390546   0.004498  -0.002000  -0.000107  -0.036517  -0.115446
     4  C   -0.011804   0.453179  -0.044844   0.041718  -0.002773   0.004848
     5  C    0.004733  -0.064399   0.459636   0.440844  -0.000089   0.001628
     6  O    0.006360  -0.009134   0.000025  -0.000249  -0.003203  -0.000215
     7  C   -0.022317  -0.002162   0.000168  -0.000627   0.424526   0.546038
     8  O   -0.000161  -0.004343   0.007977  -0.004139  -0.000006  -0.000023
     9  C   -0.005839   0.001574  -0.000004   0.001192  -0.014439  -0.099781
    10  C    0.006331   0.033479   0.001856  -0.004171   0.014013   0.033634
    11  C    0.006512  -0.004903  -0.000266  -0.001924   0.002010   0.004708
    12  C    0.003633  -0.026224   0.003276   0.002618  -0.000870   0.003194
    13  O   -0.002413  -0.038240  -0.004036  -0.004017  -0.002630   0.001300
    14  H   -0.000488   0.001876  -0.002976   0.002173   0.000061   0.000787
    15  H   -0.000802  -0.008308  -0.000029  -0.001724   0.000346  -0.000295
    16  H    0.000139  -0.000276  -0.008204  -0.005981  -0.000008   0.000023
    17  H   -0.000125  -0.006887   0.000760   0.002478   0.000015  -0.000029
    18  H   -0.017585  -0.000324   0.000169  -0.000019  -0.005367   0.006391
    19  H    0.472451   0.000562   0.000061  -0.001406  -0.011030  -0.005039
    20  H    0.000562   0.399431  -0.006746   0.001679  -0.000002  -0.000001
    21  H    0.000061  -0.006746   0.470548  -0.018509  -0.000027   0.000065
    22  H   -0.001406   0.001679  -0.018509   0.458787  -0.000004  -0.000129
    23  H   -0.011030  -0.000002  -0.000027  -0.000004   0.454615  -0.004935
    24  H   -0.005039  -0.000001   0.000065  -0.000129  -0.004935   0.457844
    25  H   -0.001884  -0.000524   0.000033   0.000017  -0.001524   0.003782
    26  H    0.001836   0.000065  -0.000009  -0.000009  -0.009203  -0.005231
    27  H   -0.004099  -0.002288  -0.001052   0.005626   0.000040  -0.018304
    28  H    0.000324  -0.000628   0.000057  -0.000259  -0.002058   0.003203
    29  H    0.001238   0.000443  -0.000021   0.000008   0.000257  -0.001831
    30  H   -0.000111  -0.005143  -0.001518   0.002471  -0.000015  -0.000045
    31  H    0.000019   0.001233   0.001395  -0.001730  -0.000011   0.000034
              25         26         27         28         29         30
     1  C    0.000716   0.002406   0.043155   0.006927   0.002711   0.018469
     2  C    0.000118  -0.000081   0.004303   0.000540   0.000062  -0.003437
     3  C   -0.026517  -0.004311   0.035422   0.006801  -0.000761   0.001421
     4  C    0.006875  -0.003152  -0.004137   0.012114  -0.004695   0.027604
     5  C   -0.001034   0.000191  -0.041878   0.001144   0.001321  -0.029641
     6  O   -0.004010   0.007919  -0.057596  -0.029583  -0.068980  -0.000443
     7  C    0.000739  -0.060964  -0.052030   0.005889   0.008105  -0.000366
     8  O    0.000001   0.000001   0.005067  -0.000020  -0.000006  -0.039912
     9  C    0.461388   0.454079   0.050294  -0.078346  -0.041441   0.000335
    10  C   -0.001662   0.014173   0.400802  -0.045427   0.011332   0.003851
    11  C   -0.070712  -0.032401  -0.018469   0.494440   0.438439  -0.000767
    12  C    0.000259   0.000251  -0.040317   0.001079   0.001217   0.358566
    13  O    0.003232  -0.000037  -0.038344   0.004840  -0.002146  -0.001758
    14  H    0.000199  -0.000287  -0.007603   0.001908  -0.000394   0.001549
    15  H   -0.000015   0.000065  -0.004695  -0.002791  -0.000483  -0.004635
    16  H   -0.000000  -0.000001  -0.001666   0.000072   0.000006  -0.003875
    17  H    0.000002  -0.000001   0.002243  -0.000081   0.000002   0.011704
    18  H    0.003163  -0.003363  -0.008717   0.001191  -0.000782   0.000083
    19  H   -0.001884   0.001836  -0.004099   0.000324   0.001238  -0.000111
    20  H   -0.000524   0.000065  -0.002288  -0.000628   0.000443  -0.005143
    21  H    0.000033  -0.000009  -0.001052   0.000057  -0.000021  -0.001518
    22  H    0.000017  -0.000009   0.005626  -0.000259   0.000008   0.002471
    23  H   -0.001524  -0.009203   0.000040  -0.002058   0.000257  -0.000015
    24  H    0.003782  -0.005231  -0.018304   0.003203  -0.001831  -0.000045
    25  H    0.472840  -0.010950  -0.002020   0.003860  -0.003003   0.000033
    26  H   -0.010950   0.475086   0.001403   0.000853  -0.009669  -0.000011
    27  H   -0.002020   0.001403   0.482550  -0.012609  -0.000351   0.004896
    28  H    0.003860   0.000853  -0.012609   0.481076  -0.006711   0.000078
    29  H   -0.003003  -0.009669  -0.000351  -0.006711   0.474474  -0.000032
    30  H    0.000033  -0.000011   0.004896   0.000078  -0.000032   0.491194
    31  H   -0.000016   0.000019  -0.001275  -0.000124   0.000052  -0.013410
              31
     1  C   -0.055310
     2  C    0.009697
     3  C   -0.000743
     4  C    0.004555
     5  C    0.006404
     6  O   -0.000451
     7  C   -0.000209
     8  O   -0.074646
     9  C    0.000598
    10  C   -0.003301
    11  C    0.000094
    12  C    0.455339
    13  O   -0.000173
    14  H   -0.002467
    15  H   -0.014671
    16  H    0.002373
    17  H   -0.003843
    18  H    0.000009
    19  H    0.000019
    20  H    0.001233
    21  H    0.001395
    22  H   -0.001730
    23  H   -0.000011
    24  H    0.000034
    25  H   -0.000016
    26  H    0.000019
    27  H   -0.001275
    28  H   -0.000124
    29  H    0.000052
    30  H   -0.013410
    31  H    0.480089
 Mulliken charges:
               1
     1  C   -0.170397
     2  C   -0.287158
     3  C   -0.403817
     4  C   -0.117474
     5  C   -0.243704
     6  O   -0.387663
     7  C   -0.403307
     8  O   -0.359411
     9  C   -0.385640
    10  C    0.035197
    11  C   -0.099812
    12  C   -0.382817
    13  O   -0.413891
    14  H    0.228783
    15  H    0.204248
    16  H    0.215544
    17  H    0.164641
    18  H    0.201724
    19  H    0.181200
    20  H    0.287257
    21  H    0.185157
    22  H    0.193488
    23  H    0.204944
    24  H    0.176097
    25  H    0.166617
    26  H    0.181331
    27  H    0.281648
    28  H    0.152241
    29  H    0.201642
    30  H    0.182865
    31  H    0.210468
 Sum of Mulliken charges =  -0.00000
 Mulliken charges with hydrogens summed into heavy atoms:
               1
     1  C    0.262633
     2  C    0.093026
     3  C   -0.020893
     4  C    0.169783
     5  C    0.134942
     6  O   -0.387663
     7  C   -0.022266
     8  O   -0.359411
     9  C   -0.037692
    10  C    0.316845
    11  C    0.254071
    12  C    0.010515
    13  O   -0.413891
 Electronic spatial extent (au):  <R**2>=           3313.4493
 Charge=             -0.0000 electrons
 Dipole moment (field-independent basis, Debye):
    X=              2.4103    Y=              1.3334    Z=              1.0891  Tot=              2.9620
 Quadrupole moment (field-independent basis, Debye-Ang):
   XX=            -78.4099   YY=            -76.5882   ZZ=            -81.1889
   XY=              3.7030   XZ=              8.9816   YZ=              0.1935
 Traceless Quadrupole moment (field-independent basis, Debye-Ang):
   XX=              0.3191   YY=              2.1408   ZZ=             -2.4599
   XY=              3.7030   XZ=              8.9816   YZ=              0.1935
 Octapole moment (field-independent basis, Debye-Ang**2):
  XXX=             72.0442  YYY=             10.2355  ZZZ=             -0.1209  XYY=             -6.0134
  XXY=             -9.8919  XXZ=            -24.5962  XZZ=             -2.3340  YZZ=              1.0987
  YYZ=              1.5208  XYZ=             -1.7933
 Hexadecapole moment (field-independent basis, Debye-Ang**3):
 XXXX=          -3672.5270 YYYY=           -582.7011 ZZZZ=           -261.5436 XXXY=             99.7220
 XXXZ=             95.8429 YYYX=              0.6934 YYYZ=              0.8003 ZZZX=             -0.4991
 ZZZY=              0.7697 XXYY=           -630.3151 XXZZ=           -643.9785 YYZZ=           -134.9716
 XXYZ=             -2.6727 YYXZ=             -9.6139 ZZXY=             -0.4779
 N-N= 8.819307222840D+02 E-N=-3.205902100719D+03  KE= 6.153596560214D+02
 D1PCM: PCM CHGder 1st derivatives, ID1Alg=3 FixD1E=F DoIter=F DoCFld=F I1PDM=0.
 Calling FoFJK, ICntrl=      2127 FMM=F ISym2X=0 I1Cent= 0 IOpClX= 0 NMat=1 NMatS=1 NMatT=0.
 ***** Axes restored to original set *****
 -------------------------------------------------------------------
 Center     Atomic                   Forces (Hartrees/Bohr)
 Number     Number              X              Y              Z
 -------------------------------------------------------------------
      1        6           0.002143911   -0.003391748    0.001511053
      2        6          -0.006669971   -0.001041944    0.000588025
      3        6          -0.001002595    0.002741440   -0.001995919
      4        6           0.002336663    0.006613611   -0.001685055
      5        6           0.000605704    0.002956245    0.001819416
      6        8           0.005326148    0.003548817    0.012112097
      7        6           0.002236824    0.001384363    0.003311162
      8        8           0.007726281    0.000180404   -0.008808599
      9        6           0.002355825   -0.000072648   -0.002384040
     10        6          -0.005020002   -0.002203028   -0.000377210
     11        6          -0.004291949   -0.004553290   -0.002404030
     12        6          -0.005562021   -0.003169111    0.001152977
     13        8           0.000864414   -0.014258646   -0.001918949
     14        1          -0.000277405   -0.002113638   -0.003591336
     15        1          -0.003572278    0.002766258    0.001167641
     16        1           0.003057192   -0.003177674   -0.001066441
     17        1          -0.000083567    0.001691580    0.005420443
     18        1          -0.000062484   -0.000944272    0.003794959
     19        1           0.001268278   -0.001771244   -0.002290597
     20        1           0.001740057    0.002837908    0.005312059
     21        1          -0.000636612   -0.002134394    0.002466979
     22        1          -0.000674752   -0.000656652   -0.003735736
     23        1          -0.001854975   -0.001868612   -0.000029219
     24        1           0.001025360    0.001725376   -0.002696919
     25        1          -0.000086896   -0.001448681    0.003014513
     26        1          -0.002040968    0.001505602   -0.001094577
     27        1           0.001242857    0.004526716   -0.007849970
     28        1           0.000612187    0.002267787   -0.005261180
     29        1          -0.001059532    0.003010282    0.003292320
     30        1          -0.000290594    0.001829912    0.005433466
     31        1           0.000644900    0.003219282   -0.003207333
 -------------------------------------------------------------------
 Cartesian Forces:  Max     0.014258646 RMS     0.003639738

 GradGradGradGradGradGradGradGradGradGradGradGradGradGradGradGradGradGrad
 Berny optimization.
 FormGI is forming the generalized inverse of G from B-inverse, IUseBI=4.
 Internal  Forces:  Max     0.016217035 RMS     0.002347725
 Search for a local minimum.
 Step number   1 out of a maximum of  186
 All quantities printed in internal units (Hartrees-Bohrs-Radians)
 Mixed Optimization -- RFO/linear search
 Second derivative matrix not updated -- first step.
 ITU=  0
     Eigenvalues ---    0.00611   0.00698   0.00734   0.00754   0.01424
     Eigenvalues ---    0.01488   0.01889   0.02724   0.02740   0.03107
     Eigenvalues ---    0.03152   0.04045   0.04171   0.04774   0.04782
     Eigenvalues ---    0.04928   0.04928   0.04961   0.05153   0.05195
     Eigenvalues ---    0.05375   0.05718   0.05766   0.06147   0.06193
     Eigenvalues ---    0.06317   0.06366   0.06500   0.07697   0.07742
     Eigenvalues ---    0.07950   0.07956   0.07969   0.07970   0.08406
     Eigenvalues ---    0.08735   0.08854   0.09889   0.10902   0.11469
     Eigenvalues ---    0.11704   0.11711   0.11763   0.12322   0.13117
     Eigenvalues ---    0.14355   0.14468   0.16203   0.16688   0.17824
     Eigenvalues ---    0.19144   0.21291   0.21852   0.25000   0.28589
     Eigenvalues ---    0.28612   0.28771   0.28948   0.28963   0.29346
     Eigenvalues ---    0.30058   0.30499   0.35030   0.35071   0.35093
     Eigenvalues ---    0.35096   0.35121   0.35187   0.35207   0.35242
     Eigenvalues ---    0.35246   0.35257   0.35305   0.35361   0.35371
     Eigenvalues ---    0.35525   0.35623   0.35873   0.35885   0.35895
     Eigenvalues ---    0.41228   0.41486   0.41605   0.42093   0.42390
     Eigenvalues ---    0.481781000.000001000.000001000.000001000.00000
     Eigenvalues --- 1000.000001000.000001000.000001000.000001000.00000
     Eigenvalues --- 1000.000001000.000001000.000001000.000001000.00000
     Eigenvalues --- 1000.000001000.000001000.000001000.000001000.00000
     Eigenvalues --- 1000.000001000.000001000.000001000.000001000.00000
     Eigenvalues --- 1000.000001000.000001000.000001000.000001000.00000
     Eigenvalues --- 1000.000001000.000001000.000001000.000001000.00000
     Eigenvalues --- 1000.000001000.000001000.000001000.000001000.00000
     Eigenvalues --- 1000.000001000.000001000.000001000.000001000.00000
     Eigenvalues --- 1000.000001000.000001000.000001000.000001000.00000
     Eigenvalues --- 1000.000001000.000001000.000001000.000001000.00000
     Eigenvalues --- 1000.000001000.000001000.000001000.000001000.00000
     Eigenvalues --- 1000.000001000.000001000.000001000.000001000.00000
     Eigenvalues --- 1000.000001000.000001000.000001000.000001000.00000
     Eigenvalues --- 1000.000001000.000001000.000001000.000001000.00000
     Eigenvalues --- 1000.000001000.000001000.000001000.000001000.00000
     Eigenvalues --- 1000.000001000.000001000.000001000.000001000.00000
     Eigenvalues --- 1000.000001000.000001000.000001000.000001000.00000
     Eigenvalues --- 1000.000001000.000001000.000001000.000001000.00000
     Eigenvalues --- 1000.000001000.000001000.000001000.000001000.00000
 RFO step:  Lambda=-3.63188144D-03 EMin= 6.10538065D-03
 Linear search not attempted -- first point.
 Iteration  1 RMS(Cart)=  0.06844640 RMS(Int)=  0.00092090
 Iteration  2 RMS(Cart)=  0.00229916 RMS(Int)=  0.00002461
 Iteration  3 RMS(Cart)=  0.00000068 RMS(Int)=  0.00002461
 Iteration  1 RMS(Cart)=  0.00001125 RMS(Int)=  0.00000257
 Iteration  2 RMS(Cart)=  0.00000622 RMS(Int)=  0.00000287
 Iteration  3 RMS(Cart)=  0.00000344 RMS(Int)=  0.00000325
 Iteration  4 RMS(Cart)=  0.00000190 RMS(Int)=  0.00000350
 Iteration  5 RMS(Cart)=  0.00000105 RMS(Int)=  0.00000365
 Iteration  6 RMS(Cart)=  0.00000058 RMS(Int)=  0.00000374
 Variable       Old X    -DE/DX   Delta X   Delta X   Delta X     New X
                                 (Linear)    (Quad)   (Total)
    R1        2.88417  -0.00261   0.00000  -0.00976  -0.00978   2.87439
    R2        2.88153  -0.00041   0.00000  -0.00185  -0.00185   2.87968
    R3        2.05277   0.00407   0.00000   0.01144   0.01144   2.06421
    R4        2.04830   0.00456   0.00000   0.01271   0.01271   2.06101
    R5        2.87593  -0.00080   0.00000  -0.00201  -0.00201   2.87392
    R6        2.67194   0.00618   0.00000   0.01489   0.01491   2.68685
    R7        2.04262   0.00453   0.00000   0.01249   0.01249   2.05511
    R8        2.05525   0.00558   0.00000   0.01573   0.01573   2.07097
    R9        2.89330  -0.00108   0.00000  -0.00404  -0.00407   2.88923
   R10        2.86711  -0.00141   0.00000  -0.00438  -0.00438   2.86274
   R11        2.05372   0.00371   0.00000   0.01044   0.01044   2.06417
   R12        2.05077   0.00314   0.00000   0.00877   0.00877   2.05954
   R13        2.87558  -0.00159   0.00000  -0.00677  -0.00678   2.86880
   R14        2.69583   0.00363   0.00000   0.00866   0.00866   2.70449
   R15        2.05259   0.00608   0.00000   0.01708   0.01708   2.06967
   R16        2.05183   0.00329   0.00000   0.00922   0.00922   2.06105
   R17        2.05340   0.00371   0.00000   0.01043   0.01043   2.06383
   R18        2.66479   0.00819   0.00000   0.01910   0.01913   2.68392
   R19        2.68045   0.00573   0.00000   0.01360   0.01363   2.69408
   R20        2.89015  -0.00071   0.00000  -0.00329  -0.00331   2.88684
   R21        2.05093   0.00263   0.00000   0.00735   0.00735   2.05829
   R22        2.05626   0.00326   0.00000   0.00921   0.00921   2.06547
   R23        2.67013   0.00585   0.00000   0.01447   0.01448   2.68462
   R24        2.87284  -0.00067   0.00000  -0.00226  -0.00226   2.87058
   R25        2.05479   0.00325   0.00000   0.00915   0.00915   2.06394
   R26        2.05283   0.00275   0.00000   0.00774   0.00774   2.06057
   R27        2.61750   0.00500   0.00000   0.01031   0.01031   2.62780
   R28        2.04675   0.00912   0.00000   0.02533   0.02533   2.07208
   R29        2.05560   0.00568   0.00000   0.01603   0.01603   2.07163
   R30        2.04280   0.00458   0.00000   0.01264   0.01264   2.05544
   R31        2.05519   0.00562   0.00000   0.01586   0.01586   2.07105
   R32        2.04246   0.00458   0.00000   0.01265   0.01265   2.05510
    A1        1.90219  -0.00046   0.00000  -0.00684  -0.00691   1.89528
    A2        1.92739   0.00018   0.00000  -0.00315  -0.00314   1.92425
    A3        1.94812  -0.00085   0.00000  -0.00567  -0.00563   1.94249
    A4        1.90112   0.00038   0.00000   0.00303   0.00302   1.90414
    A5        1.89568   0.00062   0.00000   0.00821   0.00819   1.90387
    A6        1.88858   0.00018   0.00000   0.00490   0.00485   1.89342
    A7        1.93961   0.00068   0.00000   0.00477   0.00475   1.94437
    A8        1.93639  -0.00021   0.00000  -0.00310  -0.00310   1.93328
    A9        1.93085  -0.00120   0.00000  -0.00806  -0.00806   1.92279
   A10        1.86146  -0.00072   0.00000  -0.00094  -0.00093   1.86052
   A11        1.90381   0.00096   0.00000   0.00468   0.00471   1.90851
   A12        1.88966   0.00054   0.00000   0.00304   0.00301   1.89267
   A13        1.92375  -0.00070   0.00000  -0.00739  -0.00744   1.91631
   A14        1.92471   0.00094   0.00000   0.00497   0.00494   1.92964
   A15        1.93605  -0.00013   0.00000   0.00260   0.00258   1.93864
   A16        1.89104  -0.00055   0.00000  -0.00628  -0.00627   1.88477
   A17        1.90299   0.00023   0.00000  -0.00076  -0.00073   1.90226
   A18        1.88423   0.00021   0.00000   0.00689   0.00686   1.89109
   A19        1.91794   0.00206   0.00000   0.00109   0.00098   1.91892
   A20        2.02315  -0.00314   0.00000  -0.02259  -0.02253   2.00062
   A21        1.88158   0.00031   0.00000   0.00078   0.00085   1.88243
   A22        1.87327   0.00019   0.00000   0.00434   0.00425   1.87752
   A23        1.89936  -0.00111   0.00000   0.00156   0.00153   1.90089
   A24        1.86517   0.00171   0.00000   0.01624   0.01621   1.88138
   A25        1.92566  -0.00031   0.00000  -0.00837  -0.00842   1.91725
   A26        1.90933   0.00065   0.00000   0.00482   0.00482   1.91415
   A27        1.91313  -0.00016   0.00000   0.00165   0.00161   1.91473
   A28        1.92422  -0.00075   0.00000  -0.00176  -0.00175   1.92247
   A29        1.90643   0.00032   0.00000  -0.00274  -0.00273   1.90370
   A30        1.88459   0.00027   0.00000   0.00675   0.00673   1.89132
   A31        1.98093  -0.00506   0.00000  -0.02736  -0.02728   1.95365
   A32        1.92649   0.00212   0.00000  -0.00034  -0.00040   1.92608
   A33        1.91981  -0.00064   0.00000  -0.00058  -0.00056   1.91925
   A34        1.90952  -0.00084   0.00000  -0.00250  -0.00249   1.90704
   A35        1.93141  -0.00050   0.00000   0.00073   0.00076   1.93217
   A36        1.90888  -0.00082   0.00000  -0.00189  -0.00189   1.90699
   A37        1.86667   0.00061   0.00000   0.00467   0.00466   1.87133
   A38        1.96979  -0.00436   0.00000  -0.02350  -0.02348   1.94631
   A39        1.92274   0.00009   0.00000  -0.00326  -0.00334   1.91941
   A40        1.91860   0.00055   0.00000   0.00184   0.00186   1.92047
   A41        1.93552  -0.00062   0.00000  -0.00110  -0.00109   1.93443
   A42        1.90334  -0.00038   0.00000  -0.00196  -0.00194   1.90140
   A43        1.90646   0.00008   0.00000  -0.00037  -0.00035   1.90612
   A44        1.87633   0.00027   0.00000   0.00501   0.00500   1.88133
   A45        1.92885   0.00164   0.00000   0.00867   0.00866   1.93751
   A46        1.89864   0.00011   0.00000   0.00087   0.00087   1.89951
   A47        1.92421  -0.00052   0.00000  -0.00200  -0.00198   1.92223
   A48        1.88400  -0.00167   0.00000  -0.00795  -0.00795   1.87605
   A49        1.89107  -0.00007   0.00000  -0.00312  -0.00312   1.88795
   A50        1.93685   0.00051   0.00000   0.00354   0.00353   1.94038
   A51        1.93407   0.00096   0.00000   0.00327   0.00329   1.93736
   A52        1.90357   0.00070   0.00000   0.00405   0.00406   1.90764
   A53        1.85261  -0.00074   0.00000  -0.00025  -0.00026   1.85235
   A54        1.93109  -0.00127   0.00000  -0.00720  -0.00723   1.92387
   A55        1.95046  -0.00012   0.00000  -0.00213  -0.00213   1.94833
   A56        1.88959   0.00051   0.00000   0.00273   0.00271   1.89230
   A57        1.94801   0.00110   0.00000   0.00335   0.00336   1.95137
   A58        1.92957  -0.00140   0.00000  -0.00855  -0.00856   1.92101
   A59        1.92884  -0.00022   0.00000  -0.00206  -0.00207   1.92678
   A60        1.90475   0.00066   0.00000   0.00496   0.00496   1.90971
   A61        1.86101  -0.00069   0.00000  -0.00063  -0.00063   1.86038
   A62        1.88950   0.00058   0.00000   0.00336   0.00334   1.89284
   A63        2.11605  -0.01622   0.00000  -0.06394  -0.06394   2.05211
    D1       -0.93620  -0.00047   0.00000  -0.01554  -0.01552  -0.95172
    D2       -3.06326  -0.00008   0.00000  -0.00573  -0.00575  -3.06901
    D3        1.13140  -0.00047   0.00000  -0.01260  -0.01263   1.11877
[...]
 74,0.00000181,-0.00000021,0.00000055,0.00000091,0.00000151,0.00044402,
 -0.00017115,0.00038000,-0.00010538,-0.00023561,0.00023695,0.00001637,0
 .00001078,0.00000612,-0.00000004,-0.00000262,0.00000098,-0.00000022,-0
 .00000116,-0.00000068,-0.00044567,0.00018324,0.00082746,0.00117058,-0.
 00378773,-0.00169087,-0.06932205,-0.09405612,0.27463809,-0.00005992,-0
 .00003224,-0.00001139,0.00000429,0.00002864,0.00000750,0.00095264,0.00
 061969,0.00115691,0.00027744,0.00008694,-0.00000222,-0.00003276,-0.000
 04145,-0.00001110,-0.00751006,-0.00198511,-0.00087617,-0.00412121,0.00
 242925,-0.00126605,-0.00003276,0.00000114,0.00000214,-0.20014255,0.109
 84780,-0.07035148,0.00139490,-0.00167342,-0.00130652,-0.01605722,0.017
 40587,-0.00846689,0.00003973,0.00000643,0.00002441,-0.00054564,0.00039
 932,0.00002289,-0.00000894,-0.00000239,-0.00000149,-0.00000260,0.00003
 656,0.00000695,-0.00001251,-0.00000403,0.00000024,-0.00000180,-0.00000
 183,-0.00000253,-0.00007635,0.00007022,-0.00014632,-0.00021869,0.00013
 960,-0.00029562,-0.00004138,-0.00002657,-0.00000269,-0.00000006,0.0000
 0582,-0.00000079,-0.00000378,0.00000572,0.00000205,0.00034988,0.000136
 84,0.00029496,0.00016248,-0.00019531,0.00000146,0.00781509,-0.00533846
 ,0.00252689,0.21622593,0.00000051,-0.00000569,0.00001102,0.00000155,-0
 .00000659,-0.00000160,0.00006070,-0.00279181,-0.00475985,0.00004843,-0
 .00002751,0.00003889,0.00000768,0.00001052,0.00000554,-0.00642127,-0.0
 0036258,-0.00095889,0.01830331,-0.01305759,0.00963429,-0.00000452,0.00
 000185,-0.00000033,0.11151282,-0.13000247,0.05360110,-0.00046925,-0.00
 162553,-0.00103198,-0.01201477,0.01193525,-0.00656360,0.00000075,0.000
 00476,0.00000508,0.00006379,0.00051469,0.00022999,-0.00000710,0.000003
 27,0.00000313,-0.00000332,0.00001435,0.00000028,0.00000183,0.00000118,
 -0.00000057,-0.00000016,-0.00000002,-0.00000001,-0.00032017,0.00013454
 ,-0.00004342,0.00164130,-0.00053329,0.00034548,0.00002291,0.00000441,0
 .00000761,-0.00000181,0.00000053,0.00000036,-0.00000291,0.00000029,-0.
 00000121,-0.00059187,0.00059839,0.00070073,-0.00041131,0.00119915,0.00
 007260,0.00863545,-0.00676670,0.00375061,-0.12196041,0.13958271,0.0000
 0945,-0.00000278,0.00001146,0.00000100,-0.00000537,-0.00000088,0.00047
 881,-0.00319368,-0.00273044,0.00002352,-0.00001462,0.00002232,0.000005
 83,0.00000707,0.00000159,-0.00202151,-0.00058465,0.00120328,0.01830298
 ,-0.01216065,0.00754219,-0.00000299,0.00000100,-0.00000074,-0.07269423
 ,0.05408408,-0.08078617,-0.00037175,-0.00076943,-0.00056997,-0.0011994
 4,0.00302583,-0.00318719,-0.00000041,0.00000442,0.00000091,0.00005654,
 0.00021066,0.00010460,-0.00000613,0.00000295,0.00000184,-0.00000269,0.
 00001111,-0.00000102,0.00000128,0.00000099,-0.00000051,-0.00000014,0.0
 0000006,0.00000013,0.00008679,-0.00011079,0.00019841,0.00101488,-0.000
 66475,0.00032172,0.00001498,0.00000475,0.00000191,-0.00000044,-0.00000
 005,-0.00000029,-0.00000080,-0.00000066,0.00000008,-0.00054751,0.00080
 038,0.00064898,-0.00010458,0.00088971,0.00107877,-0.02128265,0.0140741
 1,-0.00911306,0.07805123,-0.05546060,0.08492952,-0.00275584,-0.0014894
 9,-0.00005757,0.00001745,0.00005092,-0.00000424,-0.00501790,-0.0132938
 9,0.01922641,0.00366326,0.00185096,-0.00059088,-0.00004790,-0.00006184
 ,0.00000518,-0.00066557,0.00260301,0.01105542,0.00116732,-0.00029296,0
 .00095312,-0.00007641,-0.00008380,0.00004382,-0.00020376,0.00004288,-0
 .00021799,-0.06815509,-0.03459296,0.05380230,0.00126807,-0.00089449,0.
 00220369,-0.00010441,0.00043343,-0.00014798,-0.00497819,0.02226737,-0.
 03088498,-0.00203775,-0.00092484,0.00043352,-0.00090393,-0.00071548,-0
 .00005223,-0.00001747,-0.00000694,0.00000492,-0.00000080,-0.00000178,0
 .00000310,-0.00294454,-0.00305426,-0.00055440,0.00067733,0.00020142,-0
 .00056195,-0.00030486,-0.00047335,0.00005815,0.00001299,-0.00007734,0.
 00002191,0.00000298,0.00000478,0.00002146,0.00012180,0.00006065,-0.000
 19880,-0.00005084,0.00016588,-0.00031213,0.00004530,0.00002967,-0.0000
 2524,-0.00005562,0.00003105,0.00001806,0.08119311,-0.00179600,-0.00040
 894,-0.00034724,-0.00001737,-0.00025052,0.00002196,-0.00708043,-0.0094
 3359,0.01845222,-0.00270903,-0.00153237,-0.00104645,0.00023171,0.00024
 475,0.00014935,0.01205124,0.00212466,-0.03086666,0.00089290,0.00029449
 ,0.00014660,-0.00010161,0.00010321,-0.00002425,0.00020724,-0.00018576,
 0.00029081,-0.03168940,-0.10680003,0.10413843,-0.00259861,0.00279162,-
 0.00337784,-0.00015645,0.00030280,-0.00046652,0.00878418,-0.01119963,0
 .01961773,-0.00034133,-0.00013151,-0.00024777,-0.00109643,-0.00049020,
 -0.00023836,0.00006849,0.00003481,-0.00000265,0.00001501,0.00001110,0.
 ,-0.00299879,-0.00195306,-0.00023076,0.00075463,0.00068044,-0.00006095
 ,0.00024272,0.00026530,0.00007826,-0.00000686,-0.00000607,-0.00000104,
 -0.00000771,-0.00001393,-0.00002284,0.00006126,0.00008003,-0.00033890,
 -0.00016037,0.00043059,-0.00037917,-0.00000521,-0.00009417,0.00006309,
 0.00010611,0.00014416,0.00010705,0.02813415,0.12503926,0.00115506,0.00
 022497,-0.00022439,-0.00002381,0.00022492,-0.00010483,-0.00162189,-0.0
 0122430,0.00523995,0.00230565,0.00174094,-0.00001174,-0.00021696,-0.00
 023009,0.00004248,0.01358260,-0.00488493,-0.03312318,0.00038793,-0.000
 35823,0.00031844,0.00035611,-0.00018230,0.00002473,0.00022620,-0.00046
 759,0.00010924,0.04675820,0.10007713,-0.22345351,-0.00230147,0.0021839
 0,-0.00053479,-0.00017208,-0.00040846,0.00048093,-0.00756426,0.0111430
 2,-0.00906280,0.00097814,0.00067009,0.00059087,-0.00008583,-0.00051092
 ,-0.00034485,-0.00003262,-0.00003172,0.00001127,-0.00001191,-0.0000123
 8,0.00001286,-0.00156679,-0.00101591,0.00072930,0.00058379,0.00058582,
 0.00026422,-0.00021003,-0.00018963,0.00003359,0.00003794,-0.00005532,0
 .00000190,-0.00000681,-0.00000499,-0.00001288,0.00006627,-0.00004230,0
 .00009466,0.00027831,-0.00016423,0.00000031,-0.00004569,0.00011007,-0.
 00011004,0.00016128,0.00010101,0.00005792,-0.05378658,-0.10640093,0.25
 756845,-0.00003104,0.00007770,-0.00000570,-0.00000158,0.00002994,-0.00
 000352,-0.00015040,0.00013067,0.00029340,0.00026892,0.00013859,0.00003
 563,-0.00004197,-0.00002981,-0.00001362,-0.00228019,0.02282351,-0.0287
 5557,0.00076408,0.00131901,0.00057944,0.00000641,-0.00000340,0.0000054
 4,-0.00792761,-0.01283655,0.02431951,0.00195314,-0.00202783,-0.0043539
 5,-0.06854627,-0.03163326,0.06374967,0.00000478,-0.00003073,0.00000180
 ,-0.00081387,0.00018762,0.00039271,0.00001877,-0.00001498,-0.00000800,
 0.00007832,-0.00004976,-0.00002526,-0.00000848,-0.00000517,0.00000167,
 -0.00000167,-0.00000186,-0.00000044,-0.00007313,-0.00000124,0.00006419
 ,0.00019311,0.00005854,0.00009094,-0.00001698,-0.00002628,-0.00002272,
 0.00000029,0.00000167,-0.00000159,-0.00000104,-0.00000003,0.00000082,-
 0.00002899,0.00023816,-0.00021420,0.00029439,-0.00002270,-0.00054400,-
 0.00386443,-0.00407623,-0.00119814,0.00094273,0.00077632,-0.00014439,0
 .00005859,-0.00072776,0.00052491,0.07943629,0.00004346,0.00006092,0.00
 000468,-0.00000070,-0.00002032,-0.00000052,0.00013407,-0.00031992,-0.0
 0038471,-0.00019247,-0.00008040,-0.00000222,0.00002702,0.00003164,0.00
 000706,0.00768742,-0.01470528,0.01944356,0.00060438,0.00078172,0.00109
 652,0.00002232,0.00000148,-0.00000293,-0.00734499,-0.00802377,0.016481
 32,-0.00153247,0.00145351,0.00400764,-0.03081658,-0.09886313,0.0866001
 8,-0.00002609,-0.00000845,-0.00002149,0.00067231,-0.00013994,-0.000514
 71,0.00001613,-0.00001609,-0.00000926,0.00009253,-0.00007414,-0.000000
 72,0.00000837,0.00000288,-0.00000009,0.00000129,0.00000115,0.00000108,
 0.00002961,0.00005549,-0.00001440,-0.00004905,-0.00011406,-0.00006033,
 0.00001874,0.00002130,0.00001209,-0.00000148,-0.00000374,0.00000159,0.
 00000241,-0.00000153,-0.00000156,0.00003487,0.00020923,-0.00018746,0.0
 0006553,-0.00003068,-0.00025788,-0.00304060,-0.00132552,-0.00039262,0.
 00012647,0.00062988,-0.00027102,0.00003412,-0.00001662,-0.00051510,0.0
 2817155,0.10879142,-0.00010586,-0.00006484,0.00000937,0.00000240,0.000
 02539,0.00000523,-0.00015417,0.00003950,0.00015640,0.00019445,0.000042
 78,-0.00002471,-0.00003304,-0.00004811,-0.00000590,-0.00864559,0.01250
 650,-0.01048905,-0.00042228,-0.00003702,0.00098252,-0.00003449,-0.0000
 0240,0.00000229,-0.00054531,-0.00297013,0.00347293,0.00138246,-0.00318
 622,0.00028042,0.06086281,0.09015039,-0.23422429,0.00004025,0.00002506
 ,0.00001897,-0.00043891,0.00002658,0.00033160,-0.00002540,-0.00000115,
 -0.00000665,-0.00018468,0.00010839,-0.00001063,-0.00001076,-0.00000398
 ,-0.00000019,-0.00000175,-0.00000122,-0.00000174,0.00008163,-0.0000013
 0,-0.00016500,0.00003225,0.00013168,0.00000960,-0.00003093,-0.00001995
 ,-0.00000098,0.00000408,0.00000497,-0.00000172,-0.00000144,0.00000486,
 0.00000230,0.00004174,0.00007226,0.00013896,-0.00012511,0.00048078,0.0
 0016389,-0.00069446,-0.00093257,0.00101530,0.00072765,0.00045934,0.000
 24673,-0.00037869,0.00092151,0.00082986,-0.05822957,-0.10690425,0.2546
 6003,-0.00008215,-0.00004281,-0.00003264,-0.00000439,0.00006867,0.0000
 0891,-0.00052847,0.00045839,0.00023832,0.00061174,0.00030817,0.0000770
 6,-0.00011106,-0.00012062,-0.00003056,-0.01314749,0.02804455,0.0210600
 4,-0.00521160,-0.00279264,0.00040410,-0.00003462,-0.00000864,0.0000061
 3,0.00661508,-0.01944118,-0.02009630,-0.00149548,-0.00066046,-0.004491
 83,-0.05335137,0.02216880,0.02466255,0.00005380,-0.00000460,0.00003579
 ,-0.00186918,0.00219042,0.00040761,-0.00000133,-0.00000576,-0.00000645
 ,0.00001298,0.00002619,0.00001872,-0.00002533,-0.00001037,-0.00000063,
 -0.00000535,-0.00000415,-0.00000420,0.00009586,-0.00002159,0.00003408,
 0.00030193,0.00010013,0.00010289,-0.00007428,-0.00006229,-0.00004321,0
 .00000641,0.00000309,-0.00000160,0.00000429,0.00000048,0.00000293,0.00
 037470,-0.00157166,-0.00109262,-0.00001539,0.00019205,-0.00002577,0.00
 114998,0.00083143,0.00053076,0.00077803,0.00109939,0.00031304,-0.00000
 070,-0.00011441,0.00011768,-0.00022144,0.00520153,0.00671227,0.0662070
 2,0.00008406,0.00003876,0.00003942,0.00000320,-0.00006087,-0.00001041,
 0.00002156,0.00034310,-0.00008964,-0.00044985,-0.00024371,-0.00002122,
 0.00008850,0.00010299,0.00002429,0.01168982,-0.01892890,-0.01316402,-0
 .00382158,-0.00079917,0.00032061,0.00003192,0.00000588,-0.00000356,0.0
 0198645,-0.01199757,-0.01340487,-0.00004859,0.00217409,0.00429736,0.02
 596965,-0.17664216,-0.12900412,-0.00004730,0.00000112,-0.00003353,0.00
 155538,-0.00123616,-0.00038124,0.00000518,0.00000433,0.00000223,0.0000
 1146,-0.00003177,-0.00000791,0.00002214,0.00000923,0.00000014,0.000004
 74,0.00000371,0.00000385,0.00002664,-0.00004059,0.00004882,-0.00003599
 ,-0.00011458,-0.00005711,0.00007629,0.00005196,0.00002357,-0.00000562,
 -0.00000515,0.00000181,-0.00000218,-0.00000361,-0.00000317,0.00027707,
 -0.00077286,-0.00081811,0.00009135,0.00002957,-0.00021301,0.00086076,0
 .00060411,0.00035420,-0.00018103,0.00039926,0.00001452,0.00003948,-0.0
 0002322,-0.00046697,-0.00246271,0.01169649,0.00918372,-0.03581692,0.19
 542105,-0.00000558,-0.00001431,-0.00001105,-0.00000420,0.00001091,-0.0
 0000409,-0.00012671,0.00031393,-0.00000152,0.00005776,0.00006564,-0.00
 001191,-0.00002655,-0.00002083,-0.00000516,-0.00424254,0.01217624,0.01
 156038,-0.00139689,-0.00044104,0.00117205,0.00000202,-0.00000163,0.000
 00339,0.00123447,-0.00037781,-0.00169535,-0.00108885,0.00080652,-0.000
 41047,0.03222814,-0.13798811,-0.19274787,0.00000325,-0.00000772,0.0000
 0133,-0.00073644,0.00050295,0.00024125,-0.00000265,0.00000462,0.000003
 30,-0.00001799,-0.00000339,-0.00000162,-0.00000350,-0.00000173,-0.0000
 0049,-0.00000129,-0.00000028,0.00000049,0.00001779,-0.00001676,-0.0000
 0160,0.00011053,0.00001964,-0.00000460,-0.00001524,-0.00001833,-0.0000
 1169,0.00000257,0.00000019,-0.00000093,0.00000299,-0.00000169,-0.00000
 039,0.00022815,-0.00046044,-0.00012600,-0.00005352,0.00022309,0.000289
 62,-0.00043325,0.00007010,0.00080322,-0.00024266,-0.00014442,0.0000180
 5,-0.00004801,0.00005931,0.00050943,0.00346031,-0.01811493,-0.01739314
 ,-0.02890211,0.14335950,0.19782308,-0.00474865,-0.01173101,-0.02912538
 ,0.00049940,-0.00277011,0.00322399,0.00000935,-0.00002064,0.00009932,0
 .00089886,0.00105920,-0.00170281,-0.00026097,0.00017985,-0.00039619,-0
 .00010569,0.00006135,0.00010410,0.00000864,-0.00000924,0.00000330,-0.0
 0550094,0.02192088,0.02706786,-0.00000271,0.00000465,-0.00000950,0.000
 02515,-0.00002882,-0.00019746,0.00005800,-0.00003106,0.00001695,-0.053
 08575,-0.01381997,-0.03455825,-0.00022082,0.00015905,0.00035821,-0.005
 20977,-0.00316720,-0.00016391,0.00115999,0.00068555,0.00039733,-0.0000
 9209,-0.00008185,-0.00012610,0.00010563,-0.00062724,-0.00088187,-0.000
 03447,-0.00002848,-0.00000241,-0.00000105,-0.00000266,-0.00000469,0.00
 009573,-0.00002441,0.00054988,0.00023536,-0.00001480,-0.00002647,-0.00
 003063,0.00002271,0.00003426,-0.00000789,0.00000195,-0.00000245,0.0000
 0066,0.00000194,-0.00000013,-0.00000088,-0.00000137,0.00000174,-0.0000
 0539,0.00000048,0.00000015,0.00007074,-0.00004280,0.00014945,-0.000002
 19,0.00000151,-0.00000654,-0.00000948,0.00000693,0.00000138,0.06446009
 ,-0.00362781,-0.00349303,-0.01213764,-0.00024138,0.00211514,-0.0044205
 2,0.00001044,-0.00001033,0.00006388,0.00048665,0.00008373,-0.00125801,
 -0.00006704,-0.00035520,0.00044564,-0.00003163,0.00003068,0.00002840,0
 .00000477,-0.00000538,0.00000252,0.01092055,-0.01933801,-0.02425420,-0
 .00000047,0.00000212,-0.00000433,-0.00005673,-0.00002373,-0.00013319,0
 .00002333,-0.00001288,0.00000693,-0.01456094,-0.07960066,-0.07157739,-
 0.00008028,0.00015158,0.00018543,-0.00204180,0.00005514,-0.00033153,-0
 .00003875,0.00037122,0.00018566,0.00003117,0.00008745,0.00029405,-0.00
 016171,0.00035123,0.00077536,-0.00002077,-0.00001738,-0.00000210,-0.00
 000065,-0.00000142,-0.00000239,-0.00009857,-0.00005666,0.00010908,-0.0
 0014681,-0.00007573,0.00005019,0.00005130,0.00004497,0.00003554,-0.000
 00413,0.00000121,-0.00000174,0.00000038,0.00000136,-0.00000034,-0.0000
 0059,-0.00000062,0.00000127,-0.00000250,0.00000051,0.00000026,-0.00001
 474,-0.00004784,0.00009613,0.00000034,0.00000088,-0.00000276,-0.000004
 45,0.00000418,0.00000087,0.00681171,0.08953577,-0.00145885,-0.00092832
 ,-0.00361055,-0.00033343,0.00237669,0.00200622,-0.00000069,0.00000580,
 0.00002005,0.00095171,0.00091826,0.00015809,0.00006675,-0.00005374,0.0
 0001139,-0.00008991,0.00001312,0.00006300,0.00000231,-0.00001076,0.000
 00236,0.00767946,-0.00874437,-0.00432850,-0.00000442,0.00000515,-0.000
 00765,0.00008888,0.00000023,-0.00016749,0.00003671,-0.00003078,0.00001
 305,-0.03194981,-0.07601295,-0.26925197,-0.00032429,-0.00001282,0.0002
 0158,-0.00077746,-0.00007063,0.00096130,-0.00048940,-0.00018251,0.0001
 3972,0.00010639,-0.00008836,0.00042986,-0.00013290,-0.00123517,0.00044
 582,-0.00001244,-0.00001158,-0.00000161,-0.00000131,-0.00000434,-0.000
 00114,0.00006643,-0.00042924,0.00050699,-0.00000470,-0.00011826,-0.000
 02568,-0.00008693,0.00003103,-0.00020409,-0.00000733,0.00000155,-0.000
 00149,0.00000016,0.00000064,-0.00000034,-0.00000040,-0.00000043,0.0000
 0199,-0.00000445,0.00000006,-0.00000007,-0.00003809,-0.00001384,0.0000
 9227,-0.00000011,0.00000155,-0.00000582,-0.00000697,0.00000676,0.00000
 280,0.03007276,0.09105870,0.29021568,-0.00511564,-0.02353970,0.0212909
 0,-0.00337432,0.00212392,0.00233145,-0.00010831,0.00014019,-0.00002988
 ,-0.00483374,0.00052537,-0.00328986,-0.00024231,0.00049621,-0.00025260
 ,-0.00025287,0.00019783,0.00004469,-0.00002048,-0.00006834,0.00000414,
 -0.00012915,0.02738619,-0.01950847,-0.00000993,0.00001586,-0.00002282,
 0.00104995,-0.00052439,0.00022960,0.00007838,-0.00006141,0.00006909,-0
 .05625602,-0.03888268,0.03456954,-0.00179402,-0.00264138,0.00120217,0.
 00145216,0.00066743,-0.00036190,0.00110218,0.00079408,-0.00001695,0.00
 012336,0.00128588,-0.00073212,-0.00003603,-0.00011249,-0.00003463,-0.0
 0000735,-0.00000311,-0.00000604,0.00000099,-0.00000493,-0.00000307,0.0
 0004305,0.00020591,0.00009136,0.00031301,-0.00005456,0.00003366,0.0001
 0931,-0.00007238,-0.00001495,-0.00003167,0.00001164,-0.00001166,-0.000
 00465,0.00000501,-0.00000568,0.,-0.00000050,0.00000360,-0.00001388,0.0
 0000061,0.00000112,0.00002261,0.00010092,-0.00002279,-0.00000854,0.000
 00879,-0.00001298,-0.00002271,0.00001922,-0.00000139,0.00169179,0.0028
 6113,-0.00334767,0.06627484,-0.00404346,-0.00865880,0.00824752,0.00362
 655,-0.00015174,-0.00362415,-0.00004378,0.00005123,-0.00000260,-0.0016
 3076,0.00153004,-0.00153828,0.00013526,0.00018643,0.00007062,-0.000148
 78,0.00007661,0.00003667,-0.00000621,-0.00003077,0.00000456,0.00341819
 ,-0.02600028,0.01708138,-0.00000566,0.00000938,-0.00001129,0.00041546,
 -0.00022430,0.00010872,0.00004336,-0.00003826,0.00003493,-0.03212791,-
 0.19216438,0.12717343,-0.00067185,-0.00063148,0.00044321,0.00073414,0.
 00028099,-0.00006251,-0.00014390,0.00039706,-0.00007619,-0.00002707,-0
 .00107101,0.00092699,-0.00004020,0.00004486,0.00037142,-0.00000957,-0.
 00000504,-0.00000523,-0.00000026,-0.00000465,-0.00000213,0.00010021,-0
 .00002316,0.00024600,-0.00016275,-0.00007229,0.00003187,-0.00000548,-0
 .00003189,-0.00004008,-0.00001431,0.00000475,-0.00000486,-0.00000150,0
 .00000278,-0.00000348,0.00000008,-0.00000056,0.00000186,-0.00000769,0.
 00000007,0.00000010,0.00002839,0.00004025,0.00000831,-0.00000333,0.000
 00561,-0.00000782,-0.00001074,0.00001049,-0.00000013,0.00148391,0.0102
 0174,-0.00647144,0.02911965,0.21626630,-0.00189163,-0.00578144,0.00403
 534,0.00040281,-0.00117598,0.00087785,0.00000835,-0.00001366,-0.000014
 29,-0.00091506,-0.00014407,0.00036834,0.00004036,-0.00021323,-0.000126
 10,0.00001864,-0.00001636,-0.00001206,-0.00000013,0.00000863,-0.000003
 07,-0.00128488,-0.00693357,0.00676570,-0.00000013,-0.00000117,0.000002
 96,0.00003225,0.00001635,0.00003540,-0.00001152,0.00001022,-0.00000536
 ,0.02962405,0.13649928,-0.17530466,-0.00029412,-0.00020520,0.00035713,
 0.00057603,-0.00001061,0.00073619,0.00051490,0.00032709,0.00007141,0.0
 0011293,-0.00000799,0.00031434,0.00004905,-0.00008955,0.00042990,0.000
 00325,0.00000559,-0.00000237,-0.00000092,-0.00000052,0.00000064,0.0001
 1520,-0.00014796,0.00036512,-0.00006334,0.00000964,-0.00002666,0.00002
 014,0.00000170,-0.00001517,0.00000349,-0.00000133,0.00000126,-0.000000
 12,-0.00000065,0.00000091,-0.00000005,-0.00000029,-0.00000049,0.000001
 85,-0.00000065,-0.00000009,0.00000869,0.00001987,-0.00002968,0.0000003
 5,-0.00000105,0.00000343,0.00000198,-0.00000192,-0.00000052,0.00512346
 ,0.02078624,-0.01766576,-0.03219586,-0.14293739,0.17884036\\-0.0012611
 4,0.00190570,0.00213060,0.00000959,-0.00001139,-0.00000291,-0.00000929
 ,0.00001484,0.00001207,0.00219101,-0.00324209,-0.00456588,0.00000158,0
 .00000184,-0.00000096,-0.00000932,0.00003098,0.00000171,-0.00000466,-0
 .00001286,-0.00000050,0.00001364,-0.00000990,0.00000420,-0.00000738,-0
 .00000324,-0.00000198,0.00078970,-0.00101464,-0.00322963,0.00001222,-0
 .00000655,0.00001308,-0.00001722,0.00001047,-0.00000855,-0.00174196,0.
 00233706,0.00565962,0.00000122,-0.00000102,0.00000690,0.00000605,-0.00
 000578,-0.00001142,-0.00000306,0.00000309,0.00000806,-0.00000350,-0.00
 000526,-0.00000361,0.00000333,0.00000683,-0.00000993,0.00000738,-0.000
 00560,0.00000390,0.,0.00000365,-0.00000799,0.00000631,0.00000061,0.000
 00179,-0.00000173,0.00000080,0.00001305,0.00000333,0.00000391,-0.00000
 326,-0.00000148,-0.00000335,0.00000492,0.00000203,0.00000618,-0.000008
 85,0.00000555,0.00000868,0.00000324,0.00000977,-0.00000994,0.00001146,
 -0.00000390,0.00000138,-0.00000080,-0.00000062,0.00000461,-0.00001270,
 0.00000102,-0.00000351,-0.00001080,0.00000150,-0.00000548,0.00000518\\
 \@


 ABOVE ALL I AM AN OPTIMIST FOR NUMBER THEORY,
 AND I HOLD THE HOPE THAT WE MAY NOT BE FAR FROM
 A TIME WHEN IRREFUTABLE ARITHMETIC WILL CELEBRATE
 ITS TRIUMPHS IN PHYSICS AND CHEMISTRY.
   -- HERMANN MINKOWSKI, 1905
 Job cpu time:       0 days 12 hours 33 minutes  6.9 seconds.
 Elapsed time:       0 days  1 hours  3 minutes  6.5 seconds.
 File lengths (MBytes):  RWF=    721 Int=      0 D2E=      0 Chk=     34 Scr=      1
 Normal termination of Gaussian 16 at Sat Mar  9 14:07:06 2019.
