 Entering Gaussian System, Link 0=g16
 Initial command:
 /sw/Projects/G16/g16/l1.exe "/nvme/pbs/tmpdir/pbs.74205[20].flm1/Gau-8636.inp" -scrdir="/nvme/pbs/tmpdir/pbs.74205[20].flm1/"
 Entering Link 1 = /sw/Projects/G16/g16/l1.exe PID=      8637.
  
 Copyright (c) 1988-2017, Gaussian, Inc.  All Rights Reserved.
  
 This is part of the Gaussian(R) 16 program.  It is based on
 the Gaussian(R) 09 system (copyright 2009, Gaussian, Inc.),
 the Gaussian(R) 03 system (copyright 2003, Gaussian, Inc.),
 the Gaussian(R) 98 system (copyright 1998, Gaussian, Inc.),
 the Gaussian(R) 94 system (copyright 1995, Gaussian, Inc.),
 the Gaussian 92(TM) system (copyright 1992, Gaussian, Inc.),
 the Gaussian 90(TM) system (copyright 1990, Gaussian, Inc.),
 the Gaussian 88(TM) system (copyright 1988, Gaussian, Inc.),
 the Gaussian 86(TM) system (copyright 1986, Carnegie Mellon
 University), and the Gaussian 82(TM) system (copyright 1983,
 Carnegie Mellon University). Gaussian is a federally registered
 trademark of Gaussian, Inc.
  
 This software contains proprietary and confidential information,
 including trade secrets, belonging to Gaussian, Inc.
  
 This software is provided under written license and may be
 used, copied, transmitted, or stored only in accord with that
 written license.
  
 The following legend is applicable only to US Government
 contracts under FAR:
  
                    RESTRICTED RIGHTS LEGEND
  
 Use, reproduction and disclosure by the US Government is
 subject to restrictions as set forth in subparagraphs (a)
 and (c) of the Commercial Computer Software - Restricted
 Rights clause in FAR 52.227-19.
  
 Gaussian, Inc.
 340 Quinnipiac St., Bldg. 40, Wallingford CT 06492
  
  
 ---------------------------------------------------------------
 Warning -- This program may not be used in any manner that
 competes with the business of Gaussian, Inc. or will provide
 assistance to any competitor of Gaussian, Inc.  The licensee
 of this program is prohibited from giving any competitor of
 Gaussian, Inc. access to this program.  By using this program,
 the user acknowledges that Gaussian, Inc. is engaged in the
 business of creating and licensing software in the field of
 computational chemistry and represents and warrants to the
 licensee that it is not a competitor of Gaussian, Inc. and that
 it will not use this program in any manner prohibited above.
 ---------------------------------------------------------------
  

 Cite this work as:
 Gaussian 16, Revision B.01,
 M. J. Frisch, G. W. Trucks, H. B. Schlegel, G. E. Scuseria, 
 M. A. Robb, J. R. Cheeseman, G. Scalmani, V. Barone, 
 G. A. Petersson, H. Nakatsuji, X. Li, M. Caricato, A. V. Marenich, 
 J. Bloino, B. G. Janesko, R. Gomperts, B. Mennucci, H. P. Hratchian, 
 J. V. Ortiz, A. F. Izmaylov, J. L. Sonnenberg, D. Williams-Young, 
 F. Ding, F. Lipparini, F. Egidi, J. Goings, B. Peng, A. Petrone, 
 T. Henderson, D. Ranasinghe, V. G. Zakrzewski, J. Gao, N. Rega, 
 G. Zheng, W. Liang, M. Hada, M. Ehara, K. Toyota, R. Fukuda, 
 J. Hasegawa, M. Ishida, T. Nakajima, Y. Honda, O. Kitao, H. Nakai, 
 T. Vreven, K. Throssell, J. A. Montgomery, Jr., J. E. Peralta, 
 F. Ogliaro, M. J. Bearpark, J. J. Heyd, E. N. Brothers, K. N. Kudin, 
 V. N. Staroverov, T. A. Keith, R. Kobayashi, J. Normand, 
 K. Raghavachari, A. P. Rendell, J. C. Burant, S. S. Iyengar, 
 J. Tomasi, M. Cossi, J. M. Millam, M. Klene, C. Adamo, R. Cammi, 
 J. W. Ochterski, R. L. Martin, K. Morokuma, O. Farkas, 
 J. B. Foresman, and D. J. Fox, Gaussian, Inc., Wallingford CT, 2016.
 
 ******************************************
 Gaussian 16:  ES64L-G16RevB.01 20-Dec-2017
                 9-Mar-2019 
 ******************************************
 %mem=20gb
 %nproc=12
 Will use up to   12 processors via shared memory.
 %chk=4c1_b1_e3_4c1_PSI.inp_extract_20.chk
 ----------------------------------------------------------------------
 #M062X/6-311++G(2d,2p) opt=ModRedundant freq=noraman SCRF=(SMD,solvent
 =water)
 ----------------------------------------------------------------------
 1/18=120,19=15,26=3,38=1/1,3;
 2/9=110,12=2,17=6,18=5,40=1/2;
 3/5=4,6=6,7=1212,11=2,25=1,30=1,70=32201,71=1,72=1,74=-55/1,2,3;
 4//1;
 5/5=2,38=5,53=1/2;
 6/7=2,8=2,9=2,10=2,28=1/1;
 7//1,2,3,16;
 1/18=20,19=15,26=3/3(2);
 2/9=110/2;
 99//99;
 2/9=110/2;
 3/5=4,6=6,7=1212,11=2,25=1,30=1,70=32205,71=1,72=1,74=-55/1,2,3;
 4/5=5,16=3,69=1/1;
 5/5=2,38=5,53=1/2;
 7//1,2,3,16;
 1/18=20,19=15,26=3/3(-5);
 2/9=110/2;
 6/7=2,8=2,9=2,10=2,19=2,28=1/1;
 99/9=1/99;
 --------------------------------
 4c1_b1_e3_4c1_PSI.inp_extract_20
 --------------------------------
 Symbolic Z-matrix:
 Charge =  0 Multiplicity = 1
 C                     2.27106  -1.30615   0.30658 
 C                     3.00817   1.3749   -0.35539 
 C                    -2.27825  -1.3687    0.04345 
 C                     1.19977  -0.34093  -0.18083 
 C                     1.60107   1.09223   0.15544 
 O                    -1.59552   0.8986    0.45998 
 C                    -3.63354  -0.87159  -0.46551 
 O                     3.94107   0.44348   0.15466 
 C                    -3.96149   0.49227   0.14277 
 C                    -1.21165  -0.3081   -0.15856 
 C                    -2.79619   1.4471   -0.05905 
 C                     3.64078  -0.88865  -0.21037 
 O                    -0.02492  -0.72893   0.42537 
 H                     2.28153  -1.30924   1.39318 
 H                     2.04922  -2.31463  -0.02869 
 H                     3.34243   2.35276  -0.03809 
 H                     3.03357   1.34348  -1.44255 
 H                    -2.33453  -1.5954    1.10508 
 H                    -1.97696  -2.27327  -0.4751 
 H                     1.09234  -0.4413   -1.25696 
 H                     0.91569   1.80396  -0.29137 
 H                     1.57128   1.22915   1.23301 
 H                    -4.40789  -1.59409  -0.22812 
 H                    -3.60225  -0.78478  -1.54979 
 H                    -4.15463   0.38704   1.20762 
 H                    -4.85326   0.91533  -0.31099 
 H                    -1.05544  -0.11728  -1.21651 
 H                    -2.65917   1.66613  -1.11573 
 H                    -2.94914   2.38118   0.46317 
 H                     3.68596  -0.97941  -1.29334 
 H                     4.41773  -1.50909   0.21384 
 
 The following ModRedundant input section has been read:
 D       1       4      13      10 F                                           
 

 GradGradGradGradGradGradGradGradGradGradGradGradGradGradGradGradGradGrad
 Berny optimization.
 Initialization pass.
                           ----------------------------
                           !    Initial Parameters    !
                           ! (Angstroms and Degrees)  !
 --------------------------                            --------------------------
 ! Name  Definition              Value          Derivative Info.                !
 --------------------------------------------------------------------------------
 ! R1    R(1,4)                  1.5221         estimate D2E/DX2                !
 ! R2    R(1,12)                 1.5224         estimate D2E/DX2                !
 ! R3    R(1,14)                 1.0867         estimate D2E/DX2                !
 ! R4    R(1,15)                 1.0857         estimate D2E/DX2                !
 ! R5    R(2,5)                  1.5234         estimate D2E/DX2                !
 ! R6    R(2,8)                  1.4135         estimate D2E/DX2                !
 ! R7    R(2,16)                 1.081          estimate D2E/DX2                !
 ! R8    R(2,17)                 1.0879         estimate D2E/DX2                !
 ! R9    R(3,7)                  1.5307         estimate D2E/DX2                !
 ! R10   R(3,10)                 1.5177         estimate D2E/DX2                !
 ! R11   R(3,18)                 1.087          estimate D2E/DX2                !
 ! R12   R(3,19)                 1.0853         estimate D2E/DX2                !
 ! R13   R(4,5)                  1.5258         estimate D2E/DX2                !
 ! R14   R(4,13)                 1.4205         estimate D2E/DX2                !
 ! R15   R(4,20)                 1.0861         estimate D2E/DX2                !
 ! R16   R(5,21)                 1.0844         estimate D2E/DX2                !
 ! R17   R(5,22)                 1.0866         estimate D2E/DX2                !
 ! R18   R(6,10)                 1.4093         estimate D2E/DX2                !
 ! R19   R(6,11)                 1.4184         estimate D2E/DX2                !
 ! R20   R(7,9)                  1.5289         estimate D2E/DX2                !
 ! R21   R(7,23)                 1.0853         estimate D2E/DX2                !
 ! R22   R(7,24)                 1.0882         estimate D2E/DX2                !
 ! R23   R(8,12)                 1.4135         estimate D2E/DX2                !
 ! R24   R(9,11)                 1.52           estimate D2E/DX2                !
 ! R25   R(9,25)                 1.0873         estimate D2E/DX2                !
 ! R26   R(9,26)                 1.0863         estimate D2E/DX2                !
 ! R27   R(10,13)                1.388          estimate D2E/DX2                !
 ! R28   R(10,27)                1.0863         estimate D2E/DX2                !
 ! R29   R(11,28)                1.0878         estimate D2E/DX2                !
 ! R30   R(11,29)                1.081          estimate D2E/DX2                !
 ! R31   R(12,30)                1.0877         estimate D2E/DX2                !
 ! R32   R(12,31)                1.081          estimate D2E/DX2                !
 ! A1    A(4,1,12)             110.5234         estimate D2E/DX2                !
 ! A2    A(4,1,14)             109.1949         estimate D2E/DX2                !
 ! A3    A(4,1,15)             110.2643         estimate D2E/DX2                !
 ! A4    A(12,1,14)            109.3688         estimate D2E/DX2                !
 ! A5    A(12,1,15)            109.4951         estimate D2E/DX2                !
 ! A6    A(14,1,15)            107.947          estimate D2E/DX2                !
 ! A7    A(5,2,8)              111.4898         estimate D2E/DX2                !
 ! A8    A(5,2,16)             110.7947         estimate D2E/DX2                !
 ! A9    A(5,2,17)             110.5661         estimate D2E/DX2                !
 ! A10   A(8,2,16)             106.6231         estimate D2E/DX2                !
 ! A11   A(8,2,17)             109.0353         estimate D2E/DX2                !
 ! A12   A(16,2,17)            108.1934         estimate D2E/DX2                !
 ! A13   A(7,3,10)             110.5517         estimate D2E/DX2                !
 ! A14   A(7,3,18)             110.2812         estimate D2E/DX2                !
 ! A15   A(7,3,19)             110.9536         estimate D2E/DX2                !
 ! A16   A(10,3,18)            108.187          estimate D2E/DX2                !
 ! A17   A(10,3,19)            108.8902         estimate D2E/DX2                !
 ! A18   A(18,3,19)            107.8892         estimate D2E/DX2                !
 ! A19   A(1,4,5)              109.8738         estimate D2E/DX2                !
 ! A20   A(1,4,13)             107.2728         estimate D2E/DX2                !
 ! A21   A(1,4,20)             109.1644         estimate D2E/DX2                !
 ! A22   A(5,4,13)             112.9086         estimate D2E/DX2                !
 ! A23   A(5,4,20)             109.3399         estimate D2E/DX2                !
 ! A24   A(13,4,20)            108.198          estimate D2E/DX2                !
 ! A25   A(2,5,4)              110.0792         estimate D2E/DX2                !
 ! A26   A(2,5,21)             108.8951         estimate D2E/DX2                !
 ! A27   A(2,5,22)             109.5399         estimate D2E/DX2                !
 ! A28   A(4,5,21)             111.066          estimate D2E/DX2                !
 ! A29   A(4,5,22)             109.2497         estimate D2E/DX2                !
 ! A30   A(21,5,22)            107.9722         estimate D2E/DX2                !
 ! A31   A(10,6,11)            113.6458         estimate D2E/DX2                !
 ! A32   A(3,7,9)              110.3243         estimate D2E/DX2                !
 ! A33   A(3,7,23)             110.0472         estimate D2E/DX2                !
 ! A34   A(3,7,24)             109.3754         estimate D2E/DX2                !
 ! A35   A(9,7,23)             110.7176         estimate D2E/DX2                !
 ! A36   A(9,7,24)             109.3542         estimate D2E/DX2                !
 ! A37   A(23,7,24)            106.9512         estimate D2E/DX2                !
 ! A38   A(2,8,12)             112.806          estimate D2E/DX2                !
 ! A39   A(7,9,11)             110.0656         estimate D2E/DX2                !
 ! A40   A(7,9,25)             109.9612         estimate D2E/DX2                !
 ! A41   A(7,9,26)             110.9339         estimate D2E/DX2                !
 ! A42   A(11,9,25)            109.0867         estimate D2E/DX2                !
 ! A43   A(11,9,26)            109.2234         estimate D2E/DX2                !
 ! A44   A(25,9,26)            107.5137         estimate D2E/DX2                !
 ! A45   A(3,10,6)             110.3973         estimate D2E/DX2                !
 ! A46   A(3,10,13)            109.452          estimate D2E/DX2                !
 ! A47   A(3,10,27)            110.6983         estimate D2E/DX2                !
 ! A48   A(6,10,13)            107.9302         estimate D2E/DX2                !
 ! A49   A(6,10,27)            108.4334         estimate D2E/DX2                !
 ! A50   A(13,10,27)           109.8795         estimate D2E/DX2                !
 ! A51   A(6,11,9)             110.9446         estimate D2E/DX2                !
 ! A52   A(6,11,28)            109.0681         estimate D2E/DX2                !
 ! A53   A(6,11,29)            106.0892         estimate D2E/DX2                !
 ! A54   A(9,11,28)            110.6111         estimate D2E/DX2                !
 ! A55   A(9,11,29)            111.7273         estimate D2E/DX2                !
 ! A56   A(28,11,29)           108.246          estimate D2E/DX2                !
 ! A57   A(1,12,8)             111.2172         estimate D2E/DX2                !
 ! A58   A(1,12,30)            110.6446         estimate D2E/DX2                !
 ! A59   A(1,12,31)            110.8549         estimate D2E/DX2                !
 ! A60   A(8,12,30)            109.0825         estimate D2E/DX2                !
 ! A61   A(8,12,31)            106.6713         estimate D2E/DX2                !
 ! A62   A(30,12,31)           108.2387         estimate D2E/DX2                !
 ! A63   A(4,13,10)            118.3459         estimate D2E/DX2                !
 ! D1    D(12,1,4,5)           -52.3025         estimate D2E/DX2                !
 ! D2    D(12,1,4,13)         -175.3859         estimate D2E/DX2                !
 ! D3    D(12,1,4,20)           67.5938         estimate D2E/DX2                !
 ! D4    D(14,1,4,5)            68.0484         estimate D2E/DX2                !
 ! D5    D(14,1,4,13)          -55.035          estimate D2E/DX2                !
 ! D6    D(14,1,4,20)         -172.0552         estimate D2E/DX2                !
 ! D7    D(15,1,4,5)          -173.5051         estimate D2E/DX2                !
 ! D8    D(15,1,4,13)           63.4114         estimate D2E/DX2                !
 ! D9    D(15,1,4,20)          -53.6088         estimate D2E/DX2                !
 ! D10   D(4,1,12,8)            55.6758         estimate D2E/DX2                !
 ! D11   D(4,1,12,30)          -65.7259         estimate D2E/DX2                !
 ! D12   D(4,1,12,31)          174.1792         estimate D2E/DX2                !
 ! D13   D(14,1,12,8)          -64.5711         estimate D2E/DX2                !
 ! D14   D(14,1,12,30)         174.0273         estimate D2E/DX2                !
 ! D15   D(14,1,12,31)          53.9324         estimate D2E/DX2                !
 ! D16   D(15,1,12,8)          177.3335         estimate D2E/DX2                !
 ! D17   D(15,1,12,30)          55.9318         estimate D2E/DX2                !
 ! D18   D(15,1,12,31)         -64.1631         estimate D2E/DX2                !
 ! D19   D(8,2,5,4)            -55.77           estimate D2E/DX2                !
 ! D20   D(8,2,5,21)          -177.7497         estimate D2E/DX2                !
 ! D21   D(8,2,5,22)            64.3758         estimate D2E/DX2                !
 ! D22   D(16,2,5,4)          -174.3499         estimate D2E/DX2                !
 ! D23   D(16,2,5,21)           63.6705         estimate D2E/DX2                !
 ! D24   D(16,2,5,22)          -54.2041         estimate D2E/DX2                !
 ! D25   D(17,2,5,4)            65.7029         estimate D2E/DX2                !
 ! D26   D(17,2,5,21)          -56.2767         estimate D2E/DX2                !
 ! D27   D(17,2,5,22)         -174.1513         estimate D2E/DX2                !
 ! D28   D(5,2,8,12)            60.1826         estimate D2E/DX2                !
 ! D29   D(16,2,8,12)         -178.7712         estimate D2E/DX2                !
 ! D30   D(17,2,8,12)          -62.1753         estimate D2E/DX2                !
 ! D31   D(10,3,7,9)           -51.9147         estimate D2E/DX2                !
 ! D32   D(10,3,7,23)         -174.3767         estimate D2E/DX2                !
 ! D33   D(10,3,7,24)           68.4089         estimate D2E/DX2                !
 ! D34   D(18,3,7,9)            67.6832         estimate D2E/DX2                !
 ! D35   D(18,3,7,23)          -54.7788         estimate D2E/DX2                !
 ! D36   D(18,3,7,24)         -171.9932         estimate D2E/DX2                !
 ! D37   D(19,3,7,9)          -172.8329         estimate D2E/DX2                !
 ! D38   D(19,3,7,23)           64.7052         estimate D2E/DX2                !
 ! D39   D(19,3,7,24)          -52.5093         estimate D2E/DX2                !
 ! D40   D(7,3,10,6)            55.6135         estimate D2E/DX2                !
 ! D41   D(7,3,10,13)          174.2769         estimate D2E/DX2                !
 ! D42   D(7,3,10,27)          -64.4611         estimate D2E/DX2                !
 ! D43   D(18,3,10,6)          -65.2386         estimate D2E/DX2                !
 ! D44   D(18,3,10,13)          53.4248         estimate D2E/DX2                !
 ! D45   D(18,3,10,27)         174.6868         estimate D2E/DX2                !
 ! D46   D(19,3,10,6)          177.7508         estimate D2E/DX2                !
 ! D47   D(19,3,10,13)         -63.5858         estimate D2E/DX2                !
 ! D48   D(19,3,10,27)          57.6762         estimate D2E/DX2                !
 ! D49   D(1,4,5,2)             52.1692         estimate D2E/DX2                !
 ! D50   D(1,4,5,21)           172.8521         estimate D2E/DX2                !
 ! D51   D(1,4,5,22)           -68.152          estimate D2E/DX2                !
 ! D52   D(13,4,5,2)           171.873          estimate D2E/DX2                !
 ! D53   D(13,4,5,21)          -67.4441         estimate D2E/DX2                !
 ! D54   D(13,4,5,22)           51.5519         estimate D2E/DX2                !
 ! D55   D(20,4,5,2)           -67.6203         estimate D2E/DX2                !
 ! D56   D(20,4,5,21)           53.0627         estimate D2E/DX2                !
 ! D57   D(20,4,5,22)          172.0586         estimate D2E/DX2                !
 ! D58   D(1,4,13,10)         -159.6168         Frozen                          !
 ! D59   D(5,4,13,10)           79.1924         estimate D2E/DX2                !
 ! D60   D(20,4,13,10)         -41.9645         estimate D2E/DX2                !
 ! D61   D(11,6,10,3)          -61.0387         estimate D2E/DX2                !
 ! D62   D(11,6,10,13)         179.3739         estimate D2E/DX2                !
 ! D63   D(11,6,10,27)          60.389          estimate D2E/DX2                !
 ! D64   D(10,6,11,9)           61.0464         estimate D2E/DX2                !
 ! D65   D(10,6,11,28)         -61.0343         estimate D2E/DX2                !
 ! D66   D(10,6,11,29)        -177.4242         estimate D2E/DX2                !
 ! D67   D(3,7,9,11)            51.3754         estimate D2E/DX2                !
 ! D68   D(3,7,9,25)           -68.8263         estimate D2E/DX2                !
 ! D69   D(3,7,9,26)           172.3749         estimate D2E/DX2                !
 ! D70   D(23,7,9,11)          173.4428         estimate D2E/DX2                !
 ! D71   D(23,7,9,25)           53.2411         estimate D2E/DX2                !
 ! D72   D(23,7,9,26)          -65.5577         estimate D2E/DX2                !
 ! D73   D(24,7,9,11)          -68.961          estimate D2E/DX2                !
 ! D74   D(24,7,9,25)          170.8373         estimate D2E/DX2                !
 ! D75   D(24,7,9,26)           52.0385         estimate D2E/DX2                !
 ! D76   D(2,8,12,1)           -59.9093         estimate D2E/DX2                !
 ! D77   D(2,8,12,30)           62.4006         estimate D2E/DX2                !
 ! D78   D(2,8,12,31)          179.0997         estimate D2E/DX2                !
 ! D79   D(7,9,11,6)           -54.9663         estimate D2E/DX2                !
 ! D80   D(7,9,11,28)           66.2104         estimate D2E/DX2                !
 ! D81   D(7,9,11,29)         -173.128          estimate D2E/DX2                !
 ! D82   D(25,9,11,6)           65.7626         estimate D2E/DX2                !
 ! D83   D(25,9,11,28)        -173.0607         estimate D2E/DX2                !
 ! D84   D(25,9,11,29)         -52.3991         estimate D2E/DX2                !
 ! D85   D(26,9,11,6)         -176.9857         estimate D2E/DX2                !
 ! D86   D(26,9,11,28)         -55.809          estimate D2E/DX2                !
 ! D87   D(26,9,11,29)          64.8526         estimate D2E/DX2                !
 ! D88   D(3,10,13,4)          146.9353         estimate D2E/DX2                !
 ! D89   D(6,10,13,4)          -92.881          estimate D2E/DX2                !
 ! D90   D(27,10,13,4)          25.1795         estimate D2E/DX2                !
 --------------------------------------------------------------------------------
 Trust Radius=3.00D-01 FncErr=1.00D-07 GrdErr=1.00D-06 EigMax=2.50D+02 EigMin=1.00D-04
 Number of steps in this run=    186 maximum allowed number of steps=    186.
 GradGradGradGradGradGradGradGradGradGradGradGradGradGradGradGradGradGrad

                          Input orientation:                          
 ---------------------------------------------------------------------
 Center     Atomic      Atomic             Coordinates (Angstroms)
 Number     Number       Type             X           Y           Z
 ---------------------------------------------------------------------
      1          6           0        2.271055   -1.306154    0.306580
      2          6           0        3.008174    1.374904   -0.355391
      3          6           0       -2.278254   -1.368701    0.043447
      4          6           0        1.199770   -0.340928   -0.180827
      5          6           0        1.601071    1.092231    0.155435
      6          8           0       -1.595517    0.898599    0.459984
      7          6           0       -3.633541   -0.871594   -0.465506
      8          8           0        3.941074    0.443483    0.154660
      9          6           0       -3.961489    0.492272    0.142765
     10          6           0       -1.211649   -0.308102   -0.158559
     11          6           0       -2.796189    1.447099   -0.059045
     12          6           0        3.640781   -0.888650   -0.210368
     13          8           0       -0.024915   -0.728932    0.425374
     14          1           0        2.281533   -1.309236    1.393179
     15          1           0        2.049218   -2.314635   -0.028690
     16          1           0        3.342432    2.352763   -0.038093
     17          1           0        3.033571    1.343478   -1.442554
     18          1           0       -2.334530   -1.595401    1.105084
     19          1           0       -1.976962   -2.273269   -0.475101
     20          1           0        1.092340   -0.441300   -1.256963
     21          1           0        0.915691    1.803955   -0.291368
     22          1           0        1.571275    1.229153    1.233009
     23          1           0       -4.407887   -1.594088   -0.228116
     24          1           0       -3.602252   -0.784779   -1.549788
     25          1           0       -4.154627    0.387042    1.207619
     26          1           0       -4.853257    0.915326   -0.310988
     27          1           0       -1.055441   -0.117276   -1.216507
     28          1           0       -2.659168    1.666126   -1.115733
     29          1           0       -2.949135    2.381184    0.463174
     30          1           0        3.685958   -0.979405   -1.293342
     31          1           0        4.417726   -1.509090    0.213841
 ---------------------------------------------------------------------
                    Distance matrix (angstroms):
                    1          2          3          4          5
     1  C    0.000000
     2  C    2.858255   0.000000
     3  C    4.557342   5.969318   0.000000
     4  C    1.522130   2.498975   3.633630   0.000000
     5  C    2.494789   1.523413   4.595421   1.525798   0.000000
     6  O    4.453633   4.699540   2.404222   3.124211   3.216896
     7  C    5.970696   7.012222   1.530670   4.870682   5.625241
     8  O    2.423484   1.413506   6.478921   2.870993   2.428269
     9  C    6.488896   7.042968   2.511248   5.238084   5.594836
    10  C    3.652628   4.547324   1.517670   2.411745   3.157676
    11  C    5.778499   5.812372   2.864872   4.379447   4.416767
    12  C    1.522397   2.354761   5.943892   2.501881   2.866726
    13  O    2.370396   3.772976   2.373333   1.420521   2.456284
    14  H    1.086654   3.284831   4.755730   2.141338   2.786051
    15  H    1.085657   3.826098   4.430238   2.154119   3.441144
    16  H    3.828096   1.081025   6.741517   3.444901   2.158410
    17  H    3.265188   1.087914   6.146511   2.791416   2.160729
    18  H    4.683235   6.284917   1.087029   3.964662   4.859440
    19  H    4.426283   6.178598   1.085317   3.729901   4.952422
    20  H    2.140563   2.789597   3.729885   1.086133   2.146018
    21  H    3.444899   2.136977   4.514325   2.166436   1.084403
    22  H    2.788502   2.146843   4.794036   2.145251   1.086647
    23  H    6.706495   7.989310   2.158676   5.746169   6.593254
    24  H    6.181721   7.056100   2.152286   5.013030   5.788395
    25  H    6.705831   7.397607   2.821118   5.579184   5.893424
    26  H    7.488136   7.874978   3.460209   6.183385   6.473577
    27  H    3.846921   4.413739   2.156112   2.491712   3.225242
    28  H    5.929968   5.725530   3.270928   4.449013   4.482729
    29  H    6.393072   6.096899   3.832478   5.003803   4.739249
    30  H    2.160663   2.623340   6.124572   2.797583   3.276795
    31  H    2.158235   3.260105   6.699619   3.446100   3.834557
                    6          7          8          9         10
     6  O    0.000000
     7  C    2.853709   0.000000
     8  O    5.563649   7.712900   0.000000
     9  C    2.421477   1.528945   7.902723   0.000000
    10  C    1.409283   2.505454   5.216660   2.879759   0.000000
    11  C    1.418399   2.498541   6.814956   1.519982   2.366728
    12  C    5.573369   7.278815   1.413506   7.734737   4.887310
    13  O    2.262045   3.719704   4.144504   4.131322   1.387953
    14  H    4.558169   6.215653   2.712937   6.616970   3.951263
    15  H    4.883418   5.879364   3.349620   6.636017   3.830965
    16  H    5.171655   7.696971   2.010193   7.539323   5.275829
    17  H    5.024542   7.093063   2.045641   7.222787   4.732679
    18  H    2.679987   2.162887   6.666600   2.816280   2.124804
    19  H    3.328758   2.170032   6.542208   3.459526   2.132553
    20  H    3.459452   4.810978   3.300122   5.326536   2.555895
    21  H    2.773151   5.280568   3.347054   5.069109   3.000666
    22  H    3.276493   5.864145   2.719570   5.687100   3.470487
    23  H    3.820523   1.085340   8.602521   2.165577   3.445945
    24  H    3.301504   1.088202   7.830424   2.150499   2.806728
    25  H    2.714718   2.157555   8.164085   1.087331   3.318251
    26  H    3.347768   2.169024   8.819281   1.086332   3.844648
    27  H    2.033299   2.789193   5.211498   3.265622   1.086310
    28  H    2.050204   2.795035   6.831687   2.158191   2.628511
    29  H    2.007573   3.451293   7.164136   2.166913   3.261544
    30  H    5.873247   7.366953   2.046070   7.919071   5.071975
    31  H    6.482025   8.104987   2.010781   8.615204   5.768095
                   11         12         13         14         15
    11  C    0.000000
    12  C    6.849321   0.000000
    13  O    3.556646   3.723843   0.000000
    14  H    5.957315   2.143784   2.567704   0.000000
    15  H    6.134292   2.144647   2.650029   1.756846   0.000000
    16  H    6.205105   3.259670   4.588101   4.072380   4.843253
    17  H    5.992573   2.620951   4.139852   3.955229   4.043483
    18  H    3.290157   6.159079   2.558729   4.633889   4.584756
    19  H    3.832150   5.791916   2.646945   4.749169   4.051064
    20  H    4.485724   2.791063   2.039914   3.031624   2.435909
    21  H    3.736224   3.831814   2.795349   3.794098   4.279798
    22  H    4.559786   3.294128   2.652205   2.640746   3.791932
    23  H    3.446008   8.079543   4.515084   6.888982   6.500243
    24  H    2.802380   7.366571   4.086774   6.599624   6.049241
    25  H    2.138577   8.025364   4.348773   6.658524   6.878605
    26  H    2.139576   8.684074   5.153513   7.665383   7.626041
    27  H    2.610975   4.864343   2.032703   4.400753   3.984746
    28  H    1.087813   6.858274   3.879511   6.289511   6.260752
    29  H    1.081027   7.387318   4.269111   6.468694   6.875768
    30  H    7.030622   1.087709   4.097231   3.049359   2.461930
    31  H    7.800903   1.080991   4.515579   2.448285   2.513475
                   16         17         18         19         20
    16  H    0.000000
    17  H    1.756861   0.000000
    18  H    7.008762   6.629025   0.000000
    19  H    7.063080   6.254779   1.756230   0.000000
    20  H    3.788845   2.643531   4.319103   3.658966   0.000000
    21  H    2.500882   2.454116   4.906082   5.002495   2.450459
    22  H    2.452590   3.051232   4.821803   5.270160   3.036405
    23  H    8.699493   8.091937   2.465002   2.536077   5.713138
    24  H    7.769043   6.969586   3.051651   2.451963   4.716240
    25  H    7.849952   7.720646   2.693204   3.827666   5.855850
    26  H    8.325264   7.979086   3.827923   4.297342   6.171339
    27  H    5.179869   4.347979   3.034915   2.459103   2.172462
    28  H    6.136121   5.711234   3.959164   4.049030   4.305230
    29  H    6.311568   6.364071   4.074680   4.846588   5.220997
    30  H    3.577290   2.417366   6.509852   5.866197   2.649101
    31  H    4.016670   3.577244   6.811367   6.476932   3.789674
                   21         22         23         24         25
    21  H    0.000000
    22  H    1.756107   0.000000
    23  H    6.315946   6.771702   0.000000
    24  H    5.356956   6.210094   1.746667   0.000000
    25  H    5.473822   5.787551   2.459746   3.046568   0.000000
    26  H    5.837020   6.614909   2.549977   2.447447   1.753093
    27  H    2.903855   3.835705   3.794310   2.653843   3.966822
    28  H    3.671266   4.858414   3.804586   2.661719   3.044736
    29  H    3.979875   4.727994   4.290528   3.808136   2.446224
    30  H    4.052829   3.966366   8.186750   7.295317   8.342467
    31  H    4.847242   4.079088   8.837081   8.243486   8.835618
                   26         27         28         29         30
    26  H    0.000000
    27  H    4.038519   0.000000
    28  H    2.454657   2.400545   0.000000
    29  H    2.524628   3.556643   1.757366   0.000000
    30  H    8.801887   4.819755   6.876845   7.642209   0.000000
    31  H    9.597102   5.825684   7.869701   8.334689   1.757171
                   31
    31  H    0.000000
 Stoichiometry    C10H18O3
 Framework group  C1[X(C10H18O3)]
 Deg. of freedom    87
 Full point group                 C1      NOp   1
 Largest Abelian subgroup         C1      NOp   1
 Largest concise Abelian subgroup C1      NOp   1
                         Standard orientation:                         
 ---------------------------------------------------------------------
 Center     Atomic      Atomic             Coordinates (Angstroms)
 Number     Number       Type             X           Y           Z
 ---------------------------------------------------------------------
      1          6           0       -2.271055   -1.306154   -0.306580
      2          6           0       -3.008174    1.374904    0.355391
      3          6           0        2.278254   -1.368701   -0.043447
      4          6           0       -1.199770   -0.340928    0.180827
      5          6           0       -1.601071    1.092231   -0.155435
      6          8           0        1.595517    0.898599   -0.459984
      7          6           0        3.633541   -0.871594    0.465506
      8          8           0       -3.941074    0.443483   -0.154660
      9          6           0        3.961489    0.492272   -0.142765
     10          6           0        1.211649   -0.308102    0.158559
     11          6           0        2.796189    1.447099    0.059045
     12          6           0       -3.640781   -0.888650    0.210368
     13          8           0        0.024915   -0.728932   -0.425374
     14          1           0       -2.281533   -1.309236   -1.393179
     15          1           0       -2.049218   -2.314635    0.028690
     16          1           0       -3.342432    2.352763    0.038093
     17          1           0       -3.033571    1.343478    1.442554
     18          1           0        2.334530   -1.595401   -1.105084
     19          1           0        1.976962   -2.273269    0.475101
     20          1           0       -1.092340   -0.441300    1.256963
     21          1           0       -0.915691    1.803955    0.291368
     22          1           0       -1.571275    1.229153   -1.233009
     23          1           0        4.407887   -1.594088    0.228116
     24          1           0        3.602252   -0.784779    1.549788
     25          1           0        4.154627    0.387042   -1.207619
     26          1           0        4.853257    0.915326    0.310988
     27          1           0        1.055441   -0.117276    1.216507
     28          1           0        2.659168    1.666126    1.115733
     29          1           0        2.949135    2.381184   -0.463174
     30          1           0       -3.685958   -0.979405    1.293342
     31          1           0       -4.417726   -1.509090   -0.213841
 ---------------------------------------------------------------------
 Rotational constants (GHZ):           2.2161091           0.3645465           0.3256009
 Standard basis: 6-311++G(2d,2p) (5D, 7F)
 There are   557 symmetry adapted cartesian basis functions of A   symmetry.
 There are   531 symmetry adapted basis functions of A   symmetry.
   531 basis functions,   762 primitive gaussians,   557 cartesian basis functions
    51 alpha electrons       51 beta electrons
       nuclear repulsion energy       877.5575263327 Hartrees.
 NAtoms=   31 NActive=   31 NUniq=   31 SFac= 1.00D+00 NAtFMM=   60 NAOKFM=F Big=F
 Integral buffers will be    131072 words long.
 Raffenetti 2 integral format.
 Two-electron integral symmetry is turned on.
 ------------------------------------------------------------------------------
 Polarizable Continuum Model (PCM)
 =================================
 Model                : PCM.
 Atomic radii         : SMD-Coulomb.
 Polarization charges : Total charges.
 Charge compensation  : None.
 Solution method      : On-the-fly selection.
 Cavity type          : VdW (van der Waals Surface) (Alpha=1.000).
 Cavity algorithm     : GePol (No added spheres)
                        Default sphere list used, NSphG=   31.
                        Lebedev-Laikov grids with approx.  5.0 points / Ang**2.
                        Smoothing algorithm: York/Karplus (Gamma=1.0000).
                        Polarization charges: spherical gaussians, with
                                              point-specific exponents (IZeta= 3).
                        Self-potential: point-specific (ISelfS= 7).
                        Self-field    : sphere-specific E.n sum rule (ISelfD= 2).
 1st derivatives      : Analytical E(r).r(x)/FMM algorithm (CHGder, D1EAlg=3).
                        Cavity 1st derivative terms included.
 Solvent              : Water, Eps=  78.355300 Eps(inf)=   1.777849
 ------------------------------------------------------------------------------
 ------------------------------------------------------------------------------
 Atomic radii for non-electrostatic terms: SMD-CDS.
 ------------------------------------------------------------------------------
 Nuclear repulsion after PCM non-electrostatic terms =      877.5639788472 Hartrees.
 One-electron integrals computed using PRISM.
 NBasis=   531 RedAO= T EigKep=  5.56D-06  NBF=   531
 NBsUse=   531 1.00D-06 EigRej= -1.00D+00 NBFU=   531
 ExpMin= 3.60D-02 ExpMax= 8.59D+03 ExpMxC= 1.30D+03 IAcc=3 IRadAn=         5 AccDes= 0.00D+00
 Harris functional with IExCor= 1009 and IRadAn=       5 diagonalized for initial guess.
 HarFok:  IExCor= 1009 AccDes= 0.00D+00 IRadAn=         5 IDoV= 1 UseB2=F ITyADJ=14
 ICtDFT=  3500011 ScaDFX=  1.000000  1.000000  1.000000  1.000000
 FoFCou: FMM=F IPFlag=           0 FMFlag=      100000 FMFlg1=           0
         NFxFlg=           0 DoJE=T BraDBF=F KetDBF=T FulRan=T
         wScrn=  0.000000 ICntrl=       500 IOpCl=  0 I1Cent=   200000004 NGrid=           0
         NMat0=    1 NMatS0=      1 NMatT0=    0 NMatD0=    1 NMtDS0=    0 NMtDT0=    0
 Petite list used in FoFCou.
 Requested convergence on RMS density matrix=1.00D-08 within 128 cycles.
 Requested convergence on MAX density matrix=1.00D-06.
 Requested convergence on             energy=1.00D-06.
 No special actions if energy rises.
 Inv3:  Mode=1 IEnd=    12192768.
 Iteration    1 A*A^-1 deviation from unit magnitude is 5.11D-15 for    231.
 Iteration    1 A*A^-1 deviation from orthogonality  is 3.14D-15 for   1999    605.
 Iteration    1 A^-1*A deviation from unit magnitude is 5.11D-15 for    231.
 Iteration    1 A^-1*A deviation from orthogonality  is 1.34D-14 for   1834   1798.
 Error on total polarization charges =  0.06324
 SCF Done:  E(RM062X) =  -617.507458360     A.U. after   12 cycles
            NFock= 12  Conv=0.48D-08     -V/T= 2.0035
 SMD-CDS (non-electrostatic) energy       (kcal/mol) =       4.05
 (included in total energy above)

 **********************************************************************

            Population analysis using the SCF Density.

 **********************************************************************

 Orbital symmetries:
       Occupied  (A) (A) (A) (A) (A) (A) (A) (A) (A) (A) (A) (A)
                 (A) (A) (A) (A) (A) (A) (A) (A) (A) (A) (A) (A)
                 (A) (A) (A) (A) (A) (A) (A) (A) (A) (A) (A) (A)
                 (A) (A) (A) (A) (A) (A) (A) (A) (A) (A) (A) (A)
                 (A) (A) (A)
       Virtual   (A) (A) (A) (A) (A) (A) (A) (A) (A) (A) (A) (A)
                 (A) (A) (A) (A) (A) (A) (A) (A) (A) (A) (A) (A)
                 (A) (A) (A) (A) (A) (A) (A) (A) (A) (A) (A) (A)
                 (A) (A) (A) (A) (A) (A) (A) (A) (A) (A) (A) (A)
                 (A) (A) (A) (A) (A) (A) (A) (A) (A) (A) (A) (A)
                 (A) (A) (A) (A) (A) (A) (A) (A) (A) (A) (A) (A)
                 (A) (A) (A) (A) (A) (A) (A) (A) (A) (A) (A) (A)
                 (A) (A) (A) (A) (A) (A) (A) (A) (A) (A) (A) (A)
                 (A) (A) (A) (A) (A) (A) (A) (A) (A) (A) (A) (A)
                 (A) (A) (A) (A) (A) (A) (A) (A) (A) (A) (A) (A)
                 (A) (A) (A) (A) (A) (A) (A) (A) (A) (A) (A) (A)
                 (A) (A) (A) (A) (A) (A) (A) (A) (A) (A) (A) (A)
                 (A) (A) (A) (A) (A) (A) (A) (A) (A) (A) (A) (A)
                 (A) (A) (A) (A) (A) (A) (A) (A) (A) (A) (A) (A)
                 (A) (A) (A) (A) (A) (A) (A) (A) (A) (A) (A) (A)
                 (A) (A) (A) (A) (A) (A) (A) (A) (A) (A) (A) (A)
                 (A) (A) (A) (A) (A) (A) (A) (A) (A) (A) (A) (A)
                 (A) (A) (A) (A) (A) (A) (A) (A) (A) (A) (A) (A)
                 (A) (A) (A) (A) (A) (A) (A) (A) (A) (A) (A) (A)
                 (A) (A) (A) (A) (A) (A) (A) (A) (A) (A) (A) (A)
                 (A) (A) (A) (A) (A) (A) (A) (A) (A) (A) (A) (A)
                 (A) (A) (A) (A) (A) (A) (A) (A) (A) (A) (A) (A)
                 (A) (A) (A) (A) (A) (A) (A) (A) (A) (A) (A) (A)
                 (A) (A) (A) (A) (A) (A) (A) (A) (A) (A) (A) (A)
                 (A) (A) (A) (A) (A) (A) (A) (A) (A) (A) (A) (A)
                 (A) (A) (A) (A) (A) (A) (A) (A) (A) (A) (A) (A)
                 (A) (A) (A) (A) (A) (A) (A) (A) (A) (A) (A) (A)
                 (A) (A) (A) (A) (A) (A) (A) (A) (A) (A) (A) (A)
                 (A) (A) (A) (A) (A) (A) (A) (A) (A) (A) (A) (A)
                 (A) (A) (A) (A) (A) (A) (A) (A) (A) (A) (A) (A)
                 (A) (A) (A) (A) (A) (A) (A) (A) (A) (A) (A) (A)
                 (A) (A) (A) (A) (A) (A) (A) (A) (A) (A) (A) (A)
                 (A) (A) (A) (A) (A) (A) (A) (A) (A) (A) (A) (A)
                 (A) (A) (A) (A) (A) (A) (A) (A) (A) (A) (A) (A)
                 (A) (A) (A) (A) (A) (A) (A) (A) (A) (A) (A) (A)
                 (A) (A) (A) (A) (A) (A) (A) (A) (A) (A) (A) (A)
                 (A) (A) (A) (A) (A) (A) (A) (A) (A) (A) (A) (A)
                 (A) (A) (A) (A) (A) (A) (A) (A) (A) (A) (A) (A)
                 (A) (A) (A) (A) (A) (A) (A) (A) (A) (A) (A) (A)
                 (A) (A) (A) (A) (A) (A) (A) (A) (A) (A) (A) (A)
 The electronic state is 1-A.
 Alpha  occ. eigenvalues --  -19.63411 -19.62735 -19.62687 -10.63077 -10.58509
 Alpha  occ. eigenvalues --  -10.57441 -10.57404 -10.57279 -10.52405 -10.52377
 Alpha  occ. eigenvalues --  -10.52216 -10.52207 -10.52088  -1.20306  -1.16576
 Alpha  occ. eigenvalues --   -1.14095  -0.90704  -0.89338  -0.86331  -0.84647
 Alpha  occ. eigenvalues --   -0.74789  -0.73469  -0.72477  -0.70028  -0.66201
 Alpha  occ. eigenvalues --   -0.64384  -0.60149  -0.58008  -0.56411  -0.54599
 Alpha  occ. eigenvalues --   -0.54569  -0.52939  -0.52111  -0.51274  -0.49924
 Alpha  occ. eigenvalues --   -0.49294  -0.46539  -0.45691  -0.45008  -0.44361
 Alpha  occ. eigenvalues --   -0.42337  -0.41484  -0.40732  -0.39840  -0.39109
 Alpha  occ. eigenvalues --   -0.38418  -0.37047  -0.36901  -0.34557  -0.33298
 Alpha  occ. eigenvalues --   -0.31829
 Alpha virt. eigenvalues --    0.00511   0.01250   0.01371   0.01488   0.02690
 Alpha virt. eigenvalues --    0.02843   0.02983   0.03999   0.04136   0.04661
 Alpha virt. eigenvalues --    0.05090   0.05388   0.05749   0.06234   0.07285
 Alpha virt. eigenvalues --    0.07518   0.08269   0.08430   0.09225   0.09642
 Alpha virt. eigenvalues --    0.10623   0.10941   0.11244   0.11687   0.12307
 Alpha virt. eigenvalues --    0.12880   0.13096   0.13171   0.13770   0.13929
 Alpha virt. eigenvalues --    0.14117   0.14367   0.15030   0.15094   0.15229
 Alpha virt. eigenvalues --    0.15658   0.15986   0.16348   0.16408   0.16762
 Alpha virt. eigenvalues --    0.16789   0.17146   0.17651   0.17739   0.18198
 Alpha virt. eigenvalues --    0.18555   0.19201   0.19252   0.19632   0.19768
 Alpha virt. eigenvalues --    0.20441   0.20617   0.21318   0.21444   0.21661
 Alpha virt. eigenvalues --    0.22272   0.22736   0.23481   0.24247   0.25659
 Alpha virt. eigenvalues --    0.25830   0.26083   0.26121   0.27102   0.27578
 Alpha virt. eigenvalues --    0.27812   0.28779   0.29001   0.29242   0.29837
 Alpha virt. eigenvalues --    0.30685   0.30827   0.31413   0.32152   0.32387
 Alpha virt. eigenvalues --    0.33030   0.33225   0.33439   0.34026   0.34634
 Alpha virt. eigenvalues --    0.35380   0.35624   0.35701   0.36052   0.36339
 Alpha virt. eigenvalues --    0.36813   0.37195   0.37327   0.37578   0.38408
 Alpha virt. eigenvalues --    0.38792   0.39075   0.39531   0.40058   0.40469
 Alpha virt. eigenvalues --    0.41204   0.42014   0.42786   0.43288   0.44317
 Alpha virt. eigenvalues --    0.47350   0.48264   0.49358   0.50617   0.51666
 Alpha virt. eigenvalues --    0.52075   0.52620   0.53920   0.54787   0.56120
 Alpha virt. eigenvalues --    0.56643   0.56923   0.57633   0.58834   0.59584
 Alpha virt. eigenvalues --    0.60005   0.60741   0.61101   0.61474   0.61902
 Alpha virt. eigenvalues --    0.62741   0.63276   0.63617   0.64322   0.64941
 Alpha virt. eigenvalues --    0.65091   0.66312   0.66537   0.67040   0.67430
 Alpha virt. eigenvalues --    0.67799   0.67937   0.69161   0.69776   0.70013
 Alpha virt. eigenvalues --    0.71182   0.72599   0.73071   0.73286   0.74142
 Alpha virt. eigenvalues --    0.74486   0.74880   0.75147   0.75902   0.76267
 Alpha virt. eigenvalues --    0.76803   0.77326   0.77939   0.78850   0.79623
 Alpha virt. eigenvalues --    0.82124   0.82686   0.83630   0.84244   0.85709
 Alpha virt. eigenvalues --    0.86717   0.88102   0.88232   0.89634   0.90544
 Alpha virt. eigenvalues --    0.90794   0.91360   0.92529   0.94583   0.96108
 Alpha virt. eigenvalues --    0.98425   0.98710   1.00148   1.01481   1.02820
 Alpha virt. eigenvalues --    1.03220   1.04344   1.04664   1.06561   1.06809
 Alpha virt. eigenvalues --    1.07964   1.08637   1.09110   1.09976   1.10939
 Alpha virt. eigenvalues --    1.13029   1.13281   1.14224   1.15866   1.16318
 Alpha virt. eigenvalues --    1.17277   1.17528   1.18877   1.19289   1.20245
 Alpha virt. eigenvalues --    1.20911   1.21534   1.21938   1.23463   1.23740
 Alpha virt. eigenvalues --    1.24480   1.25047   1.25690   1.26989   1.27814
 Alpha virt. eigenvalues --    1.28052   1.28938   1.29450   1.29992   1.30575
 Alpha virt. eigenvalues --    1.31575   1.31877   1.32005   1.33219   1.33959
 Alpha virt. eigenvalues --    1.34508   1.35256   1.36531   1.37015   1.38158
 Alpha virt. eigenvalues --    1.39014   1.39497   1.40138   1.40768   1.41709
 Alpha virt. eigenvalues --    1.42492   1.43514   1.44029   1.44479   1.45484
 Alpha virt. eigenvalues --    1.46224   1.46437   1.47461   1.48537   1.49078
 Alpha virt. eigenvalues --    1.49438   1.49738   1.50780   1.51195   1.52612
 Alpha virt. eigenvalues --    1.53162   1.53668   1.54071   1.55175   1.56127
 Alpha virt. eigenvalues --    1.56254   1.56915   1.57934   1.58915   1.59600
 Alpha virt. eigenvalues --    1.60191   1.60587   1.61204   1.61778   1.62376
 Alpha virt. eigenvalues --    1.63604   1.65292   1.65871   1.66353   1.67249
 Alpha virt. eigenvalues --    1.67573   1.68659   1.68865   1.71035   1.71482
 Alpha virt. eigenvalues --    1.73336   1.75138   1.76134   1.77200   1.78564
 Alpha virt. eigenvalues --    1.79803   1.80492   1.81008   1.82627   1.83921
 Alpha virt. eigenvalues --    1.85183   1.88353   1.92058   1.95897   1.96845
 Alpha virt. eigenvalues --    1.99383   2.11700   2.12026   2.13424   2.19481
 Alpha virt. eigenvalues --    2.22978   2.27141   2.28834   2.33975   2.36292
 Alpha virt. eigenvalues --    2.40822   2.42874   2.44658   2.48145   2.50864
 Alpha virt. eigenvalues --    2.57626   2.76417   2.77410   2.78684   2.81984
 Alpha virt. eigenvalues --    2.86576   2.89337   2.91525   2.93614   2.94662
 Alpha virt. eigenvalues --    2.97600   2.98519   3.01454   3.03335   3.06036
 Alpha virt. eigenvalues --    3.07148   3.07732   3.08650   3.10675   3.11101
 Alpha virt. eigenvalues --    3.12443   3.14044   3.16490   3.19675   3.21684
 Alpha virt. eigenvalues --    3.24111   3.29928   3.31649   3.33329   3.34761
 Alpha virt. eigenvalues --    3.35964   3.37745   3.38782   3.40050   3.40316
 Alpha virt. eigenvalues --    3.42480   3.42940   3.44253   3.46307   3.47107
 Alpha virt. eigenvalues --    3.48110   3.48929   3.49776   3.51218   3.52477
 Alpha virt. eigenvalues --    3.53936   3.54480   3.55229   3.56020   3.57105
 Alpha virt. eigenvalues --    3.57518   3.57651   3.58920   3.59555   3.60469
 Alpha virt. eigenvalues --    3.61409   3.61566   3.62710   3.63580   3.65158
 Alpha virt. eigenvalues --    3.66374   3.67468   3.67526   3.69485   3.70719
 Alpha virt. eigenvalues --    3.71340   3.71832   3.72785   3.73033   3.73834
 Alpha virt. eigenvalues --    3.74608   3.75655   3.76066   3.76586   3.77653
 Alpha virt. eigenvalues --    3.78938   3.79737   3.80569   3.81127   3.84435
 Alpha virt. eigenvalues --    3.86279   3.86992   3.89664   3.91213   3.91636
 Alpha virt. eigenvalues --    3.91784   3.93452   3.94814   3.94907   3.98106
 Alpha virt. eigenvalues --    4.00662   4.02588   4.03203   4.03814   4.04593
 Alpha virt. eigenvalues --    4.05806   4.06240   4.06888   4.07388   4.08234
 Alpha virt. eigenvalues --    4.09403   4.09941   4.10469   4.12027   4.12261
 Alpha virt. eigenvalues --    4.12556   4.13105   4.13626   4.13779   4.14927
 Alpha virt. eigenvalues --    4.15040   4.18403   4.19139   4.19847   4.20266
 Alpha virt. eigenvalues --    4.21824   4.22852   4.23501   4.26240   4.26701
 Alpha virt. eigenvalues --    4.28761   4.30490   4.31900   4.32088   4.32909
 Alpha virt. eigenvalues --    4.33345   4.34965   4.36759   4.37406   4.38923
 Alpha virt. eigenvalues --    4.40450   4.44799   4.44878   4.46159   4.56619
 Alpha virt. eigenvalues --    4.60099   4.62343   4.74419   4.77342   4.89135
 Alpha virt. eigenvalues --    4.90754   4.91373   4.92462   4.99585   4.99785
 Alpha virt. eigenvalues --    5.06675   5.07916   5.08922   5.09866   5.12161
 Alpha virt. eigenvalues --    5.12474   5.12982   5.14598   5.29977   5.35947
 Alpha virt. eigenvalues --    5.38599   5.56516   5.58045   5.63095   5.86762
 Alpha virt. eigenvalues --    5.89986   6.04182   7.01623   7.05834   7.06402
 Alpha virt. eigenvalues --    7.09474   7.10392   7.12488   7.13223   7.16999
 Alpha virt. eigenvalues --    7.22637   7.36111   7.40598   7.45193   7.52784
 Alpha virt. eigenvalues --    7.55433   7.62661  23.95401  23.97382  24.05504
 Alpha virt. eigenvalues --   24.09630  24.12089  24.12979  24.14314  24.16061
 Alpha virt. eigenvalues --   24.17221  24.19352  50.15984  50.19220  50.21954
          Condensed to atoms (all electrons):
               1          2          3          4          5          6
     1  C    6.347088   0.182123  -0.064084  -0.562929  -0.132928  -0.003139
     2  C    0.182123   5.920342   0.021697  -0.072819  -0.248421   0.016806
     3  C   -0.064084   0.021697   6.518061   0.003427  -0.025435  -0.048192
     4  C   -0.562929  -0.072819   0.003427   7.460679  -0.605285  -0.141327
     5  C   -0.132928  -0.248421  -0.025435  -0.605285   6.182156   0.042312
     6  O   -0.003139   0.016806  -0.048192  -0.141327   0.042312   8.443839
     7  C    0.003391  -0.000097  -0.008395  -0.064289   0.007219   0.025931
     8  O   -0.013026   0.127474  -0.000623  -0.059308  -0.049737  -0.000325
     9  C   -0.009279  -0.000394  -0.042803  -0.036292  -0.005693  -0.042057
    10  C   -0.086156   0.030175  -0.579745  -0.579974   0.162472   0.280551
    11  C    0.019828  -0.001372  -0.001662   0.026564  -0.006560  -0.012946
    12  C   -0.010800  -0.306876  -0.019432   0.020846   0.200438  -0.004171
    13  O   -0.165550   0.006714  -0.205971   0.187431  -0.092945   0.022572
    14  H    0.442931   0.021851  -0.000011   0.025331  -0.040225  -0.000407
    15  H    0.446978  -0.001115   0.001944  -0.050519  -0.001802   0.000674
    16  H   -0.006506   0.425399   0.002307  -0.008427  -0.012857   0.000890
    17  H   -0.020849   0.427524  -0.001701   0.017853  -0.040351  -0.000439
    18  H   -0.001212   0.000914   0.525036   0.012488  -0.002243  -0.010717
    19  H   -0.000489  -0.000268   0.407583   0.015732  -0.002106   0.006490
    20  H   -0.001288  -0.004200   0.006321   0.494418  -0.042690  -0.004227
    21  H    0.005342  -0.009297  -0.009560  -0.055161   0.450948  -0.006803
    22  H   -0.040317  -0.112598  -0.003327   0.031990   0.468623  -0.009889
    23  H   -0.000534   0.000120  -0.055041  -0.004564  -0.000049  -0.002929
    24  H    0.000971  -0.000079  -0.046074   0.005546   0.000156  -0.000180
    25  H   -0.000574   0.000046  -0.007781   0.002893   0.000201  -0.002709
    26  H    0.000192  -0.000049   0.003908  -0.000242  -0.000637   0.007314
    27  H   -0.006513  -0.005723  -0.083971   0.040182   0.001468  -0.051663
    28  H    0.001208   0.000728   0.017919   0.008985  -0.001036  -0.029629
    29  H    0.000436   0.000865   0.004588  -0.000288   0.000202  -0.068242
    30  H   -0.085220  -0.002300  -0.000610   0.025524  -0.007969   0.000065
    31  H   -0.027720  -0.001324  -0.000872   0.005653   0.003365  -0.000156
               7          8          9         10         11         12
     1  C    0.003391  -0.013026  -0.009279  -0.086156   0.019828  -0.010800
     2  C   -0.000097   0.127474  -0.000394   0.030175  -0.001372  -0.306876
     3  C   -0.008395  -0.000623  -0.042803  -0.579745  -0.001662  -0.019432
     4  C   -0.064289  -0.059308  -0.036292  -0.579974   0.026564   0.020846
     5  C    0.007219  -0.049737  -0.005693   0.162472  -0.006560   0.200438
     6  O    0.025931  -0.000325  -0.042057   0.280551  -0.012946  -0.004171
     7  C    5.675710   0.000071   0.035436  -0.023621  -0.075374  -0.002398
     8  O    0.000071   8.448262   0.000054   0.004306   0.000251   0.118050
     9  C    0.035436   0.000054   5.587441   0.098622   0.047686  -0.002303
    10  C   -0.023621   0.004306   0.098622   6.318177  -0.088656  -0.089547
    11  C   -0.075374   0.000251   0.047686  -0.088656   5.428499   0.004965
    12  C   -0.002398   0.118050  -0.002303  -0.089547   0.004965   5.581721
    13  O    0.040571  -0.000754   0.006756   0.140721  -0.010233   0.033004
    14  H    0.000029  -0.002913   0.000656   0.004409  -0.000571  -0.084923
    15  H   -0.001717   0.007398   0.000338   0.010030  -0.000011  -0.025640
    16  H    0.000318  -0.075125   0.000113   0.007186  -0.001263   0.008022
    17  H   -0.000424  -0.038437   0.000263   0.008149   0.001240  -0.010490
    18  H   -0.031483  -0.000098  -0.012469  -0.119358  -0.000515  -0.000317
    19  H   -0.023589   0.000017   0.004880  -0.019957  -0.002585   0.000364
    20  H    0.005343  -0.005996  -0.001085  -0.057401  -0.002065   0.002117
    21  H   -0.002330   0.012803  -0.008090   0.004464   0.006121   0.002945
    22  H   -0.000693  -0.006194   0.002567  -0.005002  -0.001032   0.015566
    23  H    0.429556  -0.000000  -0.031579   0.031046   0.005823  -0.000277
    24  H    0.524073  -0.000006  -0.069476  -0.021648  -0.009236   0.000415
    25  H   -0.008382  -0.000006   0.474366  -0.016746  -0.068750   0.000098
    26  H   -0.060705   0.000002   0.459145   0.009910  -0.041638  -0.000036
    27  H   -0.042222   0.001042   0.020800   0.476371   0.019315  -0.001819
    28  H    0.006723  -0.000038  -0.072241  -0.041411   0.476862  -0.000027
    29  H    0.003086   0.000033  -0.031503   0.006176   0.428372   0.000137
    30  H   -0.000246  -0.042309   0.000224   0.012277   0.000126   0.453308
    31  H    0.000119  -0.068058  -0.000161  -0.009790   0.000273   0.433690
              13         14         15         16         17         18
     1  C   -0.165550   0.442931   0.446978  -0.006506  -0.020849  -0.001212
     2  C    0.006714   0.021851  -0.001115   0.425399   0.427524   0.000914
     3  C   -0.205971  -0.000011   0.001944   0.002307  -0.001701   0.525036
     4  C    0.187431   0.025331  -0.050519  -0.008427   0.017853   0.012488
     5  C   -0.092945  -0.040225  -0.001802  -0.012857  -0.040351  -0.002243
     6  O    0.022572  -0.000407   0.000674   0.000890  -0.000439  -0.010717
     7  C    0.040571   0.000029  -0.001717   0.000318  -0.000424  -0.031483
     8  O   -0.000754  -0.002913   0.007398  -0.075125  -0.038437  -0.000098
     9  C    0.006756   0.000656   0.000338   0.000113   0.000263  -0.012469
    10  C    0.140721   0.004409   0.010030   0.007186   0.008149  -0.119358
    11  C   -0.010233  -0.000571  -0.000011  -0.001263   0.001240  -0.000515
    12  C    0.033004  -0.084923  -0.025640   0.008022  -0.010490  -0.000317
    13  O    8.480493  -0.002386  -0.001527  -0.000690  -0.000259  -0.000650
    14  H   -0.002386   0.457278  -0.018568  -0.001972   0.002286  -0.000273
    15  H   -0.001527  -0.018568   0.476004   0.001517  -0.001867   0.000519
    16  H   -0.000690  -0.001972   0.001517   0.490197  -0.017090  -0.000002
    17  H   -0.000259   0.002286  -0.001867  -0.017090   0.493428  -0.000026
    18  H   -0.000650  -0.000273   0.000519  -0.000002  -0.000026   0.458000
    19  H   -0.001271   0.000163  -0.000907  -0.000079   0.000145  -0.018691
    20  H   -0.019501  -0.002394  -0.007026   0.000676  -0.009713   0.003295
    21  H   -0.004811  -0.003621   0.000480  -0.012674  -0.004291  -0.000741
    22  H    0.004286   0.004921  -0.003027  -0.006614   0.005782  -0.000184
    23  H   -0.001887  -0.000028   0.000027   0.000025  -0.000026  -0.002473
    24  H    0.000575  -0.000058  -0.000015  -0.000004  -0.000011   0.004889
    25  H    0.002528   0.000058  -0.000054   0.000006  -0.000011   0.001132
    26  H   -0.000068   0.000011   0.000002  -0.000020   0.000013  -0.002681
    27  H   -0.043082   0.002771   0.000164  -0.000688   0.002348  -0.007385
    28  H    0.005598   0.000030  -0.000147   0.000061  -0.000252   0.000975
    29  H   -0.002511  -0.000006   0.000029  -0.000039   0.000167  -0.000468
    30  H    0.000114   0.004185   0.001141  -0.003741   0.014068  -0.000163
    31  H   -0.002292  -0.007152  -0.010464   0.001027  -0.004478  -0.000007
              19         20         21         22         23         24
     1  C   -0.000489  -0.001288   0.005342  -0.040317  -0.000534   0.000971
     2  C   -0.000268  -0.004200  -0.009297  -0.112598   0.000120  -0.000079
     3  C    0.407583   0.006321  -0.009560  -0.003327  -0.055041  -0.046074
     4  C    0.015732   0.494418  -0.055161   0.031990  -0.004564   0.005546
     5  C   -0.002106  -0.042690   0.450948   0.468623  -0.000049   0.000156
     6  O    0.006490  -0.004227  -0.006803  -0.009889  -0.002929  -0.000180
     7  C   -0.023589   0.005343  -0.002330  -0.000693   0.429556   0.524073
     8  O    0.000017  -0.005996   0.012803  -0.006194  -0.000000  -0.000006
     9  C    0.004880  -0.001085  -0.008090   0.002567  -0.031579  -0.069476
    10  C   -0.019957  -0.057401   0.004464  -0.005002   0.031046  -0.021648
    11  C   -0.002585  -0.002065   0.006121  -0.001032   0.005823  -0.009236
    12  C    0.000364   0.002117   0.002945   0.015566  -0.000277   0.000415
    13  O   -0.001271  -0.019501  -0.004811   0.004286  -0.001887   0.000575
    14  H    0.000163  -0.002394  -0.003621   0.004921  -0.000028  -0.000058
    15  H   -0.000907  -0.007026   0.000480  -0.003027   0.000027  -0.000015
    16  H   -0.000079   0.000676  -0.012674  -0.006614   0.000025  -0.000004
    17  H    0.000145  -0.009713  -0.004291   0.005782  -0.000026  -0.000011
    18  H   -0.018691   0.003295  -0.000741  -0.000184  -0.002473   0.004889
    19  H    0.477135  -0.003279   0.000269   0.000176  -0.011832  -0.006522
    20  H   -0.003279   0.409385  -0.007398  -0.001279   0.000090   0.001615
    21  H    0.000269  -0.007398   0.488827  -0.020494  -0.000053   0.000015
    22  H    0.000176  -0.001279  -0.020494   0.445419  -0.000063  -0.000026
    23  H   -0.011832   0.000090  -0.000053  -0.000063   0.459656   0.000031
    24  H   -0.006522   0.001615   0.000015  -0.000026   0.000031   0.450586
    25  H   -0.001494   0.000463  -0.000135  -0.000021   0.000346   0.001973
    26  H    0.001656  -0.000283   0.000069   0.000060  -0.009082  -0.005467
    27  H    0.006736  -0.009658  -0.000434   0.002369  -0.003135  -0.009947
    28  H   -0.000180   0.002301  -0.000042  -0.000470  -0.001384   0.002408
    29  H    0.001161  -0.000854  -0.000303  -0.000061   0.000314  -0.002005
    30  H    0.000113  -0.020384  -0.001462   0.001482   0.000003  -0.000083
    31  H    0.000075   0.003894   0.001348  -0.000288  -0.000013   0.000026
              25         26         27         28         29         30
     1  C   -0.000574   0.000192  -0.006513   0.001208   0.000436  -0.085220
     2  C    0.000046  -0.000049  -0.005723   0.000728   0.000865  -0.002300
     3  C   -0.007781   0.003908  -0.083971   0.017919   0.004588  -0.000610
     4  C    0.002893  -0.000242   0.040182   0.008985  -0.000288   0.025524
     5  C    0.000201  -0.000637   0.001468  -0.001036   0.000202  -0.007969
     6  O   -0.002709   0.007314  -0.051663  -0.029629  -0.068242   0.000065
     7  C   -0.008382  -0.060705  -0.042222   0.006723   0.003086  -0.000246
     8  O   -0.000006   0.000002   0.001042  -0.000038   0.000033  -0.042309
     9  C    0.474366   0.459145   0.020800  -0.072241  -0.031503   0.000224
    10  C   -0.016746   0.009910   0.476371  -0.041411   0.006176   0.012277
    11  C   -0.068750  -0.041638   0.019315   0.476862   0.428372   0.000126
    12  C    0.000098  -0.000036  -0.001819  -0.000027   0.000137   0.453308
    13  O    0.002528  -0.000068  -0.043082   0.005598  -0.002511   0.000114
    14  H    0.000058   0.000011   0.002771   0.000030  -0.000006   0.004185
    15  H   -0.000054   0.000002   0.000164  -0.000147   0.000029   0.001141
    16  H    0.000006  -0.000020  -0.000688   0.000061  -0.000039  -0.003741
    17  H   -0.000011   0.000013   0.002348  -0.000252   0.000167   0.014068
    18  H    0.001132  -0.002681  -0.007385   0.000975  -0.000468  -0.000163
    19  H   -0.001494   0.001656   0.006736  -0.000180   0.001161   0.000113
    20  H    0.000463  -0.000283  -0.009658   0.002301  -0.000854  -0.020384
    21  H   -0.000135   0.000069  -0.000434  -0.000042  -0.000303  -0.001462
    22  H   -0.000021   0.000060   0.002369  -0.000470  -0.000061   0.001482
    23  H    0.000346  -0.009082  -0.003135  -0.001384   0.000314   0.000003
    24  H    0.001973  -0.005467  -0.009947   0.002408  -0.002005  -0.000083
    25  H    0.466287  -0.009852  -0.001541   0.003476  -0.001806  -0.000012
    26  H   -0.009852   0.473629   0.001890   0.000284  -0.010578   0.000009
    27  H   -0.001541   0.001890   0.463539  -0.008990   0.000477   0.003882
    28  H    0.003476   0.000284  -0.008990   0.471030  -0.003074  -0.000141
    29  H   -0.001806  -0.010578   0.000477  -0.003074   0.469837   0.000040
    30  H   -0.000012   0.000009   0.003882  -0.000141   0.000040   0.501520
    31  H    0.000002  -0.000000  -0.000803   0.000032  -0.000007  -0.018807
              31
     1  C   -0.027720
     2  C   -0.001324
     3  C   -0.000872
     4  C    0.005653
     5  C    0.003365
     6  O   -0.000156
     7  C    0.000119
     8  O   -0.068058
     9  C   -0.000161
    10  C   -0.009790
    11  C    0.000273
    12  C    0.433690
    13  O   -0.002292
    14  H   -0.007152
    15  H   -0.010464
    16  H    0.001027
    17  H   -0.004478
    18  H   -0.000007
    19  H    0.000075
    20  H    0.003894
    21  H    0.001348
    22  H   -0.000288
    23  H   -0.000013
    24  H    0.000026
    25  H    0.000002
    26  H   -0.000000
    27  H   -0.000803
    28  H    0.000032
    29  H   -0.000007
    30  H   -0.018807
    31  H    0.477225
 Mulliken charges:
               1
     1  C   -0.211377
     2  C   -0.415847
     3  C   -0.307504
     4  C   -0.144121
     5  C   -0.200591
     6  O   -0.407298
     7  C   -0.411610
     8  O   -0.356811
     9  C   -0.373923
    10  C    0.133970
    11  C   -0.141456
    12  C   -0.316629
    13  O   -0.374976
    14  H    0.198598
    15  H    0.177159
    16  H    0.210049
    17  H    0.177450
    18  H    0.204909
    19  H    0.170556
    20  H    0.270802
    21  H    0.174072
    22  H    0.228338
    23  H    0.197913
    24  H    0.177560
    25  H    0.166003
    26  H    0.183246
    27  H    0.234223
    28  H    0.160444
    29  H    0.205824
    30  H    0.165365
    31  H    0.225664
 Sum of Mulliken charges =  -0.00000
 Mulliken charges with hydrogens summed into heavy atoms:
               1
     1  C    0.164380
     2  C   -0.028348
     3  C    0.067961
     4  C    0.126680
     5  C    0.201818
     6  O   -0.407298
     7  C   -0.036138
     8  O   -0.356811
     9  C   -0.024675
    10  C    0.368193
    11  C    0.224812
    12  C    0.074401
    13  O   -0.374976
 Electronic spatial extent (au):  <R**2>=           3405.3572
 Charge=             -0.0000 electrons
 Dipole moment (field-independent basis, Debye):
    X=              2.9106    Y=             -0.4648    Z=              4.1584  Tot=              5.0971
 Quadrupole moment (field-independent basis, Debye-Ang):
   XX=            -79.9111   YY=            -75.9592   ZZ=            -80.1627
   XY=              4.4836   XZ=             -1.5607   YZ=              0.6002
 Traceless Quadrupole moment (field-independent basis, Debye-Ang):
   XX=             -1.2335   YY=              2.7185   ZZ=             -1.4851
   XY=              4.4836   XZ=             -1.5607   YZ=              0.6002
 Octapole moment (field-independent basis, Debye-Ang**2):
  XXX=             88.0506  YYY=              8.3281  ZZZ=              1.8733  XYY=             -7.8423
  XXY=            -15.0202  XXZ=             15.8476  XZZ=             -3.3960  YZZ=              0.4070
  YYZ=              1.7069  XYZ=             -0.2656
 Hexadecapole moment (field-independent basis, Debye-Ang**3):
 XXXX=          -3882.4776 YYYY=           -623.0610 ZZZZ=           -189.3773 XXXY=            121.8719
 XXXZ=            -43.9524 YYYX=              1.3153 YYYZ=             -6.4420 ZZZX=             -3.9174
 ZZZY=              1.1748 XXYY=           -657.3017 XXZZ=           -642.9612 YYZZ=           -140.6363
 XXYZ=             14.3415 YYXZ=             -0.8787 ZZXY=              1.6457
 N-N= 8.775639788472D+02 E-N=-3.197259735265D+03  KE= 6.153689780199D+02
 D1PCM: PCM CHGder 1st derivatives, ID1Alg=3 FixD1E=F DoIter=F DoCFld=F I1PDM=0.
 Calling FoFJK, ICntrl=      2127 FMM=F ISym2X=0 I1Cent= 0 IOpClX= 0 NMat=1 NMatS=1 NMatT=0.
 ***** Axes restored to original set *****
 -------------------------------------------------------------------
 Center     Atomic                   Forces (Hartrees/Bohr)
 Number     Number              X              Y              Z
 -------------------------------------------------------------------
      1        6           0.000139143    0.002022539   -0.002871419
      2        6          -0.005755130   -0.002620056    0.000790102
      3        6          -0.001472112    0.002156761   -0.002637461
      4        6           0.004998308    0.003601190    0.001724208
      5        6           0.001277927   -0.002083290   -0.002644997
      6        8           0.006259444    0.007553086    0.009946865
      7        6           0.002367894    0.002335089    0.002492977
      8        8           0.008948723    0.003021662    0.007002039
      9        6           0.002145779   -0.000895667   -0.002430655
     10        6          -0.005236551   -0.004722897   -0.001972853
     11        6          -0.004455005   -0.005098222   -0.000397064
     12        6          -0.006679502   -0.000471887    0.000729179
     13        8           0.000663407   -0.007781621    0.009654160
     14        1          -0.000072169    0.001012850    0.003772289
     15        1          -0.001035254   -0.002822062   -0.001228606
     16        1           0.001219843    0.004153389    0.001441425
     17        1          -0.000898040   -0.000521787   -0.005578952
     18        1           0.000304408    0.000315984    0.003906710
     19        1           0.001149200   -0.002377391   -0.001672967
     20        1           0.000293378   -0.000143555   -0.006186659
     21        1          -0.003188778    0.002015508   -0.001887174
     22        1           0.000158221   -0.000466129    0.003912472
     23        1          -0.001819378   -0.001783136    0.000729427
     24        1           0.000720643    0.000793217   -0.003185035
     25        1           0.000225389   -0.000390511    0.003320105
     26        1          -0.002177916    0.001061525   -0.001328686
     27        1           0.000593055    0.001213798   -0.008324210
     28        1          -0.000009994    0.000420596   -0.005643209
     29        1          -0.000869423    0.003921372    0.002228375
     30        1          -0.000836947   -0.000675455   -0.005569401
     31        1           0.003041435   -0.002744902    0.001909013
 -------------------------------------------------------------------
 Cartesian Forces:  Max     0.009946865 RMS     0.003549360

 GradGradGradGradGradGradGradGradGradGradGradGradGradGradGradGradGradGrad
 Berny optimization.
 FormGI is forming the generalized inverse of G from B-inverse, IUseBI=4.
 Internal  Forces:  Max     0.011685659 RMS     0.002164464
 Search for a local minimum.
 Step number   1 out of a maximum of  186
 All quantities printed in internal units (Hartrees-Bohrs-Radians)
 Mixed Optimization -- RFO/linear search
 Second derivative matrix not updated -- first step.
 ITU=  0
     Eigenvalues ---    0.00615   0.00687   0.00730   0.00753   0.01434
     Eigenvalues ---    0.01486   0.01851   0.02713   0.02737   0.03107
     Eigenvalues ---    0.03293   0.04110   0.04161   0.04759   0.04773
     Eigenvalues ---    0.04897   0.04923   0.05103   0.05145   0.05186
     Eigenvalues ---    0.05347   0.05702   0.05706   0.06135   0.06165
     Eigenvalues ---    0.06252   0.06297   0.06497   0.07689   0.07913
     Eigenvalues ---    0.07938   0.07962   0.07998   0.08012   0.08378
     Eigenvalues ---    0.08754   0.08960   0.09937   0.10903   0.11495
     Eigenvalues ---    0.11709   0.11723   0.11762   0.12334   0.13152
     Eigenvalues ---    0.14276   0.14492   0.16108   0.16743   0.17747
     Eigenvalues ---    0.19166   0.21050   0.21858   0.25000   0.28643
     Eigenvalues ---    0.28643   0.28802   0.28958   0.28973   0.29330
     Eigenvalues ---    0.30090   0.30485   0.35021   0.35055   0.35067
     Eigenvalues ---    0.35079   0.35123   0.35158   0.35202   0.35203
     Eigenvalues ---    0.35240   0.35243   0.35263   0.35319   0.35357
     Eigenvalues ---    0.35360   0.35468   0.35870   0.35871   0.35875
     Eigenvalues ---    0.41231   0.41572   0.42068   0.42382   0.42528
     Eigenvalues ---    0.476771000.000001000.000001000.000001000.00000
     Eigenvalues --- 1000.000001000.000001000.000001000.000001000.00000
     Eigenvalues --- 1000.000001000.000001000.000001000.000001000.00000
     Eigenvalues --- 1000.000001000.000001000.000001000.000001000.00000
     Eigenvalues --- 1000.000001000.000001000.000001000.000001000.00000
     Eigenvalues --- 1000.000001000.000001000.000001000.000001000.00000
     Eigenvalues --- 1000.000001000.000001000.000001000.000001000.00000
     Eigenvalues --- 1000.000001000.000001000.000001000.000001000.00000
     Eigenvalues --- 1000.000001000.000001000.000001000.000001000.00000
     Eigenvalues --- 1000.000001000.000001000.000001000.000001000.00000
     Eigenvalues --- 1000.000001000.000001000.000001000.000001000.00000
     Eigenvalues --- 1000.000001000.000001000.000001000.000001000.00000
     Eigenvalues --- 1000.000001000.000001000.000001000.000001000.00000
     Eigenvalues --- 1000.000001000.000001000.000001000.000001000.00000
     Eigenvalues --- 1000.000001000.000001000.000001000.000001000.00000
     Eigenvalues --- 1000.000001000.000001000.000001000.000001000.00000
     Eigenvalues --- 1000.000001000.000001000.000001000.000001000.00000
     Eigenvalues --- 1000.000001000.000001000.000001000.000001000.00000
     Eigenvalues --- 1000.000001000.000001000.000001000.000001000.00000
     Eigenvalues --- 1000.000001000.000001000.000001000.000001000.00000
 RFO step:  Lambda=-2.98022179D-03 EMin= 6.14779883D-03
 Linear search not attempted -- first point.
 Iteration  1 RMS(Cart)=  0.05016735 RMS(Int)=  0.00059565
 Iteration  2 RMS(Cart)=  0.00146405 RMS(Int)=  0.00001825
 Iteration  3 RMS(Cart)=  0.00000041 RMS(Int)=  0.00001824
 Iteration  1 RMS(Cart)=  0.00000722 RMS(Int)=  0.00000167
 Iteration  2 RMS(Cart)=  0.00000403 RMS(Int)=  0.00000186
 Iteration  3 RMS(Cart)=  0.00000225 RMS(Int)=  0.00000211
 Iteration  4 RMS(Cart)=  0.00000125 RMS(Int)=  0.00000227
 Iteration  5 RMS(Cart)=  0.00000070 RMS(Int)=  0.00000237
 Variable       Old X    -DE/DX   Delta X   Delta X   Delta X     New X
                                 (Linear)    (Quad)   (Total)
    R1        2.87641  -0.00196   0.00000  -0.00763  -0.00765   2.86876
    R2        2.87691  -0.00061   0.00000  -0.00176  -0.00176   2.87515
    R3        2.05348   0.00377   0.00000   0.01063   0.01063   2.06410
    R4        2.05159   0.00321   0.00000   0.00902   0.00902   2.06061
    R5        2.87883  -0.00039   0.00000  -0.00143  -0.00143   2.87740
    R6        2.67114   0.00602   0.00000   0.01461   0.01463   2.68577
    R7        2.04284   0.00456   0.00000   0.01260   0.01260   2.05544
    R8        2.05586   0.00556   0.00000   0.01574   0.01574   2.07160
    R9        2.89255  -0.00101   0.00000  -0.00395  -0.00398   2.88857
   R10        2.86798  -0.00128   0.00000  -0.00387  -0.00387   2.86412
   R11        2.05419   0.00373   0.00000   0.01052   0.01052   2.06471
   R12        2.05095   0.00310   0.00000   0.00869   0.00869   2.05965
   R13        2.88334  -0.00192   0.00000  -0.00729  -0.00731   2.87603
   R14        2.68440   0.00426   0.00000   0.00997   0.00997   2.69437
   R15        2.05249   0.00611   0.00000   0.01719   0.01719   2.06968
   R16        2.04922   0.00411   0.00000   0.01150   0.01150   2.06073
   R17        2.05346   0.00382   0.00000   0.01076   0.01076   2.06422
   R18        2.66316   0.00850   0.00000   0.01999   0.02002   2.68318
   R19        2.68039   0.00592   0.00000   0.01415   0.01418   2.69457
   R20        2.88929  -0.00072   0.00000  -0.00368  -0.00371   2.88558
   R21        2.05100   0.00264   0.00000   0.00741   0.00741   2.05841
   R22        2.05640   0.00326   0.00000   0.00924   0.00924   2.06564
   R23        2.67114   0.00629   0.00000   0.01502   0.01504   2.68618
   R24        2.87235  -0.00067   0.00000  -0.00236  -0.00236   2.86999
   R25        2.05476   0.00324   0.00000   0.00916   0.00916   2.06392
   R26        2.05287   0.00276   0.00000   0.00776   0.00776   2.06063
   R27        2.62285   0.00543   0.00000   0.01131   0.01131   2.63416
   R28        2.05283   0.00841   0.00000   0.02365   0.02365   2.07648
   R29        2.05567   0.00557   0.00000   0.01575   0.01575   2.07142
   R30        2.04285   0.00459   0.00000   0.01268   0.01268   2.05553
   R31        2.05547   0.00556   0.00000   0.01572   0.01572   2.07119
   R32        2.04278   0.00451   0.00000   0.01248   0.01248   2.05525
    A1        1.92900  -0.00048   0.00000  -0.00844  -0.00849   1.92051
    A2        1.90581   0.00027   0.00000  -0.00284  -0.00284   1.90297
    A3        1.92447  -0.00056   0.00000  -0.00126  -0.00124   1.92324
    A4        1.90885  -0.00003   0.00000   0.00117   0.00114   1.90998
    A5        1.91105   0.00057   0.00000   0.00476   0.00476   1.91581
    A6        1.88403   0.00025   0.00000   0.00697   0.00696   1.89099
    A7        1.94586   0.00097   0.00000   0.00339   0.00339   1.94926
    A8        1.93373  -0.00021   0.00000  -0.00204  -0.00204   1.93169
    A9        1.92974  -0.00130   0.00000  -0.00821  -0.00823   1.92152
   A10        1.86092  -0.00061   0.00000  -0.00015  -0.00015   1.86077
   A11        1.90302   0.00064   0.00000   0.00431   0.00432   1.90735
   A12        1.88833   0.00054   0.00000   0.00314   0.00312   1.89145
   A13        1.92949  -0.00047   0.00000  -0.00604  -0.00609   1.92340
   A14        1.92477   0.00082   0.00000   0.00435   0.00432   1.92908
   A15        1.93651  -0.00011   0.00000   0.00291   0.00291   1.93942
   A16        1.88822  -0.00057   0.00000  -0.00671  -0.00670   1.88152
   A17        1.90049   0.00009   0.00000  -0.00118  -0.00116   1.89934
   A18        1.88302   0.00024   0.00000   0.00668   0.00665   1.88967
   A19        1.91766   0.00235   0.00000   0.00543   0.00541   1.92307
   A20        1.87226  -0.00013   0.00000   0.00425   0.00428   1.87655
   A21        1.90528  -0.00053   0.00000  -0.00265  -0.00265   1.90262
   A22        1.97063  -0.00178   0.00000  -0.00828  -0.00827   1.96236
   A23        1.90834  -0.00091   0.00000  -0.00434  -0.00434   1.90400
   A24        1.88841   0.00101   0.00000   0.00580   0.00577   1.89419
   A25        1.92124  -0.00034   0.00000  -0.00624  -0.00630   1.91494
   A26        1.90058   0.00059   0.00000   0.00681   0.00680   1.90738
   A27        1.91183   0.00023   0.00000   0.00255   0.00253   1.91436
   A28        1.93847  -0.00085   0.00000  -0.00556  -0.00553   1.93294
   A29        1.90677   0.00012   0.00000  -0.00349  -0.00347   1.90330
   A30        1.88447   0.00026   0.00000   0.00629   0.00625   1.89072
   A31        1.98349  -0.00499   0.00000  -0.02605  -0.02598   1.95751
   A32        1.92552   0.00202   0.00000  -0.00137  -0.00145   1.92407
   A33        1.92069  -0.00058   0.00000  -0.00021  -0.00018   1.92051
   A34        1.90896  -0.00081   0.00000  -0.00201  -0.00200   1.90696
   A35        1.93239  -0.00053   0.00000   0.00067   0.00070   1.93309
   A36        1.90859  -0.00075   0.00000  -0.00177  -0.00176   1.90683
   A37        1.86665   0.00059   0.00000   0.00481   0.00480   1.87145
   A38        1.96884  -0.00453   0.00000  -0.02403  -0.02401   1.94483
   A39        1.92101   0.00016   0.00000  -0.00392  -0.00399   1.91701
   A40        1.91918   0.00053   0.00000   0.00199   0.00200   1.92119
   A41        1.93616  -0.00063   0.00000  -0.00095  -0.00094   1.93522
   A42        1.90392  -0.00042   0.00000  -0.00182  -0.00181   1.90212
   A43        1.90631   0.00007   0.00000  -0.00033  -0.00031   1.90599
   A44        1.87647   0.00029   0.00000   0.00521   0.00520   1.88167
   A45        1.92680   0.00141   0.00000   0.00755   0.00756   1.93435
   A46        1.91030   0.00025   0.00000   0.00055   0.00055   1.91085
   A47        1.93205  -0.00060   0.00000  -0.00219  -0.00219   1.92986
   A48        1.88374  -0.00172   0.00000  -0.00905  -0.00904   1.87470
   A49        1.89252   0.00016   0.00000  -0.00026  -0.00027   1.89225
   A50        1.91776   0.00047   0.00000   0.00325   0.00325   1.92101
   A51        1.93635   0.00097   0.00000   0.00376   0.00377   1.94012
   A52        1.90360   0.00076   0.00000   0.00452   0.00453   1.90812
   A53        1.85161  -0.00076   0.00000  -0.00035  -0.00035   1.85125
   A54        1.93053  -0.00134   0.00000  -0.00800  -0.00802   1.92251
   A55        1.95001  -0.00010   0.00000  -0.00200  -0.00200   1.94801
   A56        1.88925   0.00051   0.00000   0.00257   0.00256   1.89181
   A57        1.94111   0.00113   0.00000   0.00581   0.00581   1.94691
   A58        1.93111  -0.00126   0.00000  -0.00845  -0.00845   1.92266
   A59        1.93478  -0.00037   0.00000  -0.00339  -0.00340   1.93138
   A60        1.90385   0.00068   0.00000   0.00406   0.00408   1.90793
   A61        1.86176  -0.00072   0.00000  -0.00056  -0.00055   1.86122
   A62        1.88912   0.00058   0.00000   0.00290   0.00287   1.89199
   A63        2.06553  -0.01169   0.00000  -0.04619  -0.04619   2.01933
    D1       -0.91285  -0.00015   0.00000  -0.00733  -0.00731  -0.92016
    D2       -3.06106   0.00069   0.00000  -0.00318  -0.00319  -3.06425
    D3        1.17974  -0.00016   0.00000  -0.01098  -0.01098   1.16876
    D4        1.18767  -0.00031   0.00000  -0.01295  -0.01292   1.17475
[...]
 20,-0.00037637,0.00017653,0.00028898,-0.00001220,0.00120704,-0.0061904
 9,-0.00000020,-0.00001203,0.00000599,0.00030711,-0.00001795,-0.0000104
 8,0.00000093,-0.00000099,0.00000278,-0.00000077,-0.00000141,-0.0000001
 8,0.00000442,0.00000196,-0.00000094,-0.00000012,0.00000022,-0.00000014
 ,0.00048998,-0.00002649,0.00022123,0.00002229,-0.00013835,0.00024014,0
 .00000713,0.00000374,-0.00000392,-0.00000304,-0.00000118,0.00000007,0.
 00000053,0.00000175,0.00000314,-0.00025566,-0.00005053,0.00060231,0.00
 052113,-0.00251768,0.00037513,-0.04885945,-0.01501820,0.32733203,-0.00
 004549,-0.00003511,0.00003258,0.00002931,0.00000051,-0.00003281,0.0010
 9532,0.00080783,0.00080049,0.00026809,0.00005877,-0.00015877,-0.000097
 22,-0.00005172,0.00009089,-0.00725149,-0.00219944,0.00082812,-0.003360
 86,0.00136158,-0.00119569,-0.00003797,0.00000580,0.00000225,-0.2224824
 3,0.08356020,-0.09342211,0.00133284,-0.00199810,-0.00078870,-0.0170495
 3,0.01305544,-0.01211808,0.00000325,0.00002194,-0.00002126,-0.00056651
 ,0.00037701,-0.00003270,-0.00000076,0.00000222,-0.00000371,0.00000096,
 0.00000440,-0.00000042,-0.00001365,-0.00000613,0.00000268,-0.00000404,
 -0.00000019,0.00000676,-0.00006203,0.00000409,-0.00013190,-0.00023343,
 -0.00000302,-0.00028111,-0.00001255,-0.00000898,0.00002076,-0.00003855
 ,0.00003584,-0.00002213,0.00000661,-0.00000446,-0.00000189,0.00035002,
 0.00029109,0.00021180,0.00018588,-0.00010042,0.00014296,0.00563071,-0.
 00286857,0.00207662,0.24071058,0.00000458,0.00000398,-0.00000130,0.000
 00368,0.00002405,-0.00000613,-0.00013230,-0.00529321,-0.00380976,0.000
 04742,0.00001636,0.00004668,-0.00000555,-0.00003950,0.00002134,-0.0067
 0503,-0.00073097,0.00047803,0.02520136,-0.01122568,0.01406078,-0.00001
 562,0.00000636,0.00000090,0.08428329,-0.08806048,0.04731765,-0.0005760
 6,-0.00210105,-0.00041486,-0.01303613,0.00897586,-0.00987461,-0.000001
 91,-0.00000926,-0.00000101,0.00010531,0.00057853,0.00003252,0.00000038
 ,-0.00000109,0.00000002,-0.00000127,-0.00000005,0.00000078,0.00000241,
 -0.00000006,-0.00000083,-0.00000142,-0.00000070,0.00000158,-0.00028680
 ,0.00009799,0.00001953,0.00197331,-0.00051971,0.00046882,-0.00000042,-
 0.00000109,0.00000098,-0.00003321,0.00001960,-0.00001507,0.00000338,-0
 .00000311,0.00000119,-0.00069624,0.00106232,0.00060887,-0.00045254,0.0
 0144658,-0.00006139,0.00098478,-0.00135379,0.00081515,-0.09253442,0.09
 591569,0.00000806,0.00000493,-0.00000648,-0.00000209,0.00000399,0.0000
 0235,0.00032281,-0.00230710,-0.00030846,-0.00002807,-0.00000542,0.0000
 2405,0.00001726,0.00000183,-0.00000911,0.00120336,0.00033365,0.0013762
 5,0.01196291,-0.00528248,0.00494477,0.00000267,0.00000068,0.00000027,-
 0.09618253,0.04783541,-0.10013749,-0.00033335,-0.00000099,-0.00000642,
 0.00477571,-0.00278165,0.00068869,-0.00000051,-0.00000508,0.00000291,0
 .00010122,-0.00002198,0.00001237,0.00000062,-0.00000065,0.00000051,-0.
 00000036,-0.00000009,0.00000030,0.00000237,0.00000059,-0.00000055,0.00
 000045,-0.00000018,-0.00000058,0.00021745,-0.00006810,0.00024123,0.000
 45154,-0.00035164,0.00031855,0.00000311,0.00000221,-0.00000240,-0.0000
 0153,0.00000047,-0.00000007,-0.00000050,0.00000202,-0.00000083,-0.0003
 3665,0.00060717,0.00016741,0.00009198,0.00073878,0.00075257,-0.0251983
 6,0.01138580,-0.01244201,0.10352421,-0.04960778,0.10404617,-0.00020331
 ,0.00002977,-0.00014464,0.00000314,-0.00012552,0.00000493,-0.00247642,
 -0.00526253,0.02273373,0.00255868,0.00173953,-0.00573199,-0.00031851,-
 0.00011389,0.00037783,0.00090197,0.00563024,0.00818314,0.00137372,0.00
 005013,0.00084967,-0.00000293,-0.00002298,-0.00002177,-0.00019046,-0.0
 0007986,-0.00019566,-0.06104673,-0.01169675,0.04420462,0.00157208,-0.0
 0012353,0.00213501,0.00002864,0.00005661,0.00005186,-0.01114679,0.0098
 6620,-0.03496343,-0.00014006,0.00001793,0.00020105,0.00001871,-0.00000
 461,0.00000953,-0.00003173,-0.00001004,0.00001491,-0.00001464,-0.00000
 006,0.00001513,-0.00297150,-0.00310957,0.00086353,0.00066392,0.0000234
 2,-0.00065377,-0.00140176,0.00016133,0.00053521,0.00014440,-0.00004351
 ,0.00006841,0.00006134,0.00007297,0.00007743,0.00007096,-0.00000964,-0
 .00021597,-0.00003208,0.00002211,-0.00035174,0.00002986,0.00002952,-0.
 00004320,-0.00005183,0.00004591,0.00001638,0.07256517,0.00009940,0.000
 04551,-0.00021160,-0.00004684,0.00011876,0.00007264,-0.00501616,-0.001
 96446,0.02177119,-0.00234341,-0.00054869,0.00044087,0.00016860,0.00013
 038,-0.00015284,0.01325907,-0.01289273,-0.03922855,0.00095863,0.000125
 24,0.00008595,0.00002475,0.00000970,-0.00000525,0.00036130,-0.00024058
 ,0.00038613,-0.01043559,-0.05591889,0.04192030,-0.00377389,0.00218238,
 -0.00391312,0.00000699,-0.00009333,0.00004638,0.00647239,0.00013057,0.
 01460016,-0.00004117,0.00002722,-0.00001591,-0.00000207,-0.00001621,0.
 00000319,0.00004746,0.00001282,-0.00001105,0.00000612,-0.00000110,-0.0
 0000357,-0.00340365,-0.00210124,0.00104435,0.00082769,0.00082520,-0.00
 033825,0.00006760,-0.00012920,-0.00063856,0.00009556,0.00001110,0.0000
 5349,0.00003587,-0.00003227,-0.00000790,0.00001019,-0.00003282,-0.0002
 9230,-0.00011107,0.00022060,-0.00044574,-0.00002219,-0.00004590,0.0000
 4825,0.00015938,0.00021288,0.00004283,0.00292679,0.06991558,-0.0000861
 4,-0.00012730,0.00086626,0.00004416,-0.00013713,-0.00007830,0.00067307
 ,0.00176577,-0.00397136,0.00390052,0.00049705,0.00100870,-0.00033597,-
 0.00017037,0.00011561,0.00661851,-0.01266913,-0.01826442,0.00006666,-0
 .00020407,0.00027693,-0.00001939,-0.00001112,0.00001099,0.00013917,-0.
 00032311,0.00014559,0.03683549,0.03966865,-0.27689463,-0.00156099,0.00
 126639,0.00049480,-0.00007194,0.00015215,-0.00007661,-0.00947740,0.007
 36656,-0.01866350,0.00023240,-0.00014150,0.00000962,-0.00000317,0.0000
 0212,-0.00002631,-0.00005504,-0.00001606,0.00001225,-0.00001261,-0.000
 00237,0.00001361,-0.00003589,0.00034520,0.00071922,0.00025296,0.000426
 13,0.00018723,-0.00084333,-0.00035665,0.00078350,-0.00013174,-0.000018
 08,-0.00013891,0.00002436,0.00006698,-0.00003475,0.00011658,-0.0000001
 7,0.00019123,0.00036161,-0.00021030,0.00017042,-0.00005411,0.00008680,
 -0.00016920,0.00013009,0.00003677,-0.00001579,-0.03769838,-0.03674585,
 0.31230806,-0.00003391,-0.00003241,0.00003124,0.00001658,-0.00000852,-
 0.00001172,-0.00013622,0.00028316,0.00031813,0.00023932,0.00013403,-0.
 00005189,-0.00005777,0.00000887,0.00004061,-0.00744071,0.01251228,-0.0
 3663263,0.00067574,0.00141327,0.00009620,-0.00001686,-0.00000166,0.000
 00140,-0.00482311,-0.00380199,0.02744020,0.00196851,-0.00388154,-0.003
 71077,-0.05601734,-0.00513571,0.04751753,-0.00000076,0.00002414,-0.000
 01850,-0.00082316,0.00026777,0.00036646,-0.00000069,0.00000233,-0.0000
 0438,0.00000100,0.00000284,0.00000094,-0.00001068,-0.00000392,0.000002
 16,-0.00000351,0.00000046,0.00000405,-0.00006906,0.00001065,0.00005640
 ,0.00020432,0.00010902,0.00004265,-0.00003963,-0.00001402,0.00001660,0
 .00002858,0.00000322,0.00000705,0.00001077,-0.00001366,0.00000172,-0.0
 0005943,0.00015938,-0.00025745,0.00022820,-0.00016055,-0.00052719,-0.0
 0366613,-0.00423102,0.00077830,0.00096654,0.00072241,-0.00047304,0.000
 09034,-0.00032684,0.00083897,0.06824340,0.00001180,0.00000725,-0.00002
 166,-0.00001014,-0.00000207,0.00001327,0.00004063,-0.00036165,-0.00020
 330,-0.00008015,-0.00004950,0.00001374,0.00002643,0.00002002,-0.000018
 27,0.00600126,-0.00352591,0.01619487,0.00050125,0.00113690,0.00099799,
 0.00001305,-0.00000352,-0.00000265,-0.00514126,-0.00226136,0.01951140,
 -0.00074357,0.00155342,0.00358326,-0.00565952,-0.05795702,0.02262124,0
 .00000171,-0.00000365,0.00000841,0.00040039,-0.00017877,-0.00029625,-0
 .00000242,0.00000121,0.00000099,0.00000046,-0.00000179,0.00000009,0.00
 000406,0.00000203,-0.00000105,0.00000161,-0.00000014,-0.00000284,0.000
 04475,0.00003216,-0.00008631,-0.00003297,-0.00007706,-0.00002413,0.000
 02436,0.00000632,-0.00001764,0.00002018,-0.00002334,0.00001999,0.00000
 171,0.00000077,0.00000008,0.00002774,0.00016900,-0.00020407,-0.0000326
 6,0.00003963,-0.00022730,-0.00303229,-0.00153184,0.00083529,0.00032901
 ,0.00066173,-0.00045677,-0.00007499,0.00012398,-0.00028873,0.00301948,
 0.05687741,-0.00004815,-0.00003447,0.00003864,0.00002591,0.00000629,-0
 .00003814,-0.00015009,0.00021270,0.00019713,0.00021213,0.00006873,-0.0
 0016988,-0.00009062,-0.00006973,0.00005424,-0.01230537,0.00852750,-0.0
 1626747,-0.00061126,-0.00027286,0.00068646,-0.00003445,0.00000247,0.00
 000733,0.00235225,-0.00046423,-0.00547579,0.00170227,-0.00321695,0.000
 53961,0.04428142,0.02630881,-0.28740399,0.00000120,0.00002163,-0.00002
 467,-0.00060162,0.00018835,0.00047683,0.00000099,0.00000103,-0.0000030
 6,0.00000076,0.00000399,-0.00000007,-0.00001294,-0.00000611,0.00000231
 ,-0.00000648,0.00000041,0.00001068,0.00006649,-0.00006733,-0.00014827,
 0.00001853,0.00015158,-0.00003847,-0.00002226,-0.00000513,0.00001985,-
 0.00006935,0.00005325,-0.00005257,-0.00000501,-0.00000130,0.00000324,0
 .00005691,0.00004061,0.00021876,-0.00017609,0.00054616,0.00015393,0.00
 090994,0.00042183,0.00104503,0.00056504,0.00025163,0.00021461,-0.00032
 465,0.00121185,0.00050959,-0.03896108,-0.03482322,0.31720100,-0.000131
 80,-0.00010259,0.00009772,0.00003138,-0.00003364,-0.00003723,-0.000516
 97,0.00052949,0.00014400,0.00058348,0.00031563,-0.00031434,-0.00007805
 ,-0.00002358,0.00008503,-0.01326975,0.03587237,0.01213568,-0.00494513,
 -0.00250649,0.00195174,-0.00002777,-0.00001511,0.00000062,0.00555023,-
 0.02441495,-0.01252127,-0.00191663,-0.00227708,-0.00386328,-0.05038396
 ,0.01904266,0.01071068,-0.00000459,0.00007094,-0.00004369,-0.00207284,
 0.00215595,-0.00013889,0.00000331,0.00000157,-0.00000621,0.00000662,0.
 00000105,0.00000208,-0.00002470,-0.00000857,0.00000567,-0.00000351,0.0
 0000049,0.00000579,0.00009672,-0.00001086,0.00002902,0.00032077,0.0001
 3531,0.00003024,-0.00004634,-0.00002461,0.00004701,-0.00000976,0.00001
 009,-0.00000706,-0.00000264,-0.00000042,-0.00000958,0.00035765,-0.0018
 5609,-0.00050155,-0.00003709,0.00021354,-0.00005254,0.00106444,0.00097
 371,0.00017167,0.00074204,0.00109894,-0.00014704,-0.00000961,-0.000051
 80,0.00021425,0.00053673,0.00433625,0.00323915,0.06422019,0.00008671,0
 .00006832,-0.00006352,-0.00002287,0.00001765,0.00003186,-0.00007756,0.
 00038381,-0.00023912,-0.00039781,-0.00018826,0.00023609,0.00009390,0.0
 0003346,-0.00008697,0.00919403,-0.01518881,-0.00395009,-0.00400375,-0.
 00070032,0.00140262,0.00002770,0.00000436,-0.00000077,0.00157012,-0.01
 545487,-0.00874203,-0.00022933,0.00346859,0.00277046,0.02606405,-0.265
 18716,-0.10528764,0.00000141,-0.00004643,0.00003166,0.00123664,-0.0009
 2795,-0.00007250,-0.00000059,-0.00000240,0.00000537,-0.00000400,-0.000
 00168,-0.00000019,0.00001865,0.00000795,-0.00000388,0.00000270,0.00000
 030,-0.00000585,0.00003932,-0.00002294,0.00005262,0.00000825,-0.000111
 14,-0.00001837,0.00003239,0.00001492,-0.00003167,0.00001615,-0.0000288
 1,0.00001165,-0.00000486,0.00000336,0.00000592,0.00029923,-0.00112527,
 -0.00050379,0.00005364,0.00007685,-0.00013692,0.00069189,0.00078347,0.
 00030000,-0.00026195,0.00031574,-0.00007132,0.00002323,-0.00008801,-0.
 00024613,-0.00105749,0.00534522,0.00094512,-0.03342169,0.28854372,-0.0
 0004843,-0.00003334,0.00003743,0.00000888,-0.00001612,-0.00000883,-0.0
 0007448,0.00014300,-0.00001743,0.00013752,0.00013924,-0.00010984,-0.00
 000648,-0.00000582,0.00002388,-0.00602889,0.01853654,0.00780997,0.0006
 3353,0.00046678,0.00077749,-0.00000518,-0.00000448,0.00000042,-0.00001
 451,0.00723508,0.00285557,-0.00097616,-0.00038646,-0.00114643,0.016495
 77,-0.11359649,-0.10749011,-0.00000450,0.00002289,-0.00001614,-0.00104
 945,0.00064550,0.00013238,0.00000217,-0.00000057,-0.00000342,0.0000025
 0,-0.00000051,0.00000087,-0.00000654,-0.00000147,0.00000222,-0.0000008
 7,-0.00000005,0.00000138,-0.00000383,-0.00001012,-0.00002000,0.0000851
 8,0.00004799,-0.00002146,-0.00002196,-0.00000135,0.00001866,0.00000520
 ,-0.00000856,-0.00000803,-0.00000204,0.00000150,-0.00000097,0.00010757
 ,0.00009954,0.00026443,-0.00005953,0.00028369,0.00028075,-0.00075021,-
 0.00003223,0.00068647,-0.00023126,-0.00037042,0.00013799,-0.00002479,0
 .00029690,0.00050809,0.00308358,-0.02712439,-0.01176523,-0.01124176,0.
 11367707,0.10706529,-0.00090082,-0.00085596,0.03064308,-0.00049832,0.0
 0126874,0.00116574,-0.00000788,0.00001045,-0.00000622,0.00150471,-0.00
 019852,0.00128035,-0.00020854,-0.00012631,0.00008549,-0.00000489,0.000
 02203,0.00000232,-0.00000484,-0.00000547,0.00000540,0.00199044,-0.0049
 4348,-0.01035289,-0.00000045,0.00000034,-0.00000230,0.00004347,-0.0000
 4075,-0.00011514,0.00000662,-0.00000318,0.00000994,-0.05354350,0.00254
 950,0.00012174,-0.00019323,-0.00003500,-0.00029363,-0.00493256,-0.0014
 4858,0.00208624,0.00116488,0.00009654,-0.00081222,-0.00003833,-0.00007
 703,0.00006686,0.00020649,-0.00018319,0.00031579,0.00000103,-0.0000018
 6,0.00000131,-0.00000070,-0.00000025,0.00000064,-0.00011800,0.00000302
 ,-0.00028756,0.00006474,0.00007737,-0.00001803,0.00000741,0.00001379,-
 0.00010361,-0.00000406,0.00000097,-0.00000072,0.00000062,-0.00000033,-
 0.00000063,0.00000033,0.00000029,-0.00000005,-0.00000131,0.00000038,-0
 .00000002,-0.00003333,0.00001054,-0.00001274,0.,0.00000003,-0.00000141
 ,-0.00000288,0.00000154,-0.00000091,0.05403919,-0.00008555,0.00136255,
 0.01117313,-0.00318045,0.00355221,-0.00449098,-0.00001173,0.00001050,-
 0.00000409,0.00060787,-0.00038476,-0.00024364,0.00034334,-0.00041821,0
 .00046487,0.00000672,0.00002741,0.00000028,-0.00000243,-0.00000580,0.0
 0000400,-0.00310247,-0.02015458,-0.03990666,0.00000114,-0.00000071,-0.
 00000091,0.00002355,-0.00004888,-0.00001735,0.00000511,0.00000319,0.00
 000433,0.00466341,-0.04889538,0.00905649,-0.00014821,0.00002616,-0.000
 12493,-0.00273156,0.00043219,0.00066343,0.00055029,0.00037789,-0.00027
 239,-0.00006237,0.00002962,0.00024063,-0.00007927,0.00061709,0.0012215
 0,-0.00000072,-0.00000180,0.00000098,0.00000036,-0.00000020,0.00000043
 ,-0.00007086,0.00016595,-0.00027491,0.00022139,0.00013289,0.00000719,-
 0.00005238,-0.00004566,0.00005373,-0.00000294,0.00000042,-0.00000068,-
 0.00000044,0.00000054,-0.00000043,-0.00000012,0.00000002,0.00000009,-0
 .00000041,0.00000071,0.00000028,-0.00002006,0.00000452,0.00000301,-0.0
 0000069,-0.00000020,-0.00000030,-0.00000200,0.00000103,-0.00000060,0.0
 0404592,0.06130009,0.00061561,0.00153210,-0.01191484,-0.00099294,0.002
 11380,0.00150613,0.00003304,-0.00002762,0.00001477,-0.00115870,0.00000
 780,0.00003433,0.00015682,-0.00015328,0.00004761,0.00007598,-0.0000422
 2,0.00000766,0.00000458,0.00001481,-0.00001056,-0.00367773,-0.01390928
 ,-0.01125261,0.00000313,-0.00000172,0.00000588,-0.00004864,0.00005115,
 -0.00006568,-0.00001932,0.00000825,-0.00002227,0.00102097,0.00458699,-
 0.29924831,0.00029650,0.00007582,0.00032087,0.00211242,0.00076459,0.00
 033058,0.00029723,0.00023192,0.00024586,0.00011930,-0.00019750,0.00047
 905,0.00094830,-0.00083948,0.00020422,0.00000099,0.00000300,-0.0000006
 6,-0.00000043,0.00000330,0.00000004,0.00043892,-0.00038754,0.00025273,
 0.00007984,-0.00008246,-0.00006141,-0.00003689,0.00009825,-0.00014481,
 0.00000845,-0.00000140,0.00000262,0.00000091,-0.00000061,0.00000320,-0
 .00000033,-0.00000001,-0.00000031,0.00000373,-0.00000005,-0.00000028,0
 .00002232,-0.00000683,-0.00000177,0.00000191,-0.00000098,0.00000467,0.
 00000584,-0.00000414,0.00000159,-0.00039917,0.00503581,0.32846007,-0.0
 2205547,0.01658075,-0.01056069,0.00083405,-0.00193466,-0.00002027,-0.0
 0016917,0.00014930,-0.00011911,-0.00081125,-0.00447058,0.00323015,0.00
 020217,-0.00045737,-0.00010804,-0.00031362,0.00027994,-0.00005238,-0.0
 0002850,-0.00008817,0.00004139,0.00870885,-0.00587919,0.00366392,-0.00
 000508,0.00000367,-0.00002338,0.00042545,-0.00050228,0.00074580,0.0000
 8582,0.00000233,0.00008154,-0.20525381,0.11922540,-0.07155373,-0.00313
 862,0.00119282,-0.00063757,0.00160492,0.00022549,0.00012324,0.00079019
 ,-0.00027645,-0.00025660,0.00028328,-0.00026872,-0.00000842,-0.0000837
 0,-0.00001358,-0.00001999,0.00000010,-0.00000411,0.00000838,-0.0000011
 9,-0.00000932,-0.00000335,0.00006257,-0.00010807,-0.00015987,0.0000858
 5,0.00018913,-0.00003966,0.00002308,0.00008683,0.00004635,-0.00004117,
 0.00000987,-0.00001426,-0.00000276,0.00000295,-0.00000671,-0.00000090,
 0.00000059,0.00000510,-0.00001250,0.00000138,0.00000194,-0.00001124,0.
 00003639,-0.00004996,-0.00001105,0.00000378,-0.00001217,-0.00002954,0.
 00002036,-0.00001009,0.00146370,-0.00091444,0.00008735,0.21739953,-0.0
 0832860,0.00878609,-0.00431413,-0.00435351,-0.00320739,-0.00384222,-0.
 00006337,0.00005047,-0.00004375,-0.00155753,-0.00080021,0.00136306,0.0
 0000589,-0.00027646,0.00020942,-0.00003858,0.00008539,-0.00002025,-0.0
 0001194,-0.00003090,0.00001148,0.02576512,-0.03267479,0.01057896,0.000
 00191,-0.00000201,-0.00000430,0.00001007,-0.00020505,0.00025422,0.0000
 1865,0.00001173,0.00001562,0.10990116,-0.13150349,0.04990858,-0.001191
 34,0.00058158,-0.00015498,0.00051034,0.00014100,-0.00007794,0.00088692
 ,0.00025864,-0.00027052,0.00137022,-0.00134151,0.00045024,0.00000588,0
 .00007225,0.00024407,0.00000049,-0.00000019,0.00000233,0.00000045,-0.0
 0000270,-0.00000068,0.00007261,-0.00012965,0.00000721,0.00024591,0.000
 19474,-0.00004920,0.00004121,0.00006769,-0.00002014,-0.00001328,0.0000
 0424,-0.00000486,-0.00000097,0.00000084,-0.00000192,-0.00000007,0.0000
 0053,0.00000117,-0.00000218,0.00000135,0.00000058,0.00000188,0.0000089
 8,-0.00001553,-0.00000327,0.00000074,-0.00000231,-0.00000852,0.0000053
 2,-0.00000275,-0.00018154,0.00191122,0.00112753,-0.12308401,0.15799154
 ,0.01187813,-0.00804744,0.00443512,-0.00048230,-0.00124990,-0.00031212
 ,0.00005016,-0.00003882,0.00003203,0.00116870,0.00163522,-0.00051250,-
 0.00000047,-0.00007230,-0.00008248,0.00009226,-0.00007056,0.00000910,0
 .00000939,0.00002319,-0.00001158,0.00978859,-0.01068416,0.00490926,0.0
 0000216,-0.00000138,0.00000680,0.00001402,0.00010252,-0.00017869,-0.00
 001938,-0.00000005,-0.00002528,-0.07505469,0.05784785,-0.08702256,0.00
 099511,-0.00025158,0.00035467,-0.00064207,-0.00061761,0.00077044,-0.00
 065151,0.00007291,0.00028807,0.00020250,-0.00032542,0.00043625,0.00019
 007,-0.00014749,0.00047767,0.00000011,0.00000180,-0.00000324,-0.000000
 18,0.00000257,0.00000055,0.00015879,-0.00023360,0.00028943,0.00004632,
 0.00002952,-0.00003581,-0.00002133,-0.00001667,-0.00002928,0.00001145,
 -0.00000273,0.00000397,0.00000078,-0.00000047,0.00000172,0.00000025,-0
 .00000036,-0.00000092,0.00000356,0.,-0.00000054,0.00000530,-0.00000715
 ,0.00000383,0.00000254,-0.00000105,0.00000368,0.00000828,-0.00000551,0
 .00000300,-0.02337764,0.01740768,-0.00919840,0.07562113,-0.05534900,0.
 08538783\\-0.00014991,-0.00047696,-0.00066595,0.00000180,0.00000140,0.
 00000067,-0.00000301,-0.00000044,-0.00000228,0.00021385,0.00030128,0.0
 0062908,-0.00000195,-0.00000033,-0.00000039,0.00000336,-0.00000160,0.0
 0000926,0.00000227,0.00000205,-0.00000432,-0.00000133,0.00000330,0.000
 00316,0.00000215,-0.00000161,-0.00000077,0.00001777,-0.00078689,-0.000
 56193,-0.00000458,-0.00000407,-0.00000777,0.00000238,0.00000154,0.0000
 0315,-0.00006704,0.00096026,0.00060392,0.00000021,0.00000232,-0.000000
 02,-0.00000080,0.00000124,-0.00000019,-0.00000318,0.00000372,0.0000032
 0,-0.00000094,0.00000281,0.00000143,0.00000127,-0.00000173,-0.00000024
 ,-0.00000003,-0.00000127,-0.00000304,0.00000119,0.00000101,0.00000018,
 -0.00000464,0.00000148,-0.00000030,-0.00000107,0.00000042,0.00000094,-
 0.00000094,-0.00000267,0.00000055,0.00000073,-0.00000214,-0.00000075,-
 0.00000158,-0.00000178,-0.00000076,-0.00000283,-0.00000476,-0.00000278
 ,-0.00000371,0.00000327,-0.00000635,-0.00000108,-0.00000020,-0.0000012
 9,-0.00000070,-0.00000269,0.00000120,0.00000022,0.00000200,0.00000103,
 0.00000210,0.00000103,0.00000136\\\@


 IT MATTERS NOT HOW DEEP YOU PLOW,
 BUT HOW LONG YOU STAY IN THE FURROW.
 Job cpu time:       0 days 12 hours  4 minutes 15.5 seconds.
 Elapsed time:       0 days  1 hours  0 minutes 39.0 seconds.
 File lengths (MBytes):  RWF=    721 Int=      0 D2E=      0 Chk=     34 Scr=      1
 Normal termination of Gaussian 16 at Sat Mar  9 17:34:16 2019.
