 Entering Gaussian System, Link 0=g16
 Initial command:
 /sw/Projects/G16/g16/l1.exe "/nvme/pbs/tmpdir/pbs.74205[15].flm1/Gau-28324.inp" -scrdir="/nvme/pbs/tmpdir/pbs.74205[15].flm1/"
 Entering Link 1 = /sw/Projects/G16/g16/l1.exe PID=     28325.
  
 Copyright (c) 1988-2017, Gaussian, Inc.  All Rights Reserved.
  
 This is part of the Gaussian(R) 16 program.  It is based on
 the Gaussian(R) 09 system (copyright 2009, Gaussian, Inc.),
 the Gaussian(R) 03 system (copyright 2003, Gaussian, Inc.),
 the Gaussian(R) 98 system (copyright 1998, Gaussian, Inc.),
 the Gaussian(R) 94 system (copyright 1995, Gaussian, Inc.),
 the Gaussian 92(TM) system (copyright 1992, Gaussian, Inc.),
 the Gaussian 90(TM) system (copyright 1990, Gaussian, Inc.),
 the Gaussian 88(TM) system (copyright 1988, Gaussian, Inc.),
 the Gaussian 86(TM) system (copyright 1986, Carnegie Mellon
 University), and the Gaussian 82(TM) system (copyright 1983,
 Carnegie Mellon University). Gaussian is a federally registered
 trademark of Gaussian, Inc.
  
 This software contains proprietary and confidential information,
 including trade secrets, belonging to Gaussian, Inc.
  
 This software is provided under written license and may be
 used, copied, transmitted, or stored only in accord with that
 written license.
  
 The following legend is applicable only to US Government
 contracts under FAR:
  
                    RESTRICTED RIGHTS LEGEND
  
 Use, reproduction and disclosure by the US Government is
 subject to restrictions as set forth in subparagraphs (a)
 and (c) of the Commercial Computer Software - Restricted
 Rights clause in FAR 52.227-19.
  
 Gaussian, Inc.
 340 Quinnipiac St., Bldg. 40, Wallingford CT 06492
  
  
 ---------------------------------------------------------------
 Warning -- This program may not be used in any manner that
 competes with the business of Gaussian, Inc. or will provide
 assistance to any competitor of Gaussian, Inc.  The licensee
 of this program is prohibited from giving any competitor of
 Gaussian, Inc. access to this program.  By using this program,
 the user acknowledges that Gaussian, Inc. is engaged in the
 business of creating and licensing software in the field of
 computational chemistry and represents and warrants to the
 licensee that it is not a competitor of Gaussian, Inc. and that
 it will not use this program in any manner prohibited above.
 ---------------------------------------------------------------
  

 Cite this work as:
 Gaussian 16, Revision B.01,
 M. J. Frisch, G. W. Trucks, H. B. Schlegel, G. E. Scuseria, 
 M. A. Robb, J. R. Cheeseman, G. Scalmani, V. Barone, 
 G. A. Petersson, H. Nakatsuji, X. Li, M. Caricato, A. V. Marenich, 
 J. Bloino, B. G. Janesko, R. Gomperts, B. Mennucci, H. P. Hratchian, 
 J. V. Ortiz, A. F. Izmaylov, J. L. Sonnenberg, D. Williams-Young, 
 F. Ding, F. Lipparini, F. Egidi, J. Goings, B. Peng, A. Petrone, 
 T. Henderson, D. Ranasinghe, V. G. Zakrzewski, J. Gao, N. Rega, 
 G. Zheng, W. Liang, M. Hada, M. Ehara, K. Toyota, R. Fukuda, 
 J. Hasegawa, M. Ishida, T. Nakajima, Y. Honda, O. Kitao, H. Nakai, 
 T. Vreven, K. Throssell, J. A. Montgomery, Jr., J. E. Peralta, 
 F. Ogliaro, M. J. Bearpark, J. J. Heyd, E. N. Brothers, K. N. Kudin, 
 V. N. Staroverov, T. A. Keith, R. Kobayashi, J. Normand, 
 K. Raghavachari, A. P. Rendell, J. C. Burant, S. S. Iyengar, 
 J. Tomasi, M. Cossi, J. M. Millam, M. Klene, C. Adamo, R. Cammi, 
 J. W. Ochterski, R. L. Martin, K. Morokuma, O. Farkas, 
 J. B. Foresman, and D. J. Fox, Gaussian, Inc., Wallingford CT, 2016.
 
 ******************************************
 Gaussian 16:  ES64L-G16RevB.01 20-Dec-2017
                 9-Mar-2019 
 ******************************************
 %mem=20gb
 %nproc=12
 Will use up to   12 processors via shared memory.
 %chk=4c1_b1_e3_4c1_PSI.inp_extract_15.chk
 ----------------------------------------------------------------------
 #M062X/6-311++G(2d,2p) opt=ModRedundant freq=noraman SCRF=(SMD,solvent
 =water)
 ----------------------------------------------------------------------
 1/18=120,19=15,26=3,38=1/1,3;
 2/9=110,12=2,17=6,18=5,40=1/2;
 3/5=4,6=6,7=1212,11=2,25=1,30=1,70=32201,71=1,72=1,74=-55/1,2,3;
 4//1;
 5/5=2,38=5,53=1/2;
 6/7=2,8=2,9=2,10=2,28=1/1;
 7//1,2,3,16;
 1/18=20,19=15,26=3/3(2);
 2/9=110/2;
 99//99;
 2/9=110/2;
 3/5=4,6=6,7=1212,11=2,25=1,30=1,70=32205,71=1,72=1,74=-55/1,2,3;
 4/5=5,16=3,69=1/1;
 5/5=2,38=5,53=1/2;
 7//1,2,3,16;
 1/18=20,19=15,26=3/3(-5);
 2/9=110/2;
 6/7=2,8=2,9=2,10=2,19=2,28=1/1;
 99/9=1/99;
 --------------------------------
 4c1_b1_e3_4c1_PSI.inp_extract_15
 --------------------------------
 Symbolic Z-matrix:
 Charge =  0 Multiplicity = 1
 C                     2.07263  -0.86163   0.98745 
 C                     2.95262   0.94156  -1.03459 
 C                    -2.39306  -1.23733  -0.45241 
 C                     1.27414  -0.73891  -0.3045 
 C                     1.46059   0.65558  -0.89749 
 O                    -1.33432   0.54927   0.76011 
 C                    -3.65402  -0.38426  -0.61398 
 O                     3.62351   0.82339   0.20289 
 C                    -3.73872   0.6566    0.50304 
 C                    -1.16875  -0.35082  -0.31309 
 C                    -2.43358   1.43038   0.59607 
 C                     3.5257   -0.47428   0.75566 
 O                    -0.06985  -1.14752  -0.03722 
 H                     1.63824  -0.21018   1.74062 
 H                     2.02597  -1.88071   1.35932 
 H                     3.11205   1.95404  -1.37773 
 H                     3.40725   0.26295  -1.75264 
 H                    -2.46895  -1.85685   0.43739 
 H                    -2.2574   -1.89388  -1.30587 
 H                     1.65732  -1.45916  -1.01989 
 H                     1.00972   0.73172  -1.88095 
 H                     1.01218   1.40849  -0.25886 
 H                    -4.53452  -1.01889  -0.6144 
 H                    -3.6272    0.12163  -1.57704 
 H                    -3.92862   0.16518   1.45424 
 H                    -4.55494   1.35111   0.32529 
 H                    -1.01776   0.22199  -1.21951 
 H                    -2.27885   2.02949  -0.29866 
 H                    -2.4197    2.09051   1.45208 
 H                     4.00988  -1.18258   0.08701 
 H                     4.07528  -0.45738   1.68633 
 
 The following ModRedundant input section has been read:
 D       1       4      13      10 F                                           
 

 GradGradGradGradGradGradGradGradGradGradGradGradGradGradGradGradGradGrad
 Berny optimization.
 Initialization pass.
                           ----------------------------
                           !    Initial Parameters    !
                           ! (Angstroms and Degrees)  !
 --------------------------                            --------------------------
 ! Name  Definition              Value          Derivative Info.                !
 --------------------------------------------------------------------------------
 ! R1    R(1,4)                  1.5237         estimate D2E/DX2                !
 ! R2    R(1,12)                 1.5216         estimate D2E/DX2                !
 ! R3    R(1,14)                 1.0864         estimate D2E/DX2                !
 ! R4    R(1,15)                 1.0858         estimate D2E/DX2                !
 ! R5    R(2,5)                  1.5254         estimate D2E/DX2                !
 ! R6    R(2,8)                  1.4126         estimate D2E/DX2                !
 ! R7    R(2,16)                 1.0809         estimate D2E/DX2                !
 ! R8    R(2,17)                 1.0876         estimate D2E/DX2                !
 ! R9    R(3,7)                  1.531          estimate D2E/DX2                !
 ! R10   R(3,10)                 1.518          estimate D2E/DX2                !
 ! R11   R(3,18)                 1.0869         estimate D2E/DX2                !
 ! R12   R(3,19)                 1.0853         estimate D2E/DX2                !
 ! R13   R(4,5)                  1.5268         estimate D2E/DX2                !
 ! R14   R(4,13)                 1.4299         estimate D2E/DX2                !
 ! R15   R(4,20)                 1.0851         estimate D2E/DX2                !
 ! R16   R(5,21)                 1.0846         estimate D2E/DX2                !
 ! R17   R(5,22)                 1.0843         estimate D2E/DX2                !
 ! R18   R(6,10)                 1.4104         estimate D2E/DX2                !
 ! R19   R(6,11)                 1.4183         estimate D2E/DX2                !
 ! R20   R(7,9)                  1.5292         estimate D2E/DX2                !
 ! R21   R(7,23)                 1.0854         estimate D2E/DX2                !
 ! R22   R(7,24)                 1.0882         estimate D2E/DX2                !
 ! R23   R(8,12)                 1.4139         estimate D2E/DX2                !
 ! R24   R(9,11)                 1.5201         estimate D2E/DX2                !
 ! R25   R(9,25)                 1.0874         estimate D2E/DX2                !
 ! R26   R(9,26)                 1.0863         estimate D2E/DX2                !
 ! R27   R(10,13)                1.3851         estimate D2E/DX2                !
 ! R28   R(10,27)                1.0828         estimate D2E/DX2                !
 ! R29   R(11,28)                1.0879         estimate D2E/DX2                !
 ! R30   R(11,29)                1.0811         estimate D2E/DX2                !
 ! R31   R(12,30)                1.0878         estimate D2E/DX2                !
 ! R32   R(12,31)                1.081          estimate D2E/DX2                !
 ! A1    A(4,1,12)             110.5349         estimate D2E/DX2                !
 ! A2    A(4,1,14)             109.2672         estimate D2E/DX2                !
 ! A3    A(4,1,15)             110.0873         estimate D2E/DX2                !
 ! A4    A(12,1,14)            109.5599         estimate D2E/DX2                !
 ! A5    A(12,1,15)            109.3984         estimate D2E/DX2                !
 ! A6    A(14,1,15)            107.9485         estimate D2E/DX2                !
 ! A7    A(5,2,8)              111.7235         estimate D2E/DX2                !
 ! A8    A(5,2,16)             110.3916         estimate D2E/DX2                !
 ! A9    A(5,2,17)             110.5641         estimate D2E/DX2                !
 ! A10   A(8,2,16)             106.6433         estimate D2E/DX2                !
 ! A11   A(8,2,17)             109.1267         estimate D2E/DX2                !
 ! A12   A(16,2,17)            108.2543         estimate D2E/DX2                !
 ! A13   A(7,3,10)             110.3999         estimate D2E/DX2                !
 ! A14   A(7,3,18)             110.2738         estimate D2E/DX2                !
 ! A15   A(7,3,19)             110.9189         estimate D2E/DX2                !
 ! A16   A(10,3,18)            108.3044         estimate D2E/DX2                !
 ! A17   A(10,3,19)            108.9442         estimate D2E/DX2                !
 ! A18   A(18,3,19)            107.9205         estimate D2E/DX2                !
 ! A19   A(1,4,5)              109.8085         estimate D2E/DX2                !
 ! A20   A(1,4,13)             108.1222         estimate D2E/DX2                !
 ! A21   A(1,4,20)             108.6926         estimate D2E/DX2                !
 ! A22   A(5,4,13)             116.6397         estimate D2E/DX2                !
 ! A23   A(5,4,20)             107.8834         estimate D2E/DX2                !
 ! A24   A(13,4,20)            105.3949         estimate D2E/DX2                !
 ! A25   A(2,5,4)              109.0024         estimate D2E/DX2                !
 ! A26   A(2,5,21)             108.1776         estimate D2E/DX2                !
 ! A27   A(2,5,22)             109.1021         estimate D2E/DX2                !
 ! A28   A(4,5,21)             111.4412         estimate D2E/DX2                !
 ! A29   A(4,5,22)             110.7901         estimate D2E/DX2                !
 ! A30   A(21,5,22)            108.2638         estimate D2E/DX2                !
 ! A31   A(10,6,11)            113.5424         estimate D2E/DX2                !
 ! A32   A(3,7,9)              110.3532         estimate D2E/DX2                !
 ! A33   A(3,7,23)             110.0234         estimate D2E/DX2                !
 ! A34   A(3,7,24)             109.399          estimate D2E/DX2                !
 ! A35   A(9,7,23)             110.6923         estimate D2E/DX2                !
 ! A36   A(9,7,24)             109.3549         estimate D2E/DX2                !
 ! A37   A(23,7,24)            106.9467         estimate D2E/DX2                !
 ! A38   A(2,8,12)             112.7316         estimate D2E/DX2                !
 ! A39   A(7,9,11)             110.0982         estimate D2E/DX2                !
 ! A40   A(7,9,25)             109.9412         estimate D2E/DX2                !
 ! A41   A(7,9,26)             110.9312         estimate D2E/DX2                !
 ! A42   A(11,9,25)            109.0545         estimate D2E/DX2                !
 ! A43   A(11,9,26)            109.2494         estimate D2E/DX2                !
 ! A44   A(25,9,26)            107.5085         estimate D2E/DX2                !
 ! A45   A(3,10,6)             110.3553         estimate D2E/DX2                !
 ! A46   A(3,10,13)            108.7997         estimate D2E/DX2                !
 ! A47   A(3,10,27)            110.1563         estimate D2E/DX2                !
 ! A48   A(6,10,13)            107.9784         estimate D2E/DX2                !
 ! A49   A(6,10,27)            108.4042         estimate D2E/DX2                !
 ! A50   A(13,10,27)           111.1236         estimate D2E/DX2                !
 ! A51   A(6,11,9)             110.8725         estimate D2E/DX2                !
 ! A52   A(6,11,28)            109.088          estimate D2E/DX2                !
 ! A53   A(6,11,29)            106.1299         estimate D2E/DX2                !
 ! A54   A(9,11,28)            110.617          estimate D2E/DX2                !
 ! A55   A(9,11,29)            111.734          estimate D2E/DX2                !
 ! A56   A(28,11,29)           108.2481         estimate D2E/DX2                !
 ! A57   A(1,12,8)             111.055          estimate D2E/DX2                !
 ! A58   A(1,12,30)            110.6683         estimate D2E/DX2                !
 ! A59   A(1,12,31)            110.9989         estimate D2E/DX2                !
 ! A60   A(8,12,30)            109.0577         estimate D2E/DX2                !
 ! A61   A(8,12,31)            106.6832         estimate D2E/DX2                !
 ! A62   A(30,12,31)           108.2475         estimate D2E/DX2                !
 ! A63   A(4,13,10)            122.9639         estimate D2E/DX2                !
 ! D1    D(12,1,4,5)           -53.2479         estimate D2E/DX2                !
 ! D2    D(12,1,4,13)          178.4846         estimate D2E/DX2                !
 ! D3    D(12,1,4,20)           64.5552         estimate D2E/DX2                !
 ! D4    D(14,1,4,5)            67.393          estimate D2E/DX2                !
 ! D5    D(14,1,4,13)          -60.8746         estimate D2E/DX2                !
 ! D6    D(14,1,4,20)         -174.804          estimate D2E/DX2                !
 ! D7    D(15,1,4,5)          -174.2203         estimate D2E/DX2                !
 ! D8    D(15,1,4,13)           57.5122         estimate D2E/DX2                !
 ! D9    D(15,1,4,20)          -56.4172         estimate D2E/DX2                !
 ! D10   D(4,1,12,8)            55.4863         estimate D2E/DX2                !
 ! D11   D(4,1,12,30)          -65.7902         estimate D2E/DX2                !
 ! D12   D(4,1,12,31)          173.9934         estimate D2E/DX2                !
 ! D13   D(14,1,12,8)          -64.9798         estimate D2E/DX2                !
 ! D14   D(14,1,12,30)         173.7436         estimate D2E/DX2                !
 ! D15   D(14,1,12,31)          53.5273         estimate D2E/DX2                !
 ! D16   D(15,1,12,8)          176.8673         estimate D2E/DX2                !
 ! D17   D(15,1,12,30)          55.5908         estimate D2E/DX2                !
 ! D18   D(15,1,12,31)         -64.6256         estimate D2E/DX2                !
 ! D19   D(8,2,5,4)            -56.9392         estimate D2E/DX2                !
 ! D20   D(8,2,5,21)          -178.2713         estimate D2E/DX2                !
 ! D21   D(8,2,5,22)            64.1615         estimate D2E/DX2                !
 ! D22   D(16,2,5,4)          -175.4305         estimate D2E/DX2                !
 ! D23   D(16,2,5,21)           63.2374         estimate D2E/DX2                !
 ! D24   D(16,2,5,22)          -54.3299         estimate D2E/DX2                !
 ! D25   D(17,2,5,4)            64.8088         estimate D2E/DX2                !
 ! D26   D(17,2,5,21)          -56.5233         estimate D2E/DX2                !
 ! D27   D(17,2,5,22)         -174.0905         estimate D2E/DX2                !
 ! D28   D(5,2,8,12)            60.8083         estimate D2E/DX2                !
 ! D29   D(16,2,8,12)         -178.4896         estimate D2E/DX2                !
 ! D30   D(17,2,8,12)          -61.7648         estimate D2E/DX2                !
 ! D31   D(10,3,7,9)           -51.9915         estimate D2E/DX2                !
 ! D32   D(10,3,7,23)         -174.4249         estimate D2E/DX2                !
 ! D33   D(10,3,7,24)           68.3662         estimate D2E/DX2                !
 ! D34   D(18,3,7,9)            67.6509         estimate D2E/DX2                !
 ! D35   D(18,3,7,23)          -54.7825         estimate D2E/DX2                !
 ! D36   D(18,3,7,24)         -171.9914         estimate D2E/DX2                !
 ! D37   D(19,3,7,9)          -172.8531         estimate D2E/DX2                !
 ! D38   D(19,3,7,23)           64.7135         estimate D2E/DX2                !
 ! D39   D(19,3,7,24)          -52.4954         estimate D2E/DX2                !
 ! D40   D(7,3,10,6)            55.856          estimate D2E/DX2                !
 ! D41   D(7,3,10,13)          174.1547         estimate D2E/DX2                !
 ! D42   D(7,3,10,27)          -63.8072         estimate D2E/DX2                !
 ! D43   D(18,3,10,6)          -64.9692         estimate D2E/DX2                !
 ! D44   D(18,3,10,13)          53.3296         estimate D2E/DX2                !
 ! D45   D(18,3,10,27)         175.3677         estimate D2E/DX2                !
 ! D46   D(19,3,10,6)          177.8886         estimate D2E/DX2                !
 ! D47   D(19,3,10,13)         -63.8126         estimate D2E/DX2                !
 ! D48   D(19,3,10,27)          58.2255         estimate D2E/DX2                !
 ! D49   D(1,4,5,2)             53.3009         estimate D2E/DX2                !
 ! D50   D(1,4,5,21)           172.6231         estimate D2E/DX2                !
 ! D51   D(1,4,5,22)           -66.7631         estimate D2E/DX2                !
 ! D52   D(13,4,5,2)           176.7058         estimate D2E/DX2                !
 ! D53   D(13,4,5,21)          -63.972          estimate D2E/DX2                !
 ! D54   D(13,4,5,22)           56.6418         estimate D2E/DX2                !
 ! D55   D(20,4,5,2)           -65.004          estimate D2E/DX2                !
 ! D56   D(20,4,5,21)           54.3182         estimate D2E/DX2                !
 ! D57   D(20,4,5,22)          174.932          estimate D2E/DX2                !
 ! D58   D(1,4,13,10)          125.3832         Frozen                          !
 ! D59   D(5,4,13,10)            1.1138         estimate D2E/DX2                !
 ! D60   D(20,4,13,10)        -118.5203         estimate D2E/DX2                !
 ! D61   D(11,6,10,3)          -61.3689         estimate D2E/DX2                !
 ! D62   D(11,6,10,13)         179.8305         estimate D2E/DX2                !
 ! D63   D(11,6,10,27)          59.3478         estimate D2E/DX2                !
 ! D64   D(10,6,11,9)           61.1806         estimate D2E/DX2                !
 ! D65   D(10,6,11,28)         -60.874          estimate D2E/DX2                !
 ! D66   D(10,6,11,29)        -177.2977         estimate D2E/DX2                !
 ! D67   D(3,7,9,11)            51.3843         estimate D2E/DX2                !
 ! D68   D(3,7,9,25)           -68.7856         estimate D2E/DX2                !
 ! D69   D(3,7,9,26)           172.4364         estimate D2E/DX2                !
 ! D70   D(23,7,9,11)          173.4241         estimate D2E/DX2                !
 ! D71   D(23,7,9,25)           53.2542         estimate D2E/DX2                !
 ! D72   D(23,7,9,26)          -65.5237         estimate D2E/DX2                !
 ! D73   D(24,7,9,11)          -68.9998         estimate D2E/DX2                !
 ! D74   D(24,7,9,25)          170.8303         estimate D2E/DX2                !
 ! D75   D(24,7,9,26)           52.0523         estimate D2E/DX2                !
 ! D76   D(2,8,12,1)           -59.4407         estimate D2E/DX2                !
 ! D77   D(2,8,12,30)           62.7762         estimate D2E/DX2                !
 ! D78   D(2,8,12,31)          179.4794         estimate D2E/DX2                !
 ! D79   D(7,9,11,6)           -54.9654         estimate D2E/DX2                !
 ! D80   D(7,9,11,28)           66.192          estimate D2E/DX2                !
 ! D81   D(7,9,11,29)         -173.1352         estimate D2E/DX2                !
 ! D82   D(25,9,11,6)           65.7388         estimate D2E/DX2                !
 ! D83   D(25,9,11,28)        -173.1038         estimate D2E/DX2                !
 ! D84   D(25,9,11,29)         -52.431          estimate D2E/DX2                !
 ! D85   D(26,9,11,6)         -177.0193         estimate D2E/DX2                !
 ! D86   D(26,9,11,28)         -55.8619         estimate D2E/DX2                !
 ! D87   D(26,9,11,29)          64.8109         estimate D2E/DX2                !
 ! D88   D(3,10,13,4)          157.2483         estimate D2E/DX2                !
 ! D89   D(6,10,13,4)          -82.9649         estimate D2E/DX2                !
 ! D90   D(27,10,13,4)          35.7991         estimate D2E/DX2                !
 --------------------------------------------------------------------------------
 Trust Radius=3.00D-01 FncErr=1.00D-07 GrdErr=1.00D-06 EigMax=2.50D+02 EigMin=1.00D-04
 Number of steps in this run=    186 maximum allowed number of steps=    186.
 GradGradGradGradGradGradGradGradGradGradGradGradGradGradGradGradGradGrad

                          Input orientation:                          
 ---------------------------------------------------------------------
 Center     Atomic      Atomic             Coordinates (Angstroms)
 Number     Number       Type             X           Y           Z
 ---------------------------------------------------------------------
      1          6           0        2.072634   -0.861628    0.987453
      2          6           0        2.952618    0.941556   -1.034594
      3          6           0       -2.393061   -1.237328   -0.452406
      4          6           0        1.274138   -0.738907   -0.304499
      5          6           0        1.460592    0.655576   -0.897486
      6          8           0       -1.334320    0.549269    0.760110
      7          6           0       -3.654021   -0.384258   -0.613980
      8          8           0        3.623507    0.823392    0.202892
      9          6           0       -3.738716    0.656604    0.503043
     10          6           0       -1.168747   -0.350820   -0.313094
     11          6           0       -2.433578    1.430378    0.596071
     12          6           0        3.525701   -0.474282    0.755662
     13          8           0       -0.069851   -1.147515   -0.037224
     14          1           0        1.638244   -0.210180    1.740624
     15          1           0        2.025974   -1.880710    1.359322
     16          1           0        3.112048    1.954039   -1.377728
     17          1           0        3.407248    0.262951   -1.752636
     18          1           0       -2.468945   -1.856851    0.437386
     19          1           0       -2.257399   -1.893876   -1.305869
     20          1           0        1.657321   -1.459163   -1.019890
     21          1           0        1.009716    0.731721   -1.880954
     22          1           0        1.012183    1.408493   -0.258856
     23          1           0       -4.534521   -1.018885   -0.614399
     24          1           0       -3.627199    0.121628   -1.577044
     25          1           0       -3.928623    0.165176    1.454240
     26          1           0       -4.554935    1.351107    0.325286
     27          1           0       -1.017759    0.221994   -1.219505
     28          1           0       -2.278848    2.029490   -0.298660
     29          1           0       -2.419704    2.090511    1.452082
     30          1           0        4.009882   -1.182583    0.087009
     31          1           0        4.075276   -0.457378    1.686334
 ---------------------------------------------------------------------
                    Distance matrix (angstroms):
                    1          2          3          4          5
     1  C    0.000000
     2  C    2.848599   0.000000
     3  C    4.707098   5.801962   0.000000
     4  C    1.523744   2.484812   3.703869   0.000000
     5  C    2.495896   1.525361   4.316460   1.526755   0.000000
     6  O    3.694543   4.663978   2.404799   3.097877   3.251224
     7  C    5.965488   6.751472   1.530965   4.950586   5.226940
     8  O    2.420751   1.412596   6.393362   2.866663   2.432529
     9  C    6.025900   6.871643   2.512100   5.265765   5.384634
    10  C    3.529716   4.379092   1.517975   2.473534   2.875373
    11  C    5.070741   5.648816   2.866636   4.389075   4.242121
    12  C    1.521568   2.353304   6.088794   2.502699   2.876483
    13  O    2.392057   3.807136   2.361725   1.429931   2.516633
    14  H    1.086437   3.279620   4.702747   2.143514   2.782215
    15  H    1.085814   3.815061   4.819146   2.153433   3.441742
    16  H    3.821314   1.080870   6.430184   3.432447   2.154982
    17  H    3.248686   1.087556   6.130662   2.766040   2.162153
    18  H    4.681771   6.276237   1.086875   3.976288   4.851333
    19  H    5.007399   5.937806   1.085292   3.848175   4.526581
    20  H    2.135172   2.727904   4.095954   1.085072   2.127394
    21  H    3.449103   2.129607   4.182917   2.172067   1.084572
    22  H    2.798445   2.141282   4.316656   2.163800   1.084344
    23  H    6.800379   7.750945   2.158659   5.823654   6.230998
    24  H    6.327048   6.652858   2.152828   5.136438   5.160670
    25  H    6.106333   7.358569   2.821395   5.565901   5.900402
    26  H    7.018499   7.640704   3.460997   6.224378   6.177823
    27  H    3.949105   4.039289   2.146979   2.648275   2.536516
    28  H    5.380339   5.393833   3.272428   4.504194   4.028603
    29  H    5.395564   6.030381   3.834357   4.973495   4.757752
    30  H    2.160264   2.624456   6.425858   2.799004   3.293469
    31  H    2.159266   3.258961   6.857253   3.448050   3.840751
                    6          7          8          9         10
     6  O    0.000000
     7  C    2.853175   0.000000
     8  O    4.996567   7.422137   0.000000
     9  C    2.420480   1.529152   7.370226   0.000000
    10  C    1.410440   2.503645   4.960919   2.878493   0.000000
    11  C    1.418319   2.499322   6.100107   1.520120   2.366230
    12  C    4.966637   7.309749   1.413888   7.356254   4.816152
    13  O    2.261349   3.709647   4.193212   4.123991   1.385063
    14  H    3.220917   5.795044   2.715540   5.585214   3.480910
    15  H    4.189920   6.196421   3.346881   6.356322   3.917114
    16  H    5.129709   7.199350   2.009555   7.221745   4.977050
    17  H    5.373857   7.181708   2.045715   7.503856   4.836189
    18  H    2.679727   2.162939   6.660080   2.816751   2.126468
    19  H    3.330060   2.169841   6.651689   3.459973   2.133492
    20  H    4.018969   5.434201   3.251329   5.992746   3.116833
    21  H    3.535960   4.959947   3.344058   5.313821   2.894094
    22  H    2.698636   5.011340   2.715615   4.869997   2.802602
    23  H    3.819642   1.085372   8.403295   2.165467   3.444638
    24  H    3.301887   1.088178   7.498892   2.150674   2.804418
    25  H    2.712886   2.157503   7.683345   1.087355   3.317625
    26  H    3.347294   2.169184   8.196364   1.086345   3.843222
    27  H    2.031304   2.772017   4.891446   3.249564   1.082818
    28  H    2.050410   2.795837   6.045165   2.158416   2.626482
    29  H    2.008061   3.452048   6.299719   2.167154   3.262030
    30  H    5.657992   7.737191   2.046131   7.974739   5.260239
    31  H    5.579871   8.064665   2.011235   7.981203   5.613274
                   11         12         13         14         15
    11  C    0.000000
    12  C    6.258291   0.000000
    13  O    3.554406   3.742981   0.000000
    14  H    4.536647   2.145319   2.637599   0.000000
    15  H    5.606555   2.142808   2.623051   1.756814   0.000000
    16  H    5.909659   3.258712   4.641236   4.071862   4.834904
    17  H    6.402699   2.617079   4.125805   3.944121   4.023367
    18  H    3.291247   6.160242   2.546383   4.612912   4.588554
    19  H    3.833938   6.301540   2.636642   5.224173   5.044869
    20  H    5.262721   2.759243   2.011437   3.029977   2.444229
    21  H    4.298843   3.838798   2.845406   3.794477   4.284503
    22  H    3.550303   3.300282   2.784438   2.647636   3.803305
    23  H    3.446460   8.193951   4.503660   6.656062   6.904956
    24  H    2.803567   7.547225   4.078786   6.232328   6.677572
    25  H    2.138305   7.514244   4.340247   5.586852   6.296974
    26  H    2.140038   8.295417   5.146893   6.541885   7.404204
    27  H    2.600202   5.002911   2.042516   4.000436   4.509548
    28  H    1.087851   6.408842   3.878321   4.951607   6.047318
    29  H    1.081075   6.512373   4.269034   4.673690   5.961816
    30  H    6.971720   1.087758   4.081775   3.050357   2.458059
    31  H    6.864217   1.080957   4.541918   2.450139   2.516436
                   16         17         18         19         20
    16  H    0.000000
    17  H    1.757122   0.000000
    18  H    6.997500   6.619622   0.000000
    19  H    6.606253   6.077806   1.756434   0.000000
    20  H    3.727496   2.562194   4.394073   3.949151   0.000000
    21  H    2.483364   2.446297   4.916959   4.230665   2.441474
    22  H    2.441092   3.046306   4.823430   4.763617   3.036252
    23  H    8.239597   8.124677   2.464760   2.535552   6.220705
    24  H    6.986767   7.038057   3.051862   2.451967   5.543958
    25  H    7.796866   8.006786   2.693185   3.827648   6.321595
    26  H    7.876954   8.300494   3.828174   4.297587   6.949766
    27  H    4.481107   4.457196   3.028667   2.453787   3.165784
    28  H    5.498349   6.129143   3.959993   4.050646   5.308889
    29  H    6.215041   6.896634   4.075991   4.848502   5.944154
    30  H    3.576305   2.415995   6.523235   6.459478   2.614625
    31  H    4.016369   3.576542   6.807733   7.149796   3.764801
                   21         22         23         24         25
    21  H    0.000000
    22  H    1.757620   0.000000
    23  H    5.950407   6.065023   0.000000
    24  H    4.686743   4.991744   1.746622   0.000000
    25  H    5.985957   5.375137   2.459345   3.046545   0.000000
    26  H    6.018013   5.597974   2.549566   2.447687   1.753065
    27  H    2.192713   2.539939   3.778035   2.635732   3.952881
    28  H    3.873308   3.349344   3.805304   2.663129   3.044681
    29  H    4.971555   3.894908   4.290820   3.809219   2.446172
    30  H    4.066747   3.977373   8.574707   7.924332   8.167352
    31  H    4.851511   4.080169   8.929573   8.385285   8.031428
                   26         27         28         29         30
    26  H    0.000000
    27  H    4.021553   0.000000
    28  H    2.455623   2.388586   0.000000
    29  H    2.524995   3.548828   1.757459   0.000000
    30  H    8.934901   5.381170   7.072077   7.342761   0.000000
    31  H    8.922086   5.902919   7.106307   6.980786   1.757282
                   31
    31  H    0.000000
 Stoichiometry    C10H18O3
 Framework group  C1[X(C10H18O3)]
 Deg. of freedom    87
 Full point group                 C1      NOp   1
 Largest Abelian subgroup         C1      NOp   1
 Largest concise Abelian subgroup C1      NOp   1
                         Standard orientation:                         
 ---------------------------------------------------------------------
 Center     Atomic      Atomic             Coordinates (Angstroms)
 Number     Number       Type             X           Y           Z
 ---------------------------------------------------------------------
      1          6           0       -2.072634   -0.861628   -0.987453
      2          6           0       -2.952618    0.941556    1.034594
      3          6           0        2.393061   -1.237328    0.452406
      4          6           0       -1.274138   -0.738907    0.304499
      5          6           0       -1.460592    0.655576    0.897486
      6          8           0        1.334320    0.549269   -0.760110
      7          6           0        3.654021   -0.384258    0.613980
      8          8           0       -3.623507    0.823392   -0.202892
      9          6           0        3.738716    0.656604   -0.503043
     10          6           0        1.168747   -0.350820    0.313094
     11          6           0        2.433578    1.430378   -0.596071
     12          6           0       -3.525701   -0.474282   -0.755662
     13          8           0        0.069851   -1.147515    0.037224
     14          1           0       -1.638244   -0.210180   -1.740624
     15          1           0       -2.025974   -1.880710   -1.359322
     16          1           0       -3.112048    1.954039    1.377728
     17          1           0       -3.407248    0.262951    1.752636
     18          1           0        2.468945   -1.856851   -0.437386
     19          1           0        2.257399   -1.893876    1.305869
     20          1           0       -1.657321   -1.459163    1.019890
     21          1           0       -1.009716    0.731721    1.880954
     22          1           0       -1.012183    1.408493    0.258856
     23          1           0        4.534521   -1.018885    0.614399
     24          1           0        3.627199    0.121628    1.577044
     25          1           0        3.928623    0.165176   -1.454240
     26          1           0        4.554935    1.351107   -0.325286
     27          1           0        1.017759    0.221994    1.219505
     28          1           0        2.278848    2.029490    0.298660
     29          1           0        2.419704    2.090511   -1.452082
     30          1           0       -4.009882   -1.182583   -0.087009
     31          1           0       -4.075276   -0.457378   -1.686334
 ---------------------------------------------------------------------
 Rotational constants (GHZ):           2.0200830           0.3803653           0.3642291
 Standard basis: 6-311++G(2d,2p) (5D, 7F)
 There are   557 symmetry adapted cartesian basis functions of A   symmetry.
 There are   531 symmetry adapted basis functions of A   symmetry.
   531 basis functions,   762 primitive gaussians,   557 cartesian basis functions
    51 alpha electrons       51 beta electrons
       nuclear repulsion energy       885.4800757257 Hartrees.
 NAtoms=   31 NActive=   31 NUniq=   31 SFac= 1.00D+00 NAtFMM=   60 NAOKFM=F Big=F
 Integral buffers will be    131072 words long.
 Raffenetti 2 integral format.
 Two-electron integral symmetry is turned on.
 ------------------------------------------------------------------------------
 Polarizable Continuum Model (PCM)
 =================================
 Model                : PCM.
 Atomic radii         : SMD-Coulomb.
 Polarization charges : Total charges.
 Charge compensation  : None.
 Solution method      : On-the-fly selection.
 Cavity type          : VdW (van der Waals Surface) (Alpha=1.000).
 Cavity algorithm     : GePol (No added spheres)
                        Default sphere list used, NSphG=   31.
                        Lebedev-Laikov grids with approx.  5.0 points / Ang**2.
                        Smoothing algorithm: York/Karplus (Gamma=1.0000).
                        Polarization charges: spherical gaussians, with
                                              point-specific exponents (IZeta= 3).
                        Self-potential: point-specific (ISelfS= 7).
                        Self-field    : sphere-specific E.n sum rule (ISelfD= 2).
 1st derivatives      : Analytical E(r).r(x)/FMM algorithm (CHGder, D1EAlg=3).
                        Cavity 1st derivative terms included.
 Solvent              : Water, Eps=  78.355300 Eps(inf)=   1.777849
 ------------------------------------------------------------------------------
 ------------------------------------------------------------------------------
 Atomic radii for non-electrostatic terms: SMD-CDS.
 ------------------------------------------------------------------------------
 Nuclear repulsion after PCM non-electrostatic terms =      885.4865047142 Hartrees.
 One-electron integrals computed using PRISM.
 NBasis=   531 RedAO= T EigKep=  4.19D-06  NBF=   531
 NBsUse=   531 1.00D-06 EigRej= -1.00D+00 NBFU=   531
 ExpMin= 3.60D-02 ExpMax= 8.59D+03 ExpMxC= 1.30D+03 IAcc=3 IRadAn=         5 AccDes= 0.00D+00
 Harris functional with IExCor= 1009 and IRadAn=       5 diagonalized for initial guess.
 HarFok:  IExCor= 1009 AccDes= 0.00D+00 IRadAn=         5 IDoV= 1 UseB2=F ITyADJ=14
 ICtDFT=  3500011 ScaDFX=  1.000000  1.000000  1.000000  1.000000
 FoFCou: FMM=F IPFlag=           0 FMFlag=      100000 FMFlg1=           0
         NFxFlg=           0 DoJE=T BraDBF=F KetDBF=T FulRan=T
         wScrn=  0.000000 ICntrl=       500 IOpCl=  0 I1Cent=   200000004 NGrid=           0
         NMat0=    1 NMatS0=      1 NMatT0=    0 NMatD0=    1 NMtDS0=    0 NMtDT0=    0
 Petite list used in FoFCou.
 Requested convergence on RMS density matrix=1.00D-08 within 128 cycles.
 Requested convergence on MAX density matrix=1.00D-06.
 Requested convergence on             energy=1.00D-06.
 No special actions if energy rises.
 Inv3:  Mode=1 IEnd=    12253323.
 Iteration    1 A*A^-1 deviation from unit magnitude is 9.33D-15 for    176.
 Iteration    1 A*A^-1 deviation from orthogonality  is 3.44D-15 for   2001    580.
 Iteration    1 A^-1*A deviation from unit magnitude is 8.44D-15 for    176.
 Iteration    1 A^-1*A deviation from orthogonality  is 1.94D-13 for   1156   1119.
 Error on total polarization charges =  0.06251
 SCF Done:  E(RM062X) =  -617.502478238     A.U. after   12 cycles
            NFock= 12  Conv=0.55D-08     -V/T= 2.0035
 SMD-CDS (non-electrostatic) energy       (kcal/mol) =       4.03
 (included in total energy above)

 **********************************************************************

            Population analysis using the SCF Density.

 **********************************************************************

 Orbital symmetries:
       Occupied  (A) (A) (A) (A) (A) (A) (A) (A) (A) (A) (A) (A)
                 (A) (A) (A) (A) (A) (A) (A) (A) (A) (A) (A) (A)
                 (A) (A) (A) (A) (A) (A) (A) (A) (A) (A) (A) (A)
                 (A) (A) (A) (A) (A) (A) (A) (A) (A) (A) (A) (A)
                 (A) (A) (A)
       Virtual   (A) (A) (A) (A) (A) (A) (A) (A) (A) (A) (A) (A)
                 (A) (A) (A) (A) (A) (A) (A) (A) (A) (A) (A) (A)
                 (A) (A) (A) (A) (A) (A) (A) (A) (A) (A) (A) (A)
                 (A) (A) (A) (A) (A) (A) (A) (A) (A) (A) (A) (A)
                 (A) (A) (A) (A) (A) (A) (A) (A) (A) (A) (A) (A)
                 (A) (A) (A) (A) (A) (A) (A) (A) (A) (A) (A) (A)
                 (A) (A) (A) (A) (A) (A) (A) (A) (A) (A) (A) (A)
                 (A) (A) (A) (A) (A) (A) (A) (A) (A) (A) (A) (A)
                 (A) (A) (A) (A) (A) (A) (A) (A) (A) (A) (A) (A)
                 (A) (A) (A) (A) (A) (A) (A) (A) (A) (A) (A) (A)
                 (A) (A) (A) (A) (A) (A) (A) (A) (A) (A) (A) (A)
                 (A) (A) (A) (A) (A) (A) (A) (A) (A) (A) (A) (A)
                 (A) (A) (A) (A) (A) (A) (A) (A) (A) (A) (A) (A)
                 (A) (A) (A) (A) (A) (A) (A) (A) (A) (A) (A) (A)
                 (A) (A) (A) (A) (A) (A) (A) (A) (A) (A) (A) (A)
                 (A) (A) (A) (A) (A) (A) (A) (A) (A) (A) (A) (A)
                 (A) (A) (A) (A) (A) (A) (A) (A) (A) (A) (A) (A)
                 (A) (A) (A) (A) (A) (A) (A) (A) (A) (A) (A) (A)
                 (A) (A) (A) (A) (A) (A) (A) (A) (A) (A) (A) (A)
                 (A) (A) (A) (A) (A) (A) (A) (A) (A) (A) (A) (A)
                 (A) (A) (A) (A) (A) (A) (A) (A) (A) (A) (A) (A)
                 (A) (A) (A) (A) (A) (A) (A) (A) (A) (A) (A) (A)
                 (A) (A) (A) (A) (A) (A) (A) (A) (A) (A) (A) (A)
                 (A) (A) (A) (A) (A) (A) (A) (A) (A) (A) (A) (A)
                 (A) (A) (A) (A) (A) (A) (A) (A) (A) (A) (A) (A)
                 (A) (A) (A) (A) (A) (A) (A) (A) (A) (A) (A) (A)
                 (A) (A) (A) (A) (A) (A) (A) (A) (A) (A) (A) (A)
                 (A) (A) (A) (A) (A) (A) (A) (A) (A) (A) (A) (A)
                 (A) (A) (A) (A) (A) (A) (A) (A) (A) (A) (A) (A)
                 (A) (A) (A) (A) (A) (A) (A) (A) (A) (A) (A) (A)
                 (A) (A) (A) (A) (A) (A) (A) (A) (A) (A) (A) (A)
                 (A) (A) (A) (A) (A) (A) (A) (A) (A) (A) (A) (A)
                 (A) (A) (A) (A) (A) (A) (A) (A) (A) (A) (A) (A)
                 (A) (A) (A) (A) (A) (A) (A) (A) (A) (A) (A) (A)
                 (A) (A) (A) (A) (A) (A) (A) (A) (A) (A) (A) (A)
                 (A) (A) (A) (A) (A) (A) (A) (A) (A) (A) (A) (A)
                 (A) (A) (A) (A) (A) (A) (A) (A) (A) (A) (A) (A)
                 (A) (A) (A) (A) (A) (A) (A) (A) (A) (A) (A) (A)
                 (A) (A) (A) (A) (A) (A) (A) (A) (A) (A) (A) (A)
                 (A) (A) (A) (A) (A) (A) (A) (A) (A) (A) (A) (A)
 The electronic state is 1-A.
 Alpha  occ. eigenvalues --  -19.63126 -19.62765 -19.62632 -10.63028 -10.58630
 Alpha  occ. eigenvalues --  -10.57555 -10.57382 -10.57249 -10.52607 -10.52391
 Alpha  occ. eigenvalues --  -10.52225 -10.52207 -10.52076  -1.20029  -1.16622
 Alpha  occ. eigenvalues --   -1.13762  -0.90714  -0.89279  -0.86452  -0.84762
 Alpha  occ. eigenvalues --   -0.75315  -0.73196  -0.72771  -0.69743  -0.65362
 Alpha  occ. eigenvalues --   -0.65061  -0.59957  -0.57379  -0.56371  -0.54719
 Alpha  occ. eigenvalues --   -0.54503  -0.52994  -0.52521  -0.51279  -0.50108
 Alpha  occ. eigenvalues --   -0.49445  -0.46715  -0.45593  -0.44762  -0.43618
 Alpha  occ. eigenvalues --   -0.43082  -0.41494  -0.40624  -0.39770  -0.39276
 Alpha  occ. eigenvalues --   -0.38392  -0.37141  -0.36440  -0.34469  -0.32735
 Alpha  occ. eigenvalues --   -0.32104
 Alpha virt. eigenvalues --    0.00454   0.01269   0.01426   0.01439   0.02688
 Alpha virt. eigenvalues --    0.02875   0.02961   0.03913   0.04065   0.04947
 Alpha virt. eigenvalues --    0.05152   0.05289   0.05859   0.05970   0.07595
 Alpha virt. eigenvalues --    0.07715   0.08037   0.08426   0.09144   0.10154
 Alpha virt. eigenvalues --    0.10414   0.10744   0.11279   0.12096   0.12484
 Alpha virt. eigenvalues --    0.12828   0.12997   0.13270   0.13641   0.13883
 Alpha virt. eigenvalues --    0.14135   0.14649   0.14839   0.15006   0.15277
 Alpha virt. eigenvalues --    0.15878   0.16158   0.16426   0.16754   0.16925
 Alpha virt. eigenvalues --    0.17274   0.17500   0.17762   0.17879   0.18349
 Alpha virt. eigenvalues --    0.18654   0.18885   0.19191   0.19369   0.19993
 Alpha virt. eigenvalues --    0.20205   0.20520   0.20933   0.21315   0.22329
 Alpha virt. eigenvalues --    0.22716   0.23202   0.23592   0.24358   0.24734
 Alpha virt. eigenvalues --    0.25519   0.26443   0.26968   0.27053   0.27217
 Alpha virt. eigenvalues --    0.27706   0.28257   0.28885   0.29519   0.29626
 Alpha virt. eigenvalues --    0.30023   0.30847   0.31611   0.31972   0.32409
 Alpha virt. eigenvalues --    0.32874   0.33684   0.34117   0.34440   0.34584
 Alpha virt. eigenvalues --    0.35081   0.35674   0.35826   0.35997   0.36865
 Alpha virt. eigenvalues --    0.36960   0.37325   0.37482   0.38291   0.38494
 Alpha virt. eigenvalues --    0.38688   0.39321   0.39922   0.40873   0.41035
 Alpha virt. eigenvalues --    0.41820   0.41906   0.43498   0.43787   0.45374
 Alpha virt. eigenvalues --    0.46654   0.48848   0.49559   0.50680   0.51667
 Alpha virt. eigenvalues --    0.52557   0.53208   0.54269   0.55340   0.56398
 Alpha virt. eigenvalues --    0.57064   0.57692   0.58250   0.59073   0.59725
 Alpha virt. eigenvalues --    0.60233   0.60599   0.60881   0.61375   0.62077
 Alpha virt. eigenvalues --    0.62623   0.63150   0.63878   0.64027   0.64558
 Alpha virt. eigenvalues --    0.65338   0.66165   0.66293   0.66915   0.67517
 Alpha virt. eigenvalues --    0.67958   0.69083   0.69845   0.70086   0.71384
 Alpha virt. eigenvalues --    0.71902   0.72743   0.73113   0.73526   0.73734
 Alpha virt. eigenvalues --    0.74467   0.74693   0.75205   0.75965   0.76213
 Alpha virt. eigenvalues --    0.76702   0.77428   0.78094   0.78744   0.79537
 Alpha virt. eigenvalues --    0.80645   0.83281   0.84477   0.85404   0.85975
 Alpha virt. eigenvalues --    0.86150   0.87711   0.89096   0.90403   0.91227
 Alpha virt. eigenvalues --    0.91784   0.91916   0.92674   0.94405   0.96188
 Alpha virt. eigenvalues --    0.97375   0.98677   1.00670   1.01454   1.03311
 Alpha virt. eigenvalues --    1.03522   1.05022   1.06152   1.06653   1.07122
 Alpha virt. eigenvalues --    1.08396   1.08554   1.10623   1.11147   1.11553
 Alpha virt. eigenvalues --    1.12721   1.13074   1.14166   1.15629   1.16734
 Alpha virt. eigenvalues --    1.17835   1.18279   1.19517   1.20053   1.20143
 Alpha virt. eigenvalues --    1.21059   1.21558   1.22510   1.23505   1.23851
 Alpha virt. eigenvalues --    1.23914   1.24657   1.27079   1.27538   1.27816
 Alpha virt. eigenvalues --    1.28377   1.29039   1.30551   1.31058   1.31714
 Alpha virt. eigenvalues --    1.31916   1.32581   1.32790   1.33549   1.34427
 Alpha virt. eigenvalues --    1.34914   1.35512   1.37544   1.38016   1.38630
 Alpha virt. eigenvalues --    1.39046   1.40342   1.40794   1.41175   1.42062
 Alpha virt. eigenvalues --    1.42422   1.43328   1.44127   1.44750   1.45269
 Alpha virt. eigenvalues --    1.46131   1.46616   1.47710   1.48122   1.49012
 Alpha virt. eigenvalues --    1.49898   1.50410   1.50957   1.51805   1.52368
 Alpha virt. eigenvalues --    1.53109   1.54748   1.54815   1.55432   1.56177
 Alpha virt. eigenvalues --    1.56836   1.57464   1.58617   1.58876   1.60108
 Alpha virt. eigenvalues --    1.60638   1.61102   1.62302   1.63583   1.63961
 Alpha virt. eigenvalues --    1.64899   1.65357   1.66090   1.66632   1.67121
 Alpha virt. eigenvalues --    1.67875   1.68387   1.69200   1.70991   1.72523
 Alpha virt. eigenvalues --    1.73677   1.73963   1.76114   1.77571   1.78074
 Alpha virt. eigenvalues --    1.79621   1.80644   1.81506   1.83336   1.83782
 Alpha virt. eigenvalues --    1.85514   1.87924   1.92663   1.94812   1.97257
 Alpha virt. eigenvalues --    1.98723   2.08579   2.14468   2.17360   2.18215
 Alpha virt. eigenvalues --    2.24391   2.28124   2.32950   2.34223   2.35332
 Alpha virt. eigenvalues --    2.41171   2.42734   2.44241   2.50366   2.52456
 Alpha virt. eigenvalues --    2.57398   2.76587   2.77562   2.79390   2.81813
 Alpha virt. eigenvalues --    2.88126   2.89145   2.92848   2.93459   2.96419
 Alpha virt. eigenvalues --    2.96929   2.98230   3.01149   3.03980   3.05761
 Alpha virt. eigenvalues --    3.06982   3.08303   3.09971   3.11300   3.12594
 Alpha virt. eigenvalues --    3.12900   3.15081   3.16292   3.19554   3.21169
 Alpha virt. eigenvalues --    3.25058   3.27401   3.31871   3.33985   3.35465
 Alpha virt. eigenvalues --    3.36046   3.38006   3.39588   3.40088   3.42370
 Alpha virt. eigenvalues --    3.42468   3.44171   3.46019   3.46863   3.47596
 Alpha virt. eigenvalues --    3.47961   3.49875   3.50814   3.51908   3.53067
 Alpha virt. eigenvalues --    3.53599   3.54837   3.55002   3.56106   3.56904
 Alpha virt. eigenvalues --    3.57928   3.58061   3.59348   3.59869   3.60789
 Alpha virt. eigenvalues --    3.61182   3.61501   3.62524   3.63382   3.65068
 Alpha virt. eigenvalues --    3.66311   3.67310   3.68206   3.69556   3.71532
 Alpha virt. eigenvalues --    3.71683   3.72338   3.72572   3.73555   3.74199
 Alpha virt. eigenvalues --    3.74793   3.75620   3.77169   3.77760   3.78110
 Alpha virt. eigenvalues --    3.79303   3.80186   3.80807   3.82070   3.85397
 Alpha virt. eigenvalues --    3.86684   3.88155   3.89739   3.90507   3.91215
 Alpha virt. eigenvalues --    3.91546   3.93721   3.94471   3.95373   3.99849
 Alpha virt. eigenvalues --    4.00174   4.02606   4.03095   4.03702   4.04921
 Alpha virt. eigenvalues --    4.05999   4.06804   4.07008   4.07353   4.08140
 Alpha virt. eigenvalues --    4.09538   4.10509   4.12280   4.12471   4.12710
 Alpha virt. eigenvalues --    4.13077   4.13168   4.13761   4.14315   4.15989
 Alpha virt. eigenvalues --    4.16513   4.18748   4.19593   4.21332   4.22108
 Alpha virt. eigenvalues --    4.22408   4.23554   4.24102   4.25243   4.26337
 Alpha virt. eigenvalues --    4.28509   4.31455   4.32020   4.32587   4.33381
 Alpha virt. eigenvalues --    4.34961   4.35736   4.36097   4.38488   4.40037
 Alpha virt. eigenvalues --    4.42956   4.45331   4.46408   4.48841   4.58624
 Alpha virt. eigenvalues --    4.60260   4.62442   4.73804   4.77405   4.89084
 Alpha virt. eigenvalues --    4.90373   4.91742   4.93474   5.00063   5.00391
 Alpha virt. eigenvalues --    5.06726   5.08301   5.08574   5.10363   5.12159
 Alpha virt. eigenvalues --    5.12893   5.13532   5.14585   5.30360   5.36266
 Alpha virt. eigenvalues --    5.38786   5.55326   5.59331   5.64879   5.86732
 Alpha virt. eigenvalues --    5.89165   6.02973   7.01771   7.05779   7.06353
 Alpha virt. eigenvalues --    7.08822   7.10413   7.11685   7.15022   7.17335
 Alpha virt. eigenvalues --    7.26133   7.36264   7.41539   7.45553   7.52446
 Alpha virt. eigenvalues --    7.54079   7.60770  23.95817  23.97279  24.05193
 Alpha virt. eigenvalues --   24.09557  24.12417  24.13062  24.14245  24.16780
 Alpha virt. eigenvalues --   24.17791  24.18566  50.16181  50.19468  50.24636
          Condensed to atoms (all electrons):
               1          2          3          4          5          6
     1  C    6.480007   0.333570  -0.192428  -1.155415   0.203655  -0.042077
     2  C    0.333570   6.722681  -0.129003  -0.079761  -0.676519  -0.036653
     3  C   -0.192428  -0.129003   8.338806   0.289664  -0.390704  -0.022076
     4  C   -1.155415  -0.079761   0.289664   8.227952  -1.122958   0.046062
     5  C    0.203655  -0.676519  -0.390704  -1.122958   6.818260  -0.077361
     6  O   -0.042077  -0.036653  -0.022076   0.046062  -0.077361   8.376089
     7  C    0.009753   0.012135  -0.107887  -0.033931  -0.002813   0.024647
     8  O    0.001952   0.119378  -0.001014  -0.003318  -0.035888  -0.000356
     9  C   -0.001460  -0.012329   0.189812  -0.008343  -0.024963  -0.033138
    10  C    0.209181  -0.245396  -1.852030  -0.724208   0.435307   0.327219
    11  C   -0.005551   0.032562  -0.228984   0.028851   0.032059  -0.026673
    12  C   -0.173811  -0.337916   0.023322   0.025889   0.245803  -0.003893
    13  O   -0.095046   0.031535  -0.306156  -0.059430   0.113299   0.004959
    14  H    0.449538   0.025860  -0.007457   0.072416  -0.058905   0.003729
    15  H    0.461446  -0.005378   0.002972  -0.041309  -0.007490   0.000865
    16  H    0.012033   0.457468  -0.004532  -0.014730  -0.045929  -0.000236
    17  H   -0.026729   0.413688   0.001581   0.061009  -0.060551  -0.000363
    18  H    0.002232   0.000958   0.486402   0.003710   0.004433  -0.009715
    19  H    0.006560   0.001970   0.389950  -0.018276   0.006724   0.006660
    20  H   -0.091392  -0.023032   0.009644   0.502671  -0.018917   0.002751
    21  H    0.007986   0.052376   0.013288  -0.049219   0.391241  -0.000581
    22  H   -0.089291  -0.132858   0.009389   0.113346   0.434957   0.006136
    23  H   -0.000696  -0.000718  -0.035457  -0.002310  -0.003857  -0.002545
    24  H    0.000747   0.002726  -0.088258   0.004375   0.003622  -0.000815
    25  H   -0.001240   0.000083  -0.004156   0.004689  -0.000559  -0.003195
    26  H    0.000627   0.000275  -0.016606  -0.001782   0.002221   0.007422
    27  H   -0.011358  -0.043431  -0.046765   0.026666   0.016403  -0.051639
    28  H    0.000260   0.001985   0.013881  -0.003722   0.009071  -0.031312
    29  H    0.004550   0.001392  -0.001672  -0.006589   0.002371  -0.069346
    30  H   -0.072515  -0.000385  -0.000119   0.034738  -0.021482  -0.000022
    31  H   -0.030979   0.002006   0.000547  -0.001263   0.007966  -0.000154
               7          8          9         10         11         12
     1  C    0.009753   0.001952  -0.001460   0.209181  -0.005551  -0.173811
     2  C    0.012135   0.119378  -0.012329  -0.245396   0.032562  -0.337916
     3  C   -0.107887  -0.001014   0.189812  -1.852030  -0.228984   0.023322
     4  C   -0.033931  -0.003318  -0.008343  -0.724208   0.028851   0.025889
     5  C   -0.002813  -0.035888  -0.024963   0.435307   0.032059   0.245803
     6  O    0.024647  -0.000356  -0.033138   0.327219  -0.026673  -0.003893
     7  C    5.607246  -0.000151  -0.032039   0.078729  -0.005499  -0.002980
     8  O   -0.000151   8.438011   0.000216  -0.002225   0.000200   0.079673
     9  C   -0.032039   0.000216   5.707541  -0.085919  -0.043749   0.000860
    10  C    0.078729  -0.002225  -0.085919   7.281336   0.022328  -0.037930
    11  C   -0.005499   0.000200  -0.043749   0.022328   5.487017  -0.000905
    12  C   -0.002980   0.079673   0.000860  -0.037930  -0.000905   5.619628
    13  O    0.030559  -0.003543   0.003791   0.223381   0.004697   0.026035
    14  H    0.000353  -0.006498   0.000967  -0.027828   0.001659  -0.083869
    15  H    0.000202   0.009036   0.000749   0.010142  -0.001501  -0.038372
    16  H   -0.000173  -0.072057   0.000055  -0.001886   0.000063   0.011317
    17  H   -0.000217  -0.043545   0.000307  -0.006049  -0.000032  -0.006558
    18  H   -0.012522  -0.000050  -0.022337  -0.087405   0.004218  -0.000396
    19  H   -0.020885  -0.000033   0.002756   0.008947  -0.002546   0.000312
    20  H   -0.004092  -0.006347  -0.000523  -0.043704   0.003561   0.025352
    21  H    0.006811   0.010423  -0.001955   0.002137  -0.001092  -0.010604
    22  H   -0.005380  -0.016611  -0.008852  -0.023658   0.006677   0.018809
    23  H    0.424007  -0.000011  -0.022606   0.015409   0.002768  -0.000000
    24  H    0.539783  -0.000034  -0.082154   0.013588  -0.003682  -0.000132
    25  H   -0.014001  -0.000014   0.472421  -0.016235  -0.067144   0.000327
    26  H   -0.057676   0.000015   0.464075   0.023165  -0.042459  -0.000105
    27  H   -0.048371   0.003029   0.029645   0.449146   0.018789   0.003078
    28  H   -0.001387  -0.000100  -0.065025  -0.029193   0.474916   0.001015
    29  H    0.008539   0.000110  -0.037449   0.008982   0.439319  -0.000458
    30  H    0.000097  -0.042476   0.000034  -0.005529   0.000241   0.462629
    31  H   -0.000137  -0.068685  -0.000095   0.001925  -0.000319   0.428263
              13         14         15         16         17         18
     1  C   -0.095046   0.449538   0.461446   0.012033  -0.026729   0.002232
     2  C    0.031535   0.025860  -0.005378   0.457468   0.413688   0.000958
     3  C   -0.306156  -0.007457   0.002972  -0.004532   0.001581   0.486402
     4  C   -0.059430   0.072416  -0.041309  -0.014730   0.061009   0.003710
     5  C    0.113299  -0.058905  -0.007490  -0.045929  -0.060551   0.004433
     6  O    0.004959   0.003729   0.000865  -0.000236  -0.000363  -0.009715
     7  C    0.030559   0.000353   0.000202  -0.000173  -0.000217  -0.012522
     8  O   -0.003543  -0.006498   0.009036  -0.072057  -0.043545  -0.000050
     9  C    0.003791   0.000967   0.000749   0.000055   0.000307  -0.022337
    10  C    0.223381  -0.027828   0.010142  -0.001886  -0.006049  -0.087405
    11  C    0.004697   0.001659  -0.001501   0.000063  -0.000032   0.004218
    12  C    0.026035  -0.083869  -0.038372   0.011317  -0.006558  -0.000396
    13  O    8.531581  -0.003509  -0.008732   0.000490  -0.002428   0.003649
    14  H   -0.003509   0.469157  -0.020214  -0.001478   0.002467   0.000994
    15  H   -0.008732  -0.020214   0.473562   0.001071  -0.001105  -0.000945
    16  H    0.000490  -0.001478   0.001071   0.481557  -0.015421   0.000051
    17  H   -0.002428   0.002467  -0.001105  -0.015421   0.498111  -0.000107
    18  H    0.003649   0.000994  -0.000945   0.000051  -0.000107   0.459539
    19  H    0.000256  -0.000258   0.000000   0.000058  -0.000032  -0.017783
    20  H   -0.051361   0.004966  -0.009784   0.001196  -0.000962   0.001086
    21  H    0.000703  -0.002237   0.000616  -0.011539  -0.008565   0.001503
    22  H   -0.010325   0.000632  -0.002282  -0.004239   0.002700  -0.001250
    23  H   -0.002371  -0.000171   0.000071  -0.000035  -0.000011  -0.003769
    24  H    0.000831   0.000264  -0.000077   0.000026  -0.000061   0.005791
    25  H    0.002618   0.000000  -0.000032   0.000001  -0.000001   0.002353
    26  H    0.000148   0.000029   0.000002   0.000022   0.000008  -0.003432
    27  H   -0.036733  -0.001641   0.001083  -0.000036   0.004448  -0.012046
    28  H    0.005415  -0.000076  -0.000055  -0.000008  -0.000063   0.001032
    29  H   -0.002428  -0.000668  -0.000036   0.000044  -0.000026  -0.000626
    30  H   -0.001211   0.002771   0.000033  -0.003590   0.010110   0.000073
    31  H   -0.001872  -0.004964  -0.008300   0.002128  -0.003169   0.000016
              19         20         21         22         23         24
     1  C    0.006560  -0.091392   0.007986  -0.089291  -0.000696   0.000747
     2  C    0.001970  -0.023032   0.052376  -0.132858  -0.000718   0.002726
     3  C    0.389950   0.009644   0.013288   0.009389  -0.035457  -0.088258
     4  C   -0.018276   0.502671  -0.049219   0.113346  -0.002310   0.004375
     5  C    0.006724  -0.018917   0.391241   0.434957  -0.003857   0.003622
     6  O    0.006660   0.002751  -0.000581   0.006136  -0.002545  -0.000815
     7  C   -0.020885  -0.004092   0.006811  -0.005380   0.424007   0.539783
     8  O   -0.000033  -0.006347   0.010423  -0.016611  -0.000011  -0.000034
     9  C    0.002756  -0.000523  -0.001955  -0.008852  -0.022606  -0.082154
    10  C    0.008947  -0.043704   0.002137  -0.023658   0.015409   0.013588
    11  C   -0.002546   0.003561  -0.001092   0.006677   0.002768  -0.003682
    12  C    0.000312   0.025352  -0.010604   0.018809  -0.000000  -0.000132
    13  O    0.000256  -0.051361   0.000703  -0.010325  -0.002371   0.000831
    14  H   -0.000258   0.004966  -0.002237   0.000632  -0.000171   0.000264
    15  H    0.000000  -0.009784   0.000616  -0.002282   0.000071  -0.000077
    16  H    0.000058   0.001196  -0.011539  -0.004239  -0.000035   0.000026
    17  H   -0.000032  -0.000962  -0.008565   0.002700  -0.000011  -0.000061
    18  H   -0.017783   0.001086   0.001503  -0.001250  -0.003769   0.005791
    19  H    0.471377  -0.001710  -0.000031  -0.001337  -0.011080  -0.006205
    20  H   -0.001710   0.427593  -0.009192   0.005637  -0.000049   0.000159
    21  H   -0.000031  -0.009192   0.470211  -0.030495   0.000280   0.001698
    22  H   -0.001337   0.005637  -0.030495   0.469471   0.000386  -0.001088
    23  H   -0.011080  -0.000049   0.000280   0.000386   0.458890  -0.002419
    24  H   -0.006205   0.000159   0.001698  -0.001088  -0.002419   0.454638
    25  H   -0.001900   0.000153   0.000192   0.000029   0.000259   0.003334
    26  H    0.001608  -0.000060  -0.000471  -0.000023  -0.010187  -0.005643
    27  H    0.002380   0.002071  -0.014400   0.012266  -0.002141  -0.018301
    28  H   -0.000080   0.000201   0.001527  -0.002471  -0.001196   0.003193
    29  H    0.001233  -0.000086   0.000163  -0.001886   0.000305  -0.001993
    30  H    0.000045  -0.004699  -0.000949  -0.000406  -0.000011   0.000014
    31  H    0.000009   0.000024   0.000455   0.000352   0.000006  -0.000007
              25         26         27         28         29         30
     1  C   -0.001240   0.000627  -0.011358   0.000260   0.004550  -0.072515
     2  C    0.000083   0.000275  -0.043431   0.001985   0.001392  -0.000385
     3  C   -0.004156  -0.016606  -0.046765   0.013881  -0.001672  -0.000119
     4  C    0.004689  -0.001782   0.026666  -0.003722  -0.006589   0.034738
     5  C   -0.000559   0.002221   0.016403   0.009071   0.002371  -0.021482
     6  O   -0.003195   0.007422  -0.051639  -0.031312  -0.069346  -0.000022
     7  C   -0.014001  -0.057676  -0.048371  -0.001387   0.008539   0.000097
     8  O   -0.000014   0.000015   0.003029  -0.000100   0.000110  -0.042476
     9  C    0.472421   0.464075   0.029645  -0.065025  -0.037449   0.000034
    10  C   -0.016235   0.023165   0.449146  -0.029193   0.008982  -0.005529
    11  C   -0.067144  -0.042459   0.018789   0.474916   0.439319   0.000241
    12  C    0.000327  -0.000105   0.003078   0.001015  -0.000458   0.462629
    13  O    0.002618   0.000148  -0.036733   0.005415  -0.002428  -0.001211
    14  H    0.000000   0.000029  -0.001641  -0.000076  -0.000668   0.002771
    15  H   -0.000032   0.000002   0.001083  -0.000055  -0.000036   0.000033
    16  H    0.000001   0.000022  -0.000036  -0.000008   0.000044  -0.003590
    17  H   -0.000001   0.000008   0.004448  -0.000063  -0.000026   0.010110
    18  H    0.002353  -0.003432  -0.012046   0.001032  -0.000626   0.000073
    19  H   -0.001900   0.001608   0.002380  -0.000080   0.001233   0.000045
    20  H    0.000153  -0.000060   0.002071   0.000201  -0.000086  -0.004699
    21  H    0.000192  -0.000471  -0.014400   0.001527   0.000163  -0.000949
    22  H    0.000029  -0.000023   0.012266  -0.002471  -0.001886  -0.000406
    23  H    0.000259  -0.010187  -0.002141  -0.001196   0.000305  -0.000011
    24  H    0.003334  -0.005643  -0.018301   0.003193  -0.001993   0.000014
    25  H    0.469597  -0.010403  -0.003241   0.003455  -0.002965   0.000001
    26  H   -0.010403   0.472547   0.003486   0.000526  -0.010284   0.000002
    27  H   -0.003241   0.003486   0.462830  -0.013168  -0.000735  -0.000223
    28  H    0.003455   0.000526  -0.013168   0.477284  -0.005980  -0.000001
    29  H   -0.002965  -0.010284  -0.000735  -0.005980   0.475706   0.000005
    30  H    0.000001   0.000002  -0.000223  -0.000001   0.000005   0.488309
    31  H   -0.000004  -0.000005   0.000344  -0.000001   0.000036  -0.013082
              31
     1  C   -0.030979
     2  C    0.002006
     3  C    0.000547
     4  C   -0.001263
     5  C    0.007966
     6  O   -0.000154
     7  C   -0.000137
     8  O   -0.068685
     9  C   -0.000095
    10  C    0.001925
    11  C   -0.000319
    12  C    0.428263
    13  O   -0.001872
    14  H   -0.004964
    15  H   -0.008300
    16  H    0.002128
    17  H   -0.003169
    18  H    0.000016
    19  H    0.000009
    20  H    0.000024
    21  H    0.000455
    22  H    0.000352
    23  H    0.000006
    24  H   -0.000007
    25  H   -0.000004
    26  H   -0.000005
    27  H    0.000344
    28  H   -0.000001
    29  H    0.000036
    30  H   -0.013082
    31  H    0.480532
 Mulliken charges:
               1
     1  C   -0.194108
     2  C   -0.489269
     3  C   -0.333955
     4  C   -0.115476
     5  C   -0.178496
     6  O   -0.394389
     7  C   -0.392719
     8  O   -0.359089
     9  C   -0.390294
    10  C    0.078274
    11  C   -0.129789
    12  C   -0.274383
    13  O   -0.398802
    14  H    0.183970
    15  H    0.183761
    16  H    0.208307
    17  H    0.181565
    18  H    0.194346
    19  H    0.181310
    20  H    0.278844
    21  H    0.179721
    22  H    0.251664
    23  H    0.199260
    24  H    0.176077
    25  H    0.165577
    26  H    0.182956
    27  H    0.268565
    28  H    0.160077
    29  H    0.200471
    30  H    0.167597
    31  H    0.208426
 Sum of Mulliken charges =  -0.00000
 Mulliken charges with hydrogens summed into heavy atoms:
               1
     1  C    0.173622
     2  C   -0.099397
     3  C    0.041701
     4  C    0.163368
     5  C    0.252889
     6  O   -0.394389
     7  C   -0.017381
     8  O   -0.359089
     9  C   -0.041760
    10  C    0.346839
    11  C    0.230759
    12  C    0.101640
    13  O   -0.398802
 Electronic spatial extent (au):  <R**2>=           3210.0421
 Charge=              0.0000 electrons
 Dipole moment (field-independent basis, Debye):
    X=              2.1467    Y=              0.1632    Z=              3.3134  Tot=              3.9515
 Quadrupole moment (field-independent basis, Debye-Ang):
   XX=            -75.7712   YY=            -80.1350   ZZ=            -77.3171
   XY=              9.1330   XZ=             -1.3013   YZ=              1.8566
 Traceless Quadrupole moment (field-independent basis, Debye-Ang):
   XX=              1.9699   YY=             -2.3939   ZZ=              0.4240
   XY=              9.1330   XZ=             -1.3013   YZ=              1.8566
 Octapole moment (field-independent basis, Debye-Ang**2):
  XXX=             53.1442  YYY=              8.3505  ZZZ=              1.3512  XYY=              4.5472
  XXY=            -23.7214  XXZ=              5.5699  XZZ=            -10.9653  YZZ=              1.5833
  YYZ=              1.4210  XYZ=             -9.5876
 Hexadecapole moment (field-independent basis, Debye-Ang**3):
 XXXX=          -3455.9392 YYYY=           -512.5446 ZZZZ=           -363.4990 XXXY=            123.4159
 XXXZ=            -21.0173 YYYX=              8.3159 YYYZ=              0.8931 ZZZX=              1.5056
 ZZZY=             -1.7358 XXYY=           -636.5290 XXZZ=           -593.2162 YYZZ=           -140.2347
 XXYZ=             20.3718 YYXZ=            -14.2802 ZZXY=              0.6566
 N-N= 8.854865047142D+02 E-N=-3.213173103679D+03  KE= 6.153560836660D+02
 D1PCM: PCM CHGder 1st derivatives, ID1Alg=3 FixD1E=F DoIter=F DoCFld=F I1PDM=0.
 Calling FoFJK, ICntrl=      2127 FMM=F ISym2X=0 I1Cent= 0 IOpClX= 0 NMat=1 NMatS=1 NMatT=0.
 ***** Axes restored to original set *****
 -------------------------------------------------------------------
 Center     Atomic                   Forces (Hartrees/Bohr)
 Number     Number              X              Y              Z
 -------------------------------------------------------------------
      1        6           0.001736329    0.000153460   -0.003063913
      2        6          -0.005610002   -0.003045332    0.000798161
      3        6          -0.001087862    0.003082549   -0.001645603
      4        6           0.003210050    0.007743204    0.001704683
      5        6           0.001418086   -0.004134282   -0.000040111
      6        8           0.007683842    0.001796927    0.011615923
      7        6           0.002758114    0.000865998    0.003068944
      8        8           0.005230575    0.009073242    0.005292388
      9        6           0.001939156   -0.000176504   -0.002760323
     10        6          -0.004620984   -0.002608648   -0.003046459
     11        6          -0.005182992   -0.003728979   -0.001992490
     12        6          -0.006354361   -0.001915094   -0.001015501
     13        8          -0.001989959   -0.010382841    0.004720332
     14        1          -0.001936773    0.003149621    0.001987000
     15        1          -0.000445395   -0.003161230    0.000746190
     16        1           0.000442804    0.004332660   -0.001446547
     17        1           0.001361523   -0.004104701   -0.003780706
     18        1           0.000420024   -0.001283667    0.003687841
     19        1           0.000686882   -0.001658530   -0.002557749
     20        1           0.003487629   -0.003206804   -0.003771048
     21        1          -0.001885883   -0.000161705   -0.003282593
     22        1          -0.002177265    0.002694439    0.003657660
     23        1          -0.002061083   -0.001653492    0.000128192
     24        1           0.000806990    0.001857870   -0.002674258
     25        1           0.000208995   -0.001703712    0.002874687
     26        1          -0.001987016    0.001788626   -0.000650927
     27        1           0.000486289    0.004995437   -0.007495818
     28        1           0.000046375    0.002679354   -0.005088999
     29        1          -0.000180260    0.002801983    0.003617226
     30        1           0.001510849   -0.004097843   -0.003622951
     31        1           0.002085323    0.000007993    0.004036770
 -------------------------------------------------------------------
 Cartesian Forces:  Max     0.011615923 RMS     0.003583379

 GradGradGradGradGradGradGradGradGradGradGradGradGradGradGradGradGradGrad
 Berny optimization.
 FormGI is forming the generalized inverse of G from B-inverse, IUseBI=4.
 Internal  Forces:  Max     0.016434598 RMS     0.002354237
 Search for a local minimum.
 Step number   1 out of a maximum of  186
 All quantities printed in internal units (Hartrees-Bohrs-Radians)
 Mixed Optimization -- RFO/linear search
 Second derivative matrix not updated -- first step.
 ITU=  0
     Eigenvalues ---    0.00612   0.00685   0.00727   0.00751   0.01422
     Eigenvalues ---    0.01486   0.01889   0.02711   0.02740   0.03106
     Eigenvalues ---    0.03119   0.04063   0.04166   0.04773   0.04798
     Eigenvalues ---    0.04920   0.04928   0.05012   0.05150   0.05172
     Eigenvalues ---    0.05381   0.05718   0.05718   0.06135   0.06195
     Eigenvalues ---    0.06236   0.06316   0.06521   0.07697   0.07742
     Eigenvalues ---    0.07942   0.07965   0.07984   0.07998   0.08392
     Eigenvalues ---    0.08737   0.08856   0.09882   0.10903   0.11473
     Eigenvalues ---    0.11703   0.11716   0.11769   0.12323   0.13125
     Eigenvalues ---    0.14452   0.14473   0.16207   0.16699   0.17864
     Eigenvalues ---    0.19124   0.21273   0.21853   0.25000   0.28569
     Eigenvalues ---    0.28621   0.28781   0.28889   0.28954   0.29188
     Eigenvalues ---    0.30056   0.30462   0.35024   0.35062   0.35073
     Eigenvalues ---    0.35097   0.35120   0.35176   0.35228   0.35238
     Eigenvalues ---    0.35301   0.35353   0.35362   0.35388   0.35448
     Eigenvalues ---    0.35474   0.35656   0.35865   0.35879   0.35889
     Eigenvalues ---    0.40999   0.41241   0.41624   0.42123   0.42351
     Eigenvalues ---    0.481881000.000001000.000001000.000001000.00000
     Eigenvalues --- 1000.000001000.000001000.000001000.000001000.00000
     Eigenvalues --- 1000.000001000.000001000.000001000.000001000.00000
     Eigenvalues --- 1000.000001000.000001000.000001000.000001000.00000
     Eigenvalues --- 1000.000001000.000001000.000001000.000001000.00000
     Eigenvalues --- 1000.000001000.000001000.000001000.000001000.00000
     Eigenvalues --- 1000.000001000.000001000.000001000.000001000.00000
     Eigenvalues --- 1000.000001000.000001000.000001000.000001000.00000
     Eigenvalues --- 1000.000001000.000001000.000001000.000001000.00000
     Eigenvalues --- 1000.000001000.000001000.000001000.000001000.00000
     Eigenvalues --- 1000.000001000.000001000.000001000.000001000.00000
     Eigenvalues --- 1000.000001000.000001000.000001000.000001000.00000
     Eigenvalues --- 1000.000001000.000001000.000001000.000001000.00000
     Eigenvalues --- 1000.000001000.000001000.000001000.000001000.00000
     Eigenvalues --- 1000.000001000.000001000.000001000.000001000.00000
     Eigenvalues --- 1000.000001000.000001000.000001000.000001000.00000
     Eigenvalues --- 1000.000001000.000001000.000001000.000001000.00000
     Eigenvalues --- 1000.000001000.000001000.000001000.000001000.00000
     Eigenvalues --- 1000.000001000.000001000.000001000.000001000.00000
     Eigenvalues --- 1000.000001000.000001000.000001000.000001000.00000
 RFO step:  Lambda=-3.67941303D-03 EMin= 6.11741916D-03
 Linear search not attempted -- first point.
 Iteration  1 RMS(Cart)=  0.07112119 RMS(Int)=  0.00103601
 Iteration  2 RMS(Cart)=  0.00273860 RMS(Int)=  0.00002727
 Iteration  3 RMS(Cart)=  0.00000120 RMS(Int)=  0.00002726
 Iteration  4 RMS(Cart)=  0.00000000 RMS(Int)=  0.00002726
 Iteration  1 RMS(Cart)=  0.00000174 RMS(Int)=  0.00000040
 Iteration  2 RMS(Cart)=  0.00000097 RMS(Int)=  0.00000044
 Variable       Old X    -DE/DX   Delta X   Delta X   Delta X     New X
                                 (Linear)    (Quad)   (Total)
    R1        2.87946  -0.00165   0.00000  -0.00633  -0.00633   2.87313
    R2        2.87535  -0.00075   0.00000  -0.00214  -0.00215   2.87320
    R3        2.05307   0.00403   0.00000   0.01133   0.01133   2.06440
    R4        2.05189   0.00325   0.00000   0.00911   0.00911   2.06100
    R5        2.88251  -0.00043   0.00000  -0.00166  -0.00165   2.88087
    R6        2.66942   0.00600   0.00000   0.01430   0.01430   2.68372
    R7        2.04255   0.00458   0.00000   0.01264   0.01264   2.05519
    R8        2.05518   0.00562   0.00000   0.01585   0.01585   2.07104
    R9        2.89311  -0.00101   0.00000  -0.00379  -0.00382   2.88928
   R10        2.86856  -0.00132   0.00000  -0.00406  -0.00405   2.86450
   R11        2.05390   0.00371   0.00000   0.01045   0.01045   2.06434
   R12        2.05090   0.00310   0.00000   0.00869   0.00869   2.05959
   R13        2.88515  -0.00279   0.00000  -0.00977  -0.00978   2.87537
   R14        2.70218   0.00322   0.00000   0.00778   0.00778   2.70996
   R15        2.05049   0.00585   0.00000   0.01636   0.01636   2.06685
   R16        2.04954   0.00374   0.00000   0.01046   0.01046   2.06000
   R17        2.04911   0.00493   0.00000   0.01375   0.01375   2.06287
   R18        2.66535   0.00841   0.00000   0.01975   0.01977   2.68512
   R19        2.68024   0.00587   0.00000   0.01391   0.01393   2.69417
   R20        2.88968  -0.00073   0.00000  -0.00355  -0.00357   2.88611
   R21        2.05106   0.00263   0.00000   0.00738   0.00738   2.05843
   R22        2.05636   0.00326   0.00000   0.00920   0.00920   2.06556
   R23        2.67186   0.00636   0.00000   0.01488   0.01489   2.68675
   R24        2.87261  -0.00063   0.00000  -0.00218  -0.00218   2.87043
   R25        2.05480   0.00325   0.00000   0.00915   0.00915   2.06396
   R26        2.05289   0.00274   0.00000   0.00770   0.00770   2.06060
   R27        2.61739   0.00473   0.00000   0.00975   0.00975   2.62714
   R28        2.04623   0.00899   0.00000   0.02495   0.02495   2.07118
   R29        2.05574   0.00566   0.00000   0.01598   0.01598   2.07172
   R30        2.04294   0.00458   0.00000   0.01263   0.01263   2.05557
   R31        2.05557   0.00557   0.00000   0.01572   0.01572   2.07129
   R32        2.04271   0.00454   0.00000   0.01251   0.01251   2.05523
    A1        1.92920  -0.00050   0.00000  -0.00712  -0.00714   1.92205
    A2        1.90707   0.00019   0.00000  -0.00444  -0.00443   1.90265
    A3        1.92139  -0.00063   0.00000  -0.00197  -0.00196   1.91943
    A4        1.91218   0.00000   0.00000   0.00175   0.00169   1.91387
    A5        1.90936   0.00071   0.00000   0.00552   0.00553   1.91489
    A6        1.88406   0.00025   0.00000   0.00658   0.00656   1.89062
    A7        1.94994   0.00110   0.00000   0.00414   0.00416   1.95410
    A8        1.92670  -0.00022   0.00000  -0.00212  -0.00213   1.92457
    A9        1.92971  -0.00142   0.00000  -0.00894  -0.00895   1.92076
   A10        1.86128  -0.00066   0.00000  -0.00058  -0.00058   1.86070
   A11        1.90462   0.00065   0.00000   0.00462   0.00463   1.90925
   A12        1.88939   0.00058   0.00000   0.00327   0.00325   1.89265
   A13        1.92684  -0.00063   0.00000  -0.00695  -0.00700   1.91984
   A14        1.92464   0.00087   0.00000   0.00467   0.00464   1.92928
   A15        1.93590  -0.00009   0.00000   0.00280   0.00279   1.93869
   A16        1.89027  -0.00056   0.00000  -0.00655  -0.00654   1.88372
   A17        1.90144   0.00018   0.00000  -0.00079  -0.00076   1.90067
   A18        1.88357   0.00022   0.00000   0.00686   0.00683   1.89040
   A19        1.91652   0.00247   0.00000   0.00129   0.00118   1.91770
   A20        1.88709   0.00032   0.00000   0.00103   0.00087   1.88796
   A21        1.89704  -0.00079   0.00000   0.00040   0.00037   1.89741
   A22        2.03575  -0.00350   0.00000  -0.02423  -0.02420   2.01154
   A23        1.88292  -0.00033   0.00000   0.00368   0.00374   1.88666
   A24        1.83949   0.00186   0.00000   0.01968   0.01971   1.85920
   A25        1.90245  -0.00054   0.00000  -0.00511  -0.00515   1.89730
   A26        1.88806   0.00042   0.00000   0.00526   0.00525   1.89331
   A27        1.90419   0.00056   0.00000   0.00443   0.00441   1.90860
   A28        1.94502  -0.00047   0.00000  -0.00279  -0.00277   1.94225
   A29        1.93365  -0.00007   0.00000  -0.00568  -0.00566   1.92800
   A30        1.88956   0.00015   0.00000   0.00436   0.00432   1.89388
   A31        1.98169  -0.00508   0.00000  -0.02674  -0.02667   1.95502
   A32        1.92603   0.00209   0.00000  -0.00045  -0.00052   1.92551
   A33        1.92027  -0.00062   0.00000  -0.00046  -0.00044   1.91983
   A34        1.90937  -0.00083   0.00000  -0.00243  -0.00242   1.90695
   A35        1.93195  -0.00051   0.00000   0.00069   0.00072   1.93267
   A36        1.90860  -0.00079   0.00000  -0.00195  -0.00195   1.90666
   A37        1.86657   0.00060   0.00000   0.00469   0.00468   1.87125
   A38        1.96754  -0.00432   0.00000  -0.02375  -0.02371   1.94383
   A39        1.92158   0.00016   0.00000  -0.00324  -0.00331   1.91826
   A40        1.91884   0.00054   0.00000   0.00197   0.00199   1.92083
   A41        1.93611  -0.00066   0.00000  -0.00137  -0.00136   1.93476
   A42        1.90336  -0.00041   0.00000  -0.00189  -0.00187   1.90149
   A43        1.90676   0.00007   0.00000  -0.00039  -0.00037   1.90639
   A44        1.87638   0.00029   0.00000   0.00507   0.00506   1.88144
   A45        1.92606   0.00160   0.00000   0.00838   0.00838   1.93444
   A46        1.89891   0.00046   0.00000   0.00239   0.00239   1.90130
   A47        1.92259  -0.00062   0.00000  -0.00208  -0.00207   1.92052
   A48        1.88458  -0.00201   0.00000  -0.01076  -0.01076   1.87382
   A49        1.89201   0.00003   0.00000  -0.00259  -0.00259   1.88942
   A50        1.93947   0.00055   0.00000   0.00463   0.00461   1.94409
   A51        1.93509   0.00096   0.00000   0.00320   0.00322   1.93831
   A52        1.90394   0.00072   0.00000   0.00426   0.00427   1.90822
   A53        1.85232  -0.00074   0.00000  -0.00021  -0.00022   1.85210
   A54        1.93063  -0.00130   0.00000  -0.00728  -0.00731   1.92332
   A55        1.95013  -0.00009   0.00000  -0.00207  -0.00206   1.94806
   A56        1.88929   0.00050   0.00000   0.00257   0.00255   1.89184
   A57        1.93828   0.00070   0.00000   0.00416   0.00413   1.94241
   A58        1.93153  -0.00121   0.00000  -0.00804  -0.00804   1.92349
   A59        1.93730  -0.00021   0.00000  -0.00289  -0.00289   1.93441
   A60        1.90342   0.00090   0.00000   0.00494   0.00497   1.90839
   A61        1.86197  -0.00067   0.00000  -0.00096  -0.00095   1.86102
   A62        1.88928   0.00054   0.00000   0.00319   0.00317   1.89244
   A63        2.14612  -0.01643   0.00000  -0.06478  -0.06478   2.08134
    D1       -0.92935  -0.00074   0.00000  -0.01223  -0.01223  -0.94158
    D2        3.11514   0.00175   0.00000   0.01697   0.01700   3.13215
    D3        1.12670  -0.00019   0.00000  -0.00682  -0.00680   1.11990
    D4        1.17623  -0.00093   0.00000  -0.01739  -0.01738   1.15885
    D5       -1.06246   0.00157   0.00000   0.01181   0.01185  -1.05061
    D6       -3.05090  -0.00038   0.00000  -0.01197  -0.01196  -3.06286
[...]
 ,-0.00037092,-0.00007058,0.00013483,-0.00114028,-0.00083072,0.00180300
 ,-0.00000139,-0.00000201,0.00001164,0.00030922,-0.00000906,-0.00000580
 ,-0.00000063,0.00000196,0.00000215,0.00000068,-0.00000281,0.00000132,0
 .00000406,0.00000176,-0.00000018,0.00000181,-0.00000045,-0.00000039,0.
 00045758,-0.00023529,0.00031251,-0.00011771,-0.00024811,0.00024998,0.0
 0001908,0.00000184,-0.00000565,0.00000044,-0.00000073,0.00000648,-0.00
 000528,0.00000085,-0.00000061,-0.00035135,0.00022240,0.00106258,0.0004
 0730,-0.00399023,-0.00259060,-0.04474097,-0.10800456,0.27458489,-0.000
 04815,-0.00002024,0.00002288,0.00004104,0.00001054,0.00003319,0.001003
 11,-0.00028871,0.00003094,0.00029774,0.00002687,-0.00007802,-0.0000756
 5,-0.00005512,-0.00000388,-0.00857571,-0.00116474,0.00041081,0.0007176
 8,-0.00105603,0.00074797,-0.00002086,-0.00000563,-0.00001191,-0.192044
 06,0.12697857,-0.03498176,0.00083904,-0.00191997,-0.00179884,-0.016330
 43,0.02131962,-0.00513593,0.00000981,0.00001082,-0.00002356,-0.0004502
 3,0.00056178,0.00017161,-0.00000135,0.00000362,0.00000342,0.00000076,0
 .00000456,-0.00000304,-0.00001203,-0.00000671,0.00000098,-0.00001809,0
 .00000152,0.00000210,-0.00010774,0.00008746,-0.00009727,0.00008175,-0.
 00001104,-0.00022214,-0.00005272,-0.00000400,0.00001575,0.00000004,0.0
 0000386,-0.00000435,-0.00001495,0.00003838,0.00003557,0.00030043,0.000
 25169,0.00045160,0.00012865,0.00005528,0.00016719,0.00513775,-0.004482
 61,0.00033865,0.20723093,0.00002954,0.00000544,-0.00001966,-0.00000417
 ,0.00000915,0.00000985,-0.00106895,-0.00204783,-0.00469924,0.00000254,
 -0.00001982,0.00005666,0.00000800,-0.00002748,-0.00000957,-0.00543734,
 0.00049262,-0.00010340,0.01651537,-0.01436596,0.00522915,0.00000316,0.
 00000222,-0.00000051,0.12869018,-0.16287196,0.03353339,-0.00082130,-0.
 00122147,-0.00083833,-0.00980899,0.01127792,-0.00288588,0.00000021,-0.
 00000382,0.00001356,0.00020837,0.00041523,0.00020148,-0.00000252,0.000
 00234,0.00000281,-0.00000167,-0.00000007,-0.00000082,0.00000269,0.0000
 0129,-0.00000041,-0.00000353,0.00000044,-0.00000028,-0.00031153,0.0001
 7482,0.00001681,0.00153736,-0.00066751,0.00005100,-0.00000010,-0.00000
 486,-0.00000145,-0.00000039,0.00000181,0.00000673,-0.00001158,0.000012
 48,0.00001215,-0.00041893,0.00049658,0.00072881,-0.00029190,0.00116680
 ,0.00011933,0.00954236,-0.00887221,0.00212328,-0.14023352,0.17507073,0
 .00002840,0.00000652,-0.00001411,-0.00000667,0.00000696,0.00000329,-0.
 00055853,-0.00315777,-0.00355188,-0.00002925,-0.00001357,0.00004700,0.
 00001864,-0.00001455,-0.00001094,-0.00115662,-0.00026778,0.00142470,0.
 01957155,-0.01600032,0.00401825,0.00000357,0.00000274,0.00000065,-0.03
 702558,0.03447506,-0.05620664,-0.00073816,-0.00052616,-0.00039188,0.00
 020925,0.00137108,-0.00222607,0.00000020,-0.00000490,0.00001234,0.0001
 8378,0.00015560,0.00009005,-0.00000046,0.00000079,0.00000119,-0.000000
 85,-0.00000058,-0.00000003,0.00000343,0.00000134,-0.00000006,-0.000001
 77,-0.00000008,-0.00000055,0.00008287,-0.00013256,0.00019229,0.0011330
 1,-0.00086880,0.00014357,0.00000656,-0.00000030,-0.00000232,-0.0000001
 9,0.00000111,0.00000594,-0.00000881,0.00000914,0.00000752,-0.00044718,
 0.00081348,0.00081940,0.00011103,0.00091341,0.00115317,-0.02096129,0.0
 1699991,-0.00439433,0.03947411,-0.03368658,0.05865970,-0.00051818,-0.0
 0042264,0.00017222,-0.00013939,0.00025210,-0.00004284,-0.00424516,-0.0
 1576011,0.02140261,0.00309896,0.00128782,-0.00130706,-0.00288060,-0.00
 086715,0.00025468,0.00324956,0.00169929,0.00218771,0.00136411,-0.00048
 890,0.00068161,0.00003784,-0.00015153,0.00005240,-0.00014611,-0.000025
 37,-0.00015029,-0.06160143,-0.02738817,0.03861279,0.00080601,-0.000402
 20,0.00156801,0.00002321,0.00013761,-0.00015105,-0.00591042,0.02514797
 ,-0.02656873,0.00004496,-0.00000390,0.00001336,0.00004905,-0.00008228,
 0.00013235,0.00004932,0.00001852,-0.00002506,0.00002974,-0.00002753,0.
 00001701,-0.00395433,-0.00299286,-0.00018227,0.00081896,0.00034302,-0.
 00061886,-0.00006822,0.00010676,0.00006419,-0.00338069,-0.00135155,0.0
 0043531,0.00005860,-0.00021644,0.00010087,0.00010978,0.00006717,-0.000
 24180,-0.00007265,0.00020009,-0.00035244,0.00003123,0.00003271,-0.0000
 3535,-0.00000619,0.00006018,0.00004701,0.07324638,0.00040681,0.0001796
 4,-0.00019672,-0.00012947,0.00037539,-0.00027134,-0.00473773,-0.008828
 25,0.01606182,-0.00356510,-0.00116676,-0.00019527,-0.00137888,0.000175
 73,0.00019653,0.00670008,0.00417041,-0.02960993,0.00078383,0.00030313,
 -0.00009019,-0.00015394,0.00006566,-0.00016922,0.00024133,-0.00020227,
 0.00024954,-0.02298298,-0.12044775,0.11366490,-0.00254326,0.00318222,-
 0.00292902,-0.00004522,-0.00013735,0.00023177,0.01043428,-0.01681317,0
 .02024662,-0.00002151,0.00000584,0.00000775,-0.00002600,0.00002765,-0.
 00004385,0.00009906,0.00001658,-0.00000183,-0.00002625,-0.00001956,0.0
 0002176,-0.00277164,-0.00128278,0.00004570,0.00068934,0.00055259,-0.00
 008283,0.00043912,0.00000155,-0.00017028,-0.00149535,0.00000250,-0.000
 12878,-0.00000935,-0.00012046,0.00003164,-0.00000086,0.00009995,-0.000
 31756,-0.00019124,0.00048340,-0.00026262,-0.00001096,-0.00012071,0.000
 06946,0.00012176,0.00011094,0.00009363,0.02077105,0.13943556,-0.000154
 37,-0.00012133,0.00001335,-0.00023800,-0.00043014,0.00027365,-0.000760
 62,-0.00009070,0.00375185,0.00154366,0.00098423,-0.00012485,0.00141183
 ,0.00034867,-0.00071945,0.00822742,-0.00283714,-0.03869330,0.00025420,
 -0.00035712,0.00014065,0.00038827,-0.00001393,0.00028520,0.00022860,-0
 .00051308,0.00007519,0.03119855,0.11115652,-0.21872235,-0.00258846,0.0
 0294597,-0.00041512,-0.00001638,0.00013800,-0.00013166,-0.00534819,0.0
 0735687,-0.00099540,0.00000959,0.00000245,-0.00002035,0.00000671,-0.00
 002733,0.00004381,-0.00002268,0.00002151,0.00000303,0.00008668,0.00000
 137,-0.00004590,-0.00124869,-0.00058966,0.00092863,0.00064498,0.000513
 87,0.00030604,-0.00028619,-0.00018811,-0.00007638,0.00168918,0.0006284
 8,0.00096174,-0.00025105,-0.00008410,-0.00026008,0.00007104,-0.0000555
 7,0.00007749,0.00025160,-0.00014466,-0.00004449,-0.00005284,0.00011334
 ,-0.00008657,0.00019779,0.00007825,0.00004132,-0.03600689,-0.11749125,
 0.25233031,-0.00003597,-0.00003257,0.00000563,0.00001655,-0.00003009,-
 0.00000731,-0.00009722,0.00009015,0.00031786,0.00026988,0.00009831,-0.
 00000535,0.00000781,0.00002635,0.00006710,-0.00407657,0.02537956,-0.02
 519704,0.00098705,0.00118297,0.00081960,-0.00000942,-0.00000945,-0.000
 00116,-0.00614773,-0.01538269,0.02615780,0.00107667,-0.00196292,-0.004
 24500,-0.05778260,-0.02587830,0.04409521,0.00000513,0.00001748,-0.0000
 2046,-0.00068361,0.00020059,0.00046712,-0.00000514,0.00000444,0.000001
 49,-0.00000118,0.00000345,0.00000137,-0.00001098,-0.00000308,0.0000012
 8,0.00000475,0.00000144,0.00000158,-0.00005375,0.00000476,0.00004752,0
 .00020886,0.00003931,0.00005939,-0.00006842,-0.00000846,0.00001487,0.0
 0000766,-0.00000262,-0.00000757,0.00016862,-0.00009170,-0.00003142,-0.
 00002328,0.00029004,-0.00018475,0.00017320,0.00004332,-0.00059814,-0.0
 0478551,-0.00372989,-0.00071003,0.00112724,0.00082400,-0.00022661,-0.0
 0002336,-0.00056589,0.00065838,0.06860588,0.00003293,0.00002406,-0.000
 01065,-0.00002769,-0.00001302,-0.00003318,0.00004400,-0.00030410,-0.00
 049003,-0.00020788,-0.00005276,0.00001246,0.00010091,0.00003532,0.0000
 5153,0.00999535,-0.02089503,0.01998034,0.00072602,0.00047161,0.0008731
 5,0.00001063,0.00000409,0.00000437,-0.00494273,-0.00687049,0.01401128,
 -0.00097521,0.00149357,0.00479909,-0.02544597,-0.10900639,0.09651102,-
 0.00000821,-0.00001011,0.00001901,0.00066898,-0.00017212,-0.00066031,0
 .00000393,-0.00000574,-0.00000296,0.00000018,-0.00000429,0.00000203,0.
 00000897,0.00000619,-0.00000090,0.00001666,0.00000079,-0.00000097,0.00
 003647,0.00005676,-0.00000400,-0.00009441,-0.00011905,-0.00006910,0.00
 006313,0.00000366,-0.00001572,-0.00000299,-0.00001106,-0.00001428,0.00
 008053,-0.00008176,-0.00004570,0.00002634,0.00019133,-0.00017029,-0.00
 003141,-0.00007284,-0.00026455,-0.00266889,-0.00053760,-0.00001608,-0.
 00002012,0.00053546,-0.00022585,0.00010889,-0.00011185,-0.00078677,0.0
 1929028,0.12339293,-0.00003542,-0.00000928,0.00002117,0.00003284,0.000
 03064,0.00002425,-0.00010300,0.00000930,0.00009112,0.00013413,0.000001
 27,-0.00007360,-0.00014575,-0.00003141,-0.00002412,-0.00729633,0.00869
 339,-0.00236343,-0.00037338,-0.00026287,0.00101377,-0.00001392,-0.0000
 0846,-0.00000860,0.00012703,-0.00154363,0.00066902,0.00077896,-0.00294
 734,0.00092813,0.04184784,0.10028825,-0.23333714,0.00000606,0.00001255
 ,-0.00001356,-0.00024646,-0.00000076,0.00025030,0.00000202,0.00000459,
 0.00000347,0.00000282,0.00000292,-0.00000443,-0.00000928,-0.00000721,0
 .00000219,-0.00001815,-0.00000197,0.00000222,0.00006580,0.00000882,-0.
 00018630,0.00000842,0.00010906,0.00000039,-0.00003655,-0.00001245,0.00
 001385,-0.00002080,0.00001603,-0.00001267,-0.00014013,0.00010112,0.000
 04385,0.00007669,0.00002650,0.00015120,-0.00009040,0.00046344,0.000290
 39,-0.00017195,-0.00045711,0.00115317,0.00065328,0.00029979,0.00017366
 ,-0.00012145,0.00100807,0.00065207,-0.04010026,-0.11719609,0.24957206,
 -0.00006997,-0.00001947,0.00005636,0.00005539,-0.00001406,0.00002278,-
 0.00042758,0.00057066,0.00037512,0.00058162,0.00021815,-0.00005065,-0.
 00007440,-0.00003314,-0.00001214,-0.00591411,0.02628319,0.02475638,-0.
 00583846,-0.00236957,0.00126472,-0.00002595,-0.00001046,-0.00001393,0.
 00129863,-0.01897537,-0.02386317,-0.00210156,0.00013698,-0.00369196,-0
 .04890101,-0.01205670,-0.01297974,0.00001029,0.00001568,-0.00004239,-0
 .00157063,0.00218976,0.00069932,0.00000389,-0.00000272,-0.00000717,0.0
 0000306,0.00000455,-0.00000427,-0.00002142,-0.00000868,0.00000188,-0.0
 0001128,0.00000249,0.00000248,0.00009860,-0.00004148,0.00001960,0.0003
 3174,0.00004962,0.00005002,-0.00013943,-0.00003742,0.00003760,0.000008
 69,0.00000170,-0.00001516,0.00000345,0.00000507,0.00002482,0.00006298,
 -0.00161749,-0.00137653,0.00000827,0.00023039,0.00002048,0.00129784,0.
 00070307,0.00055482,0.00085775,0.00098826,0.00028437,-0.00000137,-0.00
 012836,0.00013147,0.00115741,0.00319860,0.00519778,0.05933874,0.000088
 04,0.00002713,-0.00006325,-0.00005754,0.00001291,-0.00002780,0.0000851
 3,0.00027603,-0.00010149,-0.00055689,-0.00020641,0.00008307,0.00010701
 ,0.00001908,0.00001419,0.00814734,-0.02223469,-0.01983543,-0.00310120,
 -0.00019109,0.00060760,0.00002867,0.00000919,0.00001402,-0.00159776,-0
 .00895614,-0.01198430,0.00101280,0.00173270,0.00474771,-0.00752578,-0.
 15520919,-0.12736576,-0.00000979,-0.00001879,0.00004795,0.00164144,-0.
 00158440,-0.00070657,-0.00000085,0.00000163,0.00000370,-0.00000242,-0.
 00000656,0.00000510,0.00002143,0.00001029,-0.00000150,0.00001418,-0.00
 000152,-0.00000227,0.00001771,-0.00004026,0.00003885,-0.00010129,-0.00
 010899,-0.00006320,0.00013906,0.00003303,-0.00003756,-0.00000067,-0.00
 000096,0.00001058,0.00000594,-0.00002289,-0.00002488,0.00003824,-0.000
 51433,-0.00076729,0.00006007,0.00000562,-0.00024909,0.00083571,0.00040
 628,0.00012745,-0.00020520,0.00032503,0.00004765,-0.00003628,0.0000239
 0,-0.00051131,0.00020505,0.01204963,0.01140570,0.00072253,0.17415630,0
 .00001176,0.00000136,-0.00000220,-0.00000803,-0.00000449,-0.00000800,-
 0.00001789,0.00027848,-0.00000382,-0.00009129,0.00003482,0.00003653,0.
 00001611,0.00000554,-0.00002514,0.00060142,0.00549846,0.00768905,-0.00
 068553,-0.00010458,0.00122825,0.00000754,0.00000391,0.00000623,0.00054
 025,0.00163830,0.00054538,-0.00060821,0.00103005,0.00081130,-0.0060729
 9,-0.13641989,-0.21940909,-0.00000307,-0.00000317,0.00000376,-0.000311
 76,0.00005988,0.00012697,0.00000181,-0.00000204,-0.00000110,0.00000061
 ,0.00000083,0.00000118,0.00000344,0.00000222,-0.00000130,0.00000446,0.
 00000117,-0.00000043,0.00000252,-0.00001682,-0.00000649,0.00005478,-0.
 00000562,-0.00003639,-0.00000615,-0.00000270,0.00000397,-0.00000434,0.
 00000251,0.00000674,-0.00001247,-0.00001357,-0.00000528,0.00015321,-0.
 00027768,-0.00005987,0.00001998,0.00017304,0.00029873,-0.00041650,-0.0
 0002959,0.00080328,-0.00040011,-0.00023687,0.00000548,0.00004691,0.000
 05035,0.00043294,-0.00138439,-0.01625417,-0.01903379,0.00855472,0.1445
 9006,0.22659332,-0.01533834,0.01807557,0.02264445,-0.00025439,0.000532
 92,0.00021271,-0.00000517,0.00000753,0.00000302,0.00112517,0.00105398,
 0.00154683,-0.00023597,-0.00007907,-0.00000402,-0.00006564,0.00005104,
 0.00001683,-0.00000182,-0.00000390,0.00000341,0.00472710,0.00019911,-0
 .00285238,-0.00000325,0.00000680,-0.00000237,0.00021222,-0.00006295,-0
 .00002957,0.00002127,-0.00002886,0.00000251,-0.10296281,0.06482089,0.0
 7337003,-0.00013041,-0.00053952,-0.00044637,-0.00542942,-0.00181944,0.
 00039488,0.00115483,-0.00025118,-0.00023299,-0.00000860,-0.00010701,-0
 .00014713,-0.00028914,0.00023449,-0.00014731,-0.00000044,-0.00000067,0
 .00000024,-0.00000116,0.00000039,-0.00000142,-0.00004846,-0.00018089,-
 0.00052001,0.00000033,0.00008585,-0.00005573,0.00003092,-0.00002832,0.
 00000002,-0.00000443,0.00000044,-0.00000019,-0.00000041,0.00000063,-0.
 00000091,0.00000043,-0.00000034,0.00000022,-0.00000403,-0.00000024,-0.
 00000018,-0.00001671,0.00001759,-0.00000294,-0.00000266,0.00000353,-0.
 00000334,-0.00000238,0.00000367,0.00000081,0.10880578,-0.00458298,0.00
 756316,0.00602322,-0.00185916,0.00080871,-0.00523239,0.00000887,-0.000
 01387,-0.00000600,-0.00003719,-0.00001360,0.00046483,0.00011382,0.0000
 0719,0.00064111,0.00000802,0.00000294,-0.00002017,0.00000327,0.0000065
 9,-0.00000033,0.01442354,-0.04308001,-0.01132445,0.00000054,0.00000023
 ,0.00000163,0.00003409,0.00003736,0.00006942,-0.00000489,0.00000196,-0
 .00000207,0.06537737,-0.12914442,-0.09631619,0.00009485,-0.00010557,-0
 .00015705,-0.00262689,0.00036669,-0.00013607,0.00095309,0.00044037,-0.
 00017062,-0.00020501,0.00020100,0.00041295,0.00003887,0.00068708,0.001
 04961,0.00000417,0.00000308,-0.00000047,-0.00000036,0.00000148,0.00000
 134,0.00021082,-0.00014377,0.00000592,0.00022841,0.00010442,0.00000368
 ,-0.00003651,-0.00004011,-0.00007944,0.00000327,-0.00000134,0.00000055
 ,-0.00000019,-0.00000008,0.00000052,0.00000019,0.00000036,-0.00000073,
 0.00000076,-0.00000037,-0.00000053,-0.00000604,0.00000721,-0.00001615,
 -0.00000008,-0.00000020,-0.00000036,0.00000031,-0.00000021,-0.00000008
 ,-0.07176639,0.16059209,0.00271856,-0.00325947,-0.00357602,-0.00071316
 ,0.00262145,0.00377758,0.00002254,-0.00002778,0.00000188,-0.00100165,0
 .00034282,0.00013870,-0.00012364,-0.00007849,-0.00032824,0.00004661,-0
 .00003736,-0.00001294,0.00000749,0.00001236,-0.00000324,-0.00687140,0.
 01119573,0.00888823,0.00000334,-0.00000602,0.00000412,-0.00009352,0.00
 011279,0.00007119,-0.00001264,0.00002000,-0.00000274,0.07395998,-0.101
 31278,-0.16955339,0.00024918,0.00008423,-0.00002642,0.00123301,0.00059
 613,0.00098302,0.00015342,0.00006000,0.00017548,0.00001413,0.00000431,
 0.00026111,0.00096253,-0.00087976,0.00052483,0.00000038,0.00000075,-0.
 00000092,-0.00000001,0.00000043,0.00000164,0.00015645,-0.00005484,0.00
 056889,-0.00004403,-0.00013988,0.00001529,0.00007363,-0.00002769,-0.00
 018020,0.00000646,-0.00000226,0.00000108,-0.00000015,-0.00000065,0.000
 00095,-0.00000028,0.00000016,-0.00000050,0.00000356,0.00000029,-0.0000
 0038,0.00000902,-0.00001448,0.00000883,0.00000284,-0.00000298,0.000001
 63,0.00000200,-0.00000241,-0.00000082,-0.08313250,0.10591187,0.1746169
 3,-0.01734019,-0.00077954,-0.02826799,0.00083839,-0.00041264,0.0011677
 9,-0.00019014,0.00028046,-0.00002441,-0.00203911,-0.00207450,0.0047256
 9,0.00017103,-0.00029498,0.00029500,-0.00013017,0.00023629,0.00014390,
 -0.00006771,-0.00011201,0.00001566,0.00235239,0.00138317,0.00178175,-0
 .00000447,0.00001081,-0.00002158,0.00039628,-0.00113052,-0.00025871,0.
 00007158,-0.00006113,0.00004195,-0.12506057,0.00023405,-0.12202979,-0.
 00323673,0.00055026,-0.00139195,0.00155664,0.00073265,0.00014800,0.001
 05368,-0.00011178,0.00029049,0.00021617,-0.00013565,-0.00004134,-0.000
 04114,-0.00014174,-0.00023293,-0.00000035,-0.00000990,0.00000972,0.000
 00573,0.00000258,-0.00000349,0.00018162,-0.00012311,-0.00026228,0.0000
 3613,0.00012369,-0.00009612,0.00000421,0.00010992,-0.00001529,-0.00004
 879,0.00002687,-0.00000677,0.00000004,0.00000415,-0.00000423,-0.000000
 53,-0.00000091,0.00000528,-0.00001154,0.00000442,0.00000435,-0.0000528
 9,0.00007975,-0.00002266,-0.00000930,0.00000918,-0.00000711,-0.0000188
 0,0.00002166,0.00000241,0.00872760,-0.00037854,0.01236783,0.13264094,-
 0.00349561,0.00099538,-0.00909202,-0.00159266,-0.00562667,-0.00055546,
 -0.00008769,0.00012875,-0.00001959,-0.00134385,0.00002950,0.00149752,0
 .00003455,-0.00024792,0.00033808,-0.00003038,0.00009623,0.00003403,-0.
 00002916,-0.00004742,0.00000485,0.01984202,-0.00873412,0.03846788,-0.0
 0000020,0.00000275,-0.00000722,0.00006527,-0.00048561,0.00000873,0.000
 02110,-0.00001694,0.00001725,-0.00574993,-0.04953402,-0.01394118,-0.00
 120018,0.00049882,-0.00062131,0.00021309,0.00026587,0.00057482,0.00052
 796,0.00021281,0.00000154,0.00086844,-0.00022510,0.00164231,-0.0001156
 8,0.00027615,0.00035873,0.00000436,-0.00000055,0.00000413,0.00000338,0
 .00000145,-0.00000126,0.00011493,-0.00007881,0.00032572,0.00024570,0.0
 0020156,-0.00011577,0.00001688,0.00005040,-0.00004015,-0.00001926,0.00
 001179,-0.00000321,-0.00000069,0.00000182,-0.00000198,-0.00000027,-0.0
 0000011,0.00000146,-0.00000343,0.00000208,0.00000190,-0.00001022,0.000
 03106,-0.00003116,-0.00000376,0.00000300,-0.00000250,-0.00000610,0.000
 00768,0.00000030,-0.01022564,0.00171166,-0.01511646,0.00195703,0.06046
 852,0.00468265,-0.00099332,0.00765970,0.00157068,0.00271475,0.00203966
 ,0.00002164,-0.00002066,0.00000535,0.00129201,0.00049412,0.00030737,0.
 00011023,-0.00011098,-0.00013109,-0.00002191,-0.00000794,-0.00000217,0
 .00000994,0.00000403,-0.00000144,-0.00597569,0.00548774,-0.01262423,-0
 .00000071,0.00000156,0.00000034,0.00004782,0.00007807,0.00003838,0.000
 00259,-0.00000397,-0.00000071,-0.12130016,-0.00272557,-0.24949929,0.00
 051907,0.00007869,0.00019387,-0.00049429,-0.00005016,0.00057952,-0.000
 82552,-0.00022480,0.00007239,-0.00062879,0.00021824,-0.00061235,0.0000
 1787,0.00000962,0.00023652,-0.00000263,-0.00000150,-0.00000101,-0.0000
 0027,-0.00000173,-0.00000029,0.00001414,0.00001390,0.00022122,-0.00009
 413,-0.00006958,-0.00000649,-0.00002425,-0.00003164,0.00000066,0.00000
 344,-0.00000133,0.00000033,-0.00000005,0.00000017,0.00000013,-0.000000
 16,-0.00000028,0.00000027,-0.00000060,-0.00000034,-0.00000036,0.000006
 03,-0.00000437,0.00000981,0.00000044,0.00000029,-0.00000026,0.00000039
 ,0.00000048,0.00000061,-0.01061661,-0.00112354,-0.01635556,0.13168683,
 -0.00372996,0.26786911\\0.00033253,-0.00100775,-0.00029171,-0.00003971
 ,-0.00000241,-0.00002481,-0.00000876,0.00003282,0.00001291,-0.00044649
 ,0.00110150,-0.00021257,0.00001744,0.00000812,0.00001186,0.00003951,0.
 00002609,0.00002101,-0.00000675,-0.00001892,0.00000054,0.00002849,0.00
 000402,0.00001338,0.00000185,0.00000266,-0.00000530,-0.00015361,-0.000
 46848,-0.00127762,-0.00003032,0.00000161,0.00000884,-0.00001691,-0.000
 02005,0.00003779,0.00024371,0.00034347,0.00171571,-0.00000429,-0.00000
 815,-0.00001149,0.00000427,0.00000273,0.00000546,0.00000147,-0.0000160
 6,0.00000414,-0.00000228,0.00000301,0.00000671,-0.00000059,0.00000733,
 -0.00001882,0.00001638,0.00000078,-0.00000202,-0.00001103,0.00000499,0
 .00000556,0.00000574,0.00001142,-0.00000057,-0.00000012,-0.00001499,-0
 .00000391,0.00000200,0.00000963,-0.00001354,0.00000001,0.00000390,0.00
 000689,0.00000194,0.00000597,-0.00001500,0.00000753,0.00001447,0.00000
 809,0.00002341,-0.00001235,0.00002651,-0.00000089,-0.00000110,0.000004
 67,0.00000383,-0.00000188,-0.00001109,-0.00000714,0.00000213,0.0000054
 6,-0.00000123,-0.00001450,-0.00000709\\\@


 FIREWORKS ENDED
 AND SPECTATORS GONE AWAY....
 AH, HOW VAST AND DARK
                     SHIKI
 Job cpu time:       0 days 12 hours 34 minutes 39.7 seconds.
 Elapsed time:       0 days  1 hours  3 minutes 10.8 seconds.
 File lengths (MBytes):  RWF=    722 Int=      0 D2E=      0 Chk=     34 Scr=      1
 Normal termination of Gaussian 16 at Sat Mar  9 16:04:11 2019.
