 Entering Gaussian System, Link 0=g16
 Initial command:
 /sw/Projects/G16/g16/l1.exe "/nvme/pbs/tmpdir/pbs.74205[23].flm1/Gau-30571.inp" -scrdir="/nvme/pbs/tmpdir/pbs.74205[23].flm1/"
 Entering Link 1 = /sw/Projects/G16/g16/l1.exe PID=     30572.
  
 Copyright (c) 1988-2017, Gaussian, Inc.  All Rights Reserved.
  
 This is part of the Gaussian(R) 16 program.  It is based on
 the Gaussian(R) 09 system (copyright 2009, Gaussian, Inc.),
 the Gaussian(R) 03 system (copyright 2003, Gaussian, Inc.),
 the Gaussian(R) 98 system (copyright 1998, Gaussian, Inc.),
 the Gaussian(R) 94 system (copyright 1995, Gaussian, Inc.),
 the Gaussian 92(TM) system (copyright 1992, Gaussian, Inc.),
 the Gaussian 90(TM) system (copyright 1990, Gaussian, Inc.),
 the Gaussian 88(TM) system (copyright 1988, Gaussian, Inc.),
 the Gaussian 86(TM) system (copyright 1986, Carnegie Mellon
 University), and the Gaussian 82(TM) system (copyright 1983,
 Carnegie Mellon University). Gaussian is a federally registered
 trademark of Gaussian, Inc.
  
 This software contains proprietary and confidential information,
 including trade secrets, belonging to Gaussian, Inc.
  
 This software is provided under written license and may be
 used, copied, transmitted, or stored only in accord with that
 written license.
  
 The following legend is applicable only to US Government
 contracts under FAR:
  
                    RESTRICTED RIGHTS LEGEND
  
 Use, reproduction and disclosure by the US Government is
 subject to restrictions as set forth in subparagraphs (a)
 and (c) of the Commercial Computer Software - Restricted
 Rights clause in FAR 52.227-19.
  
 Gaussian, Inc.
 340 Quinnipiac St., Bldg. 40, Wallingford CT 06492
  
  
 ---------------------------------------------------------------
 Warning -- This program may not be used in any manner that
 competes with the business of Gaussian, Inc. or will provide
 assistance to any competitor of Gaussian, Inc.  The licensee
 of this program is prohibited from giving any competitor of
 Gaussian, Inc. access to this program.  By using this program,
 the user acknowledges that Gaussian, Inc. is engaged in the
 business of creating and licensing software in the field of
 computational chemistry and represents and warrants to the
 licensee that it is not a competitor of Gaussian, Inc. and that
 it will not use this program in any manner prohibited above.
 ---------------------------------------------------------------
  

 Cite this work as:
 Gaussian 16, Revision B.01,
 M. J. Frisch, G. W. Trucks, H. B. Schlegel, G. E. Scuseria, 
 M. A. Robb, J. R. Cheeseman, G. Scalmani, V. Barone, 
 G. A. Petersson, H. Nakatsuji, X. Li, M. Caricato, A. V. Marenich, 
 J. Bloino, B. G. Janesko, R. Gomperts, B. Mennucci, H. P. Hratchian, 
 J. V. Ortiz, A. F. Izmaylov, J. L. Sonnenberg, D. Williams-Young, 
 F. Ding, F. Lipparini, F. Egidi, J. Goings, B. Peng, A. Petrone, 
 T. Henderson, D. Ranasinghe, V. G. Zakrzewski, J. Gao, N. Rega, 
 G. Zheng, W. Liang, M. Hada, M. Ehara, K. Toyota, R. Fukuda, 
 J. Hasegawa, M. Ishida, T. Nakajima, Y. Honda, O. Kitao, H. Nakai, 
 T. Vreven, K. Throssell, J. A. Montgomery, Jr., J. E. Peralta, 
 F. Ogliaro, M. J. Bearpark, J. J. Heyd, E. N. Brothers, K. N. Kudin, 
 V. N. Staroverov, T. A. Keith, R. Kobayashi, J. Normand, 
 K. Raghavachari, A. P. Rendell, J. C. Burant, S. S. Iyengar, 
 J. Tomasi, M. Cossi, J. M. Millam, M. Klene, C. Adamo, R. Cammi, 
 J. W. Ochterski, R. L. Martin, K. Morokuma, O. Farkas, 
 J. B. Foresman, and D. J. Fox, Gaussian, Inc., Wallingford CT, 2016.
 
 ******************************************
 Gaussian 16:  ES64L-G16RevB.01 20-Dec-2017
                 9-Mar-2019 
 ******************************************
 %mem=20gb
 %nproc=12
 Will use up to   12 processors via shared memory.
 %chk=4c1_b1_e3_4c1_PSI.inp_extract_23.chk
 ----------------------------------------------------------------------
 #M062X/6-311++G(2d,2p) opt=ModRedundant freq=noraman SCRF=(SMD,solvent
 =water)
 ----------------------------------------------------------------------
 1/18=120,19=15,26=3,38=1/1,3;
 2/9=110,12=2,17=6,18=5,40=1/2;
 3/5=4,6=6,7=1212,11=2,25=1,30=1,70=32201,71=1,72=1,74=-55/1,2,3;
 4//1;
 5/5=2,38=5,53=1/2;
 6/7=2,8=2,9=2,10=2,28=1/1;
 7//1,2,3,16;
 1/18=20,19=15,26=3/3(2);
 2/9=110/2;
 99//99;
 2/9=110/2;
 3/5=4,6=6,7=1212,11=2,25=1,30=1,70=32205,71=1,72=1,74=-55/1,2,3;
 4/5=5,16=3,69=1/1;
 5/5=2,38=5,53=1/2;
 7//1,2,3,16;
 1/18=20,19=15,26=3/3(-5);
 2/9=110/2;
 6/7=2,8=2,9=2,10=2,19=2,28=1/1;
 99/9=1/99;
 --------------------------------
 4c1_b1_e3_4c1_PSI.inp_extract_23
 --------------------------------
 Symbolic Z-matrix:
 Charge =  0 Multiplicity = 1
 C                     2.04378  -1.29063  -0.2723 
 C                     3.23909   1.26486   0.20948 
 C                    -2.30828  -1.17586   0.65038 
 C                     1.14804  -0.08458  -0.02078 
 C                     1.88655   0.93993   0.83005 
 O                    -1.57061   1.00399  -0.05412 
 C                    -3.66617  -0.93284  -0.01415 
 O                     4.01082   0.09565   0.01722 
 C                    -3.95032   0.56669  -0.11195 
 C                    -1.23123  -0.36339  -0.04173 
 C                    -2.77282   1.28239  -0.75403 
 C                     3.38632  -0.844    -0.83529 
 O                    -0.03703  -0.49961   0.64783 
 H                     2.20161  -1.81778   0.66481 
 H                     1.56941  -1.97802  -0.96675 
 H                     3.81501   1.91249   0.85564 
 H                     3.11012   1.76632  -0.74723 
 H                    -2.34168  -0.87761   1.695 
 H                    -2.03941  -2.22648   0.61116 
 H                     0.87643   0.36699  -0.9683 
 H                     1.3024    1.85022   0.92224 
 H                     2.03458   0.53485   1.82755 
 H                    -4.44849  -1.43527   0.5456 
 H                    -3.6624   -1.3653   -1.0126 
 H                    -4.11741   0.97791   0.88063 
 H                    -4.84547   0.754    -0.69818 
 H                    -1.1041   -0.69094  -1.07063 
 H                    -2.6584    0.97755  -1.79184 
 H                    -2.89388   2.3562   -0.72747 
 H                     3.26028  -0.4011   -1.82084 
 H                     4.06616  -1.67979  -0.92431 
 
 The following ModRedundant input section has been read:
 D       1       4      13      10 F                                           
 

 GradGradGradGradGradGradGradGradGradGradGradGradGradGradGradGradGradGrad
 Berny optimization.
 Initialization pass.
                           ----------------------------
                           !    Initial Parameters    !
                           ! (Angstroms and Degrees)  !
 --------------------------                            --------------------------
 ! Name  Definition              Value          Derivative Info.                !
 --------------------------------------------------------------------------------
 ! R1    R(1,4)                  1.5232         estimate D2E/DX2                !
 ! R2    R(1,12)                 1.5228         estimate D2E/DX2                !
 ! R3    R(1,14)                 1.0867         estimate D2E/DX2                !
 ! R4    R(1,15)                 1.0862         estimate D2E/DX2                !
 ! R5    R(2,5)                  1.5232         estimate D2E/DX2                !
 ! R6    R(2,8)                  1.4141         estimate D2E/DX2                !
 ! R7    R(2,16)                 1.081          estimate D2E/DX2                !
 ! R8    R(2,17)                 1.0878         estimate D2E/DX2                !
 ! R9    R(3,7)                  1.5312         estimate D2E/DX2                !
 ! R10   R(3,10)                 1.5163         estimate D2E/DX2                !
 ! R11   R(3,18)                 1.0869         estimate D2E/DX2                !
 ! R12   R(3,19)                 1.0852         estimate D2E/DX2                !
 ! R13   R(4,5)                  1.5228         estimate D2E/DX2                !
 ! R14   R(4,13)                 1.4226         estimate D2E/DX2                !
 ! R15   R(4,20)                 1.0842         estimate D2E/DX2                !
 ! R16   R(5,21)                 1.0855         estimate D2E/DX2                !
 ! R17   R(5,22)                 1.0867         estimate D2E/DX2                !
 ! R18   R(6,10)                 1.4089         estimate D2E/DX2                !
 ! R19   R(6,11)                 1.4187         estimate D2E/DX2                !
 ! R20   R(7,9)                  1.5293         estimate D2E/DX2                !
 ! R21   R(7,23)                 1.0853         estimate D2E/DX2                !
 ! R22   R(7,24)                 1.0881         estimate D2E/DX2                !
 ! R23   R(8,12)                 1.4141         estimate D2E/DX2                !
 ! R24   R(9,11)                 1.5202         estimate D2E/DX2                !
 ! R25   R(9,25)                 1.0873         estimate D2E/DX2                !
 ! R26   R(9,26)                 1.0863         estimate D2E/DX2                !
 ! R27   R(10,13)                1.3857         estimate D2E/DX2                !
 ! R28   R(10,27)                1.0872         estimate D2E/DX2                !
 ! R29   R(11,28)                1.0877         estimate D2E/DX2                !
 ! R30   R(11,29)                1.0809         estimate D2E/DX2                !
 ! R31   R(12,30)                1.0878         estimate D2E/DX2                !
 ! R32   R(12,31)                1.081          estimate D2E/DX2                !
 ! A1    A(4,1,12)             110.3209         estimate D2E/DX2                !
 ! A2    A(4,1,14)             109.0926         estimate D2E/DX2                !
 ! A3    A(4,1,15)             110.477          estimate D2E/DX2                !
 ! A4    A(12,1,14)            109.4531         estimate D2E/DX2                !
 ! A5    A(12,1,15)            109.529          estimate D2E/DX2                !
 ! A6    A(14,1,15)            107.9246         estimate D2E/DX2                !
 ! A7    A(5,2,8)              111.3228         estimate D2E/DX2                !
 ! A8    A(5,2,16)             110.937          estimate D2E/DX2                !
 ! A9    A(5,2,17)             110.5716         estimate D2E/DX2                !
 ! A10   A(8,2,16)             106.6104         estimate D2E/DX2                !
 ! A11   A(8,2,17)             109.0431         estimate D2E/DX2                !
 ! A12   A(16,2,17)            108.2206         estimate D2E/DX2                !
 ! A13   A(7,3,10)             110.2906         estimate D2E/DX2                !
 ! A14   A(7,3,18)             110.2619         estimate D2E/DX2                !
 ! A15   A(7,3,19)             110.9591         estimate D2E/DX2                !
 ! A16   A(10,3,18)            108.2697         estimate D2E/DX2                !
 ! A17   A(10,3,19)            109.0429         estimate D2E/DX2                !
 ! A18   A(18,3,19)            107.94           estimate D2E/DX2                !
 ! A19   A(1,4,5)              109.8623         estimate D2E/DX2                !
 ! A20   A(1,4,13)             109.6635         estimate D2E/DX2                !
 ! A21   A(1,4,20)             109.4377         estimate D2E/DX2                !
 ! A22   A(5,4,13)             109.7361         estimate D2E/DX2                !
 ! A23   A(5,4,20)             109.2431         estimate D2E/DX2                !
 ! A24   A(13,4,20)            108.8791         estimate D2E/DX2                !
 ! A25   A(2,5,4)              110.2751         estimate D2E/DX2                !
 ! A26   A(2,5,21)             109.4848         estimate D2E/DX2                !
 ! A27   A(2,5,22)             109.4223         estimate D2E/DX2                !
 ! A28   A(4,5,21)             110.527          estimate D2E/DX2                !
 ! A29   A(4,5,22)             109.155          estimate D2E/DX2                !
 ! A30   A(21,5,22)            107.9339         estimate D2E/DX2                !
 ! A31   A(10,6,11)            113.5104         estimate D2E/DX2                !
 ! A32   A(3,7,9)              110.3742         estimate D2E/DX2                !
 ! A33   A(3,7,23)             109.9964         estimate D2E/DX2                !
 ! A34   A(3,7,24)             109.3956         estimate D2E/DX2                !
 ! A35   A(9,7,23)             110.6698         estimate D2E/DX2                !
 ! A36   A(9,7,24)             109.3699         estimate D2E/DX2                !
 ! A37   A(23,7,24)            106.9637         estimate D2E/DX2                !
 ! A38   A(2,8,12)             112.9776         estimate D2E/DX2                !
 ! A39   A(7,9,11)             110.1643         estimate D2E/DX2                !
 ! A40   A(7,9,25)             109.9376         estimate D2E/DX2                !
 ! A41   A(7,9,26)             110.8968         estimate D2E/DX2                !
 ! A42   A(11,9,25)            109.0595         estimate D2E/DX2                !
 ! A43   A(11,9,26)            109.218          estimate D2E/DX2                !
 ! A44   A(25,9,26)            107.5054         estimate D2E/DX2                !
 ! A45   A(3,10,6)             110.6678         estimate D2E/DX2                !
 ! A46   A(3,10,13)            109.4109         estimate D2E/DX2                !
 ! A47   A(3,10,27)            110.7069         estimate D2E/DX2                !
 ! A48   A(6,10,13)            107.9009         estimate D2E/DX2                !
 ! A49   A(6,10,27)            108.1931         estimate D2E/DX2                !
 ! A50   A(13,10,27)           109.9094         estimate D2E/DX2                !
 ! A51   A(6,11,9)             110.831          estimate D2E/DX2                !
 ! A52   A(6,11,28)            109.0611         estimate D2E/DX2                !
 ! A53   A(6,11,29)            106.1248         estimate D2E/DX2                !
 ! A54   A(9,11,28)            110.6422         estimate D2E/DX2                !
 ! A55   A(9,11,29)            111.7502         estimate D2E/DX2                !
 ! A56   A(28,11,29)           108.2793         estimate D2E/DX2                !
 ! A57   A(1,12,8)             111.1836         estimate D2E/DX2                !
 ! A58   A(1,12,30)            110.6227         estimate D2E/DX2                !
 ! A59   A(1,12,31)            110.985          estimate D2E/DX2                !
 ! A60   A(8,12,30)            109.0757         estimate D2E/DX2                !
 ! A61   A(8,12,31)            106.5979         estimate D2E/DX2                !
 ! A62   A(30,12,31)           108.2422         estimate D2E/DX2                !
 ! A63   A(4,13,10)            117.0885         estimate D2E/DX2                !
 ! D1    D(12,1,4,5)           -52.5483         estimate D2E/DX2                !
 ! D2    D(12,1,4,13)         -173.2367         estimate D2E/DX2                !
 ! D3    D(12,1,4,20)           67.3912         estimate D2E/DX2                !
 ! D4    D(14,1,4,5)            67.7163         estimate D2E/DX2                !
 ! D5    D(14,1,4,13)          -52.9721         estimate D2E/DX2                !
 ! D6    D(14,1,4,20)         -172.3441         estimate D2E/DX2                !
 ! D7    D(15,1,4,5)          -173.8003         estimate D2E/DX2                !
 ! D8    D(15,1,4,13)           65.5113         estimate D2E/DX2                !
 ! D9    D(15,1,4,20)          -53.8607         estimate D2E/DX2                !
 ! D10   D(4,1,12,8)            55.8014         estimate D2E/DX2                !
 ! D11   D(4,1,12,30)          -65.5539         estimate D2E/DX2                !
 ! D12   D(4,1,12,31)          174.2757         estimate D2E/DX2                !
 ! D13   D(14,1,12,8)          -64.2463         estimate D2E/DX2                !
 ! D14   D(14,1,12,30)         174.3984         estimate D2E/DX2                !
 ! D15   D(14,1,12,31)          54.2281         estimate D2E/DX2                !
 ! D16   D(15,1,12,8)          177.6158         estimate D2E/DX2                !
 ! D17   D(15,1,12,30)          56.2605         estimate D2E/DX2                !
 ! D18   D(15,1,12,31)         -63.9099         estimate D2E/DX2                !
 ! D19   D(8,2,5,4)            -55.6085         estimate D2E/DX2                !
 ! D20   D(8,2,5,21)          -177.4268         estimate D2E/DX2                !
 ! D21   D(8,2,5,22)            64.4682         estimate D2E/DX2                !
 ! D22   D(16,2,5,4)          -174.1575         estimate D2E/DX2                !
 ! D23   D(16,2,5,21)           64.0243         estimate D2E/DX2                !
 ! D24   D(16,2,5,22)          -54.0807         estimate D2E/DX2                !
 ! D25   D(17,2,5,4)            65.7646         estimate D2E/DX2                !
 ! D26   D(17,2,5,21)          -56.0536         estimate D2E/DX2                !
 ! D27   D(17,2,5,22)         -174.1586         estimate D2E/DX2                !
 ! D28   D(5,2,8,12)            59.8912         estimate D2E/DX2                !
 ! D29   D(16,2,8,12)         -178.9944         estimate D2E/DX2                !
 ! D30   D(17,2,8,12)          -62.3693         estimate D2E/DX2                !
 ! D31   D(10,3,7,9)           -51.8345         estimate D2E/DX2                !
 ! D32   D(10,3,7,23)         -174.2355         estimate D2E/DX2                !
 ! D33   D(10,3,7,24)           68.5526         estimate D2E/DX2                !
 ! D34   D(18,3,7,9)            67.6879         estimate D2E/DX2                !
 ! D35   D(18,3,7,23)          -54.7131         estimate D2E/DX2                !
 ! D36   D(18,3,7,24)         -171.925          estimate D2E/DX2                !
 ! D37   D(19,3,7,9)          -172.7738         estimate D2E/DX2                !
 ! D38   D(19,3,7,23)           64.8252         estimate D2E/DX2                !
 ! D39   D(19,3,7,24)          -52.3867         estimate D2E/DX2                !
 ! D40   D(7,3,10,6)            55.7529         estimate D2E/DX2                !
 ! D41   D(7,3,10,13)          174.519          estimate D2E/DX2                !
 ! D42   D(7,3,10,27)          -64.2032         estimate D2E/DX2                !
 ! D43   D(18,3,10,6)          -64.9697         estimate D2E/DX2                !
 ! D44   D(18,3,10,13)          53.7964         estimate D2E/DX2                !
 ! D45   D(18,3,10,27)         175.0742         estimate D2E/DX2                !
 ! D46   D(19,3,10,6)          177.8301         estimate D2E/DX2                !
 ! D47   D(19,3,10,13)         -63.4038         estimate D2E/DX2                !
 ! D48   D(19,3,10,27)          57.874          estimate D2E/DX2                !
 ! D49   D(1,4,5,2)             52.4003         estimate D2E/DX2                !
 ! D50   D(1,4,5,21)           173.5995         estimate D2E/DX2                !
 ! D51   D(1,4,5,22)           -67.8375         estimate D2E/DX2                !
 ! D52   D(13,4,5,2)           173.0449         estimate D2E/DX2                !
 ! D53   D(13,4,5,21)          -65.7559         estimate D2E/DX2                !
 ! D54   D(13,4,5,22)           52.8071         estimate D2E/DX2                !
 ! D55   D(20,4,5,2)           -67.6576         estimate D2E/DX2                !
 ! D56   D(20,4,5,21)           53.5416         estimate D2E/DX2                !
 ! D57   D(20,4,5,22)          172.1047         estimate D2E/DX2                !
 ! D58   D(1,4,13,10)         -114.6168         Frozen                          !
 ! D59   D(5,4,13,10)          124.6184         estimate D2E/DX2                !
 ! D60   D(20,4,13,10)           5.0977         estimate D2E/DX2                !
 ! D61   D(11,6,10,3)          -61.2721         estimate D2E/DX2                !
 ! D62   D(11,6,10,13)         179.0503         estimate D2E/DX2                !
 ! D63   D(11,6,10,27)          60.1789         estimate D2E/DX2                !
 ! D64   D(10,6,11,9)           60.9687         estimate D2E/DX2                !
 ! D65   D(10,6,11,28)         -61.0727         estimate D2E/DX2                !
 ! D66   D(10,6,11,29)        -177.5169         estimate D2E/DX2                !
 ! D67   D(3,7,9,11)            51.4094         estimate D2E/DX2                !
 ! D68   D(3,7,9,25)           -68.8062         estimate D2E/DX2                !
 ! D69   D(3,7,9,26)           172.4434         estimate D2E/DX2                !
 ! D70   D(23,7,9,11)          173.4141         estimate D2E/DX2                !
 ! D71   D(23,7,9,25)           53.1985         estimate D2E/DX2                !
 ! D72   D(23,7,9,26)          -65.5518         estimate D2E/DX2                !
 ! D73   D(24,7,9,11)          -68.9932         estimate D2E/DX2                !
 ! D74   D(24,7,9,25)          170.7912         estimate D2E/DX2                !
 ! D75   D(24,7,9,26)           52.0409         estimate D2E/DX2                !
 ! D76   D(2,8,12,1)           -59.942          estimate D2E/DX2                !
 ! D77   D(2,8,12,30)           62.3138         estimate D2E/DX2                !
 ! D78   D(2,8,12,31)          178.9741         estimate D2E/DX2                !
 ! D79   D(7,9,11,6)           -54.9386         estimate D2E/DX2                !
 ! D80   D(7,9,11,28)           66.1741         estimate D2E/DX2                !
 ! D81   D(7,9,11,29)         -173.0853         estimate D2E/DX2                !
 ! D82   D(25,9,11,6)           65.8053         estimate D2E/DX2                !
 ! D83   D(25,9,11,28)        -173.0821         estimate D2E/DX2                !
 ! D84   D(25,9,11,29)         -52.3414         estimate D2E/DX2                !
 ! D85   D(26,9,11,6)         -176.9716         estimate D2E/DX2                !
 ! D86   D(26,9,11,28)         -55.8589         estimate D2E/DX2                !
 ! D87   D(26,9,11,29)          64.8817         estimate D2E/DX2                !
 ! D88   D(3,10,13,4)          165.0435         estimate D2E/DX2                !
 ! D89   D(6,10,13,4)          -74.4872         estimate D2E/DX2                !
 ! D90   D(27,10,13,4)          43.2844         estimate D2E/DX2                !
 --------------------------------------------------------------------------------
 Trust Radius=3.00D-01 FncErr=1.00D-07 GrdErr=1.00D-06 EigMax=2.50D+02 EigMin=1.00D-04
 Number of steps in this run=    186 maximum allowed number of steps=    186.
 GradGradGradGradGradGradGradGradGradGradGradGradGradGradGradGradGradGrad

                          Input orientation:                          
 ---------------------------------------------------------------------
 Center     Atomic      Atomic             Coordinates (Angstroms)
 Number     Number       Type             X           Y           Z
 ---------------------------------------------------------------------
      1          6           0        2.043779   -1.290627   -0.272303
      2          6           0        3.239085    1.264861    0.209477
      3          6           0       -2.308275   -1.175863    0.650379
      4          6           0        1.148037   -0.084576   -0.020778
      5          6           0        1.886552    0.939930    0.830047
      6          8           0       -1.570609    1.003988   -0.054124
      7          6           0       -3.666165   -0.932835   -0.014145
      8          8           0        4.010817    0.095650    0.017218
      9          6           0       -3.950315    0.566693   -0.111949
     10          6           0       -1.231234   -0.363391   -0.041725
     11          6           0       -2.772817    1.282392   -0.754031
     12          6           0        3.386323   -0.843995   -0.835288
     13          8           0       -0.037033   -0.499608    0.647830
     14          1           0        2.201614   -1.817784    0.664812
     15          1           0        1.569408   -1.978024   -0.966752
     16          1           0        3.815005    1.912486    0.855641
     17          1           0        3.110121    1.766324   -0.747231
     18          1           0       -2.341677   -0.877609    1.695003
     19          1           0       -2.039406   -2.226483    0.611160
     20          1           0        0.876427    0.366985   -0.968296
     21          1           0        1.302402    1.850220    0.922240
     22          1           0        2.034580    0.534848    1.827553
     23          1           0       -4.448491   -1.435265    0.545598
     24          1           0       -3.662402   -1.365302   -1.012596
     25          1           0       -4.117406    0.977909    0.880630
     26          1           0       -4.845471    0.754004   -0.698180
     27          1           0       -1.104099   -0.690939   -1.070628
     28          1           0       -2.658395    0.977545   -1.791835
     29          1           0       -2.893879    2.356200   -0.727471
     30          1           0        3.260280   -0.401103   -1.820839
     31          1           0        4.066163   -1.679787   -0.924306
 ---------------------------------------------------------------------
                    Distance matrix (angstroms):
                    1          2          3          4          5
     1  C    0.000000
     2  C    2.862060   0.000000
     3  C    4.450268   6.076572   0.000000
     4  C    1.523213   2.499296   3.686116   0.000000
     5  C    2.493046   1.523165   4.701642   1.522800   0.000000
     6  O    4.286801   4.823971   2.406704   2.928672   3.569009
     7  C    5.726964   7.249990   1.531183   4.888367   5.920522
     8  O    2.423804   1.414068   6.476771   2.868699   2.426108
     9  C    6.277301   7.230368   2.512756   5.140589   5.924161
    10  C    3.411546   4.764248   1.516290   2.395643   3.489874
    11  C    5.481978   6.088647   2.869004   4.216558   4.933184
    12  C    1.522779   2.358068   5.894556   2.500014   2.864444
    13  O    2.408762   3.746792   2.369782   1.422561   2.409492
    14  H    1.086734   3.284262   4.555367   2.141044   2.780567
    15  H    1.086187   3.832446   4.277266   2.158139   3.441442
    16  H    3.830069   1.081032   6.861092   3.445154   2.159966
    17  H    3.272246   1.087836   6.322088   2.793446   2.160522
    18  H    4.824220   6.159697   1.086881   3.968742   4.682896
    19  H    4.281207   6.341396   1.085187   3.891902   5.048488
    20  H    2.143547   2.788455   3.891377   1.084191   2.140714
    21  H    3.441147   2.145091   4.718906   2.157903   1.085522
    22  H    2.782416   2.145209   4.813799   2.141488   1.086748
    23  H    6.545185   8.154905   2.158424   5.785004   6.771649
    24  H    5.754486   7.486103   2.152913   5.075853   6.284928
    25  H    6.666012   7.392614   2.822181   5.446678   6.004291
    26  H    7.198865   8.151372   3.461266   6.089682   6.905808
    27  H    3.302436   4.932248   2.155703   2.557729   3.900807
    28  H    5.437281   6.234426   3.274776   4.330551   5.247116
    29  H    6.155241   6.299376   3.836258   4.774294   5.223428
    30  H    2.160808   2.626417   6.141333   2.793202   3.273025
    31  H    2.160229   3.261974   6.585365   3.446233   3.832933
                    6          7          8          9         10
     6  O    0.000000
     7  C    2.853811   0.000000
     8  O    5.655306   7.745632   0.000000
     9  C    2.420242   1.529343   7.976101   0.000000
    10  C    1.408920   2.500783   5.262442   2.874611   0.000000
    11  C    1.418690   2.500546   6.929709   1.520196   2.364838
    12  C    5.347563   7.100687   1.414105   7.505965   4.709836
    13  O    2.259512   3.714363   4.139697   4.126504   1.385697
    14  H    4.765389   5.972851   2.711793   6.643442   3.794588
    15  H    4.425493   5.423201   3.350940   6.137884   3.362486
    16  H    5.536956   8.051105   2.010519   7.940251   5.607977
    17  H    4.792785   7.330820   2.046164   7.189746   4.886797
    18  H    2.682238   2.162985   6.642016   2.817588   2.124554
    19  H    3.331414   2.170455   6.507708   3.460678   2.133193
    20  H    2.688767   4.820278   3.296856   4.906185   2.415413
    21  H    3.150173   5.771384   3.351581   5.505272   3.499802
    22  H    4.093677   6.168017   2.715828   6.291395   3.868666
    23  H    3.819925   1.085257   8.612942   2.165267   3.441599
    24  H    3.302696   1.088093   7.878654   2.150968   2.803033
    25  H    2.713046   2.157587   8.221428   1.087304   3.313580
    26  H    3.346942   2.168892   8.909493   1.086304   3.839559
    27  H    2.030687   2.781879   5.288147   3.256017   1.087241
    28  H    2.050272   2.797380   6.966262   2.158674   2.626363
    29  H    2.008212   3.452971   7.303388   2.167316   3.260492
    30  H    5.332265   7.177919   2.046588   7.473260   4.831187
    31  H    6.303417   7.821459   2.010400   8.364838   5.529400
                   11         12         13         14         15
    11  C    0.000000
    12  C    6.516374   0.000000
    13  O    3.553203   3.746680   0.000000
    14  H    6.030686   2.145251   2.597964   0.000000
    15  H    5.434195   2.145806   2.715371   1.757089   0.000000
    16  H    6.810834   3.262085   4.549679   4.068705   4.847669
    17  H    5.902813   2.626368   4.121313   3.957914   4.054889
    18  H    3.293821   6.262067   2.559461   4.752548   4.857205
    19  H    3.835863   5.782908   2.644417   4.261005   3.946527
    20  H    3.768403   2.789936   2.048721   3.032553   2.445259
    21  H    4.442941   3.832809   2.718654   3.785380   4.277270
    22  H    5.507673   3.289246   2.598735   2.629590   3.786694
    23  H    3.447112   7.977516   4.510750   6.662164   6.228716
    24  H    2.805085   7.070200   4.080409   6.115973   5.267767
    25  H    2.138398   7.910098   4.345883   6.913211   6.670098
    26  H    2.139675   8.386586   5.148239   7.624516   6.977591
    27  H    2.603630   4.499189   2.031831   3.899906   2.969010
    28  H    1.087686   6.385265   3.873691   6.121165   5.224028
    29  H    1.080937   7.049384   4.267161   6.732358   6.226049
    30  H    6.353778   1.087819   4.120231   3.050610   2.464791
    31  H    7.454874   1.081043   4.549797   2.453749   2.514862
                   16         17         18         19         20
    16  H    0.000000
    17  H    1.757107   0.000000
    18  H    6.811306   6.532763   0.000000
    19  H    7.173909   6.656227   1.756572   0.000000
    20  H    3.788213   2.645072   4.358712   4.209850   0.000000
    21  H    2.514257   2.462117   4.617091   5.280526   2.440403
    22  H    2.452022   3.050055   4.600460   5.069706   3.030886
    23  H    8.921263   8.309885   2.463895   2.536536   5.821918
    24  H    8.375310   7.466228   3.051762   2.452006   4.858369
    25  H    7.987315   7.450414   2.694321   3.828685   5.360049
    26  H    8.874699   8.019890   3.828638   4.297869   5.741329
    27  H    5.889475   4.889006   3.035648   2.461931   2.247701
    28  H    7.056072   5.915162   3.962316   4.052571   3.680485
    29  H    6.907405   6.032940   4.078091   4.850056   4.269682
    30  H    3.581056   2.423411   6.630997   6.110098   2.645665
    31  H    4.016929   3.580650   6.968837   6.319375   3.790201
                   21         22         23         24         25
    21  H    0.000000
    22  H    1.756667   0.000000
    23  H    6.633931   6.896011   0.000000
    24  H    6.223540   6.643239   1.746654   0.000000
    25  H    5.489716   6.240184   2.458714   3.046633   0.000000
    26  H    6.451650   7.332289   2.549015   2.447441   1.752956
    27  H    4.027438   4.444470   3.788293   2.646327   3.958848
    28  H    4.880131   5.943060   3.806532   2.665366   3.044796
    29  H    4.537217   5.842532   4.291006   3.810709   2.445954
    30  H    4.052928   3.960948   8.129863   7.036083   7.976833
    31  H    4.848614   4.074882   8.644058   7.735465   8.791584
                   26         27         28         29         30
    26  H    0.000000
    27  H    4.027958   0.000000
    28  H    2.455474   2.391613   0.000000
    29  H    2.525193   3.550511   1.757559   0.000000
    30  H    8.264250   4.437863   6.077189   6.831680   0.000000
    31  H    9.240763   5.266008   7.282424   8.047989   1.757342
                   31
    31  H    0.000000
 Stoichiometry    C10H18O3
 Framework group  C1[X(C10H18O3)]
 Deg. of freedom    87
 Full point group                 C1      NOp   1
 Largest Abelian subgroup         C1      NOp   1
 Largest concise Abelian subgroup C1      NOp   1
                         Standard orientation:                         
 ---------------------------------------------------------------------
 Center     Atomic      Atomic             Coordinates (Angstroms)
 Number     Number       Type             X           Y           Z
 ---------------------------------------------------------------------
      1          6           0       -2.043779   -1.290627    0.272303
      2          6           0       -3.239085    1.264861   -0.209477
      3          6           0        2.308275   -1.175863   -0.650379
      4          6           0       -1.148037   -0.084576    0.020778
      5          6           0       -1.886552    0.939930   -0.830047
      6          8           0        1.570609    1.003988    0.054124
      7          6           0        3.666165   -0.932835    0.014145
      8          8           0       -4.010817    0.095650   -0.017218
      9          6           0        3.950315    0.566693    0.111949
     10          6           0        1.231234   -0.363391    0.041725
     11          6           0        2.772817    1.282392    0.754031
     12          6           0       -3.386323   -0.843995    0.835288
     13          8           0        0.037033   -0.499608   -0.647830
     14          1           0       -2.201614   -1.817784   -0.664812
     15          1           0       -1.569408   -1.978024    0.966752
     16          1           0       -3.815005    1.912486   -0.855641
     17          1           0       -3.110121    1.766324    0.747231
     18          1           0        2.341677   -0.877609   -1.695003
     19          1           0        2.039406   -2.226483   -0.611160
     20          1           0       -0.876427    0.366985    0.968296
     21          1           0       -1.302402    1.850220   -0.922240
     22          1           0       -2.034580    0.534848   -1.827553
     23          1           0        4.448491   -1.435265   -0.545598
     24          1           0        3.662402   -1.365302    1.012596
     25          1           0        4.117406    0.977909   -0.880630
     26          1           0        4.845471    0.754004    0.698180
     27          1           0        1.104099   -0.690939    1.070628
     28          1           0        2.658395    0.977545    1.791835
     29          1           0        2.893879    2.356200    0.727471
     30          1           0       -3.260280   -0.401103    1.820839
     31          1           0       -4.066163   -1.679787    0.924306
 ---------------------------------------------------------------------
 Rotational constants (GHZ):           2.1983986           0.3564152           0.3306560
 Standard basis: 6-311++G(2d,2p) (5D, 7F)
 There are   557 symmetry adapted cartesian basis functions of A   symmetry.
 There are   531 symmetry adapted basis functions of A   symmetry.
   531 basis functions,   762 primitive gaussians,   557 cartesian basis functions
    51 alpha electrons       51 beta electrons
       nuclear repulsion energy       876.6457930797 Hartrees.
 NAtoms=   31 NActive=   31 NUniq=   31 SFac= 1.00D+00 NAtFMM=   60 NAOKFM=F Big=F
 Integral buffers will be    131072 words long.
 Raffenetti 2 integral format.
 Two-electron integral symmetry is turned on.
 ------------------------------------------------------------------------------
 Polarizable Continuum Model (PCM)
 =================================
 Model                : PCM.
 Atomic radii         : SMD-Coulomb.
 Polarization charges : Total charges.
 Charge compensation  : None.
 Solution method      : On-the-fly selection.
 Cavity type          : VdW (van der Waals Surface) (Alpha=1.000).
 Cavity algorithm     : GePol (No added spheres)
                        Default sphere list used, NSphG=   31.
                        Lebedev-Laikov grids with approx.  5.0 points / Ang**2.
                        Smoothing algorithm: York/Karplus (Gamma=1.0000).
                        Polarization charges: spherical gaussians, with
                                              point-specific exponents (IZeta= 3).
                        Self-potential: point-specific (ISelfS= 7).
                        Self-field    : sphere-specific E.n sum rule (ISelfD= 2).
 1st derivatives      : Analytical E(r).r(x)/FMM algorithm (CHGder, D1EAlg=3).
                        Cavity 1st derivative terms included.
 Solvent              : Water, Eps=  78.355300 Eps(inf)=   1.777849
 ------------------------------------------------------------------------------
 ------------------------------------------------------------------------------
 Atomic radii for non-electrostatic terms: SMD-CDS.
 ------------------------------------------------------------------------------
 Nuclear repulsion after PCM non-electrostatic terms =      876.6522943859 Hartrees.
 One-electron integrals computed using PRISM.
 NBasis=   531 RedAO= T EigKep=  6.15D-06  NBF=   531
 NBsUse=   531 1.00D-06 EigRej= -1.00D+00 NBFU=   531
 ExpMin= 3.60D-02 ExpMax= 8.59D+03 ExpMxC= 1.30D+03 IAcc=3 IRadAn=         5 AccDes= 0.00D+00
 Harris functional with IExCor= 1009 and IRadAn=       5 diagonalized for initial guess.
 HarFok:  IExCor= 1009 AccDes= 0.00D+00 IRadAn=         5 IDoV= 1 UseB2=F ITyADJ=14
 ICtDFT=  3500011 ScaDFX=  1.000000  1.000000  1.000000  1.000000
 FoFCou: FMM=F IPFlag=           0 FMFlag=      100000 FMFlg1=           0
         NFxFlg=           0 DoJE=T BraDBF=F KetDBF=T FulRan=T
         wScrn=  0.000000 ICntrl=       500 IOpCl=  0 I1Cent=   200000004 NGrid=           0
         NMat0=    1 NMatS0=      1 NMatT0=    0 NMatD0=    1 NMtDS0=    0 NMtDT0=    0
 Petite list used in FoFCou.
 Requested convergence on RMS density matrix=1.00D-08 within 128 cycles.
 Requested convergence on MAX density matrix=1.00D-06.
 Requested convergence on             energy=1.00D-06.
 No special actions if energy rises.
 Inv3:  Mode=1 IEnd=    12180675.
 Iteration    1 A*A^-1 deviation from unit magnitude is 8.22D-15 for    561.
 Iteration    1 A*A^-1 deviation from orthogonality  is 3.12D-15 for   1592    228.
 Iteration    1 A^-1*A deviation from unit magnitude is 7.55D-15 for    561.
 Iteration    1 A^-1*A deviation from orthogonality  is 2.01D-13 for   1509   1499.
 Error on total polarization charges =  0.06328
 SCF Done:  E(RM062X) =  -617.507940288     A.U. after   12 cycles
            NFock= 12  Conv=0.47D-08     -V/T= 2.0035
 SMD-CDS (non-electrostatic) energy       (kcal/mol) =       4.08
 (included in total energy above)

 **********************************************************************

            Population analysis using the SCF Density.

 **********************************************************************

 Orbital symmetries:
       Occupied  (A) (A) (A) (A) (A) (A) (A) (A) (A) (A) (A) (A)
                 (A) (A) (A) (A) (A) (A) (A) (A) (A) (A) (A) (A)
                 (A) (A) (A) (A) (A) (A) (A) (A) (A) (A) (A) (A)
                 (A) (A) (A) (A) (A) (A) (A) (A) (A) (A) (A) (A)
                 (A) (A) (A)
       Virtual   (A) (A) (A) (A) (A) (A) (A) (A) (A) (A) (A) (A)
                 (A) (A) (A) (A) (A) (A) (A) (A) (A) (A) (A) (A)
                 (A) (A) (A) (A) (A) (A) (A) (A) (A) (A) (A) (A)
                 (A) (A) (A) (A) (A) (A) (A) (A) (A) (A) (A) (A)
                 (A) (A) (A) (A) (A) (A) (A) (A) (A) (A) (A) (A)
                 (A) (A) (A) (A) (A) (A) (A) (A) (A) (A) (A) (A)
                 (A) (A) (A) (A) (A) (A) (A) (A) (A) (A) (A) (A)
                 (A) (A) (A) (A) (A) (A) (A) (A) (A) (A) (A) (A)
                 (A) (A) (A) (A) (A) (A) (A) (A) (A) (A) (A) (A)
                 (A) (A) (A) (A) (A) (A) (A) (A) (A) (A) (A) (A)
                 (A) (A) (A) (A) (A) (A) (A) (A) (A) (A) (A) (A)
                 (A) (A) (A) (A) (A) (A) (A) (A) (A) (A) (A) (A)
                 (A) (A) (A) (A) (A) (A) (A) (A) (A) (A) (A) (A)
                 (A) (A) (A) (A) (A) (A) (A) (A) (A) (A) (A) (A)
                 (A) (A) (A) (A) (A) (A) (A) (A) (A) (A) (A) (A)
                 (A) (A) (A) (A) (A) (A) (A) (A) (A) (A) (A) (A)
                 (A) (A) (A) (A) (A) (A) (A) (A) (A) (A) (A) (A)
                 (A) (A) (A) (A) (A) (A) (A) (A) (A) (A) (A) (A)
                 (A) (A) (A) (A) (A) (A) (A) (A) (A) (A) (A) (A)
                 (A) (A) (A) (A) (A) (A) (A) (A) (A) (A) (A) (A)
                 (A) (A) (A) (A) (A) (A) (A) (A) (A) (A) (A) (A)
                 (A) (A) (A) (A) (A) (A) (A) (A) (A) (A) (A) (A)
                 (A) (A) (A) (A) (A) (A) (A) (A) (A) (A) (A) (A)
                 (A) (A) (A) (A) (A) (A) (A) (A) (A) (A) (A) (A)
                 (A) (A) (A) (A) (A) (A) (A) (A) (A) (A) (A) (A)
                 (A) (A) (A) (A) (A) (A) (A) (A) (A) (A) (A) (A)
                 (A) (A) (A) (A) (A) (A) (A) (A) (A) (A) (A) (A)
                 (A) (A) (A) (A) (A) (A) (A) (A) (A) (A) (A) (A)
                 (A) (A) (A) (A) (A) (A) (A) (A) (A) (A) (A) (A)
                 (A) (A) (A) (A) (A) (A) (A) (A) (A) (A) (A) (A)
                 (A) (A) (A) (A) (A) (A) (A) (A) (A) (A) (A) (A)
                 (A) (A) (A) (A) (A) (A) (A) (A) (A) (A) (A) (A)
                 (A) (A) (A) (A) (A) (A) (A) (A) (A) (A) (A) (A)
                 (A) (A) (A) (A) (A) (A) (A) (A) (A) (A) (A) (A)
                 (A) (A) (A) (A) (A) (A) (A) (A) (A) (A) (A) (A)
                 (A) (A) (A) (A) (A) (A) (A) (A) (A) (A) (A) (A)
                 (A) (A) (A) (A) (A) (A) (A) (A) (A) (A) (A) (A)
                 (A) (A) (A) (A) (A) (A) (A) (A) (A) (A) (A) (A)
                 (A) (A) (A) (A) (A) (A) (A) (A) (A) (A) (A) (A)
                 (A) (A) (A) (A) (A) (A) (A) (A) (A) (A) (A) (A)
 The electronic state is 1-A.
 Alpha  occ. eigenvalues --  -19.63347 -19.62798 -19.62732 -10.63115 -10.58384
 Alpha  occ. eigenvalues --  -10.57410 -10.57406 -10.57311 -10.52447 -10.52292
 Alpha  occ. eigenvalues --  -10.52273 -10.52254 -10.52114  -1.20462  -1.16537
 Alpha  occ. eigenvalues --   -1.14037  -0.90756  -0.89338  -0.86294  -0.84626
 Alpha  occ. eigenvalues --   -0.74862  -0.73142  -0.72704  -0.70063  -0.66108
 Alpha  occ. eigenvalues --   -0.64373  -0.60329  -0.57731  -0.57089  -0.54557
 Alpha  occ. eigenvalues --   -0.54495  -0.52996  -0.51688  -0.50901  -0.50089
 Alpha  occ. eigenvalues --   -0.49579  -0.46233  -0.45540  -0.45421  -0.44204
 Alpha  occ. eigenvalues --   -0.42465  -0.41369  -0.40645  -0.39829  -0.39293
 Alpha  occ. eigenvalues --   -0.39017  -0.37182  -0.36768  -0.33882  -0.33157
 Alpha  occ. eigenvalues --   -0.32329
 Alpha virt. eigenvalues --    0.00494   0.01269   0.01358   0.01465   0.02697
 Alpha virt. eigenvalues --    0.02850   0.02950   0.04001   0.04036   0.04832
 Alpha virt. eigenvalues --    0.05120   0.05461   0.05729   0.05812   0.07344
 Alpha virt. eigenvalues --    0.07638   0.08012   0.08511   0.08803   0.09526
 Alpha virt. eigenvalues --    0.10622   0.10789   0.11377   0.11910   0.12381
 Alpha virt. eigenvalues --    0.12690   0.13171   0.13472   0.13817   0.13939
 Alpha virt. eigenvalues --    0.14184   0.14240   0.14791   0.14904   0.15053
 Alpha virt. eigenvalues --    0.15581   0.15951   0.16092   0.16448   0.16712
 Alpha virt. eigenvalues --    0.16985   0.17222   0.17300   0.17691   0.18070
 Alpha virt. eigenvalues --    0.18291   0.18960   0.19114   0.19309   0.19736
 Alpha virt. eigenvalues --    0.20333   0.20446   0.20604   0.21290   0.21830
 Alpha virt. eigenvalues --    0.22024   0.23145   0.23354   0.24639   0.24915
 Alpha virt. eigenvalues --    0.25723   0.26108   0.26474   0.27243   0.27609
 Alpha virt. eigenvalues --    0.27971   0.28361   0.28917   0.29541   0.30250
 Alpha virt. eigenvalues --    0.30633   0.30850   0.31233   0.31373   0.31819
 Alpha virt. eigenvalues --    0.32525   0.32699   0.33282   0.34435   0.34832
 Alpha virt. eigenvalues --    0.35247   0.35364   0.36017   0.36266   0.36428
 Alpha virt. eigenvalues --    0.36616   0.36954   0.37166   0.37558   0.37990
 Alpha virt. eigenvalues --    0.38236   0.38913   0.39685   0.40317   0.40962
 Alpha virt. eigenvalues --    0.41134   0.42133   0.42943   0.43515   0.44942
 Alpha virt. eigenvalues --    0.45823   0.49072   0.50345   0.50787   0.51297
 Alpha virt. eigenvalues --    0.52200   0.52976   0.53622   0.54777   0.55737
 Alpha virt. eigenvalues --    0.56961   0.57298   0.58361   0.58856   0.59340
 Alpha virt. eigenvalues --    0.59927   0.60838   0.61161   0.61787   0.62134
 Alpha virt. eigenvalues --    0.62263   0.63596   0.63623   0.64129   0.65005
 Alpha virt. eigenvalues --    0.65115   0.65995   0.66573   0.67056   0.67791
 Alpha virt. eigenvalues --    0.67912   0.68450   0.69080   0.69690   0.70522
 Alpha virt. eigenvalues --    0.71623   0.71828   0.72868   0.73392   0.73675
 Alpha virt. eigenvalues --    0.74078   0.74886   0.74910   0.75805   0.75981
 Alpha virt. eigenvalues --    0.76332   0.77698   0.78222   0.78643   0.79841
 Alpha virt. eigenvalues --    0.80724   0.82921   0.83314   0.85015   0.85313
 Alpha virt. eigenvalues --    0.86364   0.86824   0.88828   0.89715   0.90846
 Alpha virt. eigenvalues --    0.91535   0.92332   0.93382   0.93886   0.95907
 Alpha virt. eigenvalues --    0.97537   0.99305   0.99964   1.01095   1.01810
 Alpha virt. eigenvalues --    1.03359   1.04421   1.04643   1.05723   1.06394
 Alpha virt. eigenvalues --    1.07347   1.08173   1.09210   1.10895   1.12114
 Alpha virt. eigenvalues --    1.12446   1.13717   1.14248   1.15191   1.15608
 Alpha virt. eigenvalues --    1.17485   1.18158   1.19206   1.20101   1.20909
 Alpha virt. eigenvalues --    1.21946   1.22689   1.22746   1.23105   1.23991
 Alpha virt. eigenvalues --    1.24108   1.24672   1.26254   1.26897   1.27168
 Alpha virt. eigenvalues --    1.27637   1.28519   1.29856   1.29926   1.30369
 Alpha virt. eigenvalues --    1.31689   1.32207   1.32420   1.32644   1.34063
 Alpha virt. eigenvalues --    1.34910   1.35316   1.36303   1.36667   1.37851
 Alpha virt. eigenvalues --    1.38625   1.39559   1.40524   1.41037   1.41602
 Alpha virt. eigenvalues --    1.41980   1.43260   1.43800   1.44095   1.44575
 Alpha virt. eigenvalues --    1.46337   1.46551   1.46788   1.48495   1.48855
 Alpha virt. eigenvalues --    1.49483   1.49791   1.50569   1.51557   1.52384
 Alpha virt. eigenvalues --    1.52930   1.53413   1.53950   1.54669   1.56167
 Alpha virt. eigenvalues --    1.56447   1.57558   1.58301   1.58628   1.59393
 Alpha virt. eigenvalues --    1.59786   1.60326   1.60691   1.62584   1.62698
 Alpha virt. eigenvalues --    1.63664   1.64642   1.65612   1.65724   1.66334
 Alpha virt. eigenvalues --    1.68103   1.69057   1.69329   1.70305   1.70719
 Alpha virt. eigenvalues --    1.72110   1.75448   1.76092   1.77377   1.78420
 Alpha virt. eigenvalues --    1.79006   1.81094   1.81437   1.82374   1.83131
 Alpha virt. eigenvalues --    1.84805   1.87786   1.90689   1.93355   1.96877
 Alpha virt. eigenvalues --    2.00699   2.06801   2.13308   2.16009   2.18747
 Alpha virt. eigenvalues --    2.23887   2.27747   2.32285   2.33539   2.35984
 Alpha virt. eigenvalues --    2.41666   2.42996   2.43699   2.48771   2.51640
 Alpha virt. eigenvalues --    2.56789   2.76390   2.77923   2.78248   2.81834
 Alpha virt. eigenvalues --    2.88389   2.88590   2.92462   2.93651   2.94713
 Alpha virt. eigenvalues --    2.96423   2.97992   3.00965   3.04005   3.06799
 Alpha virt. eigenvalues --    3.07825   3.08269   3.08843   3.09906   3.11363
 Alpha virt. eigenvalues --    3.12186   3.13078   3.16759   3.17904   3.21477
 Alpha virt. eigenvalues --    3.25607   3.29779   3.31809   3.32956   3.35253
 Alpha virt. eigenvalues --    3.35553   3.37172   3.39417   3.40017   3.41164
 Alpha virt. eigenvalues --    3.42745   3.43831   3.44917   3.45439   3.47654
 Alpha virt. eigenvalues --    3.47931   3.48623   3.50783   3.51684   3.52284
 Alpha virt. eigenvalues --    3.54025   3.54654   3.54991   3.55890   3.55983
 Alpha virt. eigenvalues --    3.57081   3.58024   3.58632   3.59016   3.60796
 Alpha virt. eigenvalues --    3.61209   3.61678   3.62406   3.63749   3.64925
 Alpha virt. eigenvalues --    3.66282   3.66627   3.68186   3.69251   3.70715
 Alpha virt. eigenvalues --    3.71932   3.72043   3.72604   3.73119   3.74213
 Alpha virt. eigenvalues --    3.75204   3.75414   3.76178   3.77125   3.77362
 Alpha virt. eigenvalues --    3.78677   3.79112   3.79875   3.82203   3.84282
 Alpha virt. eigenvalues --    3.86198   3.87727   3.89580   3.91529   3.91734
 Alpha virt. eigenvalues --    3.91994   3.93272   3.93743   3.95765   3.98914
 Alpha virt. eigenvalues --    4.00744   4.02893   4.03371   4.03761   4.04312
 Alpha virt. eigenvalues --    4.05605   4.06194   4.06356   4.07193   4.07482
 Alpha virt. eigenvalues --    4.08255   4.09626   4.11110   4.11837   4.12488
 Alpha virt. eigenvalues --    4.12755   4.13062   4.13834   4.14300   4.15168
 Alpha virt. eigenvalues --    4.16259   4.17085   4.18413   4.19144   4.21203
 Alpha virt. eigenvalues --    4.21647   4.22096   4.22984   4.25790   4.27587
 Alpha virt. eigenvalues --    4.28503   4.30604   4.30749   4.31425   4.33197
 Alpha virt. eigenvalues --    4.34282   4.34694   4.35490   4.36256   4.37157
 Alpha virt. eigenvalues --    4.40339   4.43269   4.45903   4.48812   4.51897
 Alpha virt. eigenvalues --    4.59929   4.62290   4.74457   4.77337   4.88915
 Alpha virt. eigenvalues --    4.90945   4.91280   4.92822   4.99953   5.00267
 Alpha virt. eigenvalues --    5.06752   5.07937   5.08383   5.10069   5.12228
 Alpha virt. eigenvalues --    5.12469   5.12840   5.14506   5.30129   5.35460
 Alpha virt. eigenvalues --    5.39612   5.57035   5.57813   5.63603   5.86597
 Alpha virt. eigenvalues --    5.88367   6.03985   7.02377   7.05393   7.05750
 Alpha virt. eigenvalues --    7.09006   7.09457   7.12502   7.13813   7.16136
 Alpha virt. eigenvalues --    7.25121   7.35772   7.38372   7.44569   7.52868
 Alpha virt. eigenvalues --    7.55368   7.63279  23.95612  23.97909  24.07069
 Alpha virt. eigenvalues --   24.10133  24.12469  24.13787  24.14115  24.15522
 Alpha virt. eigenvalues --   24.17107  24.18293  50.15923  50.19359  50.23684
          Condensed to atoms (all electrons):
               1          2          3          4          5          6
     1  C    6.640283   0.211713   0.131565  -0.808218  -0.372911   0.043742
     2  C    0.211713   5.607898   0.010497   0.014724  -0.060755  -0.008096
     3  C    0.131565   0.010497   6.364897  -0.189875  -0.089852  -0.049907
     4  C   -0.808218   0.014724  -0.189875   7.716101  -0.732049  -0.036809
     5  C   -0.372911  -0.060755  -0.089852  -0.732049   6.785264  -0.080117
     6  O    0.043742  -0.008096  -0.049907  -0.036809  -0.080117   8.420373
     7  C    0.007027  -0.000795   0.025543  -0.120649  -0.000661   0.028787
     8  O   -0.054831   0.127196   0.001523  -0.013160  -0.057773  -0.000040
     9  C   -0.001307   0.000927  -0.054749  -0.019653  -0.004764  -0.055764
    10  C   -0.033067  -0.105181  -0.467000  -0.573953   0.013568   0.298008
    11  C    0.009887   0.001773   0.035598   0.025659   0.001327  -0.011958
    12  C   -0.176503  -0.256613   0.004306   0.141497   0.098578   0.001112
    13  O   -0.168741   0.021580  -0.239995   0.297776  -0.128394   0.012421
    14  H    0.464280   0.013935  -0.000182   0.009702  -0.029259   0.000455
    15  H    0.448560   0.004611  -0.000979  -0.059658  -0.000109  -0.001165
    16  H   -0.005109   0.418076  -0.001439  -0.010719   0.006297  -0.000966
    17  H   -0.026134   0.444763   0.002829   0.053191  -0.092456   0.001252
    18  H   -0.000818   0.000252   0.506315   0.009203   0.004022  -0.008415
    19  H    0.003844   0.001137   0.428318  -0.004935   0.003619   0.005783
    20  H   -0.028890  -0.011032  -0.040944   0.405733   0.057003  -0.000501
    21  H    0.006895  -0.012115   0.002633  -0.052748   0.442028   0.004873
    22  H   -0.047320  -0.106809  -0.000578   0.026754   0.448136   0.000878
    23  H    0.001230  -0.000073  -0.062434  -0.007590  -0.000386  -0.002946
    24  H   -0.000943   0.000216  -0.049651   0.006227   0.000797   0.000985
    25  H    0.000587   0.000213  -0.007503   0.007584  -0.002264  -0.000734
    26  H   -0.000590  -0.000037   0.005256  -0.001877   0.000680   0.006764
    27  H   -0.042998  -0.006470  -0.041823   0.076744   0.019732  -0.055850
    28  H    0.004864   0.000520   0.017629   0.018538  -0.004971  -0.025128
    29  H   -0.000444  -0.000261   0.007733  -0.006796   0.003953  -0.072779
    30  H   -0.070192  -0.009844   0.002782   0.040457  -0.028001  -0.000060
    31  H    0.000357   0.010708   0.000886  -0.015034  -0.008596   0.000331
               7          8          9         10         11         12
     1  C    0.007027  -0.054831  -0.001307  -0.033067   0.009887  -0.176503
     2  C   -0.000795   0.127196   0.000927  -0.105181   0.001773  -0.256613
     3  C    0.025543   0.001523  -0.054749  -0.467000   0.035598   0.004306
     4  C   -0.120649  -0.013160  -0.019653  -0.573953   0.025659   0.141497
     5  C   -0.000661  -0.057773  -0.004764   0.013568   0.001327   0.098578
     6  O    0.028787  -0.000040  -0.055764   0.298008  -0.011958   0.001112
     7  C    5.681099   0.000049   0.010644   0.047628  -0.065576  -0.000089
     8  O    0.000049   8.439150  -0.000046   0.011002   0.000156   0.130697
     9  C    0.010644  -0.000046   5.553115   0.101866   0.044725   0.000679
    10  C    0.047628   0.011002   0.101866   6.489184  -0.161501  -0.004233
    11  C   -0.065576   0.000156   0.044725  -0.161501   5.481901  -0.003250
    12  C   -0.000089   0.130697   0.000679  -0.004233  -0.003250   5.635931
    13  O    0.023376  -0.000007   0.006180   0.093043  -0.002994   0.021918
    14  H   -0.000980  -0.002206   0.000127   0.006168  -0.000136  -0.094939
    15  H    0.002348   0.007246  -0.000361   0.013856  -0.001614  -0.012468
    16  H    0.000040  -0.072017  -0.000248  -0.005729   0.000083   0.005333
    17  H    0.000341  -0.042903   0.000204   0.020872  -0.000181  -0.006367
    18  H   -0.020284  -0.000026  -0.010092  -0.110967  -0.006127  -0.000131
    19  H   -0.033580   0.000005   0.002403  -0.028717   0.004370  -0.002274
    20  H   -0.006036  -0.004230  -0.006582   0.007399   0.004102  -0.007222
    21  H   -0.001510   0.007085   0.000359  -0.013531   0.000127   0.002660
    22  H    0.001394  -0.001962   0.000279   0.028982  -0.001059   0.019051
    23  H    0.428744   0.000004  -0.029316   0.038352   0.006963   0.000127
    24  H    0.523511  -0.000004  -0.066190  -0.019883  -0.012742  -0.000402
    25  H   -0.013923  -0.000000   0.481217  -0.015698  -0.077046  -0.000037
    26  H   -0.063746  -0.000001   0.465292   0.005653  -0.036052   0.000042
    27  H   -0.032725  -0.000037   0.012699   0.429882   0.009701   0.002804
    28  H   -0.008307   0.000008  -0.056298  -0.044582   0.468499  -0.000246
    29  H    0.006497   0.000012  -0.040484   0.006666   0.440807  -0.000101
    30  H    0.000342  -0.042106   0.000206   0.017000  -0.000369   0.442750
    31  H   -0.000012  -0.071876   0.000006  -0.001612   0.000280   0.419560
              13         14         15         16         17         18
     1  C   -0.168741   0.464280   0.448560  -0.005109  -0.026134  -0.000818
     2  C    0.021580   0.013935   0.004611   0.418076   0.444763   0.000252
     3  C   -0.239995  -0.000182  -0.000979  -0.001439   0.002829   0.506315
     4  C    0.297776   0.009702  -0.059658  -0.010719   0.053191   0.009203
     5  C   -0.128394  -0.029259  -0.000109   0.006297  -0.092456   0.004022
     6  O    0.012421   0.000455  -0.001165  -0.000966   0.001252  -0.008415
     7  C    0.023376  -0.000980   0.002348   0.000040   0.000341  -0.020284
     8  O   -0.000007  -0.002206   0.007246  -0.072017  -0.042903  -0.000026
     9  C    0.006180   0.000127  -0.000361  -0.000248   0.000204  -0.010092
    10  C    0.093043   0.006168   0.013856  -0.005729   0.020872  -0.110967
    11  C   -0.002994  -0.000136  -0.001614   0.000083  -0.000181  -0.006127
    12  C    0.021918  -0.094939  -0.012468   0.005333  -0.006367  -0.000131
    13  O    8.432098  -0.006621   0.004652  -0.000973  -0.001907   0.001117
    14  H   -0.006621   0.454849  -0.016866  -0.001199   0.002920   0.000211
    15  H    0.004652  -0.016866   0.480756   0.001575  -0.002822   0.000388
    16  H   -0.000973  -0.001199   0.001575   0.485552  -0.020751   0.000047
    17  H   -0.001907   0.002920  -0.002822  -0.020751   0.502583   0.000017
    18  H    0.001117   0.000211   0.000388   0.000047   0.000017   0.457972
    19  H   -0.001986   0.000173  -0.000958   0.000042  -0.000087  -0.018227
    20  H   -0.012127  -0.003610  -0.005625   0.003422  -0.016527  -0.000833
    21  H    0.004672  -0.004097   0.001049  -0.009263  -0.002027   0.000167
    22  H   -0.006830   0.004975  -0.004048  -0.007753   0.006345  -0.000171
    23  H   -0.002904  -0.000062   0.000080  -0.000007   0.000024  -0.002795
    24  H    0.000403   0.000087   0.000202   0.000016  -0.000037   0.004349
    25  H    0.003090   0.000030   0.000103  -0.000018   0.000013   0.001616
    26  H    0.000168  -0.000025  -0.000089   0.000001  -0.000010  -0.003251
    27  H   -0.028699   0.000726  -0.004808   0.000121   0.000780  -0.002188
    28  H    0.004204  -0.000021   0.000428  -0.000048   0.000090   0.000429
    29  H   -0.002691   0.000034  -0.000098   0.000063  -0.000066  -0.000759
    30  H   -0.001511   0.005780  -0.001558  -0.004812   0.015372   0.000025
    31  H   -0.000852  -0.007485  -0.009800   0.001110  -0.004454  -0.000032
              19         20         21         22         23         24
     1  C    0.003844  -0.028890   0.006895  -0.047320   0.001230  -0.000943
     2  C    0.001137  -0.011032  -0.012115  -0.106809  -0.000073   0.000216
     3  C    0.428318  -0.040944   0.002633  -0.000578  -0.062434  -0.049651
     4  C   -0.004935   0.405733  -0.052748   0.026754  -0.007590   0.006227
     5  C    0.003619   0.057003   0.442028   0.448136  -0.000386   0.000797
     6  O    0.005783  -0.000501   0.004873   0.000878  -0.002946   0.000985
     7  C   -0.033580  -0.006036  -0.001510   0.001394   0.428744   0.523511
     8  O    0.000005  -0.004230   0.007085  -0.001962   0.000004  -0.000004
     9  C    0.002403  -0.006582   0.000359   0.000279  -0.029316  -0.066190
    10  C   -0.028717   0.007399  -0.013531   0.028982   0.038352  -0.019883
    11  C    0.004370   0.004102   0.000127  -0.001059   0.006963  -0.012742
    12  C   -0.002274  -0.007222   0.002660   0.019051   0.000127  -0.000402
    13  O   -0.001986  -0.012127   0.004672  -0.006830  -0.002904   0.000403
    14  H    0.000173  -0.003610  -0.004097   0.004975  -0.000062   0.000087
    15  H   -0.000958  -0.005625   0.001049  -0.004048   0.000080   0.000202
    16  H    0.000042   0.003422  -0.009263  -0.007753  -0.000007   0.000016
    17  H   -0.000087  -0.016527  -0.002027   0.006345   0.000024  -0.000037
    18  H   -0.018227  -0.000833   0.000167  -0.000171  -0.002795   0.004349
    19  H    0.473724   0.000774  -0.000341  -0.000192  -0.010794  -0.006024
    20  H    0.000774   0.422282  -0.006449  -0.003204  -0.000233   0.000490
    21  H   -0.000341  -0.006449   0.474522  -0.018198  -0.000009   0.000010
    22  H   -0.000192  -0.003204  -0.018198   0.465640   0.000034  -0.000021
    23  H   -0.010794  -0.000233  -0.000009   0.000034   0.455946   0.000250
    24  H   -0.006024   0.000490   0.000010  -0.000021   0.000250   0.449664
    25  H   -0.001667  -0.000442  -0.000062   0.000009  -0.000833   0.002584
    26  H    0.001793   0.000266   0.000051  -0.000004  -0.008828  -0.005458
    27  H    0.001821  -0.009871  -0.000551   0.000656  -0.001950  -0.006450
    28  H   -0.000007  -0.002588   0.000226   0.000107  -0.001924   0.002010
    29  H    0.001281   0.000610  -0.000908  -0.000095   0.000678  -0.002180
    30  H    0.000023  -0.015722  -0.002554   0.003005   0.000017   0.000008
    31  H    0.000063   0.000169   0.001732  -0.001588   0.000006  -0.000034
              25         26         27         28         29         30
     1  C    0.000587  -0.000590  -0.042998   0.004864  -0.000444  -0.070192
     2  C    0.000213  -0.000037  -0.006470   0.000520  -0.000261  -0.009844
     3  C   -0.007503   0.005256  -0.041823   0.017629   0.007733   0.002782
     4  C    0.007584  -0.001877   0.076744   0.018538  -0.006796   0.040457
     5  C   -0.002264   0.000680   0.019732  -0.004971   0.003953  -0.028001
     6  O   -0.000734   0.006764  -0.055850  -0.025128  -0.072779  -0.000060
     7  C   -0.013923  -0.063746  -0.032725  -0.008307   0.006497   0.000342
     8  O   -0.000000  -0.000001  -0.000037   0.000008   0.000012  -0.042106
     9  C    0.481217   0.465292   0.012699  -0.056298  -0.040484   0.000206
    10  C   -0.015698   0.005653   0.429882  -0.044582   0.006666   0.017000
    11  C   -0.077046  -0.036052   0.009701   0.468499   0.440807  -0.000369
    12  C   -0.000037   0.000042   0.002804  -0.000246  -0.000101   0.442750
    13  O    0.003090   0.000168  -0.028699   0.004204  -0.002691  -0.001511
    14  H    0.000030  -0.000025   0.000726  -0.000021   0.000034   0.005780
    15  H    0.000103  -0.000089  -0.004808   0.000428  -0.000098  -0.001558
    16  H   -0.000018   0.000001   0.000121  -0.000048   0.000063  -0.004812
    17  H    0.000013  -0.000010   0.000780   0.000090  -0.000066   0.015372
    18  H    0.001616  -0.003251  -0.002188   0.000429  -0.000759   0.000025
    19  H   -0.001667   0.001793   0.001821  -0.000007   0.001281   0.000023
    20  H   -0.000442   0.000266  -0.009871  -0.002588   0.000610  -0.015722
    21  H   -0.000062   0.000051  -0.000551   0.000226  -0.000908  -0.002554
    22  H    0.000009  -0.000004   0.000656   0.000107  -0.000095   0.003005
    23  H   -0.000833  -0.008828  -0.001950  -0.001924   0.000678   0.000017
    24  H    0.002584  -0.005458  -0.006450   0.002010  -0.002180   0.000008
    25  H    0.471936  -0.011452  -0.001096   0.004679  -0.003321   0.000006
    26  H   -0.011452   0.472809   0.000845  -0.000102  -0.010058  -0.000015
    27  H   -0.001096   0.000845   0.433249  -0.003859  -0.000994  -0.000747
    28  H    0.004679  -0.000102  -0.003859   0.476993  -0.006742   0.000158
    29  H   -0.003321  -0.010058  -0.000994  -0.006742   0.476069   0.000006
    30  H    0.000006  -0.000015  -0.000747   0.000158   0.000006   0.500252
    31  H    0.000002   0.000002   0.000160   0.000001  -0.000001  -0.019087
              31
     1  C    0.000357
     2  C    0.010708
     3  C    0.000886
     4  C   -0.015034
     5  C   -0.008596
     6  O    0.000331
     7  C   -0.000012
     8  O   -0.071876
     9  C    0.000006
    10  C   -0.001612
    11  C    0.000280
    12  C    0.419560
    13  O   -0.000852
    14  H   -0.007485
    15  H   -0.009800
    16  H    0.001110
    17  H   -0.004454
    18  H   -0.000032
    19  H    0.000063
    20  H    0.000169
    21  H    0.001732
    22  H   -0.001588
    23  H    0.000006
    24  H   -0.000034
    25  H    0.000002
    26  H    0.000002
    27  H    0.000160
    28  H    0.000001
    29  H   -0.000001
    30  H   -0.019087
    31  H    0.484215
 Mulliken charges:
               1
     1  C   -0.135820
     2  C   -0.312659
     3  C   -0.251400
     4  C   -0.196166
     5  C   -0.191685
     6  O   -0.414528
     7  C   -0.418499
     8  O   -0.360907
     9  C   -0.335076
    10  C   -0.043477
    11  C   -0.155354
    12  C   -0.362168
    13  O   -0.319465
    14  H    0.203235
    15  H    0.157173
    16  H    0.219272
    17  H    0.165135
    18  H    0.198985
    19  H    0.180618
    20  H    0.280416
    21  H    0.175275
    22  H    0.193588
    23  H    0.200630
    24  H    0.178210
    25  H    0.162429
    26  H    0.181974
    27  H    0.251195
    28  H    0.155440
    29  H    0.204370
    30  H    0.168388
    31  H    0.220875
 Sum of Mulliken charges =  -0.00000
 Mulliken charges with hydrogens summed into heavy atoms:
               1
     1  C    0.224587
     2  C    0.071748
     3  C    0.128203
     4  C    0.084249
     5  C    0.177178
     6  O   -0.414528
     7  C   -0.039659
     8  O   -0.360907
     9  C    0.009326
    10  C    0.207718
    11  C    0.204455
    12  C    0.027095
    13  O   -0.319465
 Electronic spatial extent (au):  <R**2>=           3414.3272
 Charge=              0.0000 electrons
 Dipole moment (field-independent basis, Debye):
    X=              3.3047    Y=             -0.5085    Z=              3.4343  Tot=              4.7932
 Quadrupole moment (field-independent basis, Debye-Ang):
   XX=            -81.7249   YY=            -76.4648   ZZ=            -78.6881
   XY=             -1.0880   XZ=             -0.5238   YZ=             -1.2850
 Traceless Quadrupole moment (field-independent basis, Debye-Ang):
   XX=             -2.7656   YY=              2.4944   ZZ=              0.2712
   XY=             -1.0880   XZ=             -0.5238   YZ=             -1.2850
 Octapole moment (field-independent basis, Debye-Ang**2):
  XXX=            102.6616  YYY=              4.2832  ZZZ=              3.1420  XYY=            -10.7954
  XXY=              3.4369  XXZ=             14.2589  XZZ=             -3.5124  YZZ=              1.5170
  YYZ=              2.3222  XYZ=              9.1523
 Hexadecapole moment (field-independent basis, Debye-Ang**3):
 XXXX=          -3960.5389 YYYY=           -555.6580 ZZZZ=           -270.7890 XXXY=             29.5739
 XXXZ=            -19.8443 YYYX=              9.2103 YYYZ=             -1.6101 ZZZX=             -0.0260
 ZZZY=             -0.4140 XXYY=           -647.3898 XXZZ=           -635.6143 YYZZ=           -139.8411
 XXYZ=             -8.7812 YYXZ=              4.1332 ZZXY=              0.7941
 N-N= 8.766522943859D+02 E-N=-3.195417109238D+03  KE= 6.153701759107D+02
 D1PCM: PCM CHGder 1st derivatives, ID1Alg=3 FixD1E=F DoIter=F DoCFld=F I1PDM=0.
 Calling FoFJK, ICntrl=      2127 FMM=F ISym2X=0 I1Cent= 0 IOpClX= 0 NMat=1 NMatS=1 NMatT=0.
 ***** Axes restored to original set *****
 -------------------------------------------------------------------
 Center     Atomic                   Forces (Hartrees/Bohr)
 Number     Number              X              Y              Z
 -------------------------------------------------------------------
      1        6           0.000243583    0.002813800   -0.002275086
      2        6          -0.006119966   -0.002196818    0.000733276
      3        6          -0.001146849    0.000667670   -0.003335268
      4        6           0.006013494   -0.000077062    0.000975754
      5        6           0.000486436   -0.000302509   -0.003608706
      6        8           0.006543485    0.010960688    0.005375952
      7        6           0.002551864    0.003254973    0.001051075
      8        8           0.010217771   -0.001940570    0.005381043
      9        6           0.002088695   -0.001980773   -0.001737273
     10        6          -0.005768634   -0.005611662    0.000562121
     11        6          -0.004467822   -0.004570177    0.002058522
     12        6          -0.006248028    0.000040114    0.001813612
     13        8           0.000518989   -0.003793181    0.011797379
     14        1           0.000608950   -0.000866195    0.003685720
     15        1          -0.001916503   -0.001706679   -0.002181301
     16        1           0.002230410    0.002692501    0.002896455
     17        1          -0.001744112    0.002368614   -0.004823975
     18        1           0.000356426    0.002084518    0.003276950
     19        1           0.001055125   -0.002971031   -0.000406603
     20        1          -0.000926253    0.002986296   -0.005805312
     21        1          -0.002380988    0.002639435   -0.000063368
     22        1           0.000720069   -0.002294898    0.002976128
     23        1          -0.001810135   -0.001197978    0.001507360
     24        1           0.000670008   -0.000809467   -0.003202645
     25        1           0.000290607    0.001196027    0.003128788
     26        1          -0.002184417    0.000380254   -0.001637242
     27        1           0.000083542   -0.002619425   -0.007928617
     28        1          -0.000152499   -0.002258344   -0.005184475
     29        1          -0.000734256    0.004544031    0.000151950
     30        1          -0.001737608    0.002223128   -0.004899984
     31        1           0.002658614   -0.003655280   -0.000282229
 -------------------------------------------------------------------
 Cartesian Forces:  Max     0.011797379 RMS     0.003549175

 GradGradGradGradGradGradGradGradGradGradGradGradGradGradGradGradGradGrad
 Berny optimization.
 FormGI is forming the generalized inverse of G from B-inverse, IUseBI=4.
 Internal  Forces:  Max     0.010392727 RMS     0.002118063
 Search for a local minimum.
 Step number   1 out of a maximum of  186
 All quantities printed in internal units (Hartrees-Bohrs-Radians)
 Mixed Optimization -- RFO/linear search
 Second derivative matrix not updated -- first step.
 ITU=  0
     Eigenvalues ---    0.00610   0.00702   0.00728   0.00758   0.01433
     Eigenvalues ---    0.01491   0.01881   0.02722   0.02736   0.03109
     Eigenvalues ---    0.03304   0.04116   0.04167   0.04754   0.04775
     Eigenvalues ---    0.04910   0.04922   0.05088   0.05150   0.05192
     Eigenvalues ---    0.05340   0.05704   0.05741   0.06134   0.06168
     Eigenvalues ---    0.06296   0.06300   0.06446   0.07691   0.07951
     Eigenvalues ---    0.07953   0.07961   0.07964   0.07975   0.08362
     Eigenvalues ---    0.08751   0.08974   0.09944   0.10896   0.11485
     Eigenvalues ---    0.11705   0.11713   0.11753   0.12330   0.13148
     Eigenvalues ---    0.14250   0.14515   0.16091   0.16725   0.17744
     Eigenvalues ---    0.19198   0.21047   0.21858   0.25000   0.28611
     Eigenvalues ---    0.28642   0.28775   0.28991   0.29143   0.29301
     Eigenvalues ---    0.30082   0.30554   0.35034   0.35064   0.35066
     Eigenvalues ---    0.35081   0.35126   0.35133   0.35176   0.35191
     Eigenvalues ---    0.35193   0.35243   0.35257   0.35335   0.35367
     Eigenvalues ---    0.35375   0.35493   0.35869   0.35870   0.35881
     Eigenvalues ---    0.41193   0.41487   0.41991   0.42077   0.42574
     Eigenvalues ---    0.480751000.000001000.000001000.000001000.00000
     Eigenvalues --- 1000.000001000.000001000.000001000.000001000.00000
     Eigenvalues --- 1000.000001000.000001000.000001000.000001000.00000
     Eigenvalues --- 1000.000001000.000001000.000001000.000001000.00000
     Eigenvalues --- 1000.000001000.000001000.000001000.000001000.00000
     Eigenvalues --- 1000.000001000.000001000.000001000.000001000.00000
     Eigenvalues --- 1000.000001000.000001000.000001000.000001000.00000
     Eigenvalues --- 1000.000001000.000001000.000001000.000001000.00000
     Eigenvalues --- 1000.000001000.000001000.000001000.000001000.00000
     Eigenvalues --- 1000.000001000.000001000.000001000.000001000.00000
     Eigenvalues --- 1000.000001000.000001000.000001000.000001000.00000
     Eigenvalues --- 1000.000001000.000001000.000001000.000001000.00000
     Eigenvalues --- 1000.000001000.000001000.000001000.000001000.00000
     Eigenvalues --- 1000.000001000.000001000.000001000.000001000.00000
     Eigenvalues --- 1000.000001000.000001000.000001000.000001000.00000
     Eigenvalues --- 1000.000001000.000001000.000001000.000001000.00000
     Eigenvalues --- 1000.000001000.000001000.000001000.000001000.00000
     Eigenvalues --- 1000.000001000.000001000.000001000.000001000.00000
     Eigenvalues --- 1000.000001000.000001000.000001000.000001000.00000
     Eigenvalues --- 1000.000001000.000001000.000001000.000001000.00000
 RFO step:  Lambda=-2.78583069D-03 EMin= 6.10429449D-03
 Linear search not attempted -- first point.
 Iteration  1 RMS(Cart)=  0.03673474 RMS(Int)=  0.00041503
 Iteration  2 RMS(Cart)=  0.00098984 RMS(Int)=  0.00001839
 Iteration  3 RMS(Cart)=  0.00000020 RMS(Int)=  0.00001839
 Iteration  1 RMS(Cart)=  0.00000321 RMS(Int)=  0.00000074
 Iteration  2 RMS(Cart)=  0.00000178 RMS(Int)=  0.00000082
 Iteration  3 RMS(Cart)=  0.00000099 RMS(Int)=  0.00000093
 Variable       Old X    -DE/DX   Delta X   Delta X   Delta X     New X
                                 (Linear)    (Quad)   (Total)
    R1        2.87846  -0.00160   0.00000  -0.00593  -0.00595   2.87251
    R2        2.87764  -0.00051   0.00000  -0.00161  -0.00161   2.87602
    R3        2.05363   0.00369   0.00000   0.01041   0.01041   2.06404
    R4        2.05260   0.00331   0.00000   0.00931   0.00931   2.06190
    R5        2.87837  -0.00050   0.00000  -0.00164  -0.00164   2.87672
    R6        2.67220   0.00605   0.00000   0.01433   0.01434   2.68654
    R7        2.04285   0.00453   0.00000   0.01253   0.01253   2.05539
    R8        2.05571   0.00554   0.00000   0.01569   0.01569   2.07140
    R9        2.89352  -0.00107   0.00000  -0.00414  -0.00417   2.88935
   R10        2.86537  -0.00156   0.00000  -0.00472  -0.00471   2.86066
   R11        2.05391   0.00371   0.00000   0.01048   0.01048   2.06439
   R12        2.05071   0.00315   0.00000   0.00883   0.00883   2.05954
   R13        2.87768  -0.00185   0.00000  -0.00674  -0.00675   2.87092
   R14        2.68825   0.00511   0.00000   0.01207   0.01207   2.70032
   R15        2.04882   0.00655   0.00000   0.01831   0.01831   2.06713
   R16        2.05134   0.00349   0.00000   0.00981   0.00981   2.06115
   R17        2.05366   0.00368   0.00000   0.01038   0.01038   2.06403
   R18        2.66247   0.00835   0.00000   0.01966   0.01969   2.68216
   R19        2.68094   0.00581   0.00000   0.01390   0.01393   2.69486
   R20        2.89004  -0.00073   0.00000  -0.00373  -0.00376   2.88628
   R21        2.05084   0.00264   0.00000   0.00740   0.00740   2.05824
   R22        2.05620   0.00326   0.00000   0.00923   0.00923   2.06543
   R23        2.67227   0.00606   0.00000   0.01434   0.01436   2.68663
   R24        2.87275  -0.00069   0.00000  -0.00249  -0.00249   2.87027
   R25        2.05471   0.00326   0.00000   0.00921   0.00921   2.06391
   R26        2.05282   0.00275   0.00000   0.00775   0.00775   2.06056
   R27        2.61859   0.00552   0.00000   0.01142   0.01142   2.63001
   R28        2.05459   0.00830   0.00000   0.02344   0.02344   2.07803
   R29        2.05543   0.00557   0.00000   0.01576   0.01576   2.07118
   R30        2.04268   0.00460   0.00000   0.01271   0.01271   2.05539
   R31        2.05568   0.00554   0.00000   0.01567   0.01567   2.07135
   R32        2.04288   0.00452   0.00000   0.01251   0.01251   2.05539
    A1        1.92546  -0.00034   0.00000  -0.00617  -0.00623   1.91923
    A2        1.90402   0.00016   0.00000  -0.00331  -0.00329   1.90074
    A3        1.92819  -0.00065   0.00000  -0.00318  -0.00316   1.92503
    A4        1.91032   0.00005   0.00000   0.00148   0.00146   1.91178
    A5        1.91164   0.00049   0.00000   0.00441   0.00442   1.91606
    A6        1.88364   0.00030   0.00000   0.00706   0.00703   1.89067
    A7        1.94295   0.00115   0.00000   0.00467   0.00466   1.94761
    A8        1.93622  -0.00032   0.00000  -0.00280  -0.00280   1.93341
    A9        1.92984  -0.00130   0.00000  -0.00836  -0.00837   1.92147
   A10        1.86070  -0.00070   0.00000  -0.00068  -0.00067   1.86003
   A11        1.90316   0.00063   0.00000   0.00441   0.00443   1.90759
   A12        1.88881   0.00059   0.00000   0.00317   0.00314   1.89195
   A13        1.92493  -0.00059   0.00000  -0.00680  -0.00685   1.91808
   A14        1.92443   0.00081   0.00000   0.00416   0.00413   1.92857
   A15        1.93660  -0.00008   0.00000   0.00294   0.00294   1.93954
   A16        1.88966  -0.00050   0.00000  -0.00621  -0.00620   1.88346
   A17        1.90316   0.00013   0.00000  -0.00101  -0.00098   1.90218
   A18        1.88391   0.00023   0.00000   0.00693   0.00690   1.89081
   A19        1.91746   0.00223   0.00000   0.00203   0.00199   1.91945
   A20        1.91399  -0.00057   0.00000   0.00040   0.00042   1.91440
   A21        1.91005  -0.00078   0.00000  -0.00142  -0.00142   1.90863
   A22        1.91526  -0.00076   0.00000  -0.00146  -0.00144   1.91382
   A23        1.90665  -0.00079   0.00000  -0.00336  -0.00335   1.90330
   A24        1.90030   0.00065   0.00000   0.00381   0.00380   1.90410
   A25        1.92466  -0.00033   0.00000  -0.00609  -0.00615   1.91851
   A26        1.91087   0.00053   0.00000   0.00492   0.00492   1.91579
   A27        1.90978   0.00004   0.00000   0.00138   0.00136   1.91114
   A28        1.92906  -0.00071   0.00000  -0.00387  -0.00385   1.92521
   A29        1.90511   0.00019   0.00000  -0.00294  -0.00292   1.90220
   A30        1.88380   0.00029   0.00000   0.00689   0.00687   1.89067
   A31        1.98113  -0.00499   0.00000  -0.02602  -0.02595   1.95518
   A32        1.92639   0.00206   0.00000  -0.00118  -0.00126   1.92513
   A33        1.91980  -0.00063   0.00000  -0.00046  -0.00043   1.91937
   A34        1.90931  -0.00082   0.00000  -0.00218  -0.00217   1.90714
   A35        1.93155  -0.00052   0.00000   0.00087   0.00090   1.93245
   A36        1.90886  -0.00077   0.00000  -0.00182  -0.00181   1.90706
   A37        1.86687   0.00060   0.00000   0.00489   0.00488   1.87175
   A38        1.97183  -0.00459   0.00000  -0.02508  -0.02504   1.94679
   A39        1.92273   0.00012   0.00000  -0.00426  -0.00434   1.91839
   A40        1.91877   0.00053   0.00000   0.00201   0.00203   1.92080
   A41        1.93551  -0.00061   0.00000  -0.00086  -0.00085   1.93466
   A42        1.90345  -0.00038   0.00000  -0.00162  -0.00160   1.90185
   A43        1.90621   0.00006   0.00000  -0.00033  -0.00030   1.90591
   A44        1.87632   0.00028   0.00000   0.00526   0.00524   1.88157
   A45        1.93152   0.00153   0.00000   0.00750   0.00749   1.93901
   A46        1.90958  -0.00004   0.00000  -0.00122  -0.00121   1.90837
   A47        1.93220  -0.00069   0.00000  -0.00303  -0.00302   1.92918
   A48        1.88323  -0.00173   0.00000  -0.00975  -0.00974   1.87349
   A49        1.88833   0.00015   0.00000   0.00001   0.00001   1.88834
   A50        1.91828   0.00077   0.00000   0.00641   0.00641   1.92469
   A51        1.93437   0.00091   0.00000   0.00314   0.00315   1.93751
   A52        1.90348   0.00078   0.00000   0.00473   0.00474   1.90821
   A53        1.85223  -0.00073   0.00000  -0.00021  -0.00022   1.85201
   A54        1.93107  -0.00133   0.00000  -0.00787  -0.00789   1.92318
   A55        1.95041  -0.00008   0.00000  -0.00189  -0.00189   1.94852
   A56        1.88983   0.00051   0.00000   0.00263   0.00261   1.89244
   A57        1.94052   0.00110   0.00000   0.00463   0.00462   1.94514
   A58        1.93073  -0.00129   0.00000  -0.00839  -0.00840   1.92233
   A59        1.93705  -0.00032   0.00000  -0.00281  -0.00281   1.93424
   A60        1.90373   0.00065   0.00000   0.00435   0.00437   1.90810
   A61        1.86048  -0.00069   0.00000  -0.00049  -0.00049   1.86000
   A62        1.88918   0.00058   0.00000   0.00313   0.00310   1.89229
   A63        2.04358  -0.01039   0.00000  -0.04111  -0.04111   2.00247
    D1       -0.91714   0.00005   0.00000  -0.00859  -0.00857  -0.92572
    D2       -3.02355  -0.00006   0.00000  -0.00832  -0.00831  -3.03186
    D3        1.17620  -0.00003   0.00000  -0.01235  -0.01235   1.16385
    D4        1.18187   0.00001   0.00000  -0.01266  -0.01264   1.16923
    D5       -0.92454  -0.00010   0.00000  -0.01238  -0.01238  -0.93692
    D6       -3.00797  -0.00007   0.00000  -0.01642  -0.01641  -3.02439
[...]
 0143,0.00025622,-0.00006867,0.00002568,0.00000028,-0.00000139,0.000001
 11,-0.00000157,0.00000005,0.00000036,0.00000419,0.00000117,-0.00000072
 ,-0.00000038,-0.00000004,-0.00000052,0.00041211,-0.00004230,-0.0000213
 0,0.00013848,-0.00005818,0.00013019,0.00000003,0.00000252,-0.00000186,
 -0.00000010,0.00000248,0.00000012,0.00000129,-0.00000024,0.00000286,-0
 .00001890,-0.00053301,0.00051734,-0.00031706,0.00071825,0.00120517,-0.
 04032662,0.09991007,0.28699109,-0.00003695,-0.00002549,-0.00000117,0.0
 0001032,-0.00001200,-0.00003204,0.00109750,0.00087064,0.00034133,0.000
 24668,0.00005573,-0.00011459,-0.00004236,-0.00000112,0.00004705,-0.007
 37475,-0.00141572,0.00187795,-0.00272101,0.00064851,-0.00121804,-0.000
 01557,0.00000008,0.00000379,-0.22469257,0.03784071,-0.11935328,0.00127
 226,-0.00219402,0.00017930,-0.01722604,0.00669634,-0.01649917,0.000008
 93,0.00003019,-0.00000393,-0.00057202,0.00029433,-0.00019301,-0.000007
 89,0.00000932,0.00000136,0.00000271,0.00000410,0.00000182,-0.00001324,
 -0.00000371,0.00000395,-0.00000047,-0.00000063,0.00000315,-0.00006632,
 -0.00005161,-0.00011306,-0.00018951,-0.00013250,-0.00022532,0.00000043
 ,0.00000266,-0.00002144,0.00000121,0.00000480,0.00000048,-0.00000235,-
 0.00000169,-0.00000728,0.00034660,0.00036634,0.00005541,0.00017750,-0.
 00000238,0.00016102,0.00509489,-0.00169104,0.00271178,0.24304453,0.000
 00416,0.00001087,-0.00001041,0.00000055,0.00000985,0.00001021,-0.00011
 838,-0.00680659,-0.00063559,0.00003910,0.00003251,0.00005920,0.0000302
 1,0.00000125,-0.00001983,-0.00537622,0.00014202,0.00121062,0.02802968,
 -0.00520762,0.01838763,-0.00000037,0.00000024,-0.00000021,0.03727379,-
 0.05432784,0.02627831,-0.00073392,-0.00182027,0.00053070,-0.00925667,0
 .00243930,-0.01019294,-0.00000065,-0.00000566,0.00000207,0.00009769,0.
 00047899,-0.00022640,-0.00000395,0.00000044,0.00000138,-0.00000162,-0.
 00000121,0.00000120,0.00000420,0.00000066,-0.00000161,-0.00000004,0.00
 000031,-0.00000067,-0.00015544,0.00010940,0.00008723,0.00197606,-0.000
 34561,0.00076812,0.00001878,0.00000152,-0.00001739,-0.00000202,0.00000
 436,0.00000066,-0.00000052,0.00000043,-0.00000061,-0.00075880,0.001394
 78,0.00002493,-0.00033322,0.00162407,-0.00047310,-0.01043583,0.0016309
 8,-0.00586513,-0.04167368,0.05987117,0.00000644,0.00000181,0.00000254,
 -0.00000122,-0.00000080,0.00000234,0.00035387,0.00085822,0.00112586,-0
 .00004576,-0.00001630,-0.00000336,0.00000023,-0.00000034,-0.00000088,0
 .00423451,0.00096412,0.00055701,-0.00040828,-0.00058472,-0.00168907,0.
 00000284,0.00000028,-0.00000041,-0.12208717,0.02682926,-0.13230370,-0.
 00004604,0.00094575,-0.00026539,0.01029487,-0.00394553,0.00743107,-0.0
 0000189,-0.00000417,-0.00000040,0.00006855,-0.00025226,0.00012973,0.00
 000260,-0.00000219,-0.00000154,0.00000010,-0.00000071,-0.00000021,0.00
 000104,0.00000030,-0.00000035,-0.00000002,-0.00000026,0.00000001,0.000
 32328,-0.00000813,0.00022937,-0.00046152,-0.00002890,0.00011650,-0.000
 00024,-0.00000142,0.00000875,0.00000173,-0.00000242,-0.00000071,0.0000
 0072,0.00000041,0.00000141,0.00000004,0.00000955,-0.00013841,0.0002924
 2,0.00032718,0.00061043,-0.02322758,0.00517265,-0.01477211,0.13209077,
 -0.02957773,0.13821366,0.00007916,0.00015582,-0.00016943,0.00006765,-0
 .00016440,-0.00010875,-0.00211264,0.00546719,0.02298008,0.00279886,0.0
 0060900,-0.00390611,-0.00044774,-0.00024818,0.00032305,0.00153518,0.00
 792930,0.00416653,0.00142776,0.00040383,0.00062957,-0.00003603,0.00008
 019,0.00002897,-0.00018197,-0.00016244,-0.00013361,-0.05949664,0.00738
 290,0.04103937,0.00143374,0.00092298,0.00195612,0.00001451,-0.00002469
 ,0.00002419,-0.01183535,-0.00698160,-0.03804406,0.00004974,0.00001044,
 0.00002041,-0.00000195,0.00013758,0.00006781,-0.00006362,-0.00001360,0
 .00001327,-0.00002698,-0.00000937,0.00002638,-0.00309550,-0.00238204,0
 .00228475,0.00063228,-0.00024550,-0.00061636,-0.00038423,-0.00043235,0
 .00008633,0.00003465,-0.00000198,-0.00000117,-0.00005366,-0.00009347,0
 .00016269,0.00007917,-0.00010688,-0.00018310,-0.00010197,-0.00013065,-
 0.00031060,0.00002943,0.00000579,-0.00005277,-0.00004572,0.00005620,-0
 .00000692,0.06974436,-0.00020671,-0.00000600,-0.00001563,-0.00003380,0
 .00003401,0.00002550,-0.00372811,0.00675667,0.01556322,-0.00072278,-0.
 00022746,-0.00074842,0.00004102,-0.00002631,0.00000632,0.01366682,-0.0
 3606526,-0.03147787,0.00084782,0.00009652,0.00013801,0.00000324,-0.000
 02167,-0.00000129,0.00038345,-0.00015072,0.00051907,0.00618584,-0.0666
 3998,-0.06261881,-0.00404740,0.00057575,-0.00429204,-0.00003415,-0.000
 03157,-0.00006219,0.00140156,0.00584219,0.00652627,-0.00000699,0.00000
 787,0.00003007,0.00000494,-0.00010736,-0.00004563,0.00001826,0.0000047
 2,-0.00000412,0.00000271,0.00000118,-0.00000310,-0.00289577,-0.0008464
 7,0.00191965,0.00088318,0.00070091,-0.00060386,-0.00036440,-0.00031371
 ,-0.00027357,0.00001118,0.00001123,0.00000215,0.00000361,0.00000156,0.
 00000730,0.00006823,-0.00010066,-0.00013264,0.00003813,-0.00006914,-0.
 00031387,-0.00004569,-0.00001486,-0.00002934,0.00020723,0.00019288,-0.
 00006536,-0.01197798,0.08983233,-0.00071378,-0.00044844,0.00052901,-0.
 00002385,-0.00014477,-0.00016387,0.00255132,-0.00390717,-0.01354858,0.
 00354309,0.00252019,-0.00031701,-0.00016541,-0.00026465,0.00062740,0.0
 0052408,-0.00527196,0.00287725,-0.00046237,-0.00016671,0.00032017,-0.0
 0002379,-0.00001468,0.00000401,0.00000203,-0.00017242,0.00008846,0.035
 02400,-0.06528600,-0.26447442,0.00016740,0.00109658,0.00153966,-0.0000
 9324,0.00034417,-0.00002077,-0.01287158,-0.00305216,-0.02264069,0.0000
 3399,-0.00003499,-0.00004603,-0.00011669,-0.00001294,-0.00006541,-0.00
 007088,-0.00002155,0.00002393,-0.00001415,-0.00000793,0.00000838,0.001
 58521,0.00122968,-0.00050399,-0.00013383,0.00015184,0.00028442,-0.0002
 5626,-0.00046487,0.00094418,0.00001392,0.00000314,-0.00001024,0.000136
 68,0.00016807,0.00006385,0.00009507,0.00015632,0.00028617,0.00036256,-
 0.00010590,0.00047431,-0.00004940,0.00000972,-0.00018689,0.00005303,-0
 .00007040,-0.00000344,-0.03005431,0.07417720,0.29336826,-0.00005871,-0
 .00004158,0.00003552,0.00000836,-0.00000541,-0.00002665,-0.00013361,0.
 00036511,0.00014555,0.00024870,0.00011832,-0.00014498,-0.00002335,-0.0
 0002671,0.00003619,-0.00818719,-0.00473334,-0.03840190,0.00072238,0.00
 129814,-0.00056002,-0.00001469,-0.00000221,0.00000296,-0.00427697,0.00
 886067,0.02647734,0.00180792,-0.00518864,-0.00152033,-0.05444689,0.014
 70604,0.04038167,0.00000046,0.00003468,-0.00000415,-0.00083417,0.00052
 843,0.00025983,0.00000145,0.00000219,-0.00000254,0.00000311,0.00000171
 ,0.00000016,-0.00001080,-0.00000263,0.00000322,-0.00000154,-0.00000062
 ,0.00000278,-0.00006839,0.00003201,0.00004384,0.00020400,0.00011022,-0
 .00001343,0.00003280,-0.00002223,0.00003682,-0.00000699,0.00000669,-0.
 00000359,-0.00000085,0.00000114,-0.00000257,-0.00006100,0.00004071,-0.
 00030046,0.00019879,-0.00038466,-0.00040252,-0.00375198,-0.00336812,0.
 00266661,0.00098485,0.00042508,-0.00076901,-0.00003817,0.00018931,0.00
 082852,0.06698886,0.00000671,-0.00000070,-0.00000262,0.00000210,0.0000
 0184,-0.00000654,-0.00002068,-0.00024977,0.00001854,0.00001785,-0.0000
 2838,-0.00000548,-0.00001288,0.00000770,0.00000642,0.00023217,0.003873
 23,0.00717196,0.00021397,0.00129244,0.00066262,-0.00000204,-0.00000004
 ,0.00000325,-0.00321085,0.00453314,0.01399008,0.00014097,0.00163841,0.
 00303913,0.01281661,-0.08411485,-0.07955503,0.00000247,0.00000171,-0.0
 0000322,0.00016444,-0.00018647,-0.00007178,-0.00000186,-0.00000034,0.0
 0000059,-0.00000044,0.00000133,-0.00000069,-0.00000141,-0.00000038,0.0
 0000111,-0.00000088,-0.00000093,0.00000150,0.00006620,-0.00006985,-0.0
 0012789,-0.00002779,-0.00002057,-0.00003441,-0.00000587,0.00001027,-0.
 00001346,0.00000514,0.00000015,0.00000106,0.00000068,-0.00000250,-0.00
 000142,0.00004602,0.00011857,-0.00014901,-0.00011413,0.00015770,-0.000
 23095,-0.00224235,-0.00041010,0.00159061,0.00052768,0.00046949,-0.0005
 8707,-0.00018540,0.00051591,-0.00033728,-0.01314713,0.08096223,-0.0000
 5674,-0.00003264,0.00000120,0.00001061,-0.00000515,-0.00003297,-0.0001
 5766,0.00041168,0.00007373,0.00020993,0.00006813,-0.00012034,-0.000034
 89,-0.00001308,0.00004417,-0.01388577,-0.00099118,-0.02288141,-0.00081
 426,-0.00060843,0.00055159,-0.00001469,0.00000061,0.00000772,0.0041440
 0,-0.00565576,-0.01281131,0.00160997,-0.00358868,0.00043473,0.03780830
 ,-0.07609758,-0.26376149,0.00000426,0.00003449,-0.00000801,-0.00068504
 ,0.00047596,0.00040850,-0.00000714,0.00000846,0.00000076,0.00000230,0.
 00000463,0.00000154,-0.00001159,-0.00000392,0.00000373,-0.00000105,-0.
 00000229,0.00000465,0.00003558,-0.00011243,-0.00005200,0.00003286,0.00
 013815,-0.00009665,-0.00002236,0.00000638,-0.00004435,-0.00000122,0.00
 000903,0.00000055,-0.00000197,-0.00000115,-0.00000692,0.00004334,0.000
 08675,0.00027475,-0.00013377,0.00053458,-0.00000073,0.00224840,0.00119
 314,-0.00003574,0.00034355,0.00009639,0.00039522,-0.00023411,0.0012125
 6,0.00009173,-0.03138474,0.08356061,0.29558427,-0.00010786,-0.00008307
 ,0.00006187,0.00001003,-0.00002325,-0.00004887,-0.00051133,0.00052322,
 -0.00012273,0.00062447,0.00023654,-0.00034805,-0.00006762,0.00000645,0
 .00007461,-0.01244023,0.03799344,-0.00479177,-0.00499723,-0.00125526,0
 .00296610,-0.00001715,-0.00000867,-0.00000026,0.00494072,-0.02757746,-
 0.00053290,-0.00208897,-0.00369171,-0.00239973,-0.04905983,0.01576012,
 0.00115018,0.00000741,0.00007145,0.00000554,-0.00214294,0.00188925,-0.
 00112951,-0.00000131,-0.00000064,0.00000031,0.00000685,0.00000446,0.00
 000348,-0.00002193,-0.00000576,0.00000705,-0.00000249,-0.00000133,0.00
 000550,0.00009550,0.00000095,0.00002722,0.00032139,0.00012438,-0.00003
 877,0.00001244,-0.00002415,0.00003300,0.00000601,-0.00000613,-0.000004
 16,-0.00000104,-0.00000313,-0.00000810,0.00032674,-0.00190152,0.000368
 90,-0.00003597,0.00017763,-0.00013786,0.00108948,0.00095325,-0.0002898
 4,0.00073149,0.00089355,-0.00062033,0.00001038,0.00008810,0.00024319,0
 .00072682,0.00473198,0.00096918,0.06261604,0.00004866,0.00004515,-0.00
 001830,-0.00000702,0.00000856,0.00003421,-0.00007319,0.00025494,-0.000
 36257,-0.00029358,-0.00008702,0.00014060,0.00004605,-0.00000114,-0.000
 04708,0.00572512,-0.00589137,0.00232552,-0.00316630,0.00044205,0.00161
 821,0.00001206,0.00000566,-0.00000227,0.00101678,-0.01187036,-0.001208
 64,-0.00046812,0.00363765,0.00053067,0.02476855,-0.32236563,-0.0003029
 5,-0.00000554,-0.00003869,0.00000357,0.00067472,-0.00053588,0.00027721
 ,0.00000168,-0.00000557,0.00000179,-0.00000370,-0.00000208,-0.00000072
 ,0.00001366,0.00000461,-0.00000415,0.00000054,0.00000213,-0.00000554,0
 .00003080,-0.00000544,0.00004391,0.00003592,-0.00008535,0.00001247,0.0
 0000469,0.00000036,-0.00000158,0.00000264,-0.00000187,0.00000089,0.000
 00200,0.00000300,0.00000533,0.00029734,-0.00098019,0.00012181,0.000025
 14,0.00017244,-0.00007853,0.00029214,0.00084770,0.00020592,-0.00034809
 ,0.00009854,-0.00003205,0.00000649,0.00004562,-0.00002906,0.00020766,-
 0.00849888,-0.00072202,-0.02886228,0.34479499,-0.00007038,-0.00005056,
 0.00004438,0.00000380,-0.00001744,-0.00003020,-0.00003698,-0.00003018,
 0.00008811,0.00030951,0.00012301,-0.00022443,-0.00004601,0.00000351,0.
 00005243,-0.00878243,0.02454806,-0.00238917,0.00241391,0.00064634,-0.0
 0031004,-0.00000980,-0.00000293,-0.00000068,-0.00046095,0.01515016,-0.
 00010869,-0.00083518,-0.00263940,-0.00113674,0.00302885,-0.00848313,-0
 .05195723,0.00000164,0.00004434,0.00000395,-0.00148327,0.00095381,-0.0
 0032160,0.00000089,-0.00000144,-0.00000003,0.00000341,0.00000450,0.000
 00242,-0.00001384,-0.00000360,0.00000451,-0.00000011,-0.00000045,0.000
 00212,-0.00002262,-0.00001546,-0.00004085,0.00006834,0.00007284,-0.000
 04944,-0.00000525,-0.00002174,0.00001844,0.00000112,-0.00000307,0.0000
 0020,0.00000029,-0.00000013,-0.00000622,-0.00003114,0.00075122,0.00014
 281,-0.00006427,0.00033189,0.00018157,-0.00099794,-0.00011716,0.000621
 83,-0.00010074,-0.00036558,0.00035682,-0.00000385,0.00055098,0.0003962
 0,0.00260792,-0.02892271,0.00196222,0.00454260,-0.00249853,0.05268856,
 0.00416011,-0.01383142,0.02643384,-0.00066756,0.00205565,0.00165106,0.
 00000145,-0.00000136,-0.00000529,0.00148230,-0.00096007,0.00049910,-0.
 00012168,-0.00029641,0.00009798,-0.00003600,0.00002989,-0.00002762,-0.
 00000123,0.00000049,0.00000426,-0.00550509,-0.00068915,-0.02318709,-0.
 00000114,-0.00000082,-0.00000217,0.00002854,0.00004728,0.00002592,0.00
 000436,0.00000784,0.00000619,-0.05734193,0.02065091,-0.03137702,-0.000
 23392,0.00010568,-0.00037372,-0.00473251,-0.00134205,0.00266313,0.0011
 2679,0.00035202,-0.00091618,-0.00002605,-0.00017129,0.00013341,0.00036
 548,-0.00050346,0.00037892,-0.00000015,0.00000002,0.00000168,-0.000000
 76,0.00000076,0.00000067,-0.00005076,0.00014361,-0.00030773,0.00013834
 ,0.00007697,-0.00001185,-0.00002890,0.00007140,-0.00009319,-0.00000138
 ,0.00000005,-0.00000059,0.00000031,-0.00000003,-0.00000022,0.00000021,
 0.00000048,-0.00000013,-0.00000072,0.00000035,0.00000036,-0.00000727,0
 .00000031,-0.00000540,-0.00000105,-0.00000071,-0.00000155,-0.00000419,
 0.00000146,-0.00000167,0.06346997,0.00168652,-0.00454353,0.01015863,-0
 .00251716,0.00417548,-0.00285179,-0.00001884,0.00000607,-0.00001840,0.
 00074180,-0.00016904,-0.00074807,0.00023747,-0.00045832,0.00013863,-0.
 00006112,0.00003854,-0.00002627,-0.00000275,-0.00000472,0.00000960,-0.
 00840291,0.00385985,-0.02920168,-0.00000301,-0.00000097,-0.00000478,0.
 00009043,-0.00001036,0.00011361,0.00001248,0.00000272,0.00001780,0.023
 40542,-0.10762995,0.10490333,-0.00032618,0.00003500,-0.00014403,-0.002
 51749,0.00047324,0.00088062,0.00018775,0.00026961,-0.00017320,-0.00006
 847,0.00011689,0.00007094,-0.00011692,0.00037836,0.00135379,0.00000022
 ,-0.00000097,0.00000098,-0.00000001,-0.00000006,0.00000085,-0.00024888
 ,0.00047875,-0.00005592,0.00018178,0.00008759,0.00005188,-0.00002518,-
 0.00012965,0.00008333,-0.00000444,0.00000007,-0.00000150,-0.00000071,-
 0.00000048,-0.00000154,0.00000032,0.00000071,0.,-0.00000268,0.00000006
 ,0.00000035,-0.00000913,-0.00000299,-0.00001165,-0.00000150,-0.0000004
 5,-0.00000404,-0.00000365,0.00000264,-0.00000275,-0.01517885,0.1122109
 8,-0.00088156,0.00784762,-0.01096286,-0.00148723,0.00318504,0.00082218
 ,0.00002305,-0.00000925,0.00002380,-0.00125656,0.00020168,0.00005571,0
 .00027236,-0.00038698,-0.00002985,0.00006472,-0.00004646,0.00003774,0.
 00000323,0.00000571,-0.00001237,-0.01306476,-0.00532738,-0.02770456,0.
 00000267,0.00000094,0.00000540,-0.00008827,0.00001761,-0.00013319,-0.0
 0001428,-0.00000295,-0.00001913,-0.03026934,0.10077513,-0.23651846,0.0
 0038850,-0.00002121,0.00027075,0.00210785,0.00078102,0.00009327,0.0003
 3082,0.00014007,0.00034142,0.00012667,-0.00036509,0.00035528,0.0006976
 0,-0.00084424,0.00011492,-0.00000053,0.00000052,-0.00000046,-0.0000008
 5,0.00000005,-0.00000021,0.00029087,-0.00038876,-0.00006112,0.00014034
 ,-0.00003404,-0.00009455,-0.00005409,0.00009228,-0.00002765,0.00000564
 ,-0.00000043,0.00000226,0.00000053,0.00000065,0.00000200,-0.00000045,-
 0.00000055,-0.00000017,0.00000291,-0.00000046,-0.00000019,0.00001001,0
 .00000257,0.00001376,0.00000251,0.00000163,0.00000544,0.00000518,-0.00
 000315,0.00000303,0.04203219,-0.10501610,0.26809864,-0.01825510,0.0222
 0244,0.00300894,-0.00102370,-0.00197139,-0.00191261,-0.00014668,0.0000
 6366,-0.00014951,-0.00113118,-0.00510687,0.00122476,0.00008655,-0.0004
 7404,-0.00034484,-0.00030172,0.00022466,-0.00015641,-0.00002199,-0.000
 05602,0.00006251,0.01275631,-0.01811897,-0.00425079,-0.00000717,-0.000
 00472,-0.00002193,0.00078809,-0.00017071,0.00092715,0.00008825,0.00002
 455,0.00006323,-0.16742240,0.13981095,0.02239660,-0.00316892,0.0011350
 9,0.00092268,0.00152380,-0.00019900,-0.00010571,0.00075099,-0.00018469
 ,-0.00052711,0.00047879,-0.00068622,-0.00026640,-0.00003753,-0.0000622
 4,0.00009808,0.00000131,0.00000126,-0.00000200,-0.00000458,-0.00000997
 ,0.00000058,0.00005169,-0.00008890,-0.00018905,0.00017296,0.00021066,0
 .00001650,0.00005833,0.00007132,0.00006425,-0.00003614,0.00000217,-0.0
 0001477,-0.00000579,0.00000013,-0.00000757,-0.00000047,0.00000254,0.00
 000408,-0.00001241,0.00000195,0.00000159,-0.00000742,0.00001881,-0.000
 10912,-0.00001216,-0.00000058,-0.00001373,-0.00002569,0.00001370,-0.00
 001584,-0.00201557,0.00296570,0.00061026,0.17687954,-0.00815125,0.0115
 5140,0.00236959,-0.00452615,0.00025700,-0.00271221,-0.00004131,0.00001
 135,-0.00004006,-0.00160296,-0.00094200,0.00081221,-0.00002609,-0.0002
 4162,0.00013310,-0.00007354,0.00005222,-0.00004006,-0.00000732,-0.0000
 1596,0.00001402,0.01215901,-0.02558648,-0.00818006,-0.00000132,-0.0000
 0197,-0.00000456,0.00014861,-0.00001406,0.00028946,0.00001933,0.000009
 12,0.00001082,0.13099376,-0.20154122,-0.02332753,-0.00121634,0.0003836
 9,0.00037848,0.00054512,0.00043479,-0.00034998,0.00094987,0.00022377,-
 0.00043644,0.00083425,-0.00110916,-0.00050698,-0.00003215,0.00012752,0
 .00006887,0.,0.00000128,-0.00000184,-0.00000179,-0.00000198,0.00000047
 ,-0.00003188,0.00006823,-0.00007595,0.00021177,0.00009867,-0.00001110,
 0.00005630,0.00004898,0.00000643,-0.00000879,0.00000079,-0.00000403,-0
 .00000184,0.00000035,-0.00000155,-0.00000006,0.00000064,0.00000092,-0.
 00000228,0.00000069,0.00000050,0.00000196,0.00000481,-0.00003136,-0.00
 000334,0.00000008,-0.00000319,-0.00000674,0.00000342,-0.00000440,0.009
 43045,-0.00918508,-0.00060542,-0.13961526,0.22536075,0.01093864,-0.010
 37297,-0.00197087,-0.00309046,-0.00060208,-0.00186296,0.00005027,-0.00
 002155,0.00005177,0.00081290,0.00210940,0.00033911,-0.00008698,-0.0000
 3350,-0.00000018,0.00010958,-0.00007906,0.00006421,0.00000970,0.000017
 89,-0.00002274,0.01286527,-0.02473118,-0.00643769,0.00000162,0.0000018
 4,0.00000780,-0.00024520,0.00005661,-0.00034170,-0.00003192,-0.0000087
 9,-0.00001962,0.01625254,-0.01652116,-0.05434536,0.00129935,-0.0003701
 5,-0.00014927,-0.00074688,-0.00062016,0.00048047,-0.00030176,0.0001698
 2,0.00038008,0.00055947,-0.00103809,-0.00000246,0.00023944,-0.00035559
 ,0.00035474,-0.00000030,-0.00000089,-0.00000016,0.00000142,0.00000324,
 0.00000036,0.00012979,-0.00038558,0.00008861,0.00014698,0.00004455,-0.
 00005077,-0.00002056,0.00000786,-0.00003957,0.00001246,-0.00000069,0.0
 0000503,0.00000115,-0.00000007,0.00000243,0.00000018,-0.00000075,-0.00
 000120,0.00000440,-0.00000058,-0.00000056,0.00000562,0.00000687,0.0000
 4020,0.00000544,0.00000047,0.00000541,0.00000896,-0.00000496,0.0000057
 3,-0.01761728,0.02047737,0.00531919,-0.02131384,0.03225187,0.05809995\
 \0.00009193,0.00003347,0.00018075,-0.00000746,-0.00001541,0.00000725,0
 .00000401,0.00000991,-0.00000142,-0.00018400,0.00003393,-0.00020623,0.
 00000244,0.00001453,-0.00000424,-0.00001000,0.00006421,-0.00001133,-0.
 00000917,0.00000168,0.00001776,0.00003450,0.00000396,0.00000740,-0.000
 02703,-0.00000359,-0.00000598,-0.00008971,0.00017026,0.00008199,0.0000
 3439,-0.00001640,0.00002148,-0.00000348,-0.00000435,0.00002310,0.00014
 080,-0.00030470,-0.00004166,-0.00000117,0.00000722,0.00000569,0.000013
 74,-0.00000712,0.00000595,0.00000014,0.00000259,-0.00000999,-0.0000089
 9,0.00000902,-0.00000544,0.00000224,0.00000078,-0.00000973,0.00001182,
 -0.00000149,0.00000795,0.00001709,0.00000397,0.00000031,0.00000723,0.0
 0000718,-0.00000014,-0.00000396,0.00000321,-0.00000465,0.00000022,-0.0
 0000014,-0.00001185,0.00000301,-0.00000401,-0.00000401,0.00000455,-0.0
 0000279,-0.00000611,0.00000373,0.00000445,-0.00000486,-0.00000010,-0.0
 0000075,0.00000833,-0.00001601,-0.00000394,-0.00001890,-0.00000496,-0.
 00000848,-0.00001447,-0.00000803,-0.00000608,-0.00000838,0.00000221,0.
 00000889,0.00000143\\\@


 I do not feel obliged to believe that the same God who
 has endowed us with sense, reason, and intellect has
 intended us to forgo their use.
                   --Galileo Galilei
 Job cpu time:       0 days 11 hours 54 minutes  5.4 seconds.
 Elapsed time:       0 days  0 hours 59 minutes 44.5 seconds.
 File lengths (MBytes):  RWF=    722 Int=      0 D2E=      0 Chk=     34 Scr=      1
 Normal termination of Gaussian 16 at Sat Mar  9 17:46:29 2019.
