 Entering Gaussian System, Link 0=g16
 Initial command:
 /sw/Projects/G16/g16/l1.exe "/nvme/pbs/tmpdir/pbs.74205[17].flm1/Gau-9410.inp" -scrdir="/nvme/pbs/tmpdir/pbs.74205[17].flm1/"
 Entering Link 1 = /sw/Projects/G16/g16/l1.exe PID=      9411.
  
 Copyright (c) 1988-2017, Gaussian, Inc.  All Rights Reserved.
  
 This is part of the Gaussian(R) 16 program.  It is based on
 the Gaussian(R) 09 system (copyright 2009, Gaussian, Inc.),
 the Gaussian(R) 03 system (copyright 2003, Gaussian, Inc.),
 the Gaussian(R) 98 system (copyright 1998, Gaussian, Inc.),
 the Gaussian(R) 94 system (copyright 1995, Gaussian, Inc.),
 the Gaussian 92(TM) system (copyright 1992, Gaussian, Inc.),
 the Gaussian 90(TM) system (copyright 1990, Gaussian, Inc.),
 the Gaussian 88(TM) system (copyright 1988, Gaussian, Inc.),
 the Gaussian 86(TM) system (copyright 1986, Carnegie Mellon
 University), and the Gaussian 82(TM) system (copyright 1983,
 Carnegie Mellon University). Gaussian is a federally registered
 trademark of Gaussian, Inc.
  
 This software contains proprietary and confidential information,
 including trade secrets, belonging to Gaussian, Inc.
  
 This software is provided under written license and may be
 used, copied, transmitted, or stored only in accord with that
 written license.
  
 The following legend is applicable only to US Government
 contracts under FAR:
  
                    RESTRICTED RIGHTS LEGEND
  
 Use, reproduction and disclosure by the US Government is
 subject to restrictions as set forth in subparagraphs (a)
 and (c) of the Commercial Computer Software - Restricted
 Rights clause in FAR 52.227-19.
  
 Gaussian, Inc.
 340 Quinnipiac St., Bldg. 40, Wallingford CT 06492
  
  
 ---------------------------------------------------------------
 Warning -- This program may not be used in any manner that
 competes with the business of Gaussian, Inc. or will provide
 assistance to any competitor of Gaussian, Inc.  The licensee
 of this program is prohibited from giving any competitor of
 Gaussian, Inc. access to this program.  By using this program,
 the user acknowledges that Gaussian, Inc. is engaged in the
 business of creating and licensing software in the field of
 computational chemistry and represents and warrants to the
 licensee that it is not a competitor of Gaussian, Inc. and that
 it will not use this program in any manner prohibited above.
 ---------------------------------------------------------------
  

 Cite this work as:
 Gaussian 16, Revision B.01,
 M. J. Frisch, G. W. Trucks, H. B. Schlegel, G. E. Scuseria, 
 M. A. Robb, J. R. Cheeseman, G. Scalmani, V. Barone, 
 G. A. Petersson, H. Nakatsuji, X. Li, M. Caricato, A. V. Marenich, 
 J. Bloino, B. G. Janesko, R. Gomperts, B. Mennucci, H. P. Hratchian, 
 J. V. Ortiz, A. F. Izmaylov, J. L. Sonnenberg, D. Williams-Young, 
 F. Ding, F. Lipparini, F. Egidi, J. Goings, B. Peng, A. Petrone, 
 T. Henderson, D. Ranasinghe, V. G. Zakrzewski, J. Gao, N. Rega, 
 G. Zheng, W. Liang, M. Hada, M. Ehara, K. Toyota, R. Fukuda, 
 J. Hasegawa, M. Ishida, T. Nakajima, Y. Honda, O. Kitao, H. Nakai, 
 T. Vreven, K. Throssell, J. A. Montgomery, Jr., J. E. Peralta, 
 F. Ogliaro, M. J. Bearpark, J. J. Heyd, E. N. Brothers, K. N. Kudin, 
 V. N. Staroverov, T. A. Keith, R. Kobayashi, J. Normand, 
 K. Raghavachari, A. P. Rendell, J. C. Burant, S. S. Iyengar, 
 J. Tomasi, M. Cossi, J. M. Millam, M. Klene, C. Adamo, R. Cammi, 
 J. W. Ochterski, R. L. Martin, K. Morokuma, O. Farkas, 
 J. B. Foresman, and D. J. Fox, Gaussian, Inc., Wallingford CT, 2016.
 
 ******************************************
 Gaussian 16:  ES64L-G16RevB.01 20-Dec-2017
                 9-Mar-2019 
 ******************************************
 %mem=20gb
 %nproc=12
 Will use up to   12 processors via shared memory.
 %chk=4c1_b1_e3_4c1_PSI.inp_extract_17.chk
 ----------------------------------------------------------------------
 #M062X/6-311++G(2d,2p) opt=ModRedundant freq=noraman SCRF=(SMD,solvent
 =water)
 ----------------------------------------------------------------------
 1/18=120,19=15,26=3,38=1/1,3;
 2/9=110,12=2,17=6,18=5,40=1/2;
 3/5=4,6=6,7=1212,11=2,25=1,30=1,70=32201,71=1,72=1,74=-55/1,2,3;
 4//1;
 5/5=2,38=5,53=1/2;
 6/7=2,8=2,9=2,10=2,28=1/1;
 7//1,2,3,16;
 1/18=20,19=15,26=3/3(2);
 2/9=110/2;
 99//99;
 2/9=110/2;
 3/5=4,6=6,7=1212,11=2,25=1,30=1,70=32205,71=1,72=1,74=-55/1,2,3;
 4/5=5,16=3,69=1/1;
 5/5=2,38=5,53=1/2;
 7//1,2,3,16;
 1/18=20,19=15,26=3/3(-5);
 2/9=110/2;
 6/7=2,8=2,9=2,10=2,19=2,28=1/1;
 99/9=1/99;
 --------------------------------
 4c1_b1_e3_4c1_PSI.inp_extract_17
 --------------------------------
 Symbolic Z-matrix:
 Charge =  0 Multiplicity = 1
 C                     2.24331  -1.13349   0.68597 
 C                     2.88541   1.24431  -0.73535 
 C                    -2.35306  -1.31048  -0.34101 
 C                     1.24733  -0.5819   -0.3253 
 C                     1.42989   0.93363  -0.4057 
 O                    -1.42817   0.65058   0.69547 
 C                    -3.66514  -0.56399  -0.59516 
 O                     3.76288   0.69839   0.22858 
 C                    -3.83177   0.57408   0.41224 
 C                    -1.18932  -0.33718  -0.27908 
 C                    -2.58035   1.43644   0.43645 
 C                     3.6602   -0.70788   0.32859 
 O                    -0.0433   -1.03032   0.08253 
 H                     1.98701  -0.76005   1.67313 
 H                     2.19263  -2.21801   0.71468 
 H                     3.05417   2.31197  -0.73667 
 H                     3.14824   0.85678  -1.71717 
 H                    -2.40076  -1.84375   0.60501 
 H                    -2.16251  -2.03731  -1.12418 
 H                     1.44347  -1.00825  -1.30515 
 H                     0.80333   1.37721  -1.17121 
 H                     1.17674   1.39047   0.54451 
 H                    -4.50187  -1.25292  -0.53796 
 H                    -3.65904  -0.15525  -1.60364 
 H                    -4.0025    0.16779   1.40625 
 H                    -4.68823   1.19317   0.16057 
 H                    -1.05516   0.14848  -1.24015 
 H                    -2.45242   1.95273  -0.5124 
 H                    -2.62004   2.17754   1.22247 
 H                     3.96757  -1.15513  -0.61403 
 H                     4.35909  -1.01584   1.09354 
 
 The following ModRedundant input section has been read:
 D       1       4      13      10 F                                           
 

 GradGradGradGradGradGradGradGradGradGradGradGradGradGradGradGradGradGrad
 Berny optimization.
 Initialization pass.
                           ----------------------------
                           !    Initial Parameters    !
                           ! (Angstroms and Degrees)  !
 --------------------------                            --------------------------
 ! Name  Definition              Value          Derivative Info.                !
 --------------------------------------------------------------------------------
 ! R1    R(1,4)                  1.5228         estimate D2E/DX2                !
 ! R2    R(1,12)                 1.522          estimate D2E/DX2                !
 ! R3    R(1,14)                 1.0861         estimate D2E/DX2                !
 ! R4    R(1,15)                 1.0861         estimate D2E/DX2                !
 ! R5    R(2,5)                  1.5244         estimate D2E/DX2                !
 ! R6    R(2,8)                  1.4132         estimate D2E/DX2                !
 ! R7    R(2,16)                 1.0809         estimate D2E/DX2                !
 ! R8    R(2,17)                 1.0878         estimate D2E/DX2                !
 ! R9    R(3,7)                  1.5308         estimate D2E/DX2                !
 ! R10   R(3,10)                 1.5184         estimate D2E/DX2                !
 ! R11   R(3,18)                 1.087          estimate D2E/DX2                !
 ! R12   R(3,19)                 1.0853         estimate D2E/DX2                !
 ! R13   R(4,5)                  1.5286         estimate D2E/DX2                !
 ! R14   R(4,13)                 1.4259         estimate D2E/DX2                !
 ! R15   R(4,20)                 1.0864         estimate D2E/DX2                !
 ! R16   R(5,21)                 1.0841         estimate D2E/DX2                !
 ! R17   R(5,22)                 1.0843         estimate D2E/DX2                !
 ! R18   R(6,10)                 1.408          estimate D2E/DX2                !
 ! R19   R(6,11)                 1.4185         estimate D2E/DX2                !
 ! R20   R(7,9)                  1.529          estimate D2E/DX2                !
 ! R21   R(7,23)                 1.0854         estimate D2E/DX2                !
 ! R22   R(7,24)                 1.0882         estimate D2E/DX2                !
 ! R23   R(8,12)                 1.4135         estimate D2E/DX2                !
 ! R24   R(9,11)                 1.52           estimate D2E/DX2                !
 ! R25   R(9,25)                 1.0873         estimate D2E/DX2                !
 ! R26   R(9,26)                 1.0863         estimate D2E/DX2                !
 ! R27   R(10,13)                1.3873         estimate D2E/DX2                !
 ! R28   R(10,27)                1.0851         estimate D2E/DX2                !
 ! R29   R(11,28)                1.0878         estimate D2E/DX2                !
 ! R30   R(11,29)                1.081          estimate D2E/DX2                !
 ! R31   R(12,30)                1.0877         estimate D2E/DX2                !
 ! R32   R(12,31)                1.0809         estimate D2E/DX2                !
 ! A1    A(4,1,12)             110.5886         estimate D2E/DX2                !
 ! A2    A(4,1,14)             108.947          estimate D2E/DX2                !
 ! A3    A(4,1,15)             110.4096         estimate D2E/DX2                !
 ! A4    A(12,1,14)            109.6916         estimate D2E/DX2                !
 ! A5    A(12,1,15)            109.2021         estimate D2E/DX2                !
 ! A6    A(14,1,15)            107.9569         estimate D2E/DX2                !
 ! A7    A(5,2,8)              111.5074         estimate D2E/DX2                !
 ! A8    A(5,2,16)             110.5263         estimate D2E/DX2                !
 ! A9    A(5,2,17)             110.6887         estimate D2E/DX2                !
 ! A10   A(8,2,16)             106.5863         estimate D2E/DX2                !
 ! A11   A(8,2,17)             109.1481         estimate D2E/DX2                !
 ! A12   A(16,2,17)            108.2445         estimate D2E/DX2                !
 ! A13   A(7,3,10)             110.5556         estimate D2E/DX2                !
 ! A14   A(7,3,18)             110.2489         estimate D2E/DX2                !
 ! A15   A(7,3,19)             110.9311         estimate D2E/DX2                !
 ! A16   A(10,3,18)            108.2167         estimate D2E/DX2                !
 ! A17   A(10,3,19)            108.9143         estimate D2E/DX2                !
 ! A18   A(18,3,19)            107.8881         estimate D2E/DX2                !
 ! A19   A(1,4,5)              108.4174         estimate D2E/DX2                !
 ! A20   A(1,4,13)             106.7476         estimate D2E/DX2                !
 ! A21   A(1,4,20)             109.7978         estimate D2E/DX2                !
 ! A22   A(5,4,13)             115.7819         estimate D2E/DX2                !
 ! A23   A(5,4,20)             108.6675         estimate D2E/DX2                !
 ! A24   A(13,4,20)            107.335          estimate D2E/DX2                !
 ! A25   A(2,5,4)              109.1156         estimate D2E/DX2                !
 ! A26   A(2,5,21)             108.4057         estimate D2E/DX2                !
 ! A27   A(2,5,22)             109.0607         estimate D2E/DX2                !
 ! A28   A(4,5,21)             111.9485         estimate D2E/DX2                !
 ! A29   A(4,5,22)             110.1057         estimate D2E/DX2                !
 ! A30   A(21,5,22)            108.1472         estimate D2E/DX2                !
 ! A31   A(10,6,11)            113.5817         estimate D2E/DX2                !
 ! A32   A(3,7,9)              110.3034         estimate D2E/DX2                !
 ! A33   A(3,7,23)             110.0289         estimate D2E/DX2                !
 ! A34   A(3,7,24)             109.4041         estimate D2E/DX2                !
 ! A35   A(9,7,23)             110.7149         estimate D2E/DX2                !
 ! A36   A(9,7,24)             109.3679         estimate D2E/DX2                !
 ! A37   A(23,7,24)            106.9524         estimate D2E/DX2                !
 ! A38   A(2,8,12)             112.7968         estimate D2E/DX2                !
 ! A39   A(7,9,11)             110.0636         estimate D2E/DX2                !
 ! A40   A(7,9,25)             109.9562         estimate D2E/DX2                !
 ! A41   A(7,9,26)             110.945          estimate D2E/DX2                !
 ! A42   A(11,9,25)            109.0693         estimate D2E/DX2                !
 ! A43   A(11,9,26)            109.2361         estimate D2E/DX2                !
 ! A44   A(25,9,26)            107.5139         estimate D2E/DX2                !
 ! A45   A(3,10,6)             110.3592         estimate D2E/DX2                !
 ! A46   A(3,10,13)            108.8751         estimate D2E/DX2                !
 ! A47   A(3,10,27)            110.2138         estimate D2E/DX2                !
 ! A48   A(6,10,13)            108.0735         estimate D2E/DX2                !
 ! A49   A(6,10,27)            108.6635         estimate D2E/DX2                !
 ! A50   A(13,10,27)           110.6308         estimate D2E/DX2                !
 ! A51   A(6,11,9)             110.9361         estimate D2E/DX2                !
 ! A52   A(6,11,28)            109.0684         estimate D2E/DX2                !
 ! A53   A(6,11,29)            106.072          estimate D2E/DX2                !
 ! A54   A(9,11,28)            110.6233         estimate D2E/DX2                !
 ! A55   A(9,11,29)            111.7341         estimate D2E/DX2                !
 ! A56   A(28,11,29)           108.2515         estimate D2E/DX2                !
 ! A57   A(1,12,8)             111.2504         estimate D2E/DX2                !
 ! A58   A(1,12,30)            110.5848         estimate D2E/DX2                !
 ! A59   A(1,12,31)            110.8592         estimate D2E/DX2                !
 ! A60   A(8,12,30)            109.1013         estimate D2E/DX2                !
 ! A61   A(8,12,31)            106.6503         estimate D2E/DX2                !
 ! A62   A(30,12,31)           108.2652         estimate D2E/DX2                !
 ! A63   A(4,13,10)            121.0673         estimate D2E/DX2                !
 ! D1    D(12,1,4,5)           -54.8066         estimate D2E/DX2                !
 ! D2    D(12,1,4,13)          179.8175         estimate D2E/DX2                !
 ! D3    D(12,1,4,20)           63.7756         estimate D2E/DX2                !
 ! D4    D(14,1,4,5)            65.8256         estimate D2E/DX2                !
 ! D5    D(14,1,4,13)          -59.5503         estimate D2E/DX2                !
 ! D6    D(14,1,4,20)         -175.5922         estimate D2E/DX2                !
 ! D7    D(15,1,4,5)          -175.7805         estimate D2E/DX2                !
 ! D8    D(15,1,4,13)           58.8436         estimate D2E/DX2                !
 ! D9    D(15,1,4,20)          -57.1983         estimate D2E/DX2                !
 ! D10   D(4,1,12,8)            56.0474         estimate D2E/DX2                !
 ! D11   D(4,1,12,30)          -65.3597         estimate D2E/DX2                !
 ! D12   D(4,1,12,31)          174.5488         estimate D2E/DX2                !
 ! D13   D(14,1,12,8)          -64.14           estimate D2E/DX2                !
 ! D14   D(14,1,12,30)         174.453          estimate D2E/DX2                !
 ! D15   D(14,1,12,31)          54.3614         estimate D2E/DX2                !
 ! D16   D(15,1,12,8)          177.7357         estimate D2E/DX2                !
 ! D17   D(15,1,12,30)          56.3286         estimate D2E/DX2                !
 ! D18   D(15,1,12,31)         -63.7629         estimate D2E/DX2                !
 ! D19   D(8,2,5,4)            -58.0815         estimate D2E/DX2                !
 ! D20   D(8,2,5,21)           179.7612         estimate D2E/DX2                !
 ! D21   D(8,2,5,22)            62.2277         estimate D2E/DX2                !
 ! D22   D(16,2,5,4)          -176.4516         estimate D2E/DX2                !
 ! D23   D(16,2,5,21)           61.3912         estimate D2E/DX2                !
 ! D24   D(16,2,5,22)          -56.1423         estimate D2E/DX2                !
 ! D25   D(17,2,5,4)            63.6323         estimate D2E/DX2                !
 ! D26   D(17,2,5,21)          -58.525          estimate D2E/DX2                !
 ! D27   D(17,2,5,22)         -176.0585         estimate D2E/DX2                !
 ! D28   D(5,2,8,12)            59.952          estimate D2E/DX2                !
 ! D29   D(16,2,8,12)         -179.3432         estimate D2E/DX2                !
 ! D30   D(17,2,8,12)          -62.6498         estimate D2E/DX2                !
 ! D31   D(10,3,7,9)           -51.8628         estimate D2E/DX2                !
 ! D32   D(10,3,7,23)         -174.295          estimate D2E/DX2                !
 ! D33   D(10,3,7,24)           68.4829         estimate D2E/DX2                !
 ! D34   D(18,3,7,9)            67.7539         estimate D2E/DX2                !
 ! D35   D(18,3,7,23)          -54.6784         estimate D2E/DX2                !
 ! D36   D(18,3,7,24)         -171.9004         estimate D2E/DX2                !
 ! D37   D(19,3,7,9)          -172.7989         estimate D2E/DX2                !
 ! D38   D(19,3,7,23)           64.7688         estimate D2E/DX2                !
 ! D39   D(19,3,7,24)          -52.4533         estimate D2E/DX2                !
 ! D40   D(7,3,10,6)            55.6955         estimate D2E/DX2                !
 ! D41   D(7,3,10,13)          174.1581         estimate D2E/DX2                !
 ! D42   D(7,3,10,27)          -64.3289         estimate D2E/DX2                !
 ! D43   D(18,3,10,6)          -65.1382         estimate D2E/DX2                !
 ! D44   D(18,3,10,13)          53.3244         estimate D2E/DX2                !
 ! D45   D(18,3,10,27)         174.8374         estimate D2E/DX2                !
 ! D46   D(19,3,10,6)          177.8231         estimate D2E/DX2                !
 ! D47   D(19,3,10,13)         -63.7143         estimate D2E/DX2                !
 ! D48   D(19,3,10,27)          57.7987         estimate D2E/DX2                !
 ! D49   D(1,4,5,2)             55.2848         estimate D2E/DX2                !
 ! D50   D(1,4,5,21)           175.2816         estimate D2E/DX2                !
 ! D51   D(1,4,5,22)           -64.3801         estimate D2E/DX2                !
 ! D52   D(13,4,5,2)           175.1614         estimate D2E/DX2                !
 ! D53   D(13,4,5,21)          -64.8419         estimate D2E/DX2                !
 ! D54   D(13,4,5,22)           55.4964         estimate D2E/DX2                !
 ! D55   D(20,4,5,2)           -64.0106         estimate D2E/DX2                !
 ! D56   D(20,4,5,21)           55.9862         estimate D2E/DX2                !
 ! D57   D(20,4,5,22)          176.3244         estimate D2E/DX2                !
 ! D58   D(1,4,13,10)          155.3834         Frozen                          !
 ! D59   D(5,4,13,10)           34.6023         estimate D2E/DX2                !
 ! D60   D(20,4,13,10)         -86.9411         estimate D2E/DX2                !
 ! D61   D(11,6,10,3)          -61.1923         estimate D2E/DX2                !
 ! D62   D(11,6,10,13)         179.8561         estimate D2E/DX2                !
 ! D63   D(11,6,10,27)          59.7614         estimate D2E/DX2                !
 ! D64   D(10,6,11,9)           61.2038         estimate D2E/DX2                !
 ! D65   D(10,6,11,28)         -60.8869         estimate D2E/DX2                !
 ! D66   D(10,6,11,29)        -177.2742         estimate D2E/DX2                !
 ! D67   D(3,7,9,11)            51.3093         estimate D2E/DX2                !
 ! D68   D(3,7,9,25)           -68.8665         estimate D2E/DX2                !
 ! D69   D(3,7,9,26)           172.3307         estimate D2E/DX2                !
 ! D70   D(23,7,9,11)          173.3375         estimate D2E/DX2                !
 ! D71   D(23,7,9,25)           53.1617         estimate D2E/DX2                !
 ! D72   D(23,7,9,26)          -65.6412         estimate D2E/DX2                !
 ! D73   D(24,7,9,11)          -69.0582         estimate D2E/DX2                !
 ! D74   D(24,7,9,25)          170.766          estimate D2E/DX2                !
 ! D75   D(24,7,9,26)           51.9632         estimate D2E/DX2                !
 ! D76   D(2,8,12,1)           -58.3952         estimate D2E/DX2                !
 ! D77   D(2,8,12,30)           63.8741         estimate D2E/DX2                !
 ! D78   D(2,8,12,31)         -179.3975         estimate D2E/DX2                !
 ! D79   D(7,9,11,6)           -55.0031         estimate D2E/DX2                !
 ! D80   D(7,9,11,28)           66.1766         estimate D2E/DX2                !
 ! D81   D(7,9,11,29)         -173.142          estimate D2E/DX2                !
 ! D82   D(25,9,11,6)           65.7075         estimate D2E/DX2                !
 ! D83   D(25,9,11,28)        -173.1129         estimate D2E/DX2                !
 ! D84   D(25,9,11,29)         -52.4314         estimate D2E/DX2                !
 ! D85   D(26,9,11,6)         -177.0433         estimate D2E/DX2                !
 ! D86   D(26,9,11,28)         -55.8636         estimate D2E/DX2                !
 ! D87   D(26,9,11,29)          64.8178         estimate D2E/DX2                !
 ! D88   D(3,10,13,4)          152.1655         estimate D2E/DX2                !
 ! D89   D(6,10,13,4)          -87.9449         estimate D2E/DX2                !
 ! D90   D(27,10,13,4)          30.907          estimate D2E/DX2                !
 --------------------------------------------------------------------------------
 Trust Radius=3.00D-01 FncErr=1.00D-07 GrdErr=1.00D-06 EigMax=2.50D+02 EigMin=1.00D-04
 Number of steps in this run=    186 maximum allowed number of steps=    186.
 GradGradGradGradGradGradGradGradGradGradGradGradGradGradGradGradGradGrad

                          Input orientation:                          
 ---------------------------------------------------------------------
 Center     Atomic      Atomic             Coordinates (Angstroms)
 Number     Number       Type             X           Y           Z
 ---------------------------------------------------------------------
      1          6           0        2.243315   -1.133494    0.685968
      2          6           0        2.885414    1.244305   -0.735354
      3          6           0       -2.353058   -1.310476   -0.341009
      4          6           0        1.247325   -0.581901   -0.325300
      5          6           0        1.429891    0.933627   -0.405697
      6          8           0       -1.428171    0.650577    0.695468
      7          6           0       -3.665136   -0.563989   -0.595157
      8          8           0        3.762877    0.698386    0.228575
      9          6           0       -3.831771    0.574083    0.412237
     10          6           0       -1.189317   -0.337183   -0.279078
     11          6           0       -2.580350    1.436443    0.436446
     12          6           0        3.660195   -0.707877    0.328585
     13          8           0       -0.043301   -1.030323    0.082530
     14          1           0        1.987009   -0.760050    1.673132
     15          1           0        2.192625   -2.218006    0.714675
     16          1           0        3.054166    2.311970   -0.736672
     17          1           0        3.148237    0.856778   -1.717170
     18          1           0       -2.400764   -1.843747    0.605005
     19          1           0       -2.162515   -2.037311   -1.124176
     20          1           0        1.443470   -1.008253   -1.305150
     21          1           0        0.803326    1.377213   -1.171207
     22          1           0        1.176741    1.390471    0.544507
     23          1           0       -4.501872   -1.252918   -0.537961
     24          1           0       -3.659041   -0.155246   -1.603643
     25          1           0       -4.002496    0.167791    1.406245
     26          1           0       -4.688231    1.193173    0.160573
     27          1           0       -1.055159    0.148483   -1.240154
     28          1           0       -2.452415    1.952726   -0.512401
     29          1           0       -2.620038    2.177541    1.222474
     30          1           0        3.967574   -1.155131   -0.614026
     31          1           0        4.359095   -1.015837    1.093537
 ---------------------------------------------------------------------
                    Distance matrix (angstroms):
                    1          2          3          4          5
     1  C    0.000000
     2  C    2.843655   0.000000
     3  C    4.713030   5.841575   0.000000
     4  C    1.522798   2.487269   3.673394   0.000000
     5  C    2.475153   1.524382   4.398964   1.528600   0.000000
     6  O    4.082010   4.583315   2.403212   3.117571   3.075906
     7  C    6.072513   6.797006   1.530811   4.919900   5.313949
     8  O    2.423646   1.413198   6.462555   2.876441   2.429087
     9  C    6.316440   6.847389   2.511082   5.260939   5.336982
    10  C    3.653545   4.394625   1.518364   2.449336   2.913973
    11  C    5.471250   5.593265   2.863854   4.393753   4.128445
    12  C    1.521979   2.354414   6.080353   2.503074   2.864954
    13  O    2.367149   3.797399   2.364920   1.425876   2.503150
    14  H    1.086115   3.259659   4.816214   2.138364   2.738695
    15  H    1.086075   3.817085   4.754084   2.156845   3.430712
    16  H    3.814788   1.080920   6.520486   3.436334   2.155839
    17  H    3.248867   1.087757   6.070836   2.760537   2.163003
    18  H    4.698775   6.267081   1.087013   3.970677   4.838310
    19  H    4.848179   6.033388   1.085332   3.792549   4.716786
    20  H    2.149416   2.734573   3.928681   1.086441   2.140116
    21  H    3.438941   2.131366   4.227962   2.179638   1.084139
    22  H    2.743718   2.139853   4.531968   2.156803   1.084287
    23  H    6.856370   7.800454   2.158589   5.792129   6.323313
    24  H    6.406020   6.748523   2.152764   5.088086   5.340220
    25  H    6.420459   7.293054   2.821137   5.578612   5.777583
    26  H    7.330467   7.626624   3.460184   6.214321   6.149751
    27  H    4.029062   4.121136   2.149783   2.582993   2.736465
    28  H    5.745496   5.389247   3.269210   4.488587   4.015252
    29  H    5.907876   5.917265   3.831712   4.996661   4.538743
    30  H    2.159519   2.634973   6.328433   2.794944   3.293349
    31  H    2.157888   3.259574   6.870061   3.447392   3.824702
                    6          7          8          9         10
     6  O    0.000000
     7  C    2.853926   0.000000
     8  O    5.212222   7.579413   0.000000
     9  C    2.421438   1.528992   7.597885   0.000000
    10  C    1.407999   2.506198   5.084716   2.879390   0.000000
    11  C    1.418518   2.498538   6.389403   1.519969   2.364888
    12  C    5.279344   7.384746   1.413549   7.601314   4.901473
    13  O    2.262517   3.714083   4.182912   4.127388   1.387284
    14  H    3.822192   6.093465   2.714312   6.101473   3.752198
    15  H    4.619448   6.226138   3.347735   6.646847   3.995319
    16  H    4.990250   7.310279   2.009385   7.194190   5.023400
    17  H    5.177533   7.049790   2.046654   7.303068   4.723137
    18  H    2.678763   2.162592   6.677920   2.816175   2.125780
    19  H    3.327928   2.169887   6.665151   3.459243   2.133481
    20  H    3.873049   5.176806   3.262603   5.769001   2.904260
    21  H    2.998675   4.905839   3.343522   4.963511   2.775910
    22  H    2.712158   5.344392   2.695718   5.076335   3.043240
    23  H    3.819984   1.085367   8.526502   2.165605   3.446536
    24  H    3.303338   1.088187   7.692241   2.150704   2.808400
    25  H    2.713934   2.157527   7.872068   1.087323   3.318025
    26  H    3.347912   2.169209   8.465853   1.086338   3.844175
    27  H    2.034175   2.781298   5.066856   3.259004   1.085144
    28  H    2.050272   2.794887   6.383750   2.158294   2.625555
    29  H    2.007461   3.451376   6.627016   2.166993   3.259671
    30  H    5.838615   7.655591   2.046314   8.054389   5.232089
    31  H    6.035548   8.212438   2.010521   8.371517   5.755825
                   11         12         13         14         15
    11  C    0.000000
    12  C    6.599556   0.000000
    13  O    3.556235   3.725640   0.000000
    14  H    5.216775   2.147110   2.593303   0.000000
    15  H    6.017782   2.140868   2.609514   1.756859   0.000000
    16  H    5.821557   3.259067   4.629937   4.047627   4.834185
    17  H    6.147421   2.625902   4.121406   3.931505   4.035017
    18  H    3.289424   6.172668   2.547993   4.644120   4.609915
    19  H    3.831070   6.146695   2.638415   5.164773   4.730884
    20  H    5.020042   2.770052   2.033871   3.037631   2.470714
    21  H    3.746641   3.841702   2.843389   3.749568   4.290956
    22  H    3.758926   3.258409   2.749940   2.560287   3.752610
    23  H    3.445922   8.226014   4.507040   6.872949   6.878719
    24  H    2.803393   7.590133   4.084423   6.555984   6.623562
    25  H    2.138337   7.787489   4.343147   6.066819   6.674565
    26  H    2.139731   8.563786   5.150282   7.117706   7.699958
    27  H    2.606921   5.042703   2.040327   4.308997   4.468750
    28  H    1.087762   6.719380   3.880252   5.643066   6.362163
    29  H    1.081037   6.968931   4.269595   5.482464   6.537616
    30  H    7.120046   1.087673   4.072823   3.051200   2.458779
    31  H    7.389272   1.080950   4.517016   2.455229   2.506459
                   16         17         18         19         20
    16  H    0.000000
    17  H    1.757216   0.000000
    18  H    6.987585   6.593690   0.000000
    19  H    6.802953   6.077128   1.756217   0.000000
    20  H    3.733817   2.560143   4.373200   3.754309   0.000000
    21  H    2.475656   2.463237   4.878084   4.522986   2.473494
    22  H    2.452612   3.047426   4.823108   5.068020   3.040765
    23  H    8.357130   8.022812   2.463758   2.536043   5.999628
    24  H    7.204578   6.883031   3.051626   2.451866   5.181924
    25  H    7.680239   7.833480   2.693291   3.827667   6.196232
    26  H    7.874101   8.065315   3.827912   4.297191   6.677752
    27  H    4.671266   4.289261   3.030552   2.453036   2.754162
    28  H    5.522842   5.832656   3.957837   4.047061   4.957194
    29  H    6.004408   6.607490   4.074323   4.845727   5.748936
    30  H    3.587499   2.436394   6.520426   6.214216   2.621131
    31  H    4.015819   3.587888   6.827869   6.963696   3.775530
                   21         22         23         24         25
    21  H    0.000000
    22  H    1.755930   0.000000
    23  H    5.955142   6.356563   0.000000
    24  H    4.737948   5.512584   1.746690   0.000000
    25  H    5.585865   5.390922   2.459213   3.046595   0.000000
    26  H    5.653734   5.880836   2.550694   2.447432   1.753094
    27  H    2.229013   3.115915   3.786401   2.646616   3.961136
    28  H    3.371215   3.821513   3.804876   2.662762   3.044659
    29  H    4.253193   3.936324   4.290510   3.808984   2.446233
    30  H    4.090927   3.951080   8.470352   7.755280   8.327883
    31  H    4.847602   4.027298   9.013031   8.503288   8.450738
                   26         27         28         29         30
    26  H    0.000000
    27  H    4.031455   0.000000
    28  H    2.455339   2.395254   0.000000
    29  H    2.524685   3.553936   1.757393   0.000000
    30  H    9.002083   5.226786   7.133398   7.607632   0.000000
    31  H    9.359714   6.009651   7.601847   7.676105   1.757402
                   31
    31  H    0.000000
 Stoichiometry    C10H18O3
 Framework group  C1[X(C10H18O3)]
 Deg. of freedom    87
 Full point group                 C1      NOp   1
 Largest Abelian subgroup         C1      NOp   1
 Largest concise Abelian subgroup C1      NOp   1
                         Standard orientation:                         
 ---------------------------------------------------------------------
 Center     Atomic      Atomic             Coordinates (Angstroms)
 Number     Number       Type             X           Y           Z
 ---------------------------------------------------------------------
      1          6           0       -2.243315   -1.133494   -0.685968
      2          6           0       -2.885414    1.244305    0.735354
      3          6           0        2.353058   -1.310476    0.341009
      4          6           0       -1.247325   -0.581901    0.325300
      5          6           0       -1.429891    0.933627    0.405697
      6          8           0        1.428171    0.650577   -0.695468
      7          6           0        3.665136   -0.563989    0.595157
      8          8           0       -3.762877    0.698386   -0.228575
      9          6           0        3.831771    0.574083   -0.412237
     10          6           0        1.189317   -0.337183    0.279078
     11          6           0        2.580350    1.436443   -0.436446
     12          6           0       -3.660195   -0.707877   -0.328585
     13          8           0        0.043301   -1.030323   -0.082530
     14          1           0       -1.987009   -0.760050   -1.673132
     15          1           0       -2.192625   -2.218006   -0.714675
     16          1           0       -3.054166    2.311970    0.736672
     17          1           0       -3.148237    0.856778    1.717170
     18          1           0        2.400764   -1.843747   -0.605005
     19          1           0        2.162515   -2.037311    1.124176
     20          1           0       -1.443470   -1.008253    1.305150
     21          1           0       -0.803326    1.377213    1.171207
     22          1           0       -1.176741    1.390471   -0.544507
     23          1           0        4.501872   -1.252918    0.537961
     24          1           0        3.659041   -0.155246    1.603643
     25          1           0        4.002496    0.167791   -1.406245
     26          1           0        4.688231    1.193173   -0.160573
     27          1           0        1.055159    0.148483    1.240154
     28          1           0        2.452415    1.952726    0.512401
     29          1           0        2.620038    2.177541   -1.222474
     30          1           0       -3.967574   -1.155131    0.614026
     31          1           0       -4.359095   -1.015837   -1.093537
 ---------------------------------------------------------------------
 Rotational constants (GHZ):           2.1348479           0.3754459           0.3444890
 Standard basis: 6-311++G(2d,2p) (5D, 7F)
 There are   557 symmetry adapted cartesian basis functions of A   symmetry.
 There are   531 symmetry adapted basis functions of A   symmetry.
   531 basis functions,   762 primitive gaussians,   557 cartesian basis functions
    51 alpha electrons       51 beta electrons
       nuclear repulsion energy       882.8555905471 Hartrees.
 NAtoms=   31 NActive=   31 NUniq=   31 SFac= 1.00D+00 NAtFMM=   60 NAOKFM=F Big=F
 Integral buffers will be    131072 words long.
 Raffenetti 2 integral format.
 Two-electron integral symmetry is turned on.
 ------------------------------------------------------------------------------
 Polarizable Continuum Model (PCM)
 =================================
 Model                : PCM.
 Atomic radii         : SMD-Coulomb.
 Polarization charges : Total charges.
 Charge compensation  : None.
 Solution method      : On-the-fly selection.
 Cavity type          : VdW (van der Waals Surface) (Alpha=1.000).
 Cavity algorithm     : GePol (No added spheres)
                        Default sphere list used, NSphG=   31.
                        Lebedev-Laikov grids with approx.  5.0 points / Ang**2.
                        Smoothing algorithm: York/Karplus (Gamma=1.0000).
                        Polarization charges: spherical gaussians, with
                                              point-specific exponents (IZeta= 3).
                        Self-potential: point-specific (ISelfS= 7).
                        Self-field    : sphere-specific E.n sum rule (ISelfD= 2).
 1st derivatives      : Analytical E(r).r(x)/FMM algorithm (CHGder, D1EAlg=3).
                        Cavity 1st derivative terms included.
 Solvent              : Water, Eps=  78.355300 Eps(inf)=   1.777849
 ------------------------------------------------------------------------------
 ------------------------------------------------------------------------------
 Atomic radii for non-electrostatic terms: SMD-CDS.
 ------------------------------------------------------------------------------
 Nuclear repulsion after PCM non-electrostatic terms =      882.8620047861 Hartrees.
 One-electron integrals computed using PRISM.
 NBasis=   531 RedAO= T EigKep=  4.53D-06  NBF=   531
 NBsUse=   531 1.00D-06 EigRej= -1.00D+00 NBFU=   531
 ExpMin= 3.60D-02 ExpMax= 8.59D+03 ExpMxC= 1.30D+03 IAcc=3 IRadAn=         5 AccDes= 0.00D+00
 Harris functional with IExCor= 1009 and IRadAn=       5 diagonalized for initial guess.
 HarFok:  IExCor= 1009 AccDes= 0.00D+00 IRadAn=         5 IDoV= 1 UseB2=F ITyADJ=14
 ICtDFT=  3500011 ScaDFX=  1.000000  1.000000  1.000000  1.000000
 FoFCou: FMM=F IPFlag=           0 FMFlag=      100000 FMFlg1=           0
         NFxFlg=           0 DoJE=T BraDBF=F KetDBF=T FulRan=T
         wScrn=  0.000000 ICntrl=       500 IOpCl=  0 I1Cent=   200000004 NGrid=           0
         NMat0=    1 NMatS0=      1 NMatT0=    0 NMatD0=    1 NMtDS0=    0 NMtDT0=    0
 Petite list used in FoFCou.
 Requested convergence on RMS density matrix=1.00D-08 within 128 cycles.
 Requested convergence on MAX density matrix=1.00D-06.
 Requested convergence on             energy=1.00D-06.
 No special actions if energy rises.
 Inv3:  Mode=1 IEnd=    12024012.
 Iteration    1 A*A^-1 deviation from unit magnitude is 6.88D-15 for    374.
 Iteration    1 A*A^-1 deviation from orthogonality  is 3.61D-15 for   1210    351.
 Iteration    1 A^-1*A deviation from unit magnitude is 7.66D-15 for    360.
 Iteration    1 A^-1*A deviation from orthogonality  is 2.58D-15 for   1986    564.
 Error on total polarization charges =  0.06276
 SCF Done:  E(RM062X) =  -617.504675981     A.U. after   12 cycles
            NFock= 12  Conv=0.55D-08     -V/T= 2.0035
 SMD-CDS (non-electrostatic) energy       (kcal/mol) =       4.02
 (included in total energy above)

 **********************************************************************

            Population analysis using the SCF Density.

 **********************************************************************

 Orbital symmetries:
       Occupied  (A) (A) (A) (A) (A) (A) (A) (A) (A) (A) (A) (A)
                 (A) (A) (A) (A) (A) (A) (A) (A) (A) (A) (A) (A)
                 (A) (A) (A) (A) (A) (A) (A) (A) (A) (A) (A) (A)
                 (A) (A) (A) (A) (A) (A) (A) (A) (A) (A) (A) (A)
                 (A) (A) (A)
       Virtual   (A) (A) (A) (A) (A) (A) (A) (A) (A) (A) (A) (A)
                 (A) (A) (A) (A) (A) (A) (A) (A) (A) (A) (A) (A)
                 (A) (A) (A) (A) (A) (A) (A) (A) (A) (A) (A) (A)
                 (A) (A) (A) (A) (A) (A) (A) (A) (A) (A) (A) (A)
                 (A) (A) (A) (A) (A) (A) (A) (A) (A) (A) (A) (A)
                 (A) (A) (A) (A) (A) (A) (A) (A) (A) (A) (A) (A)
                 (A) (A) (A) (A) (A) (A) (A) (A) (A) (A) (A) (A)
                 (A) (A) (A) (A) (A) (A) (A) (A) (A) (A) (A) (A)
                 (A) (A) (A) (A) (A) (A) (A) (A) (A) (A) (A) (A)
                 (A) (A) (A) (A) (A) (A) (A) (A) (A) (A) (A) (A)
                 (A) (A) (A) (A) (A) (A) (A) (A) (A) (A) (A) (A)
                 (A) (A) (A) (A) (A) (A) (A) (A) (A) (A) (A) (A)
                 (A) (A) (A) (A) (A) (A) (A) (A) (A) (A) (A) (A)
                 (A) (A) (A) (A) (A) (A) (A) (A) (A) (A) (A) (A)
                 (A) (A) (A) (A) (A) (A) (A) (A) (A) (A) (A) (A)
                 (A) (A) (A) (A) (A) (A) (A) (A) (A) (A) (A) (A)
                 (A) (A) (A) (A) (A) (A) (A) (A) (A) (A) (A) (A)
                 (A) (A) (A) (A) (A) (A) (A) (A) (A) (A) (A) (A)
                 (A) (A) (A) (A) (A) (A) (A) (A) (A) (A) (A) (A)
                 (A) (A) (A) (A) (A) (A) (A) (A) (A) (A) (A) (A)
                 (A) (A) (A) (A) (A) (A) (A) (A) (A) (A) (A) (A)
                 (A) (A) (A) (A) (A) (A) (A) (A) (A) (A) (A) (A)
                 (A) (A) (A) (A) (A) (A) (A) (A) (A) (A) (A) (A)
                 (A) (A) (A) (A) (A) (A) (A) (A) (A) (A) (A) (A)
                 (A) (A) (A) (A) (A) (A) (A) (A) (A) (A) (A) (A)
                 (A) (A) (A) (A) (A) (A) (A) (A) (A) (A) (A) (A)
                 (A) (A) (A) (A) (A) (A) (A) (A) (A) (A) (A) (A)
                 (A) (A) (A) (A) (A) (A) (A) (A) (A) (A) (A) (A)
                 (A) (A) (A) (A) (A) (A) (A) (A) (A) (A) (A) (A)
                 (A) (A) (A) (A) (A) (A) (A) (A) (A) (A) (A) (A)
                 (A) (A) (A) (A) (A) (A) (A) (A) (A) (A) (A) (A)
                 (A) (A) (A) (A) (A) (A) (A) (A) (A) (A) (A) (A)
                 (A) (A) (A) (A) (A) (A) (A) (A) (A) (A) (A) (A)
                 (A) (A) (A) (A) (A) (A) (A) (A) (A) (A) (A) (A)
                 (A) (A) (A) (A) (A) (A) (A) (A) (A) (A) (A) (A)
                 (A) (A) (A) (A) (A) (A) (A) (A) (A) (A) (A) (A)
                 (A) (A) (A) (A) (A) (A) (A) (A) (A) (A) (A) (A)
                 (A) (A) (A) (A) (A) (A) (A) (A) (A) (A) (A) (A)
                 (A) (A) (A) (A) (A) (A) (A) (A) (A) (A) (A) (A)
                 (A) (A) (A) (A) (A) (A) (A) (A) (A) (A) (A) (A)
 The electronic state is 1-A.
 Alpha  occ. eigenvalues --  -19.63253 -19.62744 -19.62684 -10.63049 -10.58614
 Alpha  occ. eigenvalues --  -10.57477 -10.57426 -10.57284 -10.52412 -10.52392
 Alpha  occ. eigenvalues --  -10.52372 -10.52206 -10.52087  -1.20158  -1.16602
 Alpha  occ. eigenvalues --   -1.13928  -0.90760  -0.89311  -0.86392  -0.84733
 Alpha  occ. eigenvalues --   -0.75123  -0.73364  -0.72542  -0.69720  -0.65628
 Alpha  occ. eigenvalues --   -0.64968  -0.60020  -0.57677  -0.56358  -0.54684
 Alpha  occ. eigenvalues --   -0.54475  -0.52902  -0.52589  -0.51414  -0.49960
 Alpha  occ. eigenvalues --   -0.49331  -0.46695  -0.45689  -0.44549  -0.44120
 Alpha  occ. eigenvalues --   -0.42921  -0.41468  -0.40686  -0.39817  -0.39167
 Alpha  occ. eigenvalues --   -0.38013  -0.37146  -0.36473  -0.34828  -0.33024
 Alpha  occ. eigenvalues --   -0.31947
 Alpha virt. eigenvalues --    0.00496   0.01258   0.01405   0.01470   0.02698
 Alpha virt. eigenvalues --    0.02877   0.02971   0.03984   0.04033   0.04831
 Alpha virt. eigenvalues --    0.05165   0.05339   0.05799   0.06091   0.07476
 Alpha virt. eigenvalues --    0.07765   0.08082   0.08523   0.08880   0.09856
 Alpha virt. eigenvalues --    0.09965   0.11168   0.11319   0.12003   0.12595
 Alpha virt. eigenvalues --    0.12874   0.12941   0.13234   0.13736   0.13931
 Alpha virt. eigenvalues --    0.14028   0.14446   0.14679   0.15136   0.15308
 Alpha virt. eigenvalues --    0.15886   0.16062   0.16176   0.16364   0.16816
 Alpha virt. eigenvalues --    0.17289   0.17553   0.17924   0.17981   0.18470
 Alpha virt. eigenvalues --    0.18583   0.18789   0.18900   0.19477   0.19919
 Alpha virt. eigenvalues --    0.20118   0.20472   0.20719   0.21403   0.22319
 Alpha virt. eigenvalues --    0.22442   0.22701   0.23867   0.24982   0.25190
 Alpha virt. eigenvalues --    0.25657   0.25992   0.26196   0.26851   0.27959
 Alpha virt. eigenvalues --    0.28224   0.28322   0.28505   0.29591   0.29811
 Alpha virt. eigenvalues --    0.30564   0.30964   0.31501   0.32181   0.32611
 Alpha virt. eigenvalues --    0.32718   0.33286   0.33640   0.34080   0.34802
 Alpha virt. eigenvalues --    0.35133   0.35301   0.35791   0.36347   0.36811
 Alpha virt. eigenvalues --    0.36929   0.37151   0.37434   0.37924   0.38569
 Alpha virt. eigenvalues --    0.38942   0.39623   0.39816   0.40276   0.40904
 Alpha virt. eigenvalues --    0.41098   0.41740   0.42684   0.44216   0.45103
 Alpha virt. eigenvalues --    0.46312   0.47861   0.49730   0.50673   0.51484
 Alpha virt. eigenvalues --    0.52167   0.52984   0.54500   0.55088   0.55773
 Alpha virt. eigenvalues --    0.56751   0.57294   0.57702   0.59055   0.59471
 Alpha virt. eigenvalues --    0.60035   0.61042   0.61293   0.61502   0.62210
 Alpha virt. eigenvalues --    0.62765   0.63683   0.63968   0.64220   0.64920
 Alpha virt. eigenvalues --    0.65344   0.66021   0.66374   0.67106   0.67971
 Alpha virt. eigenvalues --    0.68470   0.68897   0.69313   0.69876   0.70977
 Alpha virt. eigenvalues --    0.71692   0.72029   0.72841   0.73704   0.74013
 Alpha virt. eigenvalues --    0.74433   0.75187   0.75604   0.75796   0.76031
 Alpha virt. eigenvalues --    0.77094   0.77259   0.78237   0.78765   0.79188
 Alpha virt. eigenvalues --    0.80870   0.83466   0.83960   0.84854   0.85653
 Alpha virt. eigenvalues --    0.86503   0.87661   0.88759   0.89509   0.90497
 Alpha virt. eigenvalues --    0.90733   0.92278   0.92969   0.96056   0.96860
 Alpha virt. eigenvalues --    0.97905   0.98766   0.99975   1.01825   1.03204
 Alpha virt. eigenvalues --    1.04222   1.04410   1.06484   1.06671   1.07522
 Alpha virt. eigenvalues --    1.07534   1.08041   1.08435   1.10024   1.11189
 Alpha virt. eigenvalues --    1.12484   1.13845   1.14554   1.14767   1.16289
 Alpha virt. eigenvalues --    1.16735   1.17140   1.19178   1.20128   1.20534
 Alpha virt. eigenvalues --    1.20946   1.22211   1.22532   1.23408   1.23741
 Alpha virt. eigenvalues --    1.24683   1.25508   1.25866   1.26838   1.27528
 Alpha virt. eigenvalues --    1.28024   1.28940   1.29786   1.30256   1.30678
 Alpha virt. eigenvalues --    1.31659   1.31994   1.32521   1.33121   1.33517
 Alpha virt. eigenvalues --    1.34811   1.36350   1.37256   1.37686   1.38365
 Alpha virt. eigenvalues --    1.39209   1.39911   1.40561   1.41643   1.41969
 Alpha virt. eigenvalues --    1.42808   1.43422   1.44027   1.44162   1.45529
 Alpha virt. eigenvalues --    1.45994   1.47059   1.47296   1.48250   1.48845
 Alpha virt. eigenvalues --    1.49602   1.50091   1.51074   1.51840   1.52573
 Alpha virt. eigenvalues --    1.53395   1.54192   1.54689   1.55758   1.56490
 Alpha virt. eigenvalues --    1.56662   1.57779   1.58629   1.58871   1.59525
 Alpha virt. eigenvalues --    1.60879   1.61129   1.61973   1.62610   1.63241
 Alpha virt. eigenvalues --    1.64354   1.65265   1.65571   1.66403   1.67359
 Alpha virt. eigenvalues --    1.67816   1.69298   1.69732   1.70073   1.71830
 Alpha virt. eigenvalues --    1.72843   1.75106   1.75441   1.78095   1.78918
 Alpha virt. eigenvalues --    1.79779   1.81484   1.81911   1.83661   1.84838
 Alpha virt. eigenvalues --    1.85543   1.88596   1.91907   1.95608   1.98509
 Alpha virt. eigenvalues --    1.99905   2.08261   2.13911   2.16775   2.19389
 Alpha virt. eigenvalues --    2.23434   2.27692   2.31809   2.35010   2.37121
 Alpha virt. eigenvalues --    2.41568   2.43048   2.46064   2.49092   2.52162
 Alpha virt. eigenvalues --    2.56388   2.76661   2.77956   2.79286   2.80320
 Alpha virt. eigenvalues --    2.87738   2.88608   2.91757   2.93134   2.96752
 Alpha virt. eigenvalues --    2.98254   2.98410   3.01348   3.04219   3.06318
 Alpha virt. eigenvalues --    3.07281   3.08314   3.09647   3.11369   3.12707
 Alpha virt. eigenvalues --    3.13218   3.15385   3.17602   3.20044   3.22858
 Alpha virt. eigenvalues --    3.25585   3.30021   3.31884   3.33784   3.35077
 Alpha virt. eigenvalues --    3.36715   3.37458   3.38768   3.40398   3.41038
 Alpha virt. eigenvalues --    3.42919   3.43942   3.45398   3.46880   3.47276
 Alpha virt. eigenvalues --    3.49330   3.49527   3.51117   3.52571   3.52727
 Alpha virt. eigenvalues --    3.53956   3.54838   3.55063   3.55608   3.56905
 Alpha virt. eigenvalues --    3.57713   3.58239   3.58886   3.59818   3.60592
 Alpha virt. eigenvalues --    3.61175   3.62185   3.63918   3.64281   3.66101
 Alpha virt. eigenvalues --    3.66566   3.68288   3.68522   3.69494   3.70758
 Alpha virt. eigenvalues --    3.71485   3.72090   3.72437   3.73474   3.74387
 Alpha virt. eigenvalues --    3.75323   3.75841   3.76705   3.77563   3.78356
 Alpha virt. eigenvalues --    3.78816   3.78941   3.80854   3.81797   3.83979
 Alpha virt. eigenvalues --    3.86643   3.89380   3.89907   3.90896   3.91285
 Alpha virt. eigenvalues --    3.92209   3.94242   3.95941   3.96161   3.97750
 Alpha virt. eigenvalues --    4.00098   4.02543   4.03678   4.04142   4.04346
 Alpha virt. eigenvalues --    4.05637   4.06736   4.06830   4.07770   4.07919
 Alpha virt. eigenvalues --    4.08453   4.10139   4.11388   4.12261   4.12431
 Alpha virt. eigenvalues --    4.12797   4.13232   4.13468   4.14607   4.15511
 Alpha virt. eigenvalues --    4.17261   4.18848   4.19769   4.20014   4.21972
 Alpha virt. eigenvalues --    4.22202   4.23863   4.25230   4.26219   4.27310
 Alpha virt. eigenvalues --    4.28344   4.28771   4.31512   4.32227   4.32653
 Alpha virt. eigenvalues --    4.33727   4.35523   4.36119   4.38180   4.38903
 Alpha virt. eigenvalues --    4.42165   4.44646   4.48151   4.51240   4.55144
 Alpha virt. eigenvalues --    4.60751   4.63107   4.73594   4.77534   4.88739
 Alpha virt. eigenvalues --    4.90706   4.91754   4.93329   4.99880   5.00620
 Alpha virt. eigenvalues --    5.07032   5.08316   5.08843   5.10296   5.11809
 Alpha virt. eigenvalues --    5.12663   5.13209   5.14474   5.30363   5.35489
 Alpha virt. eigenvalues --    5.39343   5.55811   5.58239   5.64470   5.87032
 Alpha virt. eigenvalues --    5.89453   6.03960   7.02208   7.05826   7.06406
 Alpha virt. eigenvalues --    7.09280   7.09955   7.12123   7.14146   7.17402
 Alpha virt. eigenvalues --    7.22770   7.36269   7.42766   7.47548   7.52734
 Alpha virt. eigenvalues --    7.53858   7.59754  23.95484  23.97252  24.04761
 Alpha virt. eigenvalues --   24.09849  24.12426  24.13383  24.14687  24.16856
 Alpha virt. eigenvalues --   24.17807  24.18715  50.16504  50.19758  50.24802
          Condensed to atoms (all electrons):
               1          2          3          4          5          6
     1  C    6.410299   0.222285  -0.009714  -0.852366   0.007822  -0.031574
     2  C    0.222285   6.437632  -0.050270   0.141771  -0.616905  -0.001107
     3  C   -0.009714  -0.050270   7.051613   0.000729  -0.142445  -0.037394
     4  C   -0.852366   0.141771   0.000729   7.614435  -0.748989  -0.019008
     5  C    0.007822  -0.616905  -0.142445  -0.748989   6.435517  -0.009524
     6  O   -0.031574  -0.001107  -0.037394  -0.019008  -0.009524   8.455842
     7  C    0.008773   0.001752  -0.072647  -0.041076  -0.009384   0.027130
     8  O   -0.002846   0.090510   0.001176  -0.005435  -0.033407  -0.000360
     9  C   -0.002198  -0.009491   0.024405  -0.030271  -0.001793  -0.045751
    10  C    0.103651  -0.144089  -0.863337  -0.581672   0.265691   0.231011
    11  C   -0.002966   0.007381  -0.050490   0.020548   0.004278   0.006679
    12  C   -0.132233  -0.331209   0.008579   0.053483   0.211288  -0.003790
    13  O   -0.154945   0.013930  -0.285395   0.028447   0.044329  -0.006078
    14  H    0.437311   0.021041  -0.004438   0.068617  -0.055405  -0.001662
    15  H    0.460248  -0.002044   0.000966  -0.058113   0.001460   0.000398
    16  H    0.005824   0.446541   0.000848  -0.001603  -0.049783   0.001260
    17  H   -0.027344   0.368233   0.000652   0.036999  -0.002830  -0.001274
    18  H    0.004296   0.001971   0.476696  -0.000207   0.004975  -0.007610
    19  H    0.000874  -0.000613   0.438275   0.000631  -0.003696   0.005013
    20  H   -0.067756  -0.022503   0.019983   0.489951  -0.026879   0.004137
    21  H   -0.005337  -0.011168  -0.001168  -0.052895   0.425070  -0.003056
    22  H   -0.063568  -0.068768  -0.003302   0.082217   0.433593  -0.007453
    23  H    0.000845  -0.000300  -0.076301  -0.004141  -0.000890  -0.002390
    24  H   -0.000718   0.000652  -0.038553   0.004611   0.000079   0.000713
    25  H   -0.001399   0.000659  -0.018748   0.004865   0.000383  -0.001672
    26  H    0.000545  -0.000269   0.004779  -0.001498  -0.000067   0.006335
    27  H   -0.005513  -0.000818  -0.079350   0.068715  -0.010780  -0.059780
    28  H    0.001421   0.001867   0.011828   0.001613   0.008327  -0.032529
    29  H    0.001617   0.001673  -0.003043  -0.000210  -0.001885  -0.070807
    30  H   -0.074037  -0.015464  -0.000805   0.039831  -0.009872   0.000160
    31  H   -0.034431  -0.000661   0.000932  -0.005988   0.012678  -0.000246
               7          8          9         10         11         12
     1  C    0.008773  -0.002846  -0.002198   0.103651  -0.002966  -0.132233
     2  C    0.001752   0.090510  -0.009491  -0.144089   0.007381  -0.331209
     3  C   -0.072647   0.001176   0.024405  -0.863337  -0.050490   0.008579
     4  C   -0.041076  -0.005435  -0.030271  -0.581672   0.020548   0.053483
     5  C   -0.009384  -0.033407  -0.001793   0.265691   0.004278   0.211288
     6  O    0.027130  -0.000360  -0.045751   0.231011   0.006679  -0.003790
     7  C    5.635485  -0.000069   0.023273   0.047379  -0.041099  -0.001668
     8  O   -0.000069   8.438776   0.000141   0.002479   0.001085   0.089085
     9  C    0.023273   0.000141   5.580080   0.061742   0.056188  -0.000435
    10  C    0.047379   0.002479   0.061742   6.378619  -0.071233  -0.049605
    11  C   -0.041099   0.001085   0.056188  -0.071233   5.385891   0.002897
    12  C   -0.001668   0.089085  -0.000435  -0.049605   0.002897   5.579512
    13  O    0.027213  -0.003694   0.008517   0.190291   0.002021   0.034323
    14  H    0.000203  -0.004087   0.001091  -0.015618   0.000079  -0.074454
    15  H   -0.000840   0.008577  -0.000154   0.006799  -0.000093  -0.034885
    16  H   -0.000157  -0.074513   0.000503   0.003487  -0.001030   0.009805
    17  H   -0.000343  -0.040632  -0.000017  -0.001476   0.001311  -0.002304
    18  H   -0.021117  -0.000037  -0.016311  -0.080012  -0.001210  -0.001022
    19  H   -0.029241   0.000014   0.002336  -0.029437   0.000826   0.000779
    20  H   -0.003172  -0.004618   0.001083  -0.026396  -0.001983   0.014155
    21  H    0.006201   0.015418  -0.001585   0.037958  -0.000475  -0.003660
    22  H   -0.002555  -0.007561  -0.004667  -0.050899   0.005345   0.023696
    23  H    0.430421  -0.000006  -0.027712   0.046491   0.005060  -0.000070
    24  H    0.518490   0.000004  -0.064438  -0.025172  -0.009599   0.000178
    25  H   -0.014895  -0.000011   0.471472  -0.005614  -0.064231   0.000204
    26  H   -0.057431   0.000004   0.462562   0.007791  -0.045690  -0.000052
    27  H   -0.033553  -0.000445   0.009480   0.444069   0.019916  -0.003853
    28  H   -0.006931  -0.000161  -0.074291  -0.039786   0.484087   0.000690
    29  H    0.007719   0.000116  -0.035579   0.012824   0.435512  -0.000451
    30  H    0.000012  -0.043675   0.000117  -0.002344   0.000343   0.457005
    31  H    0.000038  -0.066796  -0.000111   0.000639  -0.000143   0.436766
              13         14         15         16         17         18
     1  C   -0.154945   0.437311   0.460248   0.005824  -0.027344   0.004296
     2  C    0.013930   0.021041  -0.002044   0.446541   0.368233   0.001971
     3  C   -0.285395  -0.004438   0.000966   0.000848   0.000652   0.476696
     4  C    0.028447   0.068617  -0.058113  -0.001603   0.036999  -0.000207
     5  C    0.044329  -0.055405   0.001460  -0.049783  -0.002830   0.004975
     6  O   -0.006078  -0.001662   0.000398   0.001260  -0.001274  -0.007610
     7  C    0.027213   0.000203  -0.000840  -0.000157  -0.000343  -0.021117
     8  O   -0.003694  -0.004087   0.008577  -0.074513  -0.040632  -0.000037
     9  C    0.008517   0.001091  -0.000154   0.000503  -0.000017  -0.016311
    10  C    0.190291  -0.015618   0.006799   0.003487  -0.001476  -0.080012
    11  C    0.002021   0.000079  -0.000093  -0.001030   0.001311  -0.001210
    12  C    0.034323  -0.074454  -0.034885   0.009805  -0.002304  -0.001022
    13  O    8.568245  -0.000615  -0.005511  -0.000051  -0.001307   0.000867
    14  H   -0.000615   0.450594  -0.017576  -0.001759   0.002177   0.000500
    15  H   -0.005511  -0.017576   0.472775   0.001471  -0.001206  -0.000587
    16  H   -0.000051  -0.001759   0.001471   0.482117  -0.016010   0.000065
    17  H   -0.001307   0.002177  -0.001206  -0.016010   0.498683  -0.000091
    18  H    0.000867   0.000500  -0.000587   0.000065  -0.000091   0.462549
    19  H   -0.002198  -0.000098   0.000333  -0.000099   0.000270  -0.018564
    20  H   -0.044546   0.003261  -0.008789   0.000935  -0.006467   0.001345
    21  H   -0.008334  -0.003178   0.000668  -0.014859   0.000251   0.000159
    22  H    0.000062   0.002429  -0.003228  -0.003567   0.004479  -0.000799
    23  H   -0.002640  -0.000106  -0.000026   0.000015  -0.000043  -0.003536
    24  H   -0.000126   0.000089  -0.000005  -0.000071   0.000087   0.004798
    25  H    0.002476   0.000120  -0.000028  -0.000015   0.000009   0.001852
    26  H    0.000272   0.000004  -0.000001   0.000011  -0.000007  -0.002949
    27  H   -0.016122   0.001309   0.000242   0.001247  -0.000588  -0.003391
    28  H    0.004714  -0.000168  -0.000004  -0.000006  -0.000082   0.000570
    29  H   -0.002244   0.000007   0.000080  -0.000074   0.000112  -0.000424
    30  H   -0.000530   0.002577   0.001495  -0.003883   0.011975  -0.000045
    31  H   -0.002226  -0.007157  -0.007858   0.002121  -0.003577   0.000021
              19         20         21         22         23         24
     1  C    0.000874  -0.067756  -0.005337  -0.063568   0.000845  -0.000718
     2  C   -0.000613  -0.022503  -0.011168  -0.068768  -0.000300   0.000652
     3  C    0.438275   0.019983  -0.001168  -0.003302  -0.076301  -0.038553
     4  C    0.000631   0.489951  -0.052895   0.082217  -0.004141   0.004611
     5  C   -0.003696  -0.026879   0.425070   0.433593  -0.000890   0.000079
     6  O    0.005013   0.004137  -0.003056  -0.007453  -0.002390   0.000713
     7  C   -0.029241  -0.003172   0.006201  -0.002555   0.430421   0.518490
     8  O    0.000014  -0.004618   0.015418  -0.007561  -0.000006   0.000004
     9  C    0.002336   0.001083  -0.001585  -0.004667  -0.027712  -0.064438
    10  C   -0.029437  -0.026396   0.037958  -0.050899   0.046491  -0.025172
    11  C    0.000826  -0.001983  -0.000475   0.005345   0.005060  -0.009599
    12  C    0.000779   0.014155  -0.003660   0.023696  -0.000070   0.000178
    13  O   -0.002198  -0.044546  -0.008334   0.000062  -0.002640  -0.000126
    14  H   -0.000098   0.003261  -0.003178   0.002429  -0.000106   0.000089
    15  H    0.000333  -0.008789   0.000668  -0.003228  -0.000026  -0.000005
    16  H   -0.000099   0.000935  -0.014859  -0.003567   0.000015  -0.000071
    17  H    0.000270  -0.006467   0.000251   0.004479  -0.000043   0.000087
    18  H   -0.018564   0.001345   0.000159  -0.000799  -0.003536   0.004798
    19  H    0.474058  -0.002385   0.000548   0.000026  -0.010520  -0.005848
    20  H   -0.002385   0.414456  -0.010345   0.001483   0.000202   0.000102
    21  H    0.000548  -0.010345   0.491365  -0.023838   0.000119   0.001527
    22  H    0.000026   0.001483  -0.023838   0.439614  -0.000083  -0.000187
    23  H   -0.010520   0.000202   0.000119  -0.000083   0.457906  -0.001300
    24  H   -0.005848   0.000102   0.001527  -0.000187  -0.001300   0.453702
    25  H   -0.001801   0.000181   0.000183   0.000005  -0.000660   0.002652
    26  H    0.001632  -0.000140  -0.000190  -0.000024  -0.008314  -0.005321
    27  H    0.002071  -0.004036  -0.017037   0.006251  -0.002149  -0.010283
    28  H   -0.000842   0.000740  -0.003449   0.001066  -0.000811   0.000170
    29  H    0.001448  -0.000226   0.001061  -0.001099  -0.000098  -0.001517
    30  H    0.000051  -0.008168  -0.000417   0.001163  -0.000010   0.000000
    31  H    0.000019  -0.000614   0.000498  -0.000527   0.000009  -0.000002
              25         26         27         28         29         30
     1  C   -0.001399   0.000545  -0.005513   0.001421   0.001617  -0.074037
     2  C    0.000659  -0.000269  -0.000818   0.001867   0.001673  -0.015464
     3  C   -0.018748   0.004779  -0.079350   0.011828  -0.003043  -0.000805
     4  C    0.004865  -0.001498   0.068715   0.001613  -0.000210   0.039831
     5  C    0.000383  -0.000067  -0.010780   0.008327  -0.001885  -0.009872
     6  O   -0.001672   0.006335  -0.059780  -0.032529  -0.070807   0.000160
     7  C   -0.014895  -0.057431  -0.033553  -0.006931   0.007719   0.000012
     8  O   -0.000011   0.000004  -0.000445  -0.000161   0.000116  -0.043675
     9  C    0.471472   0.462562   0.009480  -0.074291  -0.035579   0.000117
    10  C   -0.005614   0.007791   0.444069  -0.039786   0.012824  -0.002344
    11  C   -0.064231  -0.045690   0.019916   0.484087   0.435512   0.000343
    12  C    0.000204  -0.000052  -0.003853   0.000690  -0.000451   0.457005
    13  O    0.002476   0.000272  -0.016122   0.004714  -0.002244  -0.000530
    14  H    0.000120   0.000004   0.001309  -0.000168   0.000007   0.002577
    15  H   -0.000028  -0.000001   0.000242  -0.000004   0.000080   0.001495
    16  H   -0.000015   0.000011   0.001247  -0.000006  -0.000074  -0.003883
    17  H    0.000009  -0.000007  -0.000588  -0.000082   0.000112   0.011975
    18  H    0.001852  -0.002949  -0.003391   0.000570  -0.000424  -0.000045
    19  H   -0.001801   0.001632   0.002071  -0.000842   0.001448   0.000051
    20  H    0.000181  -0.000140  -0.004036   0.000740  -0.000226  -0.008168
    21  H    0.000183  -0.000190  -0.017037  -0.003449   0.001061  -0.000417
    22  H    0.000005  -0.000024   0.006251   0.001066  -0.001099   0.001163
    23  H   -0.000660  -0.008314  -0.002149  -0.000811  -0.000098  -0.000010
    24  H    0.002652  -0.005321  -0.010283   0.000170  -0.001517   0.000000
    25  H    0.469484  -0.009580  -0.001355   0.003131  -0.002797  -0.000003
    26  H   -0.009580   0.471200   0.001233   0.001326  -0.009625   0.000005
    27  H   -0.001355   0.001233   0.439429  -0.001434  -0.001436   0.000468
    28  H    0.003131   0.001326  -0.001434   0.479622  -0.007211  -0.000088
    29  H   -0.002797  -0.009625  -0.001436  -0.007211   0.476370   0.000011
    30  H   -0.000003   0.000005   0.000468  -0.000088   0.000011   0.492489
    31  H   -0.000007  -0.000002  -0.000097   0.000063  -0.000017  -0.014839
              31
     1  C   -0.034431
     2  C   -0.000661
     3  C    0.000932
     4  C   -0.005988
     5  C    0.012678
     6  O   -0.000246
     7  C    0.000038
     8  O   -0.066796
     9  C   -0.000111
    10  C    0.000639
    11  C   -0.000143
    12  C    0.436766
    13  O   -0.002226
    14  H   -0.007157
    15  H   -0.007858
    16  H    0.002121
    17  H   -0.003577
    18  H    0.000021
    19  H    0.000019
    20  H   -0.000614
    21  H    0.000498
    22  H   -0.000527
    23  H    0.000009
    24  H   -0.000002
    25  H   -0.000007
    26  H   -0.000002
    27  H   -0.000097
    28  H    0.000063
    29  H   -0.000017
    30  H   -0.014839
    31  H    0.476112
 Mulliken charges:
               1
     1  C   -0.196865
     2  C   -0.482218
     3  C   -0.304061
     4  C   -0.253991
     5  C   -0.130956
     6  O   -0.395612
     7  C   -0.397912
     8  O   -0.359030
     9  C   -0.388185
    10  C    0.145770
    11  C   -0.149204
    12  C   -0.282753
    13  O   -0.389143
    14  H    0.194915
    15  H    0.185440
    16  H    0.211230
    17  H    0.180362
    18  H    0.197248
    19  H    0.176140
    20  H    0.287010
    21  H    0.179965
    22  H    0.240696
    23  H    0.201040
    24  H    0.175285
    25  H    0.165141
    26  H    0.183461
    27  H    0.257591
    28  H    0.166557
    29  H    0.200192
    30  H    0.166481
    31  H    0.215404
 Sum of Mulliken charges =  -0.00000
 Mulliken charges with hydrogens summed into heavy atoms:
               1
     1  C    0.183490
     2  C   -0.090626
     3  C    0.069327
     4  C    0.033020
     5  C    0.289705
     6  O   -0.395612
     7  C   -0.021587
     8  O   -0.359030
     9  C   -0.039582
    10  C    0.403361
    11  C    0.217546
    12  C    0.099132
    13  O   -0.389143
 Electronic spatial extent (au):  <R**2>=           3291.6449
 Charge=              0.0000 electrons
 Dipole moment (field-independent basis, Debye):
    X=              2.5551    Y=              0.1872    Z=              3.7039  Tot=              4.5036
 Quadrupole moment (field-independent basis, Debye-Ang):
   XX=            -77.3203   YY=            -77.9903   ZZ=            -79.0590
   XY=              7.8769   XZ=             -1.8197   YZ=              1.6111
 Traceless Quadrupole moment (field-independent basis, Debye-Ang):
   XX=              0.8029   YY=              0.1329   ZZ=             -0.9358
   XY=              7.8769   XZ=             -1.8197   YZ=              1.6111
 Octapole moment (field-independent basis, Debye-Ang**2):
  XXX=             66.1971  YYY=             10.1606  ZZZ=              1.3662  XYY=             -0.7801
  XXY=            -23.1315  XXZ=              9.7302  XZZ=             -6.0436  YZZ=              0.5028
  YYZ=              1.4521  XYZ=             -8.0608
 Hexadecapole moment (field-independent basis, Debye-Ang**3):
 XXXX=          -3634.0463 YYYY=           -575.0554 ZZZZ=           -263.3601 XXXY=            138.4903
 XXXZ=            -33.3476 YYYX=              0.2920 YYYZ=             -2.1669 ZZZX=             -2.3444
 ZZZY=             -1.6897 XXYY=           -650.4901 XXZZ=           -616.6705 YYZZ=           -137.8827
 XXYZ=             23.2874 YYXZ=             -9.3539 ZZXY=              4.4816
 N-N= 8.828620047861D+02 E-N=-3.207886580223D+03  KE= 6.153581054666D+02
 D1PCM: PCM CHGder 1st derivatives, ID1Alg=3 FixD1E=F DoIter=F DoCFld=F I1PDM=0.
 Calling FoFJK, ICntrl=      2127 FMM=F ISym2X=0 I1Cent= 0 IOpClX= 0 NMat=1 NMatS=1 NMatT=0.
 ***** Axes restored to original set *****
 -------------------------------------------------------------------
 Center     Atomic                   Forces (Hartrees/Bohr)
 Number     Number              X              Y              Z
 -------------------------------------------------------------------
      1        6           0.001252161   -0.001727244   -0.005057215
      2        6          -0.005574976   -0.003078692    0.000699514
      3        6          -0.001282458    0.002881443   -0.001902996
      4        6           0.003138552    0.008651051    0.002708886
      5        6           0.001283208   -0.003431994   -0.001568505
      6        8           0.007549682    0.003662356    0.011236808
      7        6           0.002680172    0.001271160    0.002955664
      8        8           0.006847836    0.006577109    0.006880404
      9        6           0.001984109   -0.000225438   -0.002710795
     10        6          -0.005299316   -0.005346915   -0.006550942
     11        6          -0.004931183   -0.004369877   -0.001678878
     12        6          -0.006666209   -0.001360193   -0.000544637
     13        8          -0.000091399   -0.007541137    0.011772028
     14        1          -0.001156681    0.002255900    0.003066296
     15        1          -0.000490716   -0.003250324   -0.000274815
     16        1           0.000503670    0.004547675    0.000068693
     17        1           0.000324950   -0.002501865   -0.005109787
     18        1           0.000455723   -0.000903144    0.003795081
     19        1           0.000837985   -0.001840545   -0.002397629
     20        1           0.002495472   -0.001587607   -0.005334679
     21        1          -0.003069826    0.001087282   -0.002884732
     22        1          -0.000863510    0.001031418    0.004445987
     23        1          -0.001962304   -0.001755086    0.000262718
     24        1           0.000715717    0.001649485   -0.002834485
     25        1           0.000279188   -0.001397363    0.003033977
     26        1          -0.002103416    0.001587547   -0.000825268
     27        1           0.000309985    0.003931121   -0.007681258
     28        1          -0.000050516    0.002148827   -0.005327406
     29        1          -0.000401615    0.003116566    0.003338767
     30        1           0.000581411   -0.002679492   -0.004943227
     31        1           0.002704303   -0.001402026    0.003362431
 -------------------------------------------------------------------
 Cartesian Forces:  Max     0.011772028 RMS     0.003802798

 GradGradGradGradGradGradGradGradGradGradGradGradGradGradGradGradGradGrad
 Berny optimization.
 FormGI is forming the generalized inverse of G from B-inverse, IUseBI=4.
 Internal  Forces:  Max     0.015913008 RMS     0.002372455
 Search for a local minimum.
 Step number   1 out of a maximum of  186
 All quantities printed in internal units (Hartrees-Bohrs-Radians)
 Mixed Optimization -- RFO/linear search
 Second derivative matrix not updated -- first step.
 ITU=  0
     Eigenvalues ---    0.00613   0.00698   0.00734   0.00750   0.01418
     Eigenvalues ---    0.01488   0.01860   0.02688   0.02739   0.03112
     Eigenvalues ---    0.03268   0.04118   0.04159   0.04773   0.04778
     Eigenvalues ---    0.04922   0.04925   0.05076   0.05149   0.05181
     Eigenvalues ---    0.05375   0.05716   0.05721   0.06135   0.06194
     Eigenvalues ---    0.06199   0.06316   0.06504   0.07692   0.07758
     Eigenvalues ---    0.07937   0.07958   0.08006   0.08009   0.08267
     Eigenvalues ---    0.08742   0.08909   0.09889   0.10876   0.11484
     Eigenvalues ---    0.11707   0.11722   0.11762   0.12328   0.13122
     Eigenvalues ---    0.14103   0.14466   0.16129   0.16715   0.17593
     Eigenvalues ---    0.19137   0.21209   0.21853   0.25000   0.28572
     Eigenvalues ---    0.28630   0.28712   0.28791   0.28956   0.29242
     Eigenvalues ---    0.30071   0.30448   0.35023   0.35073   0.35073
     Eigenvalues ---    0.35083   0.35124   0.35160   0.35227   0.35239
     Eigenvalues ---    0.35265   0.35270   0.35354   0.35358   0.35380
     Eigenvalues ---    0.35481   0.35499   0.35869   0.35880   0.35883
     Eigenvalues ---    0.41213   0.41588   0.41597   0.42132   0.42713
     Eigenvalues ---    0.477951000.000001000.000001000.000001000.00000
     Eigenvalues --- 1000.000001000.000001000.000001000.000001000.00000
     Eigenvalues --- 1000.000001000.000001000.000001000.000001000.00000
     Eigenvalues --- 1000.000001000.000001000.000001000.000001000.00000
     Eigenvalues --- 1000.000001000.000001000.000001000.000001000.00000
     Eigenvalues --- 1000.000001000.000001000.000001000.000001000.00000
     Eigenvalues --- 1000.000001000.000001000.000001000.000001000.00000
     Eigenvalues --- 1000.000001000.000001000.000001000.000001000.00000
     Eigenvalues --- 1000.000001000.000001000.000001000.000001000.00000
     Eigenvalues --- 1000.000001000.000001000.000001000.000001000.00000
     Eigenvalues --- 1000.000001000.000001000.000001000.000001000.00000
     Eigenvalues --- 1000.000001000.000001000.000001000.000001000.00000
     Eigenvalues --- 1000.000001000.000001000.000001000.000001000.00000
     Eigenvalues --- 1000.000001000.000001000.000001000.000001000.00000
     Eigenvalues --- 1000.000001000.000001000.000001000.000001000.00000
     Eigenvalues --- 1000.000001000.000001000.000001000.000001000.00000
     Eigenvalues --- 1000.000001000.000001000.000001000.000001000.00000
     Eigenvalues --- 1000.000001000.000001000.000001000.000001000.00000
     Eigenvalues --- 1000.000001000.000001000.000001000.000001000.00000
     Eigenvalues --- 1000.000001000.000001000.000001000.000001000.00000
 RFO step:  Lambda=-3.64451635D-03 EMin= 6.12787349D-03
 Linear search not attempted -- first point.
 Iteration  1 RMS(Cart)=  0.07307647 RMS(Int)=  0.00107438
 Iteration  2 RMS(Cart)=  0.00272438 RMS(Int)=  0.00002278
 Iteration  3 RMS(Cart)=  0.00000120 RMS(Int)=  0.00002277
 Iteration  4 RMS(Cart)=  0.00000000 RMS(Int)=  0.00002277
 Iteration  1 RMS(Cart)=  0.00001485 RMS(Int)=  0.00000341
 Iteration  2 RMS(Cart)=  0.00000829 RMS(Int)=  0.00000380
 Iteration  3 RMS(Cart)=  0.00000463 RMS(Int)=  0.00000431
 Iteration  4 RMS(Cart)=  0.00000259 RMS(Int)=  0.00000465
 Iteration  5 RMS(Cart)=  0.00000144 RMS(Int)=  0.00000485
 Iteration  6 RMS(Cart)=  0.00000081 RMS(Int)=  0.00000497
 Variable       Old X    -DE/DX   Delta X   Delta X   Delta X     New X
                                 (Linear)    (Quad)   (Total)
    R1        2.87767  -0.00213   0.00000  -0.00740  -0.00742   2.87025
    R2        2.87612  -0.00081   0.00000  -0.00205  -0.00205   2.87407
    R3        2.05246   0.00384   0.00000   0.01077   0.01077   2.06323
    R4        2.05239   0.00326   0.00000   0.00915   0.00915   2.06154
    R5        2.88067  -0.00035   0.00000  -0.00179  -0.00178   2.87888
    R6        2.67056   0.00631   0.00000   0.01468   0.01470   2.68526
    R7        2.04264   0.00457   0.00000   0.01261   0.01261   2.05525
    R8        2.05556   0.00558   0.00000   0.01575   0.01575   2.07131
    R9        2.89281  -0.00103   0.00000  -0.00388  -0.00391   2.88891
   R10        2.86929  -0.00134   0.00000  -0.00411  -0.00410   2.86519
   R11        2.05416   0.00372   0.00000   0.01048   0.01048   2.06464
   R12        2.05098   0.00311   0.00000   0.00871   0.00871   2.05969
   R13        2.88864  -0.00286   0.00000  -0.00923  -0.00925   2.87938
   R14        2.69452   0.00344   0.00000   0.00821   0.00821   2.70273
   R15        2.05308   0.00588   0.00000   0.01653   0.01653   2.06961
   R16        2.04873   0.00425   0.00000   0.01186   0.01186   2.06059
   R17        2.04901   0.00453   0.00000   0.01265   0.01265   2.06165
   R18        2.66073   0.00833   0.00000   0.01936   0.01939   2.68012
   R19        2.68061   0.00585   0.00000   0.01388   0.01391   2.69452
   R20        2.88938  -0.00070   0.00000  -0.00340  -0.00343   2.88595
   R21        2.05105   0.00264   0.00000   0.00739   0.00739   2.05844
   R22        2.05638   0.00325   0.00000   0.00919   0.00919   2.06557
   R23        2.67122   0.00674   0.00000   0.01516   0.01518   2.68640
   R24        2.87232  -0.00065   0.00000  -0.00225  -0.00225   2.87008
   R25        2.05474   0.00325   0.00000   0.00916   0.00916   2.06390
   R26        2.05288   0.00276   0.00000   0.00774   0.00774   2.06062
   R27        2.62159   0.00512   0.00000   0.01063   0.01063   2.63221
   R28        2.05062   0.00860   0.00000   0.02406   0.02406   2.07469
   R29        2.05557   0.00566   0.00000   0.01598   0.01598   2.07155
   R30        2.04286   0.00458   0.00000   0.01264   0.01264   2.05550
   R31        2.05540   0.00555   0.00000   0.01565   0.01565   2.07106
   R32        2.04270   0.00453   0.00000   0.01249   0.01249   2.05519
    A1        1.93014  -0.00092   0.00000  -0.00904  -0.00909   1.92104
    A2        1.90148   0.00025   0.00000  -0.00282  -0.00281   1.89867
    A3        1.92701  -0.00034   0.00000  -0.00154  -0.00151   1.92550
    A4        1.91448   0.00002   0.00000   0.00164   0.00159   1.91607
    A5        1.90594   0.00083   0.00000   0.00512   0.00512   1.91106
    A6        1.88420   0.00019   0.00000   0.00703   0.00701   1.89121
    A7        1.94617   0.00143   0.00000   0.00309   0.00311   1.94928
    A8        1.92905  -0.00039   0.00000  -0.00190  -0.00191   1.92714
    A9        1.93188  -0.00138   0.00000  -0.00861  -0.00862   1.92326
   A10        1.86028  -0.00051   0.00000  -0.00045  -0.00045   1.85983
   A11        1.90499   0.00027   0.00000   0.00498   0.00497   1.90997
   A12        1.88922   0.00061   0.00000   0.00334   0.00333   1.89255
   A13        1.92956  -0.00064   0.00000  -0.00686  -0.00691   1.92265
   A14        1.92421   0.00091   0.00000   0.00480   0.00477   1.92897
   A15        1.93611  -0.00011   0.00000   0.00272   0.00271   1.93882
   A16        1.88874  -0.00057   0.00000  -0.00654  -0.00653   1.88220
   A17        1.90091   0.00020   0.00000  -0.00093  -0.00090   1.90001
   A18        1.88300   0.00022   0.00000   0.00686   0.00683   1.88983
   A19        1.89224   0.00360   0.00000   0.00300   0.00295   1.89519
   A20        1.86310   0.00019   0.00000   0.00503   0.00498   1.86807
   A21        1.91633  -0.00207   0.00000  -0.00084  -0.00089   1.91545
   A22        2.02078  -0.00315   0.00000  -0.02293  -0.02288   1.99789
   A23        1.89661  -0.00025   0.00000   0.00009   0.00014   1.89674
   A24        1.87335   0.00156   0.00000   0.01629   0.01625   1.88960
   A25        1.90443  -0.00107   0.00000  -0.00650  -0.00657   1.89786
   A26        1.89204   0.00066   0.00000   0.00811   0.00810   1.90013
   A27        1.90347   0.00072   0.00000   0.00301   0.00299   1.90646
   A28        1.95387  -0.00029   0.00000  -0.00447  -0.00442   1.94945
   A29        1.92171  -0.00005   0.00000  -0.00456  -0.00455   1.91716
   A30        1.88752   0.00008   0.00000   0.00488   0.00483   1.89236
   A31        1.98237  -0.00515   0.00000  -0.02730  -0.02723   1.95515
   A32        1.92516   0.00210   0.00000  -0.00051  -0.00058   1.92457
   A33        1.92037  -0.00062   0.00000  -0.00027  -0.00024   1.92013
   A34        1.90946  -0.00084   0.00000  -0.00248  -0.00247   1.90700
   A35        1.93234  -0.00050   0.00000   0.00083   0.00086   1.93320
   A36        1.90883  -0.00082   0.00000  -0.00215  -0.00214   1.90669
   A37        1.86667   0.00060   0.00000   0.00465   0.00464   1.87131
   A38        1.96868  -0.00466   0.00000  -0.02286  -0.02285   1.94582
   A39        1.92097   0.00010   0.00000  -0.00335  -0.00343   1.91754
   A40        1.91910   0.00057   0.00000   0.00202   0.00204   1.92113
   A41        1.93635  -0.00065   0.00000  -0.00134  -0.00133   1.93502
   A42        1.90362  -0.00040   0.00000  -0.00189  -0.00187   1.90175
   A43        1.90653   0.00010   0.00000  -0.00030  -0.00028   1.90625
   A44        1.87647   0.00028   0.00000   0.00502   0.00501   1.88148
   A45        1.92613   0.00168   0.00000   0.00930   0.00931   1.93544
   A46        1.90023   0.00043   0.00000   0.00250   0.00251   1.90274
   A47        1.92359  -0.00060   0.00000  -0.00218  -0.00217   1.92142
   A48        1.88624  -0.00192   0.00000  -0.00951  -0.00952   1.87672
   A49        1.89654  -0.00005   0.00000  -0.00350  -0.00350   1.89303
   A50        1.93087   0.00047   0.00000   0.00336   0.00334   1.93421
   A51        1.93620   0.00103   0.00000   0.00368   0.00371   1.93991
   A52        1.90360   0.00071   0.00000   0.00412   0.00413   1.90773
   A53        1.85130  -0.00078   0.00000  -0.00041  -0.00042   1.85089
   A54        1.93074  -0.00132   0.00000  -0.00742  -0.00744   1.92330
   A55        1.95013  -0.00010   0.00000  -0.00214  -0.00214   1.94799
   A56        1.88934   0.00051   0.00000   0.00262   0.00261   1.89195
   A57        1.94169   0.00099   0.00000   0.00487   0.00486   1.94654
   A58        1.93007  -0.00116   0.00000  -0.00794  -0.00794   1.92213
   A59        1.93486  -0.00041   0.00000  -0.00342  -0.00342   1.93143
   A60        1.90418   0.00064   0.00000   0.00494   0.00496   1.90914
   A61        1.86140  -0.00058   0.00000  -0.00102  -0.00101   1.86039
   A62        1.88958   0.00056   0.00000   0.00294   0.00291   1.89249
   A63        2.11302  -0.01591   0.00000  -0.06274  -0.06274   2.05029
    D1       -0.95656  -0.00036   0.00000  -0.01265  -0.01263  -0.96919
    D2        3.13841   0.00116   0.00000   0.01028   0.01029  -3.13448
[...]
 .00020208,-0.00090959,0.00011643,0.00034849,0.00000037,-0.00000683,0.0
 0001098,0.00030632,0.00000321,-0.00001256,0.00000045,0.00000081,0.0000
 0320,-0.00000024,-0.00000264,0.00000041,0.00000403,0.00000202,-0.00000
 072,0.00000113,0.00000019,-0.00000091,0.00049435,-0.00019263,0.0003045
 8,-0.00007437,-0.00023047,0.00025751,0.00001334,0.00000300,-0.00000850
 ,-0.00000143,-0.00000284,0.00000550,0.00000178,0.00000064,-0.00000144,
 -0.00035114,0.00019890,0.00094122,0.00062030,-0.00383453,-0.00172421,-
 0.04401111,-0.09000010,0.29477472,-0.00003998,-0.00002223,0.00003501,0
 .00004741,0.00000877,0.00002289,0.00108819,-0.00000993,0.00040288,0.00
 029297,0.00004718,-0.00011877,-0.00012974,-0.00004373,-0.00000091,-0.0
 0801065,-0.00155707,0.00045671,-0.00066818,0.00016290,0.00036905,-0.00
 003159,0.00000206,-0.00001029,-0.20595310,0.11870721,-0.05268441,0.001
 03229,-0.00196742,-0.00157125,-0.01682683,0.01891638,-0.00727557,0.000
 00645,0.00001185,-0.00002377,-0.00051963,0.00048425,0.00010511,0.00000
 114,0.00000024,-0.00000157,0.00000004,0.00000544,-0.00000278,-0.000012
 60,-0.00000766,0.00000136,-0.00001866,-0.00000061,0.00000942,-0.000092
 89,0.00006144,-0.00011016,-0.00003190,0.00001932,-0.00023175,-0.000039
 30,-0.00000650,0.00002874,0.00001487,0.00001094,-0.00002131,-0.0000216
 4,0.00001249,0.00005442,0.00030669,0.00026788,0.00037031,0.00014610,-0
 .00000736,0.00014612,0.00514884,-0.00389907,0.00078898,0.22252139,0.00
 002355,0.00001080,-0.00001443,0.00000133,0.00001734,0.00001848,-0.0008
 2196,-0.00292099,-0.00471268,0.00002607,-0.00000488,0.00006106,-0.0000
 1899,-0.00002216,-0.00002714,-0.00603890,0.00007605,-0.00001221,0.0194
 0319,-0.01420149,0.00756421,-0.00000287,0.00000393,-0.00000346,0.12031
 295,-0.13931723,0.04244576,-0.00073145,-0.00155305,-0.00086323,-0.0113
 9375,0.01152784,-0.00494805,0.00000153,-0.00001114,0.00000791,0.000137
 76,0.00048738,0.00017571,-0.00000019,0.00000016,0.00000050,-0.00000193
 ,-0.00000004,-0.00000061,0.00000246,0.00000053,-0.00000056,-0.00000693
 ,-0.00000036,0.00000293,-0.00031860,0.00014924,0.00001136,0.00169447,-
 0.00063303,0.00015129,-0.00000457,-0.00000328,-0.00000097,0.00000514,-
 0.00000360,-0.00000347,-0.00001232,0.00000319,0.00003019,-0.00049868,0
 .00063155,0.00073371,-0.00035349,0.00121854,0.00008033,0.00787705,-0.0
 0657103,0.00247996,-0.13117537,0.15005595,0.00001919,0.00000883,-0.000
 01314,-0.00000403,0.00001002,0.00000565,-0.00019109,-0.00320044,-0.002
 63491,-0.00002281,-0.00001098,0.00004411,0.00000979,0.00000010,-0.0000
 1762,-0.00062610,-0.00021583,0.00144393,0.01847559,-0.01277983,0.00517
 607,0.00000153,0.00000203,-0.00000044,-0.05498320,0.04323681,-0.065668
 67,-0.00060521,-0.00046693,-0.00027038,0.00106130,0.00018596,-0.002015
 20,0.00000089,-0.00000733,0.00000759,0.00014356,0.00012840,0.00005797,
 -0.00000032,-0.00000028,0.00000084,-0.00000078,-0.00000078,0.00000023,
 0.00000343,0.00000088,-0.00000051,-0.00000133,-0.00000036,0.00000055,0
 .00012528,-0.00012638,0.00020680,0.00100239,-0.00070871,0.00022992,0.0
 0000582,0.00000085,-0.00000337,0.00000138,-0.00000129,0.00000238,-0.00
 000308,0.00000072,0.00000834,-0.00045803,0.00078969,0.00062474,0.00007
 453,0.00086637,0.00101986,-0.02272888,0.01575774,-0.00673700,0.0587728
 3,-0.04328789,0.06830160,-0.00039643,-0.00022299,0.00026660,0.00003190
 ,-0.00000456,0.00001927,-0.00334039,-0.01318561,0.02208628,0.00305341,
 0.00107575,-0.00218252,-0.00111573,-0.00089908,-0.00009982,0.00204760,
 0.00247749,0.00520923,0.00137369,-0.00030166,0.00075668,-0.00001138,-0
 .00010513,-0.00000213,-0.00017619,-0.00000849,-0.00018041,-0.06093380,
 -0.02160424,0.03705130,0.00121828,-0.00060539,0.00192216,0.00001600,0.
 00014058,-0.00000755,-0.00754265,0.02247640,-0.03130569,0.00002256,0.0
 0001392,0.00011639,0.00005062,-0.00006275,0.00002224,-0.00000037,0.000
 00679,-0.00000609,0.00000508,-0.00000478,0.00000394,-0.00364159,-0.003
 15963,0.00004803,0.00077516,0.00029512,-0.00063415,0.00020495,0.000098
 12,0.00065750,-0.00190480,-0.00159495,-0.00053607,0.00004786,0.0000441
 3,-0.00003761,0.00009765,0.00005244,-0.00024316,-0.00010645,0.00018131
 ,-0.00036183,0.00003225,0.00003762,-0.00003950,-0.00003329,0.00005162,
 0.00003207,0.07031080,0.00026742,0.00009192,-0.00026577,-0.00004778,0.
 00022416,-0.00003437,-0.00471108,-0.00809329,0.01856128,-0.00306182,-0
 .00100874,0.00002726,-0.00063152,-0.00033512,-0.00035764,0.00789505,0.
 00116588,-0.03271799,0.00081760,0.00021511,-0.00006444,-0.00006025,0.0
 0007934,-0.00004757,0.00026803,-0.00021649,0.00026439,-0.01821314,-0.0
 9821916,0.09913513,-0.00280868,0.00292187,-0.00324255,-0.00001068,-0.0
 0016321,0.00012269,0.00985748,-0.01143125,0.02004036,-0.00003190,0.000
 00325,-0.00002482,-0.00001560,0.00000697,0.00000932,0.00007976,0.00002
 680,-0.00001258,-0.00000283,-0.00000352,0.00000047,-0.00308095,-0.0017
 0347,0.00025549,0.00074228,0.00067398,-0.00012878,0.00041744,0.0000745
 9,-0.00041844,-0.00186683,-0.00071532,-0.00040870,0.00000068,0.0000002
 7,-0.00003576,-0.00000543,0.00006349,-0.00032143,-0.00019016,0.0004126
 3,-0.00034170,-0.00000571,-0.00009645,0.00007097,0.00012186,0.00014036
 ,0.00008657,0.01475707,0.11593859,-0.00012077,-0.00021594,0.00016858,-
 0.00018846,-0.00021661,0.00033515,-0.00046568,0.00092645,0.00200256,0.
 00120780,0.00126489,0.00068648,0.00055056,0.00056531,-0.00011122,0.008
 67822,-0.00665282,-0.03494158,0.00020361,-0.00034412,0.00021609,0.0003
 5134,-0.00010811,0.00009474,0.00024063,-0.00048745,0.00013089,0.030533
 38,0.09642745,-0.23518643,-0.00253853,0.00249786,-0.00046757,-0.000026
 17,0.00018236,-0.00010583,-0.00651378,0.00912163,-0.00561606,0.0000721
 2,-0.00002403,-0.00003052,0.00003671,-0.00004026,0.00003886,-0.0000154
 9,0.00001019,-0.00000513,0.00001575,-0.00000885,-0.00002407,-0.0009025
 8,-0.00038505,0.00093323,0.00053695,0.00055593,0.00028040,-0.00095827,
 -0.00018824,-0.00028836,0.00024004,-0.00045513,0.00095023,0.00008698,-
 0.00003448,0.00015844,0.00010106,-0.00005131,0.00010920,0.00029082,-0.
 00019276,-0.00001017,-0.00005663,0.00010862,-0.00011226,0.00019428,0.0
 0008215,0.00002564,-0.03237944,-0.10124762,0.26946924,-0.00003363,-0.0
 0002281,0.00002656,0.00001779,-0.00002241,0.00002447,-0.00010659,0.000
 14361,0.00034118,0.00025885,0.00009808,-0.00000339,-0.00003628,0.00003
 213,-0.00010403,-0.00579276,0.02309569,-0.02895355,0.00085923,0.001293
 48,0.00062032,0.00000002,-0.00000379,-0.00000259,-0.00541944,-0.012494
 01,0.02667973,0.00140415,-0.00255676,-0.00439913,-0.05670195,-0.019832
 33,0.04372721,0.00000330,0.00001931,-0.00001489,-0.00073198,0.00019401
 ,0.00043233,0.00000149,0.00000098,-0.00000080,0.00000042,0.00000340,0.
 00000058,-0.00001080,-0.00000378,0.00000214,-0.00000672,0.00000046,0.0
 0000111,-0.00005933,0.00000431,0.00005285,0.00021063,0.00006392,0.0000
 6095,-0.00007078,-0.00001321,0.00002600,0.00012117,-0.00004883,0.00005
 617,0.00000065,0.00000861,0.00002139,-0.00003975,0.00025246,-0.0002057
 1,0.00019663,0.00000561,-0.00057133,-0.00432551,-0.00400017,-0.0003869
 4,0.00103276,0.00079803,-0.00028546,-0.00000048,-0.00044151,0.00070346
 ,0.06833407,0.00001589,0.00001731,-0.00001874,-0.00002632,-0.00001542,
 -0.00001458,0.00004530,-0.00032183,-0.00041807,-0.00015412,-0.00005990
 ,0.00002215,0.00011026,0.00000772,-0.00001477,0.00956998,-0.01549259,0
 .01986376,0.00071681,0.00066895,0.00094264,0.00001870,-0.00000132,0.00
 000563,-0.00514412,-0.00661313,0.01628942,-0.00093556,0.00158933,0.004
 47856,-0.01966548,-0.09157893,0.08354070,-0.00000482,-0.00000804,0.000
 01331,0.00060915,-0.00015685,-0.00055040,0.00000031,-0.00000085,0.0000
 0175,-0.00000179,-0.00000480,0.00000156,0.00000707,0.00000572,-0.00000
 107,0.00001252,0.00000165,-0.00000662,0.00003675,0.00005967,-0.0000279
 7,-0.00007247,-0.00011343,-0.00005541,0.00005747,0.00001070,-0.0000217
 1,0.00005668,-0.00002444,0.00001691,-0.00000329,-0.00001246,-0.0000377
 3,0.00002397,0.00019714,-0.00018310,0.00003052,-0.00005757,-0.00023398
 ,-0.00287139,-0.00096620,0.00011079,0.00007090,0.00057242,-0.00028234,
 0.00005857,-0.00007760,-0.00058932,0.01410400,0.10105484,-0.00002924,-
 0.00001871,0.00002159,0.00002989,0.00002594,-0.00000377,-0.00010938,0.
 00005013,0.00014062,0.00017090,0.00004827,-0.00011266,-0.00014267,-0.0
 0004950,0.00007665,-0.00880650,0.01003839,-0.00616146,-0.00045884,-0.0
 0023903,0.00095374,-0.00003121,-0.00000296,-0.00000338,0.00062504,-0.0
 0102689,-0.00044105,0.00108565,-0.00297131,0.00071023,0.04110359,0.087
 29356,-0.25283656,0.00000472,0.00000918,-0.00001756,-0.00037685,0.0000
 1640,0.00036445,-0.00000101,0.00000150,0.00000113,0.00000213,0.0000055
 4,-0.00000228,-0.00001083,-0.00000812,0.00000035,-0.00001422,-0.000000
 99,0.00000908,0.00006420,-0.00001025,-0.00017909,0.00001094,0.00012594
 ,-0.00000424,-0.00003201,-0.00001061,0.00001734,-0.00017453,0.00008391
 ,-0.00006303,-0.00000946,0.00001417,0.00003331,0.00007242,0.00003150,0
 .00016511,-0.00011451,0.00049142,0.00025336,0.00008226,-0.00029969,0.0
 0117778,0.00063686,0.00030666,0.00017523,-0.00021257,0.00102902,0.0008
 1012,-0.03786401,-0.10326933,0.27298463,-0.00007730,-0.00004586,0.0000
 7428,0.00005279,-0.00002231,-0.00001444,-0.00046188,0.00054788,0.00030
 936,0.00063363,0.00025488,-0.00017104,-0.00007520,-0.00000711,0.000053
 70,-0.00867413,0.02965257,0.02249045,-0.00548050,-0.00255379,0.0013921
 3,-0.00003666,-0.00000984,-0.00000583,0.00290415,-0.02066282,-0.020931
 16,-0.00217155,-0.00041270,-0.00392721,-0.04764706,-0.00341579,-0.0017
 1244,0.00000513,0.00003068,-0.00004512,-0.00179940,0.00220655,0.000548
 03,0.00000004,0.00000037,-0.00000519,0.00000271,0.00000399,-0.00000076
 ,-0.00002357,-0.00000940,0.00000405,-0.00000761,0.00000126,0.00000607,
 0.00009566,-0.00003119,0.00002442,0.00033143,0.00008046,0.00005179,-0.
 00010524,-0.00003302,0.00005788,0.00002380,0.00000858,-0.00001611,0.00
 000644,-0.00000837,-0.00000029,0.00018208,-0.00170284,-0.00114486,-0.0
 0000981,0.00023296,0.00000954,0.00119695,0.00080992,0.00047632,0.00080
 537,0.00104097,0.00017725,-0.00002223,-0.00012395,0.00016310,0.0009055
 0,0.00332477,0.00450975,0.05947081,0.00007849,0.00004266,-0.00007550,-
 0.00005136,0.00001568,-0.00000372,0.00001975,0.00033291,-0.00012464,-0
 .00052593,-0.00022378,0.00018906,0.00010676,0.00002087,-0.00003544,0.0
 0930574,-0.02091118,-0.01481462,-0.00349473,-0.00049595,0.00079898,0.0
 0003337,0.00000611,0.00000713,-0.00061043,-0.01132649,-0.01215665,0.00
 066572,0.00224542,0.00430954,0.00179471,-0.18534026,-0.13186848,-0.000
 00358,-0.00002913,0.00004453,0.00157293,-0.00133025,-0.00053022,-0.000
 00045,-0.00000045,0.00000616,-0.00000404,-0.00000581,0.00000190,0.0000
 2150,0.00001044,-0.00000351,0.00001245,0.00000070,-0.00000652,0.000027
 65,-0.00003518,0.00004239,-0.00006116,-0.00011464,-0.00005415,0.000091
 98,0.00002728,-0.00005146,0.00000183,-0.00001363,0.00002433,0.00001237
 ,-0.00001184,-0.00002915,0.00011449,-0.00071799,-0.00077608,0.00006729
 ,0.00002374,-0.00021434,0.00083391,0.00053228,0.00022182,-0.00021186,0
 .00034508,0.00001320,0.00000282,-0.00000904,-0.00045744,-0.00067409,0.
 01131830,0.00833755,-0.00914973,0.20563792,0.00000155,-0.00000156,0.00
 000168,0.00000169,-0.00000477,-0.00000601,-0.00004769,0.00026513,-0.00
 000686,-0.00001142,0.00004812,0.00000650,0.00002286,0.00001920,-0.0000
 0101,-0.00111566,0.00924752,0.00908528,-0.00041911,-0.00001773,0.00118
 371,0.00000258,0.00000085,0.00000261,0.00055139,0.00259487,0.00129879,
 -0.00081135,0.00083157,0.00014764,0.00532452,-0.14062610,-0.18985734,-
 0.00000185,-0.00000070,0.00000008,-0.00053230,0.00023994,0.00020688,-0
 .00000080,-0.00000005,0.00000129,0.00000126,0.00000116,0.00000049,0.00
 000095,0.00000168,-0.00000096,0.00000248,0.00000116,-0.00000073,0.0000
 0099,-0.00001542,-0.00000904,0.00007052,0.00000848,-0.00002806,-0.0000
 1365,-0.00000359,0.00001059,-0.00002460,-0.00000730,-0.00000168,0.0000
 1369,-0.00001243,-0.00001720,0.00016436,-0.00022748,0.00003658,-0.0000
 0372,0.00020567,0.00030313,-0.00049376,-0.00000735,0.00079008,-0.00034
 666,-0.00027635,0.00003074,0.00003033,0.00008463,0.00048171,0.00001306
 ,-0.01955979,-0.01807331,-0.00237934,0.14721089,0.19441493,-0.00895169
 ,0.00948070,0.02902338,-0.00022505,0.00076866,0.00089286,-0.00001036,0
 .00001602,0.00000055,0.00134701,0.00052927,0.00149474,-0.00024864,-0.0
 0009915,0.00003192,-0.00001928,0.00003182,0.00002396,-0.00000506,-0.00
 000729,0.00000508,0.00398426,-0.00063659,-0.00317972,-0.00000172,0.000
 00246,-0.00000258,0.00015431,-0.00008536,-0.00011530,0.00001618,-0.000
 01440,0.00000716,-0.06917731,0.02180241,0.05544550,-0.00024945,-0.0002
 7612,-0.00041658,-0.00522066,-0.00173503,0.00115491,0.00116555,-0.0001
 0541,-0.00052646,-0.00003520,-0.00005349,-0.00006718,-0.00003061,0.000
 03344,0.00014630,-0.00000019,-0.00000173,0.00000036,-0.00000104,0.0000
 0020,-0.00000087,-0.00010267,-0.00000307,-0.00038746,0.00000841,0.0000
 7912,-0.00002202,0.00003664,-0.00002230,-0.00007284,-0.00000520,0.0000
 0092,-0.00000019,-0.00000032,0.00000067,-0.00000069,0.00000027,-0.0000
 0019,0.,-0.00000249,0.00000031,0.00000010,-0.00003351,0.00002363,-0.00
 000334,-0.00000155,0.00000192,-0.00000198,-0.00000277,0.00000272,-0.00
 000048,0.07070686,-0.00298006,0.00538748,0.00962693,-0.00289314,0.0021
 3186,-0.00517313,-0.00000199,-0.00000083,-0.00000769,0.00037540,-0.000
 24112,0.00022126,0.00029025,-0.00023934,0.00063800,0.00002000,0.000012
 61,0.00000372,-0.00000114,0.00000067,-0.00000009,0.00887210,-0.0374816
 7,-0.03040271,0.00000123,-0.00000082,0.00000066,0.00005016,-0.00002738
 ,-0.00000197,-0.00000246,0.00000528,-0.00000081,0.02324753,-0.07234573
 ,-0.06977734,-0.00005957,-0.00005351,-0.00012743,-0.00281534,0.0003309
 1,0.00022160,0.00082076,0.00044470,-0.00024923,-0.00009745,0.00005959,
 0.00039921,-0.00002280,0.00074211,0.00112466,0.00000330,0.00000204,-0.
 00000014,0.00000013,0.00000170,0.00000086,0.00010333,-0.00003451,-0.00
 017450,0.00023963,0.00013869,-0.00000842,-0.00005842,-0.00001579,-0.00
 001575,0.00000039,-0.00000003,0.00000051,0.00000005,-0.00000034,0.0000
 0048,0.00000019,0.00000014,-0.00000029,0.00000054,0.00000007,-0.000000
 08,-0.00000679,0.00001106,-0.00001616,-0.00000016,-0.00000045,0.000000
 39,-0.00000013,-0.00000004,-0.00000015,-0.02208410,0.09620201,0.002495
 94,-0.00223222,-0.00810209,-0.00051203,0.00173484,0.00261594,0.0000294
 7,-0.00003469,0.00000130,-0.00110053,0.00010379,0.00015357,-0.00009038
 ,-0.00001607,-0.00005442,0.00004644,-0.00002185,-0.00001174,0.00000795
 ,0.00001656,-0.00000428,-0.00196934,-0.00506328,0.00451047,0.00000248,
 -0.00000212,0.00000422,-0.00005854,0.00009373,0.00005792,-0.00001870,0
 .00001826,-0.00000910,0.05624833,-0.07431122,-0.25906082,0.00017923,0.
 00006739,0.00013067,0.00169008,0.00070635,0.00073893,0.00024820,0.0001
 9083,0.00016699,0.00006338,-0.00007436,0.00037358,0.00108551,-0.000937
 00,0.00024025,0.00000195,0.00000231,-0.00000075,-0.00000108,0.00000166
 ,0.00000207,0.00030542,-0.00023496,0.00055386,0.00003873,-0.00011173,-
 0.00001473,0.00001088,0.00005950,-0.00022251,0.00000859,-0.00000276,0.
 00000144,-0.00000024,-0.00000094,0.00000155,-0.00000025,0.00000006,-0.
 00000071,0.00000324,-0.00000045,-0.00000045,0.00000541,-0.00001194,0.0
 0000093,0.00000149,-0.00000205,0.00000284,0.00000346,-0.00000343,-0.00
 000049,-0.06432801,0.08634414,0.27568152,-0.02119177,0.00822418,-0.021
 44174,0.00125066,-0.00082580,0.00101200,-0.00019732,0.00025605,-0.0000
 6214,-0.00138103,-0.00345325,0.00420669,0.00025619,-0.00043175,0.00011
 227,-0.00018537,0.00022756,0.00006975,-0.00005595,-0.00011536,0.000022
 34,0.00335695,0.00074284,0.00226499,-0.00000428,0.00000870,-0.00002301
 ,0.00025126,-0.00096897,0.00008961,0.00008221,-0.00005050,0.00005825,-
 0.17670889,0.05424773,-0.12604792,-0.00305152,0.00119817,-0.00103759,0
 .00154956,0.00059311,0.00018535,0.00098395,-0.00022020,0.00002402,0.00
 014481,-0.00008618,-0.00009839,-0.00008937,-0.00004757,-0.00016402,0.0
 0000016,-0.00000933,0.00001054,0.00000473,-0.00000460,-0.00000571,0.00
 010965,-0.00007985,-0.00022298,0.00002013,0.00014281,-0.00005775,0.000
 01005,0.00009804,0.00002751,-0.00004924,0.00002276,-0.00000994,-0.0000
 0094,0.00000437,-0.00000517,-0.00000091,-0.00000054,0.00000532,-0.0000
 1205,0.00000356,0.00000340,-0.00002852,0.00006153,-0.00003768,-0.00000
 911,0.00000784,-0.00000854,-0.00002157,0.00002086,0.00000015,0.0069052
 6,-0.00300144,0.00560291,0.18806230,-0.00659446,0.00469346,-0.00842170
 ,-0.00291043,-0.00534644,-0.00253193,-0.00008884,0.00011080,-0.0000335
 4,-0.00151617,-0.00053816,0.00150171,0.00000138,-0.00029458,0.00023144
 ,-0.00002008,0.00009192,0.00001652,-0.00002441,-0.00004576,0.00000671,
 0.02753514,-0.02355562,0.02941513,0.00000095,-0.00000016,-0.00000647,-
 0.00001769,-0.00042660,0.00009844,0.00002063,-0.00000575,0.00001870,0.
 04623856,-0.06734172,0.04376859,-0.00124492,0.00069263,-0.00041185,0.0
 0043564,0.00010746,0.00032697,0.00071008,0.00029837,-0.00012365,0.0013
 4656,-0.00088588,0.00126596,-0.00001349,0.00013506,0.00036375,0.000003
 35,0.00000010,0.00000436,0.00000267,-0.00000090,-0.00000202,0.00011894
 ,-0.00015377,0.00017874,0.00024506,0.00022944,-0.00008189,0.00002441,0
 .00007233,-0.00003198,-0.00001881,0.00000968,-0.00000411,-0.00000113,0
 .00000145,-0.00000208,-0.00000030,0.00000001,0.00000133,-0.00000284,0.
 00000181,0.00000129,-0.00000371,0.00002241,-0.00002714,-0.00000425,0.0
 0000206,-0.00000207,-0.00000700,0.00000628,-0.00000011,-0.00765004,0.0
 0497065,-0.00627833,-0.05656477,0.08714943,0.00855521,-0.00383202,0.00
 772326,0.00112270,0.00014848,0.00149207,0.00003706,-0.00003958,0.00000
 845,0.00134759,0.00094733,-0.00017697,0.00002673,-0.00006832,-0.000148
 97,0.00000299,-0.00002070,-0.00000718,0.00001312,0.00001590,-0.0000029
 7,0.00067200,0.00177570,0.00102394,-0.00000047,0.00000064,0.00000258,0
 .00008156,0.00012751,0.00003748,-0.00000760,0.00000387,-0.00000583,-0.
 12736503,0.05340981,-0.17934884,0.00067319,-0.00009546,0.00024970,-0.0
 0059706,-0.00034826,0.00072611,-0.00080826,-0.00013160,0.00015814,-0.0
 0031735,0.00014927,0.00010204,0.00009924,-0.00003379,0.00038504,-0.000
 00050,0.00000135,-0.00000188,-0.00000117,-0.00000027,0.00000101,0.0000
 6832,-0.00009566,0.00033549,-0.00002420,-0.00000918,-0.00002563,-0.000
 01824,-0.00002540,-0.00002282,0.00000816,-0.00000334,0.00000127,0.0000
 0038,-0.00000028,0.00000050,0.00000020,-0.00000016,-0.00000036,0.00000
 097,-0.00000073,-0.00000052,0.00000109,-0.00000545,0.00000673,0.000000
 83,-0.00000022,0.00000081,0.00000219,-0.00000214,0.,-0.01910110,0.0073
 7346,-0.01775598,0.13552746,-0.05924077,0.18524337\\-0.00047058,0.0028
 5776,0.00210513,-0.00002375,0.00000504,-0.00001957,-0.00001058,0.00003
 205,0.00002211,0.00074527,-0.00273763,-0.00116040,-0.00000595,0.000005
 65,0.00000196,0.00004822,0.00003174,0.00002041,-0.00001544,-0.00001849
 ,0.00000730,0.00002442,0.00000559,0.00000275,-0.00000229,0.00000170,0.
 00000284,0.00019724,0.00219710,0.00349524,-0.00000995,-0.00001193,-0.0
 0000530,-0.00000436,-0.00002906,0.00000550,-0.00051186,-0.00234716,-0.
 00452560,-0.00000259,-0.00000271,-0.00001589,0.00000769,0.00000730,0.0
 0000740,0.00000115,-0.00002003,-0.00000750,-0.00000149,-0.00000064,0.0
 0001201,-0.00000070,0.00000543,-0.00001280,0.00001117,0.00000236,0.000
 01130,-0.00000852,0.00000289,0.00002051,0.00001317,0.00000394,0.000006
 13,-0.00000047,-0.00000975,-0.00000961,0.00000674,0.00001307,-0.000003
 64,-0.00000435,0.00000086,0.00000776,0.00000266,0.00000684,-0.00000729
 ,0.00001253,0.00001212,0.00001316,0.00001048,-0.00000905,0.00004242,-0
 .00000197,0.00000147,0.00000770,0.00000704,-0.00000639,-0.00001488,-0.
 00000506,-0.00000231,0.00000939,-0.00000784,0.00000225,-0.00001852\\\@


 Luck is a matter of preparation meeting opportunity.
                                    -- Oprah Winfrey
 Job cpu time:       0 days 12 hours 28 minutes 30.2 seconds.
 Elapsed time:       0 days  1 hours  2 minutes 41.5 seconds.
 File lengths (MBytes):  RWF=    721 Int=      0 D2E=      0 Chk=     34 Scr=      1
 Normal termination of Gaussian 16 at Sat Mar  9 16:36:28 2019.
