 Entering Gaussian System, Link 0=g16
 Initial command:
 /sw/Projects/G16/g16/l1.exe "/nvme/pbs/tmpdir/pbs.74205[4].flm1/Gau-29728.inp" -scrdir="/nvme/pbs/tmpdir/pbs.74205[4].flm1/"
 Entering Link 1 = /sw/Projects/G16/g16/l1.exe PID=     29729.
  
 Copyright (c) 1988-2017, Gaussian, Inc.  All Rights Reserved.
  
 This is part of the Gaussian(R) 16 program.  It is based on
 the Gaussian(R) 09 system (copyright 2009, Gaussian, Inc.),
 the Gaussian(R) 03 system (copyright 2003, Gaussian, Inc.),
 the Gaussian(R) 98 system (copyright 1998, Gaussian, Inc.),
 the Gaussian(R) 94 system (copyright 1995, Gaussian, Inc.),
 the Gaussian 92(TM) system (copyright 1992, Gaussian, Inc.),
 the Gaussian 90(TM) system (copyright 1990, Gaussian, Inc.),
 the Gaussian 88(TM) system (copyright 1988, Gaussian, Inc.),
 the Gaussian 86(TM) system (copyright 1986, Carnegie Mellon
 University), and the Gaussian 82(TM) system (copyright 1983,
 Carnegie Mellon University). Gaussian is a federally registered
 trademark of Gaussian, Inc.
  
 This software contains proprietary and confidential information,
 including trade secrets, belonging to Gaussian, Inc.
  
 This software is provided under written license and may be
 used, copied, transmitted, or stored only in accord with that
 written license.
  
 The following legend is applicable only to US Government
 contracts under FAR:
  
                    RESTRICTED RIGHTS LEGEND
  
 Use, reproduction and disclosure by the US Government is
 subject to restrictions as set forth in subparagraphs (a)
 and (c) of the Commercial Computer Software - Restricted
 Rights clause in FAR 52.227-19.
  
 Gaussian, Inc.
 340 Quinnipiac St., Bldg. 40, Wallingford CT 06492
  
  
 ---------------------------------------------------------------
 Warning -- This program may not be used in any manner that
 competes with the business of Gaussian, Inc. or will provide
 assistance to any competitor of Gaussian, Inc.  The licensee
 of this program is prohibited from giving any competitor of
 Gaussian, Inc. access to this program.  By using this program,
 the user acknowledges that Gaussian, Inc. is engaged in the
 business of creating and licensing software in the field of
 computational chemistry and represents and warrants to the
 licensee that it is not a competitor of Gaussian, Inc. and that
 it will not use this program in any manner prohibited above.
 ---------------------------------------------------------------
  

 Cite this work as:
 Gaussian 16, Revision B.01,
 M. J. Frisch, G. W. Trucks, H. B. Schlegel, G. E. Scuseria, 
 M. A. Robb, J. R. Cheeseman, G. Scalmani, V. Barone, 
 G. A. Petersson, H. Nakatsuji, X. Li, M. Caricato, A. V. Marenich, 
 J. Bloino, B. G. Janesko, R. Gomperts, B. Mennucci, H. P. Hratchian, 
 J. V. Ortiz, A. F. Izmaylov, J. L. Sonnenberg, D. Williams-Young, 
 F. Ding, F. Lipparini, F. Egidi, J. Goings, B. Peng, A. Petrone, 
 T. Henderson, D. Ranasinghe, V. G. Zakrzewski, J. Gao, N. Rega, 
 G. Zheng, W. Liang, M. Hada, M. Ehara, K. Toyota, R. Fukuda, 
 J. Hasegawa, M. Ishida, T. Nakajima, Y. Honda, O. Kitao, H. Nakai, 
 T. Vreven, K. Throssell, J. A. Montgomery, Jr., J. E. Peralta, 
 F. Ogliaro, M. J. Bearpark, J. J. Heyd, E. N. Brothers, K. N. Kudin, 
 V. N. Staroverov, T. A. Keith, R. Kobayashi, J. Normand, 
 K. Raghavachari, A. P. Rendell, J. C. Burant, S. S. Iyengar, 
 J. Tomasi, M. Cossi, J. M. Millam, M. Klene, C. Adamo, R. Cammi, 
 J. W. Ochterski, R. L. Martin, K. Morokuma, O. Farkas, 
 J. B. Foresman, and D. J. Fox, Gaussian, Inc., Wallingford CT, 2016.
 
 ******************************************
 Gaussian 16:  ES64L-G16RevB.01 20-Dec-2017
                 9-Mar-2019 
 ******************************************
 %mem=20gb
 %nproc=12
 Will use up to   12 processors via shared memory.
 %chk=4c1_b1_e3_4c1_PSI.inp_extract_4.chk
 ----------------------------------------------------------------------
 #M062X/6-311++G(2d,2p) opt=ModRedundant freq=noraman SCRF=(SMD,solvent
 =water)
 ----------------------------------------------------------------------
 1/18=120,19=15,26=3,38=1/1,3;
 2/9=110,12=2,17=6,18=5,40=1/2;
 3/5=4,6=6,7=1212,11=2,25=1,30=1,70=32201,71=1,72=1,74=-55/1,2,3;
 4//1;
 5/5=2,38=5,53=1/2;
 6/7=2,8=2,9=2,10=2,28=1/1;
 7//1,2,3,16;
 1/18=20,19=15,26=3/3(2);
 2/9=110/2;
 99//99;
 2/9=110/2;
 3/5=4,6=6,7=1212,11=2,25=1,30=1,70=32205,71=1,72=1,74=-55/1,2,3;
 4/5=5,16=3,69=1/1;
 5/5=2,38=5,53=1/2;
 7//1,2,3,16;
 1/18=20,19=15,26=3/3(-5);
 2/9=110/2;
 6/7=2,8=2,9=2,10=2,19=2,28=1/1;
 99/9=1/99;
 -------------------------------
 4c1_b1_e3_4c1_PSI.inp_extract_4
 -------------------------------
 Symbolic Z-matrix:
 Charge =  0 Multiplicity = 1
 C                     1.46941   0.8346   -0.65925 
 C                     3.66298  -0.60095   0.51917 
 C                    -2.26702  -1.29308  -0.46985 
 C                     1.19122  -0.24253   0.38599 
 C                     2.30742  -1.27717   0.37682 
 O                    -1.54886   0.60312   0.82714 
 C                    -3.58024  -0.57575  -0.79398 
 O                     3.85137   0.37548  -0.48548 
 C                    -3.90361   0.45631   0.28754 
 C                    -1.17002  -0.27984  -0.20313 
 C                    -2.70655   1.3638    0.52131 
 C                     2.87238   1.39331  -0.44894 
 O                    -0.02919  -0.95407   0.20468 
 H                     1.39601   0.41228  -1.65793 
 H                     0.76218   1.65312  -0.58645 
 H                     4.46485  -1.31754   0.40969 
 H                     3.75726  -0.12994   1.49495 
 H                    -2.38435  -1.91174   0.41591 
 H                    -1.96394  -1.93631  -1.28971 
 H                     1.15646   0.23086   1.36259 
 H                     2.16937  -1.98543   1.18806 
 H                     2.27469  -1.82874  -0.55873 
 H                    -4.38476  -1.29828  -0.88662 
 H                    -3.49095  -0.07501  -1.75586 
 H                    -4.15394  -0.04793   1.21778 
 H                    -4.76018   1.06066   0.00271 
 H                    -0.9726    0.30236  -1.09569 
 H                    -2.50917   1.9721   -0.35856 
 H                    -2.86281   2.02468   1.36234 
 H                     2.93562   1.91353   0.50417 
 H                     3.12385   2.09296  -1.2335 
 
 The following ModRedundant input section has been read:
 D       1       4      13      10 F                                           
 

 GradGradGradGradGradGradGradGradGradGradGradGradGradGradGradGradGradGrad
 Berny optimization.
 Initialization pass.
                           ----------------------------
                           !    Initial Parameters    !
                           ! (Angstroms and Degrees)  !
 --------------------------                            --------------------------
 ! Name  Definition              Value          Derivative Info.                !
 --------------------------------------------------------------------------------
 ! R1    R(1,4)                  1.5265         estimate D2E/DX2                !
 ! R2    R(1,12)                 1.5247         estimate D2E/DX2                !
 ! R3    R(1,14)                 1.0868         estimate D2E/DX2                !
 ! R4    R(1,15)                 1.0842         estimate D2E/DX2                !
 ! R5    R(2,5)                  1.5215         estimate D2E/DX2                !
 ! R6    R(2,8)                  1.4136         estimate D2E/DX2                !
 ! R7    R(2,16)                 1.081          estimate D2E/DX2                !
 ! R8    R(2,17)                 1.0876         estimate D2E/DX2                !
 ! R9    R(3,7)                  1.5311         estimate D2E/DX2                !
 ! R10   R(3,10)                 1.517          estimate D2E/DX2                !
 ! R11   R(3,18)                 1.0868         estimate D2E/DX2                !
 ! R12   R(3,19)                 1.0853         estimate D2E/DX2                !
 ! R13   R(4,5)                  1.522          estimate D2E/DX2                !
 ! R14   R(4,13)                 1.4243         estimate D2E/DX2                !
 ! R15   R(4,20)                 1.0858         estimate D2E/DX2                !
 ! R16   R(5,21)                 1.0857         estimate D2E/DX2                !
 ! R17   R(5,22)                 1.0865         estimate D2E/DX2                !
 ! R18   R(6,10)                 1.4088         estimate D2E/DX2                !
 ! R19   R(6,11)                 1.4186         estimate D2E/DX2                !
 ! R20   R(7,9)                  1.5295         estimate D2E/DX2                !
 ! R21   R(7,23)                 1.0853         estimate D2E/DX2                !
 ! R22   R(7,24)                 1.0881         estimate D2E/DX2                !
 ! R23   R(8,12)                 1.4127         estimate D2E/DX2                !
 ! R24   R(9,11)                 1.5202         estimate D2E/DX2                !
 ! R25   R(9,25)                 1.0873         estimate D2E/DX2                !
 ! R26   R(9,26)                 1.0863         estimate D2E/DX2                !
 ! R27   R(10,13)                1.3865         estimate D2E/DX2                !
 ! R28   R(10,27)                1.0838         estimate D2E/DX2                !
 ! R29   R(11,28)                1.0877         estimate D2E/DX2                !
 ! R30   R(11,29)                1.081          estimate D2E/DX2                !
 ! R31   R(12,30)                1.0877         estimate D2E/DX2                !
 ! R32   R(12,31)                1.0809         estimate D2E/DX2                !
 ! A1    A(4,1,12)             109.3793         estimate D2E/DX2                !
 ! A2    A(4,1,14)             110.0425         estimate D2E/DX2                !
 ! A3    A(4,1,15)             111.5843         estimate D2E/DX2                !
 ! A4    A(12,1,14)            109.3475         estimate D2E/DX2                !
 ! A5    A(12,1,15)            108.3197         estimate D2E/DX2                !
 ! A6    A(14,1,15)            108.1207         estimate D2E/DX2                !
 ! A7    A(5,2,8)              111.0526         estimate D2E/DX2                !
 ! A8    A(5,2,16)             110.9032         estimate D2E/DX2                !
 ! A9    A(5,2,17)             110.7102         estimate D2E/DX2                !
 ! A10   A(8,2,16)             106.6827         estimate D2E/DX2                !
 ! A11   A(8,2,17)             109.0828         estimate D2E/DX2                !
 ! A12   A(16,2,17)            108.2798         estimate D2E/DX2                !
 ! A13   A(7,3,10)             110.1537         estimate D2E/DX2                !
 ! A14   A(7,3,18)             110.2827         estimate D2E/DX2                !
 ! A15   A(7,3,19)             110.9337         estimate D2E/DX2                !
 ! A16   A(10,3,18)            108.3613         estimate D2E/DX2                !
 ! A17   A(10,3,19)            109.072          estimate D2E/DX2                !
 ! A18   A(18,3,19)            107.9673         estimate D2E/DX2                !
 ! A19   A(1,4,5)              109.9928         estimate D2E/DX2                !
 ! A20   A(1,4,13)             114.9304         estimate D2E/DX2                !
 ! A21   A(1,4,20)             108.3036         estimate D2E/DX2                !
 ! A22   A(5,4,13)             106.7397         estimate D2E/DX2                !
 ! A23   A(5,4,20)             108.981          estimate D2E/DX2                !
 ! A24   A(13,4,20)            107.7504         estimate D2E/DX2                !
 ! A25   A(2,5,4)              110.5298         estimate D2E/DX2                !
 ! A26   A(2,5,21)             109.4689         estimate D2E/DX2                !
 ! A27   A(2,5,22)             109.4517         estimate D2E/DX2                !
 ! A28   A(4,5,21)             110.2245         estimate D2E/DX2                !
 ! A29   A(4,5,22)             109.1583         estimate D2E/DX2                !
 ! A30   A(21,5,22)            107.9615         estimate D2E/DX2                !
 ! A31   A(10,6,11)            113.4456         estimate D2E/DX2                !
 ! A32   A(3,7,9)              110.3517         estimate D2E/DX2                !
 ! A33   A(3,7,23)             109.9972         estimate D2E/DX2                !
 ! A34   A(3,7,24)             109.4128         estimate D2E/DX2                !
 ! A35   A(9,7,23)             110.6616         estimate D2E/DX2                !
 ! A36   A(9,7,24)             109.3847         estimate D2E/DX2                !
 ! A37   A(23,7,24)            106.963          estimate D2E/DX2                !
 ! A38   A(2,8,12)             112.7644         estimate D2E/DX2                !
 ! A39   A(7,9,11)             110.1848         estimate D2E/DX2                !
 ! A40   A(7,9,25)             109.92           estimate D2E/DX2                !
 ! A41   A(7,9,26)             110.8976         estimate D2E/DX2                !
 ! A42   A(11,9,25)            109.0593         estimate D2E/DX2                !
 ! A43   A(11,9,26)            109.2145         estimate D2E/DX2                !
 ! A44   A(25,9,26)            107.5047         estimate D2E/DX2                !
 ! A45   A(3,10,6)             110.6559         estimate D2E/DX2                !
 ! A46   A(3,10,13)            108.7793         estimate D2E/DX2                !
 ! A47   A(3,10,27)            110.2274         estimate D2E/DX2                !
 ! A48   A(6,10,13)            108.1162         estimate D2E/DX2                !
 ! A49   A(6,10,27)            108.3358         estimate D2E/DX2                !
 ! A50   A(13,10,27)           110.706          estimate D2E/DX2                !
 ! A51   A(6,11,9)             110.8335         estimate D2E/DX2                !
 ! A52   A(6,11,28)            109.0362         estimate D2E/DX2                !
 ! A53   A(6,11,29)            106.145          estimate D2E/DX2                !
 ! A54   A(9,11,28)            110.6297         estimate D2E/DX2                !
 ! A55   A(9,11,29)            111.7632         estimate D2E/DX2                !
 ! A56   A(28,11,29)           108.2815         estimate D2E/DX2                !
 ! A57   A(1,12,8)             111.7201         estimate D2E/DX2                !
 ! A58   A(1,12,30)            110.4645         estimate D2E/DX2                !
 ! A59   A(1,12,31)            110.5578         estimate D2E/DX2                !
 ! A60   A(8,12,30)            109.0851         estimate D2E/DX2                !
 ! A61   A(8,12,31)            106.6409         estimate D2E/DX2                !
 ! A62   A(30,12,31)           108.2368         estimate D2E/DX2                !
 ! A63   A(4,13,10)            119.9694         estimate D2E/DX2                !
 ! D1    D(12,1,4,5)           -52.6074         estimate D2E/DX2                !
 ! D2    D(12,1,4,13)         -173.0787         estimate D2E/DX2                !
 ! D3    D(12,1,4,20)           66.3989         estimate D2E/DX2                !
 ! D4    D(14,1,4,5)            67.5354         estimate D2E/DX2                !
 ! D5    D(14,1,4,13)          -52.9359         estimate D2E/DX2                !
 ! D6    D(14,1,4,20)         -173.4583         estimate D2E/DX2                !
 ! D7    D(15,1,4,5)          -172.4408         estimate D2E/DX2                !
 ! D8    D(15,1,4,13)           67.0879         estimate D2E/DX2                !
 ! D9    D(15,1,4,20)          -53.4345         estimate D2E/DX2                !
 ! D10   D(4,1,12,8)            56.2256         estimate D2E/DX2                !
 ! D11   D(4,1,12,30)          -65.3972         estimate D2E/DX2                !
 ! D12   D(4,1,12,31)          174.8209         estimate D2E/DX2                !
 ! D13   D(14,1,12,8)          -64.3419         estimate D2E/DX2                !
 ! D14   D(14,1,12,30)         174.0352         estimate D2E/DX2                !
 ! D15   D(14,1,12,31)          54.2533         estimate D2E/DX2                !
 ! D16   D(15,1,12,8)          178.0454         estimate D2E/DX2                !
 ! D17   D(15,1,12,30)          56.4225         estimate D2E/DX2                !
 ! D18   D(15,1,12,31)         -63.3593         estimate D2E/DX2                !
 ! D19   D(8,2,5,4)            -55.6193         estimate D2E/DX2                !
 ! D20   D(8,2,5,21)          -177.2143         estimate D2E/DX2                !
 ! D21   D(8,2,5,22)            64.6392         estimate D2E/DX2                !
 ! D22   D(16,2,5,4)          -174.0624         estimate D2E/DX2                !
 ! D23   D(16,2,5,21)           64.3427         estimate D2E/DX2                !
 ! D24   D(16,2,5,22)          -53.8039         estimate D2E/DX2                !
 ! D25   D(17,2,5,4)            65.716          estimate D2E/DX2                !
 ! D26   D(17,2,5,21)          -55.879          estimate D2E/DX2                !
 ! D27   D(17,2,5,22)         -174.0255         estimate D2E/DX2                !
 ! D28   D(5,2,8,12)            59.7317         estimate D2E/DX2                !
 ! D29   D(16,2,8,12)         -179.3068         estimate D2E/DX2                !
 ! D30   D(17,2,8,12)          -62.5532         estimate D2E/DX2                !
 ! D31   D(10,3,7,9)           -51.9942         estimate D2E/DX2                !
 ! D32   D(10,3,7,23)         -174.3704         estimate D2E/DX2                !
 ! D33   D(10,3,7,24)           68.408          estimate D2E/DX2                !
 ! D34   D(18,3,7,9)            67.5682         estimate D2E/DX2                !
 ! D35   D(18,3,7,23)          -54.808          estimate D2E/DX2                !
 ! D36   D(18,3,7,24)         -172.0296         estimate D2E/DX2                !
 ! D37   D(19,3,7,9)          -172.8622         estimate D2E/DX2                !
 ! D38   D(19,3,7,23)           64.7616         estimate D2E/DX2                !
 ! D39   D(19,3,7,24)          -52.46           estimate D2E/DX2                !
 ! D40   D(7,3,10,6)            56.0153         estimate D2E/DX2                !
 ! D41   D(7,3,10,13)          174.6471         estimate D2E/DX2                !
 ! D42   D(7,3,10,27)          -63.7999         estimate D2E/DX2                !
 ! D43   D(18,3,10,6)          -64.7073         estimate D2E/DX2                !
 ! D44   D(18,3,10,13)          53.9244         estimate D2E/DX2                !
 ! D45   D(18,3,10,27)         175.4774         estimate D2E/DX2                !
 ! D46   D(19,3,10,6)          177.9926         estimate D2E/DX2                !
 ! D47   D(19,3,10,13)         -63.3757         estimate D2E/DX2                !
 ! D48   D(19,3,10,27)          58.1774         estimate D2E/DX2                !
 ! D49   D(1,4,5,2)             52.8219         estimate D2E/DX2                !
 ! D50   D(1,4,5,21)           173.9696         estimate D2E/DX2                !
 ! D51   D(1,4,5,22)           -67.6122         estimate D2E/DX2                !
 ! D52   D(13,4,5,2)           178.1197         estimate D2E/DX2                !
 ! D53   D(13,4,5,21)          -60.7327         estimate D2E/DX2                !
 ! D54   D(13,4,5,22)           57.6856         estimate D2E/DX2                !
 ! D55   D(20,4,5,2)           -65.7688         estimate D2E/DX2                !
 ! D56   D(20,4,5,21)           55.3789         estimate D2E/DX2                !
 ! D57   D(20,4,5,22)          173.7971         estimate D2E/DX2                !
 ! D58   D(1,4,13,10)          -39.6169         Frozen                          !
 ! D59   D(5,4,13,10)         -161.8608         estimate D2E/DX2                !
 ! D60   D(20,4,13,10)          81.209          estimate D2E/DX2                !
 ! D61   D(11,6,10,3)          -61.4526         estimate D2E/DX2                !
 ! D62   D(11,6,10,13)         179.5139         estimate D2E/DX2                !
 ! D63   D(11,6,10,27)          59.4916         estimate D2E/DX2                !
 ! D64   D(10,6,11,9)           60.9498         estimate D2E/DX2                !
 ! D65   D(10,6,11,28)         -61.061          estimate D2E/DX2                !
 ! D66   D(10,6,11,29)        -177.506          estimate D2E/DX2                !
 ! D67   D(3,7,9,11)            51.4628         estimate D2E/DX2                !
 ! D68   D(3,7,9,25)           -68.7543         estimate D2E/DX2                !
 ! D69   D(3,7,9,26)           172.5068         estimate D2E/DX2                !
 ! D70   D(23,7,9,11)          173.4478         estimate D2E/DX2                !
 ! D71   D(23,7,9,25)           53.2307         estimate D2E/DX2                !
 ! D72   D(23,7,9,26)          -65.5082         estimate D2E/DX2                !
 ! D73   D(24,7,9,11)          -68.9563         estimate D2E/DX2                !
 ! D74   D(24,7,9,25)          170.8265         estimate D2E/DX2                !
 ! D75   D(24,7,9,26)           52.0877         estimate D2E/DX2                !
 ! D76   D(2,8,12,1)           -60.5705         estimate D2E/DX2                !
 ! D77   D(2,8,12,30)           61.8454         estimate D2E/DX2                !
 ! D78   D(2,8,12,31)          178.5272         estimate D2E/DX2                !
 ! D79   D(7,9,11,6)           -54.8812         estimate D2E/DX2                !
 ! D80   D(7,9,11,28)           66.1932         estimate D2E/DX2                !
 ! D81   D(7,9,11,29)         -173.0632         estimate D2E/DX2                !
 ! D82   D(25,9,11,6)           65.8536         estimate D2E/DX2                !
 ! D83   D(25,9,11,28)        -173.072          estimate D2E/DX2                !
 ! D84   D(25,9,11,29)         -52.3284         estimate D2E/DX2                !
 ! D85   D(26,9,11,6)         -176.9262         estimate D2E/DX2                !
 ! D86   D(26,9,11,28)         -55.8518         estimate D2E/DX2                !
 ! D87   D(26,9,11,29)          64.8918         estimate D2E/DX2                !
 ! D88   D(3,10,13,4)          173.4976         estimate D2E/DX2                !
 ! D89   D(6,10,13,4)          -66.286          estimate D2E/DX2                !
 ! D90   D(27,10,13,4)          52.2371         estimate D2E/DX2                !
 --------------------------------------------------------------------------------
 Trust Radius=3.00D-01 FncErr=1.00D-07 GrdErr=1.00D-06 EigMax=2.50D+02 EigMin=1.00D-04
 Number of steps in this run=    186 maximum allowed number of steps=    186.
 GradGradGradGradGradGradGradGradGradGradGradGradGradGradGradGradGradGrad

                          Input orientation:                          
 ---------------------------------------------------------------------
 Center     Atomic      Atomic             Coordinates (Angstroms)
 Number     Number       Type             X           Y           Z
 ---------------------------------------------------------------------
      1          6           0        1.469410    0.834598   -0.659247
      2          6           0        3.662983   -0.600953    0.519172
      3          6           0       -2.267018   -1.293080   -0.469846
      4          6           0        1.191215   -0.242530    0.385986
      5          6           0        2.307422   -1.277174    0.376817
      6          8           0       -1.548855    0.603119    0.827139
      7          6           0       -3.580240   -0.575751   -0.793979
      8          8           0        3.851365    0.375478   -0.485475
      9          6           0       -3.903614    0.456307    0.287541
     10          6           0       -1.170019   -0.279838   -0.203134
     11          6           0       -2.706554    1.363803    0.521314
     12          6           0        2.872382    1.393314   -0.448937
     13          8           0       -0.029185   -0.954073    0.204676
     14          1           0        1.396007    0.412282   -1.657933
     15          1           0        0.762182    1.653123   -0.586446
     16          1           0        4.464853   -1.317544    0.409691
     17          1           0        3.757263   -0.129936    1.494951
     18          1           0       -2.384350   -1.911741    0.415913
     19          1           0       -1.963940   -1.936311   -1.289714
     20          1           0        1.156464    0.230860    1.362590
     21          1           0        2.169368   -1.985434    1.188059
     22          1           0        2.274685   -1.828735   -0.558727
     23          1           0       -4.384758   -1.298278   -0.886616
     24          1           0       -3.490946   -0.075009   -1.755861
     25          1           0       -4.153936   -0.047931    1.217782
     26          1           0       -4.760184    1.060656    0.002711
     27          1           0       -0.972595    0.302363   -1.095686
     28          1           0       -2.509167    1.972097   -0.358564
     29          1           0       -2.862809    2.024677    1.362335
     30          1           0        2.935615    1.913528    0.504172
     31          1           0        3.123849    2.092959   -1.233502
 ---------------------------------------------------------------------
                    Distance matrix (angstroms):
                    1          2          3          4          5
     1  C    0.000000
     2  C    2.874237   0.000000
     3  C    4.303926   6.051620   0.000000
     4  C    1.526470   2.501168   3.714227   0.000000
     5  C    2.497053   1.521540   4.652160   1.522002   0.000000
     6  O    3.372366   5.357974   2.406969   2.901331   4.313834
     7  C    5.244636   7.361337   1.531070   4.926473   6.043784
     8  O    2.432015   1.413584   6.341840   2.866666   2.420448
     9  C    5.468903   7.643614   2.512456   5.143476   6.449023
    10  C    2.901136   4.897219   1.516971   2.433902   3.663826
    11  C    4.371780   6.665679   2.869602   4.217964   5.668827
    12  C    1.524705   2.353590   5.799188   2.489860   2.851764
    13  O    2.488271   3.722325   2.361737   1.424269   2.365113
    14  H    1.086790   3.302365   4.211599   2.155997   2.797346
    15  H    1.084184   3.836391   4.227264   2.173291   3.449969
    16  H    3.840185   1.080964   6.789129   3.445711   2.158059
    17  H    3.287121   1.087608   6.442460   2.797692   2.160652
    18  H    4.852815   6.188624   1.086774   3.946115   4.734652
    19  H    4.456828   6.059498   1.085258   3.953716   4.632097
    20  H    2.133134   2.772346   4.171384   1.085846   2.137901
    21  H    3.443118   2.143615   4.786389   2.153560   1.085728
    22  H    2.784226   2.143988   4.574046   2.140663   1.086524
    23  H    6.234753   8.199307   2.158367   5.815978   6.810432
    24  H    5.160918   7.525363   2.153028   5.151524   6.294012
    25  H    5.993673   7.867535   2.821160   5.412984   6.630792
    26  H    6.268742   8.601013   3.461107   6.104453   7.453621
    27  H    2.537152   4.991225   2.147707   2.678495   3.927049
    28  H    4.148902   6.744364   3.276034   4.376272   5.856456
    29  H    4.926581   7.084548   3.836583   4.746430   6.213272
    30  H    2.160415   2.617614   6.188573   2.775876   3.254447
    31  H    2.156481   3.258787   6.411698   3.436906   3.823281
                    6          7          8          9         10
     6  O    0.000000
     7  C    2.853819   0.000000
     8  O    5.562118   7.498584   0.000000
     9  C    2.420250   1.529510   7.793830   0.000000
    10  C    1.408756   2.499165   5.071829   2.873189   0.000000
    11  C    1.418604   2.501038   6.707959   1.520247   2.363751
    12  C    4.669059   6.755191   1.412704   6.880008   4.381879
    13  O    2.263118   3.708157   4.159649   4.123983   1.386508
    14  H    3.858006   5.146422   2.721175   5.645599   3.029845
    15  H    2.905447   4.885446   3.344492   4.895495   2.759831
    16  H    6.326760   8.168390   2.010973   8.555274   5.762306
    17  H    5.397984   7.699149   2.046066   7.777567   5.213835
    18  H    2.681731   2.163067   6.702836   2.816433   2.126247
    19  H    3.331976   2.170093   6.309433   3.460446   2.134214
    20  H    2.782811   5.266666   3.270894   5.177929   2.850408
    21  H    4.544893   6.242890   3.347198   6.607128   3.999498
    22  H    4.738565   5.992116   2.711059   6.641458   3.793615
    23  H    3.820290   1.085300   8.414042   2.165344   3.440772
    24  H    3.302039   1.088087   7.465008   2.151298   2.799932
    25  H    2.713469   2.157523   8.195438   1.087320   3.313087
    26  H    3.346887   2.169058   8.652547   1.086314   3.837783
    27  H    2.029726   2.768018   4.862951   3.244671   1.083782
    28  H    2.049925   2.797912   6.559090   2.158600   2.624631
    29  H    2.008417   3.453494   7.156423   2.167543   3.259911
    30  H    4.683156   7.094933   2.045384   6.996104   4.708223
    31  H    5.319777   7.229108   2.009618   7.374106   5.012896
                   11         12         13         14         15
    11  C    0.000000
    12  C    5.662754   0.000000
    13  O    3.555434   3.789001   0.000000
    14  H    4.741890   2.145642   2.714297   0.000000
    15  H    3.652803   2.130576   2.837183   1.757699   0.000000
    16  H    7.657099   3.259134   4.513371   4.084750   4.850456
    17  H    6.705233   2.623358   4.084262   3.976205   4.059806
    18  H    3.293040   6.269337   2.551186   4.898267   4.859387
    19  H    3.836932   5.931553   2.634629   4.115910   4.561838
    20  H    4.112689   2.752690   2.037301   3.035433   2.444797
    21  H    5.952861   3.819676   2.619997   3.800895   4.285807
    22  H    6.014277   3.278856   2.579852   2.646221   3.796284
    23  H    3.447508   7.752568   4.503378   6.077680   5.940695
    24  H    2.805526   6.660027   4.074340   4.912164   4.737412
    25  H    2.138452   7.363714   4.342931   6.267647   5.506091
    26  H    2.139683   7.653150   5.146093   6.409120   5.585217
    27  H    2.597683   4.048741   2.039509   2.436900   2.256841
    28  H    1.087735   5.413338   3.876857   4.401337   3.294753
    29  H    1.080965   6.047457   4.271130   5.464371   4.132355
    30  H    5.668912   1.087675   4.135562   3.049398   2.445622
    31  H    6.132263   1.080870   4.614584   2.447500   2.487892
                   16         17         18         19         20
    16  H    0.000000
    17  H    1.757523   0.000000
    18  H    6.874932   6.485257   0.000000
    19  H    6.678340   6.614342   1.756847   0.000000
    20  H    3.775051   2.629039   4.245504   4.633386   0.000000
    21  H    2.514197   2.461395   4.619306   4.819337   2.443030
    22  H    2.448670   3.049844   4.760611   4.302541   3.030480
    23  H    8.944071   8.563258   2.464660   2.535731   6.172709
    24  H    8.338360   7.944012   3.052006   2.452241   5.605061
    25  H    8.749197   7.916478   2.692251   3.827479   5.319684
    26  H    9.535343   8.728757   3.827593   4.297808   6.127361
    27  H    5.869932   5.410161   3.029891   2.456028   3.252864
    28  H    7.749123   6.864562   3.962271   4.054623   4.408075
    29  H    8.110031   6.963138   4.076766   4.850851   4.401401
    30  H    3.575936   2.415056   6.553053   6.484206   2.594924
    31  H    4.016205   3.575882   7.007028   6.490283   3.752027
                   21         22         23         24         25
    21  H    0.000000
    22  H    1.756960   0.000000
    23  H    6.908909   6.688578   0.000000
    24  H    6.659996   6.144199   1.746675   0.000000
    25  H    6.613545   6.903218   2.458686   3.046776   0.000000
    26  H    7.661749   7.625823   2.548807   2.448117   1.752969
    27  H    4.507931   3.921062   3.774734   2.630652   3.949148
    28  H    6.320030   6.113234   3.806840   2.665890   3.044773
    29  H    6.436938   6.703216   4.291403   3.811349   2.446142
    30  H    4.031965   3.946025   8.114053   7.096669   7.390419
    31  H    4.838211   4.068917   8.246211   6.980577   7.972350
                   26         27         28         29         30
    26  H    0.000000
    27  H    4.015883   0.000000
    28  H    2.455264   2.385878   0.000000
    29  H    2.525460   3.546991   1.757646   0.000000
    30  H    7.759135   4.519901   5.513020   5.862638   0.000000
    31  H    8.046853   4.472816   5.701841   6.525573   1.757025
                   31
    31  H    0.000000
 Stoichiometry    C10H18O3
 Framework group  C1[X(C10H18O3)]
 Deg. of freedom    87
 Full point group                 C1      NOp   1
 Largest Abelian subgroup         C1      NOp   1
 Largest concise Abelian subgroup C1      NOp   1
                         Standard orientation:                         
 ---------------------------------------------------------------------
 Center     Atomic      Atomic             Coordinates (Angstroms)
 Number     Number       Type             X           Y           Z
 ---------------------------------------------------------------------
      1          6           0       -1.469410    0.834598    0.659247
      2          6           0       -3.662983   -0.600953   -0.519172
      3          6           0        2.267018   -1.293080    0.469846
      4          6           0       -1.191215   -0.242530   -0.385986
      5          6           0       -2.307422   -1.277174   -0.376817
      6          8           0        1.548855    0.603119   -0.827139
      7          6           0        3.580240   -0.575751    0.793979
      8          8           0       -3.851365    0.375478    0.485475
      9          6           0        3.903614    0.456307   -0.287541
     10          6           0        1.170019   -0.279838    0.203134
     11          6           0        2.706554    1.363803   -0.521314
     12          6           0       -2.872382    1.393314    0.448937
     13          8           0        0.029185   -0.954073   -0.204676
     14          1           0       -1.396007    0.412282    1.657933
     15          1           0       -0.762182    1.653123    0.586446
     16          1           0       -4.464853   -1.317544   -0.409691
     17          1           0       -3.757263   -0.129936   -1.494951
     18          1           0        2.384350   -1.911741   -0.415913
     19          1           0        1.963940   -1.936311    1.289714
     20          1           0       -1.156464    0.230860   -1.362590
     21          1           0       -2.169368   -1.985434   -1.188059
     22          1           0       -2.274685   -1.828735    0.558727
     23          1           0        4.384758   -1.298278    0.886616
     24          1           0        3.490946   -0.075009    1.755861
     25          1           0        4.153936   -0.047931   -1.217782
     26          1           0        4.760184    1.060656   -0.002711
     27          1           0        0.972595    0.302363    1.095686
     28          1           0        2.509167    1.972097    0.358564
     29          1           0        2.862809    2.024677   -1.362335
     30          1           0       -2.935615    1.913528   -0.504172
     31          1           0       -3.123849    2.092959    1.233502
 ---------------------------------------------------------------------
 Rotational constants (GHZ):           2.1658541           0.3675888           0.3423577
 Standard basis: 6-311++G(2d,2p) (5D, 7F)
 There are   557 symmetry adapted cartesian basis functions of A   symmetry.
 There are   531 symmetry adapted basis functions of A   symmetry.
   531 basis functions,   762 primitive gaussians,   557 cartesian basis functions
    51 alpha electrons       51 beta electrons
       nuclear repulsion energy       881.6505484574 Hartrees.
 NAtoms=   31 NActive=   31 NUniq=   31 SFac= 1.00D+00 NAtFMM=   60 NAOKFM=F Big=F
 Integral buffers will be    131072 words long.
 Raffenetti 2 integral format.
 Two-electron integral symmetry is turned on.
 ------------------------------------------------------------------------------
 Polarizable Continuum Model (PCM)
 =================================
 Model                : PCM.
 Atomic radii         : SMD-Coulomb.
 Polarization charges : Total charges.
 Charge compensation  : None.
 Solution method      : On-the-fly selection.
 Cavity type          : VdW (van der Waals Surface) (Alpha=1.000).
 Cavity algorithm     : GePol (No added spheres)
                        Default sphere list used, NSphG=   31.
                        Lebedev-Laikov grids with approx.  5.0 points / Ang**2.
                        Smoothing algorithm: York/Karplus (Gamma=1.0000).
                        Polarization charges: spherical gaussians, with
                                              point-specific exponents (IZeta= 3).
                        Self-potential: point-specific (ISelfS= 7).
                        Self-field    : sphere-specific E.n sum rule (ISelfD= 2).
 1st derivatives      : Analytical E(r).r(x)/FMM algorithm (CHGder, D1EAlg=3).
                        Cavity 1st derivative terms included.
 Solvent              : Water, Eps=  78.355300 Eps(inf)=   1.777849
 ------------------------------------------------------------------------------
 ------------------------------------------------------------------------------
 Atomic radii for non-electrostatic terms: SMD-CDS.
 ------------------------------------------------------------------------------
 Nuclear repulsion after PCM non-electrostatic terms =      881.6569500878 Hartrees.
 One-electron integrals computed using PRISM.
 NBasis=   531 RedAO= T EigKep=  4.85D-06  NBF=   531
 NBsUse=   531 1.00D-06 EigRej= -1.00D+00 NBFU=   531
 ExpMin= 3.60D-02 ExpMax= 8.59D+03 ExpMxC= 1.30D+03 IAcc=3 IRadAn=         5 AccDes= 0.00D+00
 Harris functional with IExCor= 1009 and IRadAn=       5 diagonalized for initial guess.
 HarFok:  IExCor= 1009 AccDes= 0.00D+00 IRadAn=         5 IDoV= 1 UseB2=F ITyADJ=14
 ICtDFT=  3500011 ScaDFX=  1.000000  1.000000  1.000000  1.000000
 FoFCou: FMM=F IPFlag=           0 FMFlag=      100000 FMFlg1=           0
         NFxFlg=           0 DoJE=T BraDBF=F KetDBF=T FulRan=T
         wScrn=  0.000000 ICntrl=       500 IOpCl=  0 I1Cent=   200000004 NGrid=           0
         NMat0=    1 NMatS0=      1 NMatT0=    0 NMatD0=    1 NMtDS0=    0 NMtDT0=    0
 Petite list used in FoFCou.
 Requested convergence on RMS density matrix=1.00D-08 within 128 cycles.
 Requested convergence on MAX density matrix=1.00D-06.
 Requested convergence on             energy=1.00D-06.
 No special actions if energy rises.
 Inv3:  Mode=1 IEnd=    11928108.
 Iteration    1 A*A^-1 deviation from unit magnitude is 3.66D-15 for   1991.
 Iteration    1 A*A^-1 deviation from orthogonality  is 2.22D-15 for   1989    590.
 Iteration    1 A^-1*A deviation from unit magnitude is 3.89D-15 for   1991.
 Iteration    1 A^-1*A deviation from orthogonality  is 2.14D-15 for   1397   1370.
 Error on total polarization charges =  0.06303
 SCF Done:  E(RM062X) =  -617.507041264     A.U. after   12 cycles
            NFock= 12  Conv=0.53D-08     -V/T= 2.0035
 SMD-CDS (non-electrostatic) energy       (kcal/mol) =       4.02
 (included in total energy above)

 **********************************************************************

            Population analysis using the SCF Density.

 **********************************************************************

 Orbital symmetries:
       Occupied  (A) (A) (A) (A) (A) (A) (A) (A) (A) (A) (A) (A)
                 (A) (A) (A) (A) (A) (A) (A) (A) (A) (A) (A) (A)
                 (A) (A) (A) (A) (A) (A) (A) (A) (A) (A) (A) (A)
                 (A) (A) (A) (A) (A) (A) (A) (A) (A) (A) (A) (A)
                 (A) (A) (A)
       Virtual   (A) (A) (A) (A) (A) (A) (A) (A) (A) (A) (A) (A)
                 (A) (A) (A) (A) (A) (A) (A) (A) (A) (A) (A) (A)
                 (A) (A) (A) (A) (A) (A) (A) (A) (A) (A) (A) (A)
                 (A) (A) (A) (A) (A) (A) (A) (A) (A) (A) (A) (A)
                 (A) (A) (A) (A) (A) (A) (A) (A) (A) (A) (A) (A)
                 (A) (A) (A) (A) (A) (A) (A) (A) (A) (A) (A) (A)
                 (A) (A) (A) (A) (A) (A) (A) (A) (A) (A) (A) (A)
                 (A) (A) (A) (A) (A) (A) (A) (A) (A) (A) (A) (A)
                 (A) (A) (A) (A) (A) (A) (A) (A) (A) (A) (A) (A)
                 (A) (A) (A) (A) (A) (A) (A) (A) (A) (A) (A) (A)
                 (A) (A) (A) (A) (A) (A) (A) (A) (A) (A) (A) (A)
                 (A) (A) (A) (A) (A) (A) (A) (A) (A) (A) (A) (A)
                 (A) (A) (A) (A) (A) (A) (A) (A) (A) (A) (A) (A)
                 (A) (A) (A) (A) (A) (A) (A) (A) (A) (A) (A) (A)
                 (A) (A) (A) (A) (A) (A) (A) (A) (A) (A) (A) (A)
                 (A) (A) (A) (A) (A) (A) (A) (A) (A) (A) (A) (A)
                 (A) (A) (A) (A) (A) (A) (A) (A) (A) (A) (A) (A)
                 (A) (A) (A) (A) (A) (A) (A) (A) (A) (A) (A) (A)
                 (A) (A) (A) (A) (A) (A) (A) (A) (A) (A) (A) (A)
                 (A) (A) (A) (A) (A) (A) (A) (A) (A) (A) (A) (A)
                 (A) (A) (A) (A) (A) (A) (A) (A) (A) (A) (A) (A)
                 (A) (A) (A) (A) (A) (A) (A) (A) (A) (A) (A) (A)
                 (A) (A) (A) (A) (A) (A) (A) (A) (A) (A) (A) (A)
                 (A) (A) (A) (A) (A) (A) (A) (A) (A) (A) (A) (A)
                 (A) (A) (A) (A) (A) (A) (A) (A) (A) (A) (A) (A)
                 (A) (A) (A) (A) (A) (A) (A) (A) (A) (A) (A) (A)
                 (A) (A) (A) (A) (A) (A) (A) (A) (A) (A) (A) (A)
                 (A) (A) (A) (A) (A) (A) (A) (A) (A) (A) (A) (A)
                 (A) (A) (A) (A) (A) (A) (A) (A) (A) (A) (A) (A)
                 (A) (A) (A) (A) (A) (A) (A) (A) (A) (A) (A) (A)
                 (A) (A) (A) (A) (A) (A) (A) (A) (A) (A) (A) (A)
                 (A) (A) (A) (A) (A) (A) (A) (A) (A) (A) (A) (A)
                 (A) (A) (A) (A) (A) (A) (A) (A) (A) (A) (A) (A)
                 (A) (A) (A) (A) (A) (A) (A) (A) (A) (A) (A) (A)
                 (A) (A) (A) (A) (A) (A) (A) (A) (A) (A) (A) (A)
                 (A) (A) (A) (A) (A) (A) (A) (A) (A) (A) (A) (A)
                 (A) (A) (A) (A) (A) (A) (A) (A) (A) (A) (A) (A)
                 (A) (A) (A) (A) (A) (A) (A) (A) (A) (A) (A) (A)
                 (A) (A) (A) (A) (A) (A) (A) (A) (A) (A) (A) (A)
                 (A) (A) (A) (A) (A) (A) (A) (A) (A) (A) (A) (A)
 The electronic state is 1-A.
 Alpha  occ. eigenvalues --  -19.63359 -19.62808 -19.62768 -10.62988 -10.58507
 Alpha  occ. eigenvalues --  -10.57523 -10.57432 -10.57327 -10.52511 -10.52437
 Alpha  occ. eigenvalues --  -10.52390 -10.52267 -10.52113  -1.20350  -1.16633
 Alpha  occ. eigenvalues --   -1.13944  -0.90773  -0.89320  -0.86462  -0.84726
 Alpha  occ. eigenvalues --   -0.75388  -0.73484  -0.72448  -0.69719  -0.65511
 Alpha  occ. eigenvalues --   -0.64767  -0.60255  -0.57555  -0.56996  -0.54618
 Alpha  occ. eigenvalues --   -0.54466  -0.52922  -0.52221  -0.51089  -0.50378
 Alpha  occ. eigenvalues --   -0.49770  -0.46682  -0.45549  -0.44458  -0.43767
 Alpha  occ. eigenvalues --   -0.43282  -0.41448  -0.40833  -0.40039  -0.39106
 Alpha  occ. eigenvalues --   -0.38062  -0.37059  -0.36826  -0.34531  -0.32995
 Alpha  occ. eigenvalues --   -0.32308
 Alpha virt. eigenvalues --    0.00473   0.01292   0.01373   0.01496   0.02700
 Alpha virt. eigenvalues --    0.02863   0.02989   0.04000   0.04114   0.04780
 Alpha virt. eigenvalues --    0.05105   0.05495   0.05735   0.05981   0.07272
 Alpha virt. eigenvalues --    0.07409   0.08246   0.08901   0.09382   0.09554
 Alpha virt. eigenvalues --    0.10355   0.10991   0.11177   0.11819   0.12376
 Alpha virt. eigenvalues --    0.12783   0.13092   0.13328   0.13680   0.13954
 Alpha virt. eigenvalues --    0.14153   0.14781   0.14890   0.15071   0.15326
 Alpha virt. eigenvalues --    0.15640   0.16169   0.16486   0.16860   0.16908
 Alpha virt. eigenvalues --    0.17244   0.17408   0.17665   0.17801   0.18172
 Alpha virt. eigenvalues --    0.18609   0.18655   0.18784   0.19618   0.19846
 Alpha virt. eigenvalues --    0.20229   0.20462   0.20601   0.21453   0.21750
 Alpha virt. eigenvalues --    0.22687   0.22983   0.23142   0.24649   0.25360
 Alpha virt. eigenvalues --    0.25847   0.26084   0.26458   0.27226   0.27536
 Alpha virt. eigenvalues --    0.28427   0.28542   0.29006   0.29790   0.29993
 Alpha virt. eigenvalues --    0.30471   0.30634   0.31531   0.32140   0.32722
 Alpha virt. eigenvalues --    0.32978   0.33467   0.33593   0.33930   0.34587
 Alpha virt. eigenvalues --    0.35021   0.35549   0.35847   0.36053   0.36639
 Alpha virt. eigenvalues --    0.36733   0.37324   0.37739   0.38141   0.38557
 Alpha virt. eigenvalues --    0.38975   0.39512   0.39920   0.40000   0.41203
 Alpha virt. eigenvalues --    0.41570   0.41849   0.42981   0.43269   0.45010
 Alpha virt. eigenvalues --    0.46020   0.48037   0.49461   0.50807   0.51368
 Alpha virt. eigenvalues --    0.51691   0.53279   0.53906   0.55650   0.56114
 Alpha virt. eigenvalues --    0.57128   0.57405   0.57751   0.58876   0.59346
 Alpha virt. eigenvalues --    0.60227   0.60833   0.61267   0.61399   0.61960
 Alpha virt. eigenvalues --    0.62720   0.63101   0.63699   0.63895   0.64595
 Alpha virt. eigenvalues --    0.65143   0.66349   0.66873   0.67259   0.67723
 Alpha virt. eigenvalues --    0.68205   0.69347   0.69702   0.70218   0.70842
 Alpha virt. eigenvalues --    0.71665   0.71977   0.73274   0.73390   0.73938
 Alpha virt. eigenvalues --    0.74569   0.74949   0.74987   0.75660   0.76315
 Alpha virt. eigenvalues --    0.76856   0.77716   0.77960   0.78356   0.79881
 Alpha virt. eigenvalues --    0.81088   0.83534   0.84129   0.84607   0.84994
 Alpha virt. eigenvalues --    0.86373   0.87364   0.87923   0.89630   0.90650
 Alpha virt. eigenvalues --    0.91494   0.91908   0.92831   0.94956   0.96171
 Alpha virt. eigenvalues --    0.96872   0.98975   1.01085   1.01420   1.03537
 Alpha virt. eigenvalues --    1.04092   1.04638   1.05526   1.06555   1.07398
 Alpha virt. eigenvalues --    1.07915   1.08531   1.09477   1.09539   1.10273
 Alpha virt. eigenvalues --    1.13400   1.13764   1.14404   1.15509   1.16852
 Alpha virt. eigenvalues --    1.17809   1.18380   1.19616   1.19775   1.20584
 Alpha virt. eigenvalues --    1.20909   1.21452   1.22500   1.23123   1.23747
 Alpha virt. eigenvalues --    1.24706   1.25262   1.25774   1.27485   1.27855
 Alpha virt. eigenvalues --    1.28240   1.29054   1.29554   1.29593   1.30673
 Alpha virt. eigenvalues --    1.31712   1.32320   1.32718   1.33009   1.33935
 Alpha virt. eigenvalues --    1.34700   1.35836   1.36643   1.37780   1.37979
 Alpha virt. eigenvalues --    1.38262   1.39176   1.40979   1.41512   1.41846
 Alpha virt. eigenvalues --    1.42648   1.43219   1.43962   1.44327   1.45569
 Alpha virt. eigenvalues --    1.46463   1.47376   1.47523   1.48680   1.49018
 Alpha virt. eigenvalues --    1.49803   1.50424   1.50584   1.51573   1.52987
 Alpha virt. eigenvalues --    1.53641   1.54696   1.55065   1.55942   1.56536
 Alpha virt. eigenvalues --    1.56706   1.57677   1.58389   1.58922   1.59240
 Alpha virt. eigenvalues --    1.60488   1.61451   1.61882   1.63011   1.63276
 Alpha virt. eigenvalues --    1.64278   1.65113   1.65734   1.66214   1.66598
 Alpha virt. eigenvalues --    1.67946   1.68721   1.70295   1.70608   1.72740
 Alpha virt. eigenvalues --    1.72995   1.74560   1.76014   1.78193   1.78749
 Alpha virt. eigenvalues --    1.80201   1.81087   1.82166   1.82702   1.83295
 Alpha virt. eigenvalues --    1.84429   1.89222   1.90311   1.93803   1.97285
 Alpha virt. eigenvalues --    2.06667   2.09229   2.13334   2.17933   2.21808
 Alpha virt. eigenvalues --    2.23195   2.28796   2.29996   2.31651   2.34132
 Alpha virt. eigenvalues --    2.41151   2.42541   2.45972   2.49161   2.52611
 Alpha virt. eigenvalues --    2.59348   2.76282   2.78161   2.78829   2.79567
 Alpha virt. eigenvalues --    2.87065   2.89108   2.92883   2.94412   2.96282
 Alpha virt. eigenvalues --    2.97383   2.98812   3.01858   3.03804   3.06219
 Alpha virt. eigenvalues --    3.07617   3.08652   3.09967   3.10619   3.12407
 Alpha virt. eigenvalues --    3.13434   3.14060   3.17541   3.20045   3.23348
 Alpha virt. eigenvalues --    3.26211   3.28402   3.32563   3.33728   3.34170
 Alpha virt. eigenvalues --    3.35932   3.38122   3.39289   3.40524   3.41881
 Alpha virt. eigenvalues --    3.42553   3.43991   3.44686   3.46143   3.47296
 Alpha virt. eigenvalues --    3.48613   3.49861   3.51192   3.52277   3.52593
 Alpha virt. eigenvalues --    3.53623   3.54330   3.55947   3.56264   3.56724
 Alpha virt. eigenvalues --    3.57698   3.58120   3.59120   3.59895   3.60188
 Alpha virt. eigenvalues --    3.61045   3.61576   3.63652   3.64175   3.65002
 Alpha virt. eigenvalues --    3.65835   3.68052   3.68126   3.69414   3.71176
 Alpha virt. eigenvalues --    3.71463   3.72431   3.72614   3.73262   3.73624
 Alpha virt. eigenvalues --    3.75209   3.75916   3.76292   3.78046   3.78174
 Alpha virt. eigenvalues --    3.78923   3.79505   3.80921   3.82432   3.82958
 Alpha virt. eigenvalues --    3.87180   3.87816   3.90504   3.91067   3.91700
 Alpha virt. eigenvalues --    3.93107   3.93577   3.94216   3.95158   3.97027
 Alpha virt. eigenvalues --    3.99722   4.02712   4.03333   4.04029   4.04989
 Alpha virt. eigenvalues --    4.05853   4.06229   4.06936   4.07582   4.08365
 Alpha virt. eigenvalues --    4.08582   4.09284   4.11045   4.11972   4.12678
 Alpha virt. eigenvalues --    4.13100   4.13555   4.13877   4.15220   4.16528
 Alpha virt. eigenvalues --    4.16639   4.17958   4.18726   4.19529   4.21803
 Alpha virt. eigenvalues --    4.22812   4.23662   4.25192   4.26657   4.27336
 Alpha virt. eigenvalues --    4.28688   4.30495   4.31424   4.31876   4.33506
 Alpha virt. eigenvalues --    4.33888   4.35726   4.36145   4.38015   4.39628
 Alpha virt. eigenvalues --    4.43263   4.45464   4.46168   4.48418   4.60085
 Alpha virt. eigenvalues --    4.60512   4.62409   4.74386   4.77479   4.88869
 Alpha virt. eigenvalues --    4.90750   4.91592   4.93652   4.99973   5.00894
 Alpha virt. eigenvalues --    5.06910   5.08245   5.08491   5.10156   5.11947
 Alpha virt. eigenvalues --    5.12747   5.13256   5.14666   5.29885   5.33166
 Alpha virt. eigenvalues --    5.38095   5.57119   5.59615   5.64669   5.86803
 Alpha virt. eigenvalues --    5.88413   6.04283   7.03120   7.04902   7.06290
 Alpha virt. eigenvalues --    7.09220   7.10699   7.12498   7.13946   7.17244
 Alpha virt. eigenvalues --    7.20751   7.36281   7.41815   7.47121   7.52721
 Alpha virt. eigenvalues --    7.55472   7.61901  23.95484  23.97142  24.05095
 Alpha virt. eigenvalues --   24.09644  24.12422  24.13057  24.14320  24.17190
 Alpha virt. eigenvalues --   24.17917  24.19155  50.16243  50.20057  50.23396
          Condensed to atoms (all electrons):
               1          2          3          4          5          6
     1  C    6.572334   0.144642  -0.318127  -0.388287  -0.282085  -0.104610
     2  C    0.144642   5.588814   0.016297   0.141272  -0.170141  -0.001508
     3  C   -0.318127   0.016297   7.450133   0.026120  -0.018840  -0.035313
     4  C   -0.388287   0.141272   0.026120   7.003047  -0.627274   0.020467
     5  C   -0.282085  -0.170141  -0.018840  -0.627274   6.523872   0.020338
     6  O   -0.104610  -0.001508  -0.035313   0.020467   0.020338   8.360273
     7  C   -0.019014  -0.002953  -0.117645  -0.012939   0.006385   0.025534
     8  O   -0.055407   0.095344   0.000922  -0.017951  -0.012097  -0.000046
     9  C   -0.020028  -0.001235   0.216601  -0.045564  -0.014551  -0.049382
    10  C    0.140557  -0.053477  -1.086208  -0.419946  -0.014118   0.314657
    11  C    0.051392   0.000046  -0.198730  -0.001225   0.033499   0.012346
    12  C   -0.439508  -0.323436  -0.081479  -0.116025   0.359087  -0.025763
    13  O   -0.029528   0.033750  -0.212335   0.139109  -0.165150   0.003054
    14  H    0.456865   0.021214   0.008418   0.038884  -0.046481   0.002333
    15  H    0.424073  -0.005070  -0.004324  -0.057220  -0.009343   0.004101
    16  H   -0.000119   0.431230   0.000803   0.006278  -0.034441   0.000087
    17  H    0.000340   0.468611   0.000609   0.023620  -0.079083  -0.000021
    18  H    0.001953  -0.001280   0.467616   0.016050   0.001653  -0.009959
    19  H    0.008324   0.000113   0.411650  -0.010672   0.000189   0.006250
    20  H   -0.032201   0.006632   0.014451   0.465447  -0.056458  -0.005645
    21  H   -0.007480  -0.029741   0.000473  -0.047616   0.455953  -0.000324
    22  H   -0.026179  -0.073929  -0.000791   0.028348   0.443688  -0.000023
    23  H   -0.005195   0.000009  -0.052257  -0.002786   0.000425  -0.003019
    24  H    0.006929  -0.000171  -0.106989   0.006057   0.000960  -0.000345
    25  H    0.000516   0.000222  -0.020704   0.007483  -0.001185  -0.004381
    26  H    0.002113  -0.000067   0.001749  -0.003810   0.000211   0.008509
    27  H    0.066272   0.005491   0.015842  -0.040500  -0.026536  -0.055693
    28  H    0.002994   0.000593   0.016194   0.014648   0.000811  -0.029821
    29  H    0.002067  -0.000073   0.001245  -0.003905   0.001028  -0.068277
    30  H    0.023286  -0.002160   0.000269   0.016318  -0.032907  -0.000521
    31  H   -0.039743   0.007666  -0.000190   0.002449   0.003592  -0.000489
               7          8          9         10         11         12
     1  C   -0.019014  -0.055407  -0.020028   0.140557   0.051392  -0.439508
     2  C   -0.002953   0.095344  -0.001235  -0.053477   0.000046  -0.323436
     3  C   -0.117645   0.000922   0.216601  -1.086208  -0.198730  -0.081479
     4  C   -0.012939  -0.017951  -0.045564  -0.419946  -0.001225  -0.116025
     5  C    0.006385  -0.012097  -0.014551  -0.014118   0.033499   0.359087
     6  O    0.025534  -0.000046  -0.049382   0.314657   0.012346  -0.025763
     7  C    5.699522  -0.000048  -0.057854   0.049349  -0.033681   0.012671
     8  O   -0.000048   8.444143   0.000074   0.002214  -0.000218   0.120803
     9  C   -0.057854   0.000074   5.750960  -0.048014  -0.048639  -0.019078
    10  C    0.049349   0.002214  -0.048014   6.900950  -0.048962  -0.226787
    11  C   -0.033681  -0.000218  -0.048639  -0.048962   5.480064   0.038014
    12  C    0.012671   0.120803  -0.019078  -0.226787   0.038014   6.409388
    13  O    0.027397  -0.003535   0.008143   0.079805  -0.002583   0.021328
    14  H    0.003587  -0.009722   0.000353  -0.012500  -0.005976  -0.095854
    15  H   -0.000325   0.013448  -0.008086   0.008191   0.006749   0.007994
    16  H   -0.000041  -0.066297  -0.000086  -0.002358   0.000272   0.008295
    17  H    0.000103  -0.042024   0.000150  -0.000536  -0.000442  -0.017897
    18  H   -0.006184   0.000015  -0.024283  -0.083135   0.000469   0.001527
    19  H   -0.025657  -0.000137  -0.004606  -0.009165   0.005712   0.002811
    20  H   -0.003666  -0.004352   0.002222   0.029458  -0.006501  -0.027889
    21  H    0.000187   0.007613   0.000057   0.004003  -0.000362   0.001418
    22  H   -0.000845  -0.002870   0.000740  -0.003120  -0.001004   0.004388
    23  H    0.423267  -0.000004  -0.016182   0.029748   0.004355  -0.000538
    24  H    0.544031  -0.000020  -0.097857   0.026176   0.002276   0.003154
    25  H   -0.004616   0.000004   0.466225  -0.004484  -0.073521   0.000028
    26  H   -0.060635  -0.000001   0.454921   0.007592  -0.031810   0.000163
    27  H   -0.042563   0.003945   0.043529   0.415136  -0.005549  -0.045129
    28  H    0.001823  -0.000008  -0.073267  -0.050270   0.489663   0.000159
    29  H    0.006944  -0.000009  -0.042942   0.009228   0.442351   0.001022
    30  H   -0.000265  -0.037849   0.000063   0.006897  -0.000789   0.364228
    31  H   -0.000378  -0.076190   0.000645  -0.003034   0.000260   0.445207
              13         14         15         16         17         18
     1  C   -0.029528   0.456865   0.424073  -0.000119   0.000340   0.001953
     2  C    0.033750   0.021214  -0.005070   0.431230   0.468611  -0.001280
     3  C   -0.212335   0.008418  -0.004324   0.000803   0.000609   0.467616
     4  C    0.139109   0.038884  -0.057220   0.006278   0.023620   0.016050
     5  C   -0.165150  -0.046481  -0.009343  -0.034441  -0.079083   0.001653
     6  O    0.003054   0.002333   0.004101   0.000087  -0.000021  -0.009959
     7  C    0.027397   0.003587  -0.000325  -0.000041   0.000103  -0.006184
     8  O   -0.003535  -0.009722   0.013448  -0.066297  -0.042024   0.000015
     9  C    0.008143   0.000353  -0.008086  -0.000086   0.000150  -0.024283
    10  C    0.079805  -0.012500   0.008191  -0.002358  -0.000536  -0.083135
    11  C   -0.002583  -0.005976   0.006749   0.000272  -0.000442   0.000469
    12  C    0.021328  -0.095854   0.007994   0.008295  -0.017897   0.001527
    13  O    8.578602   0.001644  -0.003611  -0.002528  -0.000300   0.001985
    14  H    0.001644   0.435790  -0.024669  -0.000316   0.001129   0.000542
    15  H   -0.003611  -0.024669   0.485764   0.000447  -0.001192  -0.000529
    16  H   -0.002528  -0.000316   0.000447   0.472081  -0.013845  -0.000019
    17  H   -0.000300   0.001129  -0.001192  -0.013845   0.489761   0.000033
    18  H    0.001985   0.000542  -0.000529  -0.000019   0.000033   0.458507
    19  H   -0.001796  -0.001131  -0.000027   0.000035  -0.000071  -0.018407
    20  H   -0.036135   0.002718  -0.007555   0.000094  -0.008001  -0.000316
    21  H   -0.002506  -0.003152   0.000173  -0.008650   0.001126   0.000054
    22  H   -0.004758   0.004870  -0.003061  -0.005926   0.002299   0.000114
    23  H   -0.002700   0.000049   0.000229   0.000002   0.000006  -0.005936
    24  H    0.001092   0.000200   0.000493   0.000000  -0.000012   0.006455
    25  H    0.003183   0.000195   0.000101  -0.000003   0.000012   0.002784
    26  H    0.000151  -0.000224   0.000067  -0.000000  -0.000003  -0.003257
    27  H   -0.038449  -0.004351  -0.011574  -0.000717   0.001407  -0.006862
    28  H    0.004816   0.001280  -0.002236   0.000056  -0.000063   0.000964
    29  H   -0.002209  -0.000295   0.000194   0.000004   0.000003  -0.000821
    30  H   -0.001521   0.003044  -0.005803  -0.004122   0.012179   0.000033
    31  H   -0.000429  -0.004074  -0.013333   0.002148  -0.003621   0.000032
              19         20         21         22         23         24
     1  C    0.008324  -0.032201  -0.007480  -0.026179  -0.005195   0.006929
     2  C    0.000113   0.006632  -0.029741  -0.073929   0.000009  -0.000171
     3  C    0.411650   0.014451   0.000473  -0.000791  -0.052257  -0.106989
     4  C   -0.010672   0.465447  -0.047616   0.028348  -0.002786   0.006057
     5  C    0.000189  -0.056458   0.455953   0.443688   0.000425   0.000960
     6  O    0.006250  -0.005645  -0.000324  -0.000023  -0.003019  -0.000345
     7  C   -0.025657  -0.003666   0.000187  -0.000845   0.423267   0.544031
     8  O   -0.000137  -0.004352   0.007613  -0.002870  -0.000004  -0.000020
     9  C   -0.004606   0.002222   0.000057   0.000740  -0.016182  -0.097857
    10  C   -0.009165   0.029458   0.004003  -0.003120   0.029748   0.026176
    11  C    0.005712  -0.006501  -0.000362  -0.001004   0.004355   0.002276
    12  C    0.002811  -0.027889   0.001418   0.004388  -0.000538   0.003154
    13  O   -0.001796  -0.036135  -0.002506  -0.004758  -0.002700   0.001092
    14  H   -0.001131   0.002718  -0.003152   0.004870   0.000049   0.000200
    15  H   -0.000027  -0.007555   0.000173  -0.003061   0.000229   0.000493
    16  H    0.000035   0.000094  -0.008650  -0.005926   0.000002   0.000000
    17  H   -0.000071  -0.008001   0.001126   0.002299   0.000006  -0.000012
    18  H   -0.018407  -0.000316   0.000054   0.000114  -0.005936   0.006455
    19  H    0.471423   0.000305   0.000067  -0.000781  -0.010578  -0.004917
    20  H    0.000305   0.401831  -0.007736   0.001742   0.000094  -0.000167
    21  H    0.000067  -0.007736   0.470980  -0.018933  -0.000008   0.000053
    22  H   -0.000781   0.001742  -0.018933   0.455270  -0.000027  -0.000065
    23  H   -0.010578   0.000094  -0.000008  -0.000027   0.454388  -0.005565
    24  H   -0.004917  -0.000167   0.000053  -0.000065  -0.005565   0.459554
    25  H   -0.001814  -0.000747   0.000031  -0.000004  -0.002062   0.004030
    26  H    0.001809   0.000132  -0.000014  -0.000009  -0.008155  -0.005496
    27  H   -0.003424  -0.001862  -0.000824   0.003065  -0.000023  -0.016549
    28  H   -0.000043  -0.000919   0.000073  -0.000187  -0.001936   0.002668
    29  H    0.001330   0.000260  -0.000007   0.000029   0.000274  -0.001776
    30  H   -0.000089  -0.004401  -0.001781   0.002524  -0.000014  -0.000042
    31  H    0.000021   0.000277   0.001494  -0.001676  -0.000014   0.000024
              25         26         27         28         29         30
     1  C    0.000516   0.002113   0.066272   0.002994   0.002067   0.023286
     2  C    0.000222  -0.000067   0.005491   0.000593  -0.000073  -0.002160
     3  C   -0.020704   0.001749   0.015842   0.016194   0.001245   0.000269
     4  C    0.007483  -0.003810  -0.040500   0.014648  -0.003905   0.016318
     5  C   -0.001185   0.000211  -0.026536   0.000811   0.001028  -0.032907
     6  O   -0.004381   0.008509  -0.055693  -0.029821  -0.068277  -0.000521
     7  C   -0.004616  -0.060635  -0.042563   0.001823   0.006944  -0.000265
     8  O    0.000004  -0.000001   0.003945  -0.000008  -0.000009  -0.037849
     9  C    0.466225   0.454921   0.043529  -0.073267  -0.042942   0.000063
    10  C   -0.004484   0.007592   0.415136  -0.050270   0.009228   0.006897
    11  C   -0.073521  -0.031810  -0.005549   0.489663   0.442351  -0.000789
    12  C    0.000028   0.000163  -0.045129   0.000159   0.001022   0.364228
    13  O    0.003183   0.000151  -0.038449   0.004816  -0.002209  -0.001521
    14  H    0.000195  -0.000224  -0.004351   0.001280  -0.000295   0.003044
    15  H    0.000101   0.000067  -0.011574  -0.002236   0.000194  -0.005803
    16  H   -0.000003  -0.000000  -0.000717   0.000056   0.000004  -0.004122
    17  H    0.000012  -0.000003   0.001407  -0.000063   0.000003   0.012179
    18  H    0.002784  -0.003257  -0.006862   0.000964  -0.000821   0.000033
    19  H   -0.001814   0.001809  -0.003424  -0.000043   0.001330  -0.000089
    20  H   -0.000747   0.000132  -0.001862  -0.000919   0.000260  -0.004401
    21  H    0.000031  -0.000014  -0.000824   0.000073  -0.000007  -0.001781
    22  H   -0.000004  -0.000009   0.003065  -0.000187   0.000029   0.002524
    23  H   -0.002062  -0.008155  -0.000023  -0.001936   0.000274  -0.000014
    24  H    0.004030  -0.005496  -0.016549   0.002668  -0.001776  -0.000042
    25  H    0.473980  -0.011701  -0.001615   0.003854  -0.002889   0.000041
    26  H   -0.011701   0.475025   0.000885   0.000877  -0.009831  -0.000016
    27  H   -0.001615   0.000885   0.469403  -0.008287  -0.001120   0.004385
    28  H    0.003854   0.000877  -0.008287   0.479266  -0.006670   0.000143
    29  H   -0.002889  -0.009831  -0.001120  -0.006670   0.473694  -0.000042
    30  H    0.000041  -0.000016   0.004385   0.000143  -0.000042   0.489193
    31  H   -0.000018   0.000020  -0.000727  -0.000087   0.000047  -0.013335
              31
     1  C   -0.039743
     2  C    0.007666
     3  C   -0.000190
     4  C    0.002449
     5  C    0.003592
     6  O   -0.000489
     7  C   -0.000378
     8  O   -0.076190
     9  C    0.000645
    10  C   -0.003034
    11  C    0.000260
    12  C    0.445207
    13  O   -0.000429
    14  H   -0.004074
    15  H   -0.013333
    16  H    0.002148
    17  H   -0.003621
    18  H    0.000032
    19  H    0.000021
    20  H    0.000277
    21  H    0.001494
    22  H   -0.001676
    23  H   -0.000014
    24  H    0.000024
    25  H   -0.000018
    26  H    0.000020
    27  H   -0.000727
    28  H   -0.000087
    29  H    0.000047
    30  H   -0.013335
    31  H    0.482308
 Mulliken charges:
               1
     1  C   -0.137142
     2  C   -0.296704
     3  C   -0.395460
     4  C   -0.159876
     5  C   -0.261001
     6  O   -0.382810
     7  C   -0.411491
     8  O   -0.359740
     9  C   -0.373028
    10  C    0.042154
    11  C   -0.107476
    12  C   -0.382301
    13  O   -0.393985
    14  H    0.225630
    15  H    0.205933
    16  H    0.217635
    17  H    0.165725
    18  H    0.200203
    19  H    0.183278
    20  H    0.278888
    21  H    0.185381
    22  H    0.197113
    23  H    0.204154
    24  H    0.175818
    25  H    0.167055
    26  H    0.180804
    27  H    0.282990
    28  H    0.152914
    29  H    0.201144
    30  H    0.183051
    31  H    0.211147
 Sum of Mulliken charges =  -0.00000
 Mulliken charges with hydrogens summed into heavy atoms:
               1
     1  C    0.294421
     2  C    0.086656
     3  C   -0.011979
     4  C    0.119012
     5  C    0.121492
     6  O   -0.382810
     7  C   -0.031520
     8  O   -0.359740
     9  C   -0.025169
    10  C    0.325143
    11  C    0.246581
    12  C    0.011898
    13  O   -0.393985
 Electronic spatial extent (au):  <R**2>=           3323.0696
 Charge=             -0.0000 electrons
 Dipole moment (field-independent basis, Debye):
    X=              2.7100    Y=              1.6691    Z=              0.8548  Tot=              3.2955
 Quadrupole moment (field-independent basis, Debye-Ang):
   XX=            -79.0062   YY=            -76.8870   ZZ=            -80.2919
   XY=              3.3989   XZ=              8.2616   YZ=              0.7115
 Traceless Quadrupole moment (field-independent basis, Debye-Ang):
   XX=             -0.2778   YY=              1.8414   ZZ=             -1.5635
   XY=              3.3989   XZ=              8.2616   YZ=              0.7115
 Octapole moment (field-independent basis, Debye-Ang**2):
  XXX=             78.1011  YYY=              9.8735  ZZZ=              0.0313  XYY=             -5.5295
  XXY=             -7.8450  XXZ=            -24.5638  XZZ=             -3.5250  YZZ=              1.4605
  YYZ=              0.8145  XYZ=             -4.1916
 Hexadecapole moment (field-independent basis, Debye-Ang**3):
 XXXX=          -3716.5545 YYYY=           -559.4307 ZZZZ=           -281.9355 XXXY=             91.9859
 XXXZ=             92.6432 YYYX=              0.8341 YYYZ=              1.1806 ZZZX=             -3.2944
 ZZZY=              0.1078 XXYY=           -630.0052 XXZZ=           -643.4619 YYZZ=           -132.6822
 XXYZ=              2.1683 YYXZ=             -9.4925 ZZXY=             -1.3172
 N-N= 8.816569500878D+02 E-N=-3.205360267702D+03  KE= 6.153602447406D+02
 D1PCM: PCM CHGder 1st derivatives, ID1Alg=3 FixD1E=F DoIter=F DoCFld=F I1PDM=0.
 Calling FoFJK, ICntrl=      2127 FMM=F ISym2X=0 I1Cent= 0 IOpClX= 0 NMat=1 NMatS=1 NMatT=0.
 ***** Axes restored to original set *****
 -------------------------------------------------------------------
 Center     Atomic                   Forces (Hartrees/Bohr)
 Number     Number              X              Y              Z
 -------------------------------------------------------------------
      1        6           0.002041359   -0.002541322    0.002307104
      2        6          -0.006790663   -0.001030718    0.000177105
      3        6          -0.001007206    0.002831605   -0.001735490
      4        6           0.002950194    0.005538130   -0.002213602
      5        6           0.000168075    0.003089358    0.001651113
      6        8           0.006028330    0.002503704    0.012033133
      7        6           0.002379819    0.001185024    0.003333439
      8        8           0.008523908   -0.000623871   -0.008165946
      9        6           0.002309344    0.000075284   -0.002483109
     10        6          -0.005395331   -0.002438434   -0.000901417
     11        6          -0.004416820   -0.004354469   -0.002567880
     12        6          -0.005770793   -0.003006726    0.000996521
     13        8           0.001250693   -0.013945486   -0.002036356
     14        1          -0.000013104   -0.002355850   -0.003309292
     15        1          -0.003497605    0.002802231    0.000768083
     16        1           0.003111143   -0.003228681   -0.000504890
     17        1          -0.000530535    0.002199893    0.005188384
     18        1           0.000080374   -0.001196670    0.003716492
     19        1           0.001163376   -0.001588797   -0.002462188
     20        1           0.001040678    0.003347227    0.005349462
     21        1          -0.000790307   -0.001930605    0.002583773
     22        1          -0.000343995   -0.001041640   -0.003739800
     23        1          -0.001858140   -0.001846437   -0.000081736
     24        1           0.000906204    0.001941972   -0.002600362
     25        1           0.000022408   -0.001674835    0.002913844
     26        1          -0.002079608    0.001579705   -0.000884242
     27        1           0.000873728    0.005055266   -0.007532689
     28        1           0.000384619    0.002641767   -0.005074323
     29        1          -0.000895212    0.002760692    0.003543637
     30        1          -0.000704901    0.002347980    0.005166249
     31        1           0.000859968    0.002904704   -0.003435017
 -------------------------------------------------------------------
 Cartesian Forces:  Max     0.013945486 RMS     0.003625845

 GradGradGradGradGradGradGradGradGradGradGradGradGradGradGradGradGradGrad
 Berny optimization.
 FormGI is forming the generalized inverse of G from B-inverse, IUseBI=4.
 Internal  Forces:  Max     0.015579593 RMS     0.002311497
 Search for a local minimum.
 Step number   1 out of a maximum of  186
 All quantities printed in internal units (Hartrees-Bohrs-Radians)
 Mixed Optimization -- RFO/linear search
 Second derivative matrix not updated -- first step.
 ITU=  0
     Eigenvalues ---    0.00610   0.00686   0.00734   0.00755   0.01432
     Eigenvalues ---    0.01490   0.01870   0.02719   0.02738   0.03113
     Eigenvalues ---    0.03222   0.04048   0.04174   0.04770   0.04774
     Eigenvalues ---    0.04905   0.04927   0.04987   0.05155   0.05188
     Eigenvalues ---    0.05364   0.05718   0.05736   0.06143   0.06196
     Eigenvalues ---    0.06323   0.06351   0.06523   0.07691   0.07802
     Eigenvalues ---    0.07946   0.07953   0.07964   0.08002   0.08408
     Eigenvalues ---    0.08732   0.08903   0.09884   0.10903   0.11471
     Eigenvalues ---    0.11703   0.11711   0.11769   0.12324   0.13135
     Eigenvalues ---    0.14301   0.14485   0.16188   0.16688   0.17787
     Eigenvalues ---    0.19170   0.21203   0.21855   0.25000   0.28610
     Eigenvalues ---    0.28612   0.28768   0.28930   0.28966   0.29324
     Eigenvalues ---    0.30082   0.30512   0.35035   0.35076   0.35083
     Eigenvalues ---    0.35091   0.35124   0.35186   0.35188   0.35217
     Eigenvalues ---    0.35242   0.35297   0.35311   0.35361   0.35366
     Eigenvalues ---    0.35494   0.35541   0.35878   0.35878   0.35889
     Eigenvalues ---    0.41207   0.41641   0.41824   0.42125   0.42594
     Eigenvalues ---    0.479321000.000001000.000001000.000001000.00000
     Eigenvalues --- 1000.000001000.000001000.000001000.000001000.00000
     Eigenvalues --- 1000.000001000.000001000.000001000.000001000.00000
     Eigenvalues --- 1000.000001000.000001000.000001000.000001000.00000
     Eigenvalues --- 1000.000001000.000001000.000001000.000001000.00000
     Eigenvalues --- 1000.000001000.000001000.000001000.000001000.00000
     Eigenvalues --- 1000.000001000.000001000.000001000.000001000.00000
     Eigenvalues --- 1000.000001000.000001000.000001000.000001000.00000
     Eigenvalues --- 1000.000001000.000001000.000001000.000001000.00000
     Eigenvalues --- 1000.000001000.000001000.000001000.000001000.00000
     Eigenvalues --- 1000.000001000.000001000.000001000.000001000.00000
     Eigenvalues --- 1000.000001000.000001000.000001000.000001000.00000
     Eigenvalues --- 1000.000001000.000001000.000001000.000001000.00000
     Eigenvalues --- 1000.000001000.000001000.000001000.000001000.00000
     Eigenvalues --- 1000.000001000.000001000.000001000.000001000.00000
     Eigenvalues --- 1000.000001000.000001000.000001000.000001000.00000
     Eigenvalues --- 1000.000001000.000001000.000001000.000001000.00000
     Eigenvalues --- 1000.000001000.000001000.000001000.000001000.00000
     Eigenvalues --- 1000.000001000.000001000.000001000.000001000.00000
     Eigenvalues --- 1000.000001000.000001000.000001000.000001000.00000
 RFO step:  Lambda=-3.49862893D-03 EMin= 6.10483339D-03
 Linear search not attempted -- first point.
 Iteration  1 RMS(Cart)=  0.06228198 RMS(Int)=  0.00078318
 Iteration  2 RMS(Cart)=  0.00199524 RMS(Int)=  0.00002219
 Iteration  3 RMS(Cart)=  0.00000071 RMS(Int)=  0.00002219
 Iteration  1 RMS(Cart)=  0.00000844 RMS(Int)=  0.00000191
 Iteration  2 RMS(Cart)=  0.00000467 RMS(Int)=  0.00000213
 Iteration  3 RMS(Cart)=  0.00000258 RMS(Int)=  0.00000241
 Iteration  4 RMS(Cart)=  0.00000143 RMS(Int)=  0.00000260
 Iteration  5 RMS(Cart)=  0.00000079 RMS(Int)=  0.00000271
 Variable       Old X    -DE/DX   Delta X   Delta X   Delta X     New X
                                 (Linear)    (Quad)   (Total)
    R1        2.88461  -0.00247   0.00000  -0.00910  -0.00912   2.87549
    R2        2.88127  -0.00052   0.00000  -0.00203  -0.00202   2.87925
    R3        2.05374   0.00396   0.00000   0.01113   0.01113   2.06487
    R4        2.04881   0.00445   0.00000   0.01242   0.01242   2.06123
    R5        2.87529  -0.00080   0.00000  -0.00220  -0.00221   2.87309
    R6        2.67129   0.00624   0.00000   0.01487   0.01489   2.68618
    R7        2.04273   0.00450   0.00000   0.01241   0.01241   2.05514
    R8        2.05528   0.00556   0.00000   0.01570   0.01570   2.07098
    R9        2.89330  -0.00108   0.00000  -0.00403  -0.00406   2.88924
   R10        2.86666  -0.00147   0.00000  -0.00452  -0.00452   2.86214
   R11        2.05370   0.00370   0.00000   0.01042   0.01042   2.06412
   R12        2.05084   0.00313   0.00000   0.00876   0.00876   2.05960
   R13        2.87617  -0.00185   0.00000  -0.00747  -0.00749   2.86868
   R14        2.69148   0.00383   0.00000   0.00908   0.00908   2.70056
   R15        2.05195   0.00624   0.00000   0.01750   0.01750   2.06945
   R16        2.05173   0.00329   0.00000   0.00922   0.00922   2.06095
   R17        2.05323   0.00376   0.00000   0.01056   0.01056   2.06379
   R18        2.66216   0.00801   0.00000   0.01867   0.01870   2.68086
   R19        2.68077   0.00571   0.00000   0.01357   0.01360   2.69437
   R20        2.89035  -0.00074   0.00000  -0.00351  -0.00353   2.88682
   R21        2.05092   0.00262   0.00000   0.00732   0.00732   2.05824
   R22        2.05619   0.00327   0.00000   0.00923   0.00923   2.06542
   R23        2.66962   0.00601   0.00000   0.01471   0.01472   2.68435
   R24        2.87285  -0.00069   0.00000  -0.00238  -0.00238   2.87047
   R25        2.05474   0.00327   0.00000   0.00920   0.00920   2.06394
   R26        2.05284   0.00275   0.00000   0.00772   0.00772   2.06056
   R27        2.62012   0.00509   0.00000   0.01053   0.01053   2.63065
   R28        2.04805   0.00908   0.00000   0.02529   0.02529   2.07334
   R29        2.05552   0.00565   0.00000   0.01595   0.01595   2.07147
   R30        2.04273   0.00457   0.00000   0.01262   0.01262   2.05535
   R31        2.05541   0.00561   0.00000   0.01583   0.01583   2.07124
   R32        2.04255   0.00458   0.00000   0.01262   0.01262   2.05517
    A1        1.90903  -0.00042   0.00000  -0.00620  -0.00627   1.90276
    A2        1.92060   0.00016   0.00000  -0.00291  -0.00289   1.91771
    A3        1.94751  -0.00083   0.00000  -0.00591  -0.00587   1.94164
    A4        1.90847   0.00035   0.00000   0.00300   0.00299   1.91147
    A5        1.89053   0.00057   0.00000   0.00708   0.00706   1.89760
    A6        1.88706   0.00021   0.00000   0.00538   0.00533   1.89240
    A7        1.93823   0.00087   0.00000   0.00514   0.00513   1.94336
    A8        1.93563  -0.00032   0.00000  -0.00367  -0.00368   1.93195
    A9        1.93226  -0.00119   0.00000  -0.00785  -0.00785   1.92441
   A10        1.86196  -0.00072   0.00000  -0.00095  -0.00094   1.86102
   A11        1.90385   0.00085   0.00000   0.00467   0.00469   1.90855
   A12        1.88984   0.00056   0.00000   0.00303   0.00301   1.89284
   A13        1.92255  -0.00073   0.00000  -0.00753  -0.00758   1.91496
   A14        1.92480   0.00091   0.00000   0.00469   0.00465   1.92945
   A15        1.93616  -0.00008   0.00000   0.00290   0.00288   1.93904
   A16        1.89126  -0.00053   0.00000  -0.00634  -0.00633   1.88493
   A17        1.90367   0.00023   0.00000  -0.00074  -0.00071   1.90296
   A18        1.88439   0.00021   0.00000   0.00705   0.00702   1.89140
   A19        1.91974   0.00227   0.00000   0.00148   0.00138   1.92112
   A20        2.00591  -0.00264   0.00000  -0.01877  -0.01873   1.98718
   A21        1.89025  -0.00010   0.00000  -0.00010  -0.00006   1.89020
   A22        1.86296  -0.00010   0.00000   0.00247   0.00242   1.86538
   A23        1.90208  -0.00098   0.00000   0.00135   0.00134   1.90342
   A24        1.88060   0.00156   0.00000   0.01458   0.01455   1.89515
   A25        1.92911  -0.00047   0.00000  -0.00879  -0.00883   1.92028
   A26        1.91059   0.00064   0.00000   0.00458   0.00459   1.91518
   A27        1.91029  -0.00008   0.00000   0.00184   0.00179   1.91209
   A28        1.92378  -0.00065   0.00000  -0.00155  -0.00153   1.92225
   A29        1.90517   0.00033   0.00000  -0.00245  -0.00244   1.90273
   A30        1.88428   0.00024   0.00000   0.00674   0.00672   1.89100
   A31        1.98000  -0.00506   0.00000  -0.02705  -0.02698   1.95302
   A32        1.92600   0.00209   0.00000  -0.00059  -0.00066   1.92534
   A33        1.91981  -0.00065   0.00000  -0.00067  -0.00064   1.91917
   A34        1.90961  -0.00081   0.00000  -0.00216  -0.00215   1.90746
   A35        1.93141  -0.00049   0.00000   0.00070   0.00073   1.93214
   A36        1.90912  -0.00082   0.00000  -0.00193  -0.00193   1.90720
   A37        1.86686   0.00060   0.00000   0.00475   0.00474   1.87159
   A38        1.96811  -0.00445   0.00000  -0.02375  -0.02372   1.94439
   A39        1.92309   0.00009   0.00000  -0.00349  -0.00357   1.91951
   A40        1.91847   0.00055   0.00000   0.00189   0.00192   1.92038
   A41        1.93553  -0.00062   0.00000  -0.00114  -0.00113   1.93440
   A42        1.90344  -0.00037   0.00000  -0.00176  -0.00174   1.90170
   A43        1.90615   0.00008   0.00000  -0.00031  -0.00029   1.90586
   A44        1.87631   0.00027   0.00000   0.00499   0.00498   1.88129
   A45        1.93131   0.00171   0.00000   0.00886   0.00885   1.94016
   A46        1.89856   0.00012   0.00000   0.00054   0.00054   1.89910
   A47        1.92383  -0.00056   0.00000  -0.00190  -0.00189   1.92194
   A48        1.88698  -0.00184   0.00000  -0.00961  -0.00960   1.87738
   A49        1.89082  -0.00004   0.00000  -0.00260  -0.00260   1.88822
   A50        1.93218   0.00061   0.00000   0.00469   0.00468   1.93686
   A51        1.93441   0.00095   0.00000   0.00308   0.00310   1.93751
   A52        1.90304   0.00072   0.00000   0.00427   0.00428   1.90732
   A53        1.85258  -0.00074   0.00000  -0.00027  -0.00028   1.85229
   A54        1.93085  -0.00128   0.00000  -0.00718  -0.00720   1.92365
   A55        1.95064  -0.00011   0.00000  -0.00213  -0.00213   1.94851
   A56        1.88987   0.00051   0.00000   0.00271   0.00269   1.89256
   A57        1.94988   0.00102   0.00000   0.00334   0.00335   1.95324
   A58        1.92797  -0.00136   0.00000  -0.00843  -0.00844   1.91953
   A59        1.92960  -0.00021   0.00000  -0.00214  -0.00215   1.92745
   A60        1.90389   0.00067   0.00000   0.00495   0.00495   1.90884
   A61        1.86123  -0.00063   0.00000  -0.00049  -0.00049   1.86075
   A62        1.88909   0.00056   0.00000   0.00320   0.00318   1.89227
   A63        2.09386  -0.01558   0.00000  -0.06146  -0.06146   2.03240
    D1       -0.91817  -0.00042   0.00000  -0.01471  -0.01470  -0.93287
    D2       -3.02079  -0.00016   0.00000  -0.00599  -0.00600  -3.02679
    D3        1.15888  -0.00034   0.00000  -0.01228  -0.01231   1.14657
    D4        1.17871  -0.00015   0.00000  -0.01671  -0.01669   1.16202
[...]
 0.00001055,0.00000040,-0.00000700,0.00028810,0.00004023,0.00004372,-0.
 00000193,0.00000213,0.00000062,0.00000021,-0.00000507,-0.00000197,0.00
 000487,0.00000193,0.00000023,0.00000059,0.00000108,0.00000152,0.000447
 23,-0.00020253,0.00037552,-0.00011823,-0.00025356,0.00023932,0.0000130
 7,0.00000981,0.00000481,-0.00000002,-0.00000275,0.00000152,0.00000017,
 -0.00000145,-0.00000069,-0.00043749,0.00019410,0.00094406,0.00108695,-
 0.00388940,-0.00227412,-0.05721513,-0.10661674,0.26835622,-0.00004410,
 -0.00002100,-0.00002722,0.00000582,0.00003106,0.00000408,0.00104026,0.
 00033355,0.00091696,0.00025169,0.00009915,-0.00000953,-0.00002532,-0.0
 0003932,0.00000304,-0.00772214,-0.00188055,-0.00048952,-0.00296313,0.0
 0170338,-0.00048025,-0.00002918,-0.00000110,0.00000037,-0.20530726,0.1
 1755107,-0.05547832,0.00126528,-0.00164904,-0.00155413,-0.01648202,0.0
 1833043,-0.00660698,0.00003479,0.00000544,0.00002742,-0.00053194,0.000
 37695,0.00007506,-0.00000756,-0.00000259,0.00000405,0.00000691,0.00003
 047,-0.00000278,-0.00001293,-0.00000478,-0.00000044,-0.00000155,-0.000
 00253,-0.00000255,-0.00007801,0.00007253,-0.00012744,-0.00015927,0.000
 11635,-0.00026154,-0.00004016,-0.00001862,0.00001839,-0.00000009,0.000
 00626,-0.00000201,-0.00000925,0.00000929,0.00000116,0.00033611,0.00015
 971,0.00033512,0.00015023,-0.00013239,0.00005025,0.00678950,-0.0047960
 5,0.00138473,0.22182625,0.00000415,0.00000721,0.00000643,0.00000398,-0
 .00000709,-0.00000176,-0.00022755,-0.00224608,-0.00468834,0.00004769,-
 0.00003052,0.00001756,0.00001328,0.00001773,0.00001465,-0.00628622,-0.
 00019127,-0.00069588,0.01743962,-0.01296302,0.00736201,-0.00000194,0.0
 0000131,-0.00000010,0.11931880,-0.13861038,0.04402295,-0.00052501,-0.0
 0150231,-0.00108513,-0.01196851,0.01208307,-0.00488038,-0.00000005,0.0
 0000132,0.00000258,0.00005410,0.00047112,0.00025673,-0.00000621,0.0000
 0132,0.00000190,0.00000494,0.00000882,-0.00000493,0.00000193,0.0000011
 3,-0.00000025,-0.00000043,-0.00000025,0.00000007,-0.00033006,0.0001517
 2,-0.00003209,0.00158255,-0.00052110,0.00021059,0.00001919,0.00000686,
 0.00001880,-0.00000185,0.00000071,-0.00000018,-0.00000643,0.00000228,-
 0.00000197,-0.00051327,0.00049077,0.00069722,-0.00039162,0.00112074,0.
 00007618,0.01012657,-0.00801117,0.00325848,-0.13026663,0.14857594,0.00
 001352,0.00000841,0.00001282,0.00000189,-0.00000776,-0.00000125,0.0002
 3501,-0.00315598,-0.00329520,0.00001969,-0.00002462,0.00001256,0.00001
 042,0.00001380,0.00000595,-0.00197894,-0.00055530,0.00125299,0.0199545
 6,-0.01377925,0.00626831,0.00000031,0.00000086,-0.00000062,-0.05768837
 ,0.04461032,-0.06707584,-0.00050400,-0.00074232,-0.00060782,-0.0012393
 1,0.00304427,-0.00291308,-0.00000301,0.00000166,-0.00000232,0.00007985
 ,0.00021189,0.00013391,-0.00000569,0.00000238,0.00000062,0.00000361,0.
 00000571,-0.00000435,0.00000229,0.00000136,-0.00000026,0.00000009,0.00
 000013,0.00000026,0.00007458,-0.00011775,0.00019260,0.00113725,-0.0007
 3515,0.00025527,0.00001654,0.00000676,0.00000682,-0.00000036,-0.000000
 51,-0.00000011,-0.00000195,-0.00000002,-0.00000043,-0.00055269,0.00077
 420,0.00074028,-0.00007307,0.00089216,0.00112680,-0.02137076,0.0145673
 0,-0.00688574,0.06163792,-0.04492524,0.07047860,-0.00214140,-0.0014768
 9,-0.00024064,0.00002961,0.00008810,0.00001252,-0.00427487,-0.01466971
 ,0.01901122,0.00381496,0.00216752,-0.00046092,-0.00013012,-0.00017585,
 0.00007873,0.00056429,0.00180995,0.00934790,0.00119991,-0.00032241,0.0
 0081330,-0.00011415,-0.00010912,0.00006123,-0.00019075,0.00002899,-0.0
 0021428,-0.06358267,-0.03265979,0.04391139,0.00129277,-0.00089321,0.00
 200054,-0.00005130,0.00044708,-0.00014707,-0.00667386,0.02484215,-0.02
 958470,-0.00070991,-0.00042880,0.00037697,-0.00196781,-0.00118456,-0.0
 0025158,-0.00002985,-0.00000832,-0.00000084,-0.00000176,-0.00000387,0.
 00000041,-0.00312364,-0.00308940,-0.00055654,0.00069011,0.00026350,-0.
 00057324,-0.00031084,-0.00041671,-0.00002410,0.00003543,-0.00010351,0.
 00003053,0.00000024,0.00000769,0.00001335,0.00011200,0.00006847,-0.000
 19714,-0.00004535,0.00013954,-0.00030715,0.00004044,0.00003652,-0.0000
 2660,-0.00004922,0.00003563,0.00002745,0.07567472,-0.00117284,-0.00040
 365,-0.00034154,-0.00001715,-0.00026047,0.00003834,-0.00612617,-0.0103
 7158,0.01776489,-0.00287390,-0.00161834,-0.00116409,0.00022185,0.00026
 621,0.00015037,0.00963059,0.00427267,-0.02901255,0.00086538,0.00030053
 ,0.00007208,-0.00016898,0.00011294,-0.00005278,0.00021947,-0.00018150,
 0.00026434,-0.02984704,-0.11898498,0.11067527,-0.00251646,0.00283207,-
 0.00312888,-0.00007404,0.00040051,-0.00041973,0.01089122,-0.01373357,0
 .01921646,0.00004629,-0.00015378,-0.00016933,-0.00187434,-0.00064710,-
 0.00034358,0.00007156,0.00003712,-0.00000078,0.00001516,0.00001389,-0.
 00000060,-0.00293587,-0.00186623,-0.00023813,0.00073186,0.00063295,-0.
 00008106,0.00025823,0.00030251,0.00012395,-0.00000460,0.00001430,-0.00
 000645,-0.00000942,-0.00001322,-0.00001482,0.00002750,0.00010986,-0.00
 034721,-0.00020098,0.00047291,-0.00033812,-0.00000251,-0.00011027,0.00
 006386,0.00009927,0.00012995,0.00010739,0.02533630,0.13856972,0.000947
 88,0.00050724,0.00035390,-0.00001925,0.00020790,-0.00011079,-0.0015956
 9,-0.00140045,0.00530238,0.00183882,0.00157144,-0.00002756,-0.00019917
 ,-0.00022026,0.00005506,0.01261208,-0.00273675,-0.03703412,0.00041030,
 -0.00034811,0.00024780,0.00043464,-0.00016044,0.00008051,0.00025774,-0
 .00050308,0.00009318,0.03779539,0.10695354,-0.21186833,-0.00263266,0.0
 0253160,-0.00064450,-0.00019263,-0.00056792,0.00030115,-0.00715531,0.0
 0991007,-0.00523713,0.00020185,0.00040363,0.00020813,-0.00001079,-0.00
 067759,-0.00029532,-0.00003165,-0.00003141,0.00001044,-0.00000838,-0.0
 0001046,0.00001287,-0.00154306,-0.00099494,0.00075916,0.00062502,0.000
 60164,0.00029406,-0.00016930,-0.00013101,0.00003738,0.00004046,-0.0000
 5492,0.00001204,0.00000524,0.00000206,0.00000278,0.00007540,-0.0000465
 3,0.00007641,0.00027091,-0.00013589,-0.00001592,-0.00005064,0.00011148
 ,-0.00009459,0.00018230,0.00010467,0.00006402,-0.04289532,-0.11376356,
 0.24600990,-0.00004730,0.00007178,-0.00004769,0.00000090,0.00002904,-0
 .00000422,-0.00014064,0.00011590,0.00032459,0.00027333,0.00013661,0.00
 003399,-0.00003098,-0.00002801,-0.00000897,-0.00404403,0.02527063,-0.0
 2727739,0.00079894,0.00127442,0.00068060,0.00000156,-0.00000297,0.0000
 0615,-0.00682440,-0.01458901,0.02415008,0.00174033,-0.00190002,-0.0046
 6430,-0.06270438,-0.03087252,0.05369516,0.00000853,-0.00002494,0.00000
 585,-0.00079936,0.00015223,0.00048362,0.00002360,-0.00002013,-0.000000
 70,0.00009346,-0.00005900,-0.00000616,-0.00000875,-0.00000505,0.000000
 72,-0.00000187,-0.00000213,-0.00000037,-0.00006982,-0.00000617,0.00005
 904,0.00019932,0.00005603,0.00008470,-0.00000227,-0.00002003,-0.000019
 87,-0.00000050,0.00000192,-0.00000196,-0.00000341,0.00000259,0.0000013
 6,-0.00003585,0.00026161,-0.00018833,0.00025820,0.00002644,-0.00055382
 ,-0.00403105,-0.00401521,-0.00120720,0.00098132,0.00081197,-0.00013525
 ,-0.00014894,-0.00054451,0.00060130,0.07422196,0.00003497,0.00003849,-
 0.00001429,-0.00000332,-0.00002245,0.00000226,0.00012283,-0.00028990,-
 0.00041877,-0.00021173,-0.00008356,0.00001432,0.00002132,0.00002961,0.
 00000055,0.00918640,-0.01701609,0.01875533,0.00068259,0.00067174,0.001
 02757,0.00001844,0.00000284,-0.00000162,-0.00647022,-0.00868413,0.0158
 7356,-0.00133355,0.00120474,0.00437046,-0.03004767,-0.11058075,0.09599
 435,-0.00002426,-0.00000249,-0.00002100,0.00066873,-0.00008717,-0.0006
 1090,0.00002065,-0.00001098,-0.00000511,0.00009081,-0.00007011,0.00000
 362,0.00000887,0.00000361,0.00000002,0.00000100,0.00000154,0.00000104,
 0.00002647,0.00005829,-0.00000285,-0.00005633,-0.00011660,-0.00006638,
 0.00000980,0.00001700,0.00000407,-0.00000101,-0.00000355,0.00000225,0.
 00000576,-0.00000392,-0.00000121,0.00002423,0.00021458,-0.00018069,0.0
 0004761,-0.00003447,-0.00026616,-0.00300034,-0.00117448,-0.00036822,0.
 00005770,0.00061008,-0.00024702,0.00023053,-0.00014160,-0.00070591,0.0
 2589451,0.12327353,-0.00006885,-0.00004980,0.00002046,0.00000296,0.000
 02444,0.00000209,-0.00012577,0.00000695,0.00011618,0.00016419,0.000036
 65,-0.00004182,-0.00002329,-0.00004190,0.00000451,-0.00827932,0.010825
 52,-0.00658287,-0.00036702,-0.00013320,0.00104440,-0.00002761,-0.00000
 541,-0.00000012,-0.00043970,-0.00298752,0.00309636,0.00112242,-0.00299
 415,0.00048478,0.05078652,0.09958611,-0.22794044,0.00003204,0.00002260
 ,0.00002119,-0.00032395,-0.00004140,0.00030582,-0.00002772,-0.00000175
 ,-0.00000045,-0.00017594,0.00010817,-0.00001108,-0.00000955,-0.0000036
 3,-0.00000095,-0.00000144,-0.00000146,-0.00000158,0.00008079,0.0000135
 7,-0.00017318,0.00001899,0.00011868,0.00000719,-0.00001935,-0.00001752
 ,0.00001885,0.00000373,0.00000537,-0.00000191,-0.00000462,0.00000677,0
 .00000136,0.00005386,0.00005910,0.00013814,-0.00012643,0.00047547,0.00
 021642,-0.00064562,-0.00087100,0.00102756,0.00070018,0.00044056,0.0002
 2759,-0.00018563,0.00088675,0.00088929,-0.04821812,-0.11665227,0.24544
 653,-0.00007436,-0.00003772,-0.00004877,-0.00000254,0.00006297,-0.0000
 0009,-0.00051309,0.00046082,0.00027839,0.00061811,0.00029199,0.0000936
 2,-0.00009109,-0.00011362,-0.00003109,-0.01178400,0.02704754,0.0238965
 2,-0.00532682,-0.00281475,0.00057083,-0.00003185,-0.00000797,0.0000029
 6,0.00539611,-0.01822875,-0.02186884,-0.00193754,-0.00015654,-0.004358
 94,-0.05044071,0.01229022,0.01653858,0.00004827,-0.00000330,0.00004091
 ,-0.00177476,0.00215952,0.00073078,-0.00000259,-0.00000334,0.00000180,
 0.00002067,0.00002718,0.00000970,-0.00002294,-0.00001017,-0.00000161,-
 0.00000587,-0.00000446,-0.00000406,0.00009792,-0.00002496,0.00002806,0
 .00031219,0.00008722,0.00009003,-0.00005952,-0.00007434,-0.00004578,0.
 00000538,0.00000560,-0.00000187,0.00000270,-0.00000035,0.00000079,0.00
 031142,-0.00152824,-0.00122800,-0.00001681,0.00020780,0.00000668,0.001
 17139,0.00079452,0.00057180,0.00079264,0.00106064,0.00033602,-0.000001
 96,-0.00012599,0.00013855,0.00030280,0.00398433,0.00612110,0.06303635,
 0.00007325,0.00003852,0.00004584,0.00000171,-0.00005969,-0.00000236,0.
 00002945,0.00031648,-0.00006846,-0.00045516,-0.00023628,-0.00002029,0.
 00007214,0.00010109,0.00002236,0.01106671,-0.01895366,-0.01583437,-0.0
 0365982,-0.00072909,0.00038549,0.00002937,0.00000625,-0.00000135,0.001
 00798,-0.01093187,-0.01394575,0.00039182,0.00173104,0.00444145,0.01614
 285,-0.16003225,-0.12815714,-0.00004172,-0.00000032,-0.00003886,0.0015
 1477,-0.00123757,-0.00062010,0.00000499,0.00000232,-0.00000420,0.00000
 918,-0.00003013,-0.00000152,0.00002134,0.00000950,0.00000131,0.0000049
 8,0.00000440,0.00000382,0.00002600,-0.00004132,0.00004377,-0.00004619,
 -0.00010893,-0.00006132,0.00007333,0.00005246,0.00001732,-0.00000452,-
 0.00000701,0.00000269,-0.00000030,-0.00000396,-0.00000234,0.00021243,-
 0.00067085,-0.00084935,0.00008180,0.00002855,-0.00023200,0.00090333,0.
 00056565,0.00028308,-0.00015802,0.00040072,0.00004130,0.00001746,0.000
 01012,-0.00050271,-0.00201246,0.01218920,0.01119442,-0.02533079,0.1775
 7201,-0.00000052,-0.00000712,0.00000630,-0.00000243,-0.00000044,-0.000
 00724,-0.00009559,0.00031827,0.00000955,0.00002922,0.00002424,-0.00001
 765,-0.00000961,-0.00000408,-0.00000963,-0.00221311,0.00887548,0.01028
 414,-0.00128422,-0.00040202,0.00122376,0.00000463,0.00000165,0.0000032
 4,0.00089188,-0.00003215,-0.00152025,-0.00102259,0.00097530,0.00020358
 ,0.02432975,-0.13705248,-0.21339973,-0.00000243,-0.00000871,-0.0000038
 3,-0.00053311,0.00031013,0.00028797,-0.00000308,0.00000521,0.00000212,
 -0.00002140,-0.00000124,-0.00000316,0.00000028,-0.00000010,-0.00000006
 ,-0.00000104,0.00000053,0.00000150,0.00001418,-0.00001688,-0.00000311,
 0.00009192,0.00000778,-0.00001774,-0.00000410,-0.00002058,-0.00002227,
 0.00000088,-0.00000011,-0.00000025,0.00000324,-0.00000381,-0.00000142,
 0.00021385,-0.00041554,-0.00015778,-0.00003165,0.00019837,0.00029255,-
 0.00039421,0.00001384,0.00081262,-0.00029522,-0.00017494,0.00000731,-0
 .00001416,0.00004191,0.00046916,0.00220804,-0.01648853,-0.01831030,-0.
 02186200,0.14385338,0.21986742,-0.00211296,-0.01368790,-0.02802985,0.0
 0025174,-0.00271899,0.00333837,0.00000668,-0.00001194,0.00005675,0.000
 96867,0.00086874,-0.00147792,-0.00021433,0.00014678,-0.00044192,-0.000
 07000,0.00005030,0.00008186,0.00000497,-0.00000767,0.00000101,-0.00888
 534,0.02482854,0.02493800,-0.00000167,0.00000287,-0.00000647,0.0000951
 6,-0.00003931,-0.00011168,0.00004006,-0.00001929,0.00000793,-0.0488197
 9,-0.00799382,-0.01376126,-0.00028717,0.00012482,0.00038660,-0.0050373
 3,-0.00325520,-0.00041417,0.00119517,0.00070777,0.00039197,-0.00008584
 ,-0.00009616,-0.00016696,0.00022020,-0.00055999,-0.00089800,-0.0000225
 4,-0.00001732,-0.00000178,-0.00000042,-0.00000089,-0.00000314,0.000025
 22,0.00001462,0.00047456,0.00023597,0.00000143,-0.00000573,-0.00003535
 ,0.00001845,0.00003874,-0.00000593,0.00000186,-0.00000111,0.00000056,0
 .00000116,0.00000023,-0.00000089,-0.00000087,0.00000117,-0.00000353,0.
 00000041,0.00000066,0.00007765,-0.00002238,0.00007855,-0.00000183,0.00
 000147,-0.00000482,-0.00000738,0.00000506,0.00000161,0.06114070,-0.002
 60436,-0.00484744,-0.01296141,0.00015686,0.00181789,-0.00446055,0.0000
 0993,-0.00000737,0.00004664,0.00075111,0.00010552,-0.00110944,-0.00010
 681,-0.00032162,0.00046671,-0.00003126,0.00002918,0.00003691,0.0000034
 2,-0.00000672,0.00000205,0.01368245,-0.02124531,-0.02122289,-0.0000008
 3,0.00000222,-0.00000426,-0.00001936,-0.00002039,-0.00012289,0.0000237
 1,-0.00001352,0.00000499,-0.00899001,-0.09275591,-0.08755108,-0.000167
 55,0.00012921,0.00021735,-0.00219865,-0.00004713,-0.00041125,-0.000038
 37,0.00042844,0.00019546,0.00000833,0.00010847,0.00031625,-0.00022634,
 0.00029954,0.00076884,-0.00001709,-0.00001417,-0.00000124,-0.00000110,
 -0.00000131,-0.00000207,-0.00008129,-0.00011799,0.00014919,-0.00014760
 ,-0.00008542,0.00003902,0.00004437,0.00005032,0.00001823,-0.00000452,0
 .00000144,-0.00000135,0.00000022,0.00000129,-0.00000010,-0.00000042,-0
 .00000050,0.00000132,-0.00000241,0.00000042,0.00000041,-0.00000838,-0.
 00003595,0.00007847,0.00000011,0.00000134,-0.00000320,-0.00000444,0.00
 000424,0.00000170,-0.00084645,0.10535622,-0.00113479,-0.00206101,-0.00
 497375,-0.00051645,0.00196645,0.00233382,-0.00000947,0.00001059,0.0000
 2054,0.00086378,0.00095876,0.00012200,0.00005053,-0.00004150,-0.000065
 87,-0.00008159,0.00002187,0.00005981,0.00000094,-0.00001316,0.00000184
 ,0.00637001,-0.00509524,0.00091639,-0.00000483,0.00000496,-0.00000717,
 0.00009879,-0.00004261,-0.00014703,0.00003595,-0.00003106,0.00001014,-
 0.01104944,-0.09160101,-0.25948187,-0.00037193,-0.00000496,0.00015005,
 -0.00110436,-0.00028056,0.00091725,-0.00040847,-0.00013537,0.00014601,
 0.00006079,-0.00006171,0.00042092,-0.00014416,-0.00124870,0.00046538,-
 0.00001240,-0.00001057,-0.00000181,-0.00000034,-0.00000325,-0.00000102
 ,0.00002541,-0.00038935,0.00051605,0.00003216,-0.00011205,-0.00001861,
 -0.00006412,0.00000619,-0.00020476,-0.00000802,0.00000242,-0.00000134,
 -0.00000008,0.00000089,-0.00000054,0.00000014,-0.00000036,0.00000179,-
 0.00000428,0.00000040,0.00000032,-0.00001338,-0.00000830,0.00007949,-0
 .00000079,0.00000232,-0.00000651,-0.00000668,0.00000652,0.00000384,0.0
 0907866,0.10677878,0.27716055,-0.00648321,-0.02136876,0.02212181,-0.00
 365848,0.00233515,0.00178206,-0.00010708,0.00013938,-0.00001428,-0.004
 30397,0.00042629,-0.00377640,-0.00024520,0.00048769,-0.00031168,-0.000
 25176,0.00019611,0.00005956,-0.00001974,-0.00006833,0.00000009,0.00142
 110,0.02644659,-0.02231971,-0.00001144,0.00001823,-0.00002070,0.001022
 47,-0.00055242,0.00013866,0.00008150,-0.00007006,0.00005970,-0.0614970
 2,-0.04586178,0.04693825,-0.00191434,-0.00259700,0.00119912,0.00142321
 ,0.00064926,-0.00037496,0.00102115,0.00075515,-0.00000056,0.00016589,0
 .00123176,-0.00085834,-0.00003233,-0.00011482,-0.00007073,-0.00000867,
 -0.00000271,-0.00000581,0.00000215,-0.00000528,-0.00000356,0.00006139,
 0.00021252,0.00009787,0.00031655,-0.00004874,0.00006730,0.00010689,-0.
 00007451,-0.00000084,-0.00003192,0.00001256,-0.00000925,-0.00000520,0.
 00000560,-0.00000520,0.00000016,-0.00000087,0.00000352,-0.00001415,0.0
 0000032,0.00000172,0.00001628,0.00010250,-0.00001257,-0.00000886,0.000
 00941,-0.00001201,-0.00002211,0.00001903,0.00000100,0.00132959,0.00081
 673,-0.00168156,0.07164714,-0.00498012,-0.00882363,0.00926854,0.003885
 00,-0.00042763,-0.00315478,-0.00004686,0.00005333,0.00000222,-0.001628
 93,0.00145710,-0.00177368,0.00012892,0.00015759,0.00006611,-0.00013987
 ,0.00007902,0.00004101,-0.00000719,-0.00003237,0.00000229,0.00200228,-
 0.02440867,0.01948573,-0.00000592,0.00000992,-0.00001034,0.00042813,-0
 .00026059,0.00006655,0.00004428,-0.00004023,0.00002940,-0.03869845,-0.
 17207532,0.12457449,-0.00081333,-0.00068049,0.00049459,0.00080947,0.00
 030070,0.00002196,-0.00011430,0.00038869,-0.00011192,-0.00009431,-0.00
 097244,0.00101084,-0.00007637,0.00007481,0.00038853,-0.00001061,-0.000
 00427,-0.00000553,0.00000004,-0.00000453,-0.00000257,0.00008047,-0.000
 03858,0.00028425,-0.00016513,-0.00007487,0.00002111,0.00000525,-0.0000
 3699,-0.00004001,-0.00001493,0.00000554,-0.00000387,-0.00000172,0.0000
 0312,-0.00000317,0.00000009,-0.00000072,0.00000188,-0.00000760,-0.0000
 0002,0.00000061,0.00003110,0.00004400,0.00000817,-0.00000365,0.0000056
 6,-0.00000692,-0.00001063,0.00001037,0.00000094,0.00250391,0.01118500,
 -0.00861939,0.03690099,0.19410651,-0.00237462,-0.00662962,0.00554015,-
 0.00032079,-0.00086002,0.00140390,-0.00000175,-0.00000351,-0.00001575,
 -0.00117734,-0.00020544,0.00025125,0.00002104,-0.00019282,-0.00013740,
 0.00000678,-0.00000879,-0.00000797,-0.00000183,0.00000462,-0.00000321,
 -0.00181083,-0.00216137,0.00364734,-0.00000023,-0.00000089,0.00000163,
 0.00007792,-0.00002920,0.00004151,-0.00000765,0.00000779,-0.00000063,0
 .04118538,0.13324578,-0.18881464,-0.00043592,-0.00036646,0.00033534,0.
 00058824,0.00008341,0.00075400,0.00059881,0.00036833,0.00009021,0.0001
 0681,0.00021020,0.00017150,0.00000419,-0.00005725,0.00040174,0.0000027
 0,0.00000546,-0.00000228,-0.00000061,-0.00000026,0.00000055,0.00006363
 ,-0.00013015,0.00033862,-0.00002004,0.00000861,-0.00002999,0.00002986,
 -0.00000357,-0.00001141,0.00000167,-0.00000058,0.00000046,-0.00000040,
 -0.00000037,0.00000068,-0.00000013,-0.00000018,-0.00000030,0.00000119,
 -0.00000056,0.,0.00000772,0.00002592,-0.00003086,-0.00000004,-0.000000
 80,0.00000250,0.00000063,-0.00000065,-0.00000063,0.00644812,0.01872943
 ,-0.01841593,-0.04299251,-0.14203706,0.19448962\\-0.00096928,0.0011947
 3,0.00109286,0.00001847,-0.00002259,0.00000798,-0.00000800,0.00001926,
 0.00001968,0.00158241,-0.00185946,-0.00244916,0.00000612,-0.00000334,0
 .00000456,-0.00002453,0.00005569,0.00001820,-0.00001136,-0.00002316,-0
 .00000053,0.00000323,-0.00000235,-0.00000330,-0.00001406,0.00000380,-0
 .00000310,0.00052347,-0.00031601,-0.00205693,0.00002437,-0.00001398,0.
 00001362,-0.00000333,0.00002464,-0.00000783,-0.00115162,0.00093832,0.0
 0337937,-0.00000006,0.00000285,0.00001028,0.00000321,-0.00000624,-0.00
 001232,-0.00000377,0.00001168,0.00000983,0.00000004,0.00000041,-0.0000
 1255,0.00000333,0.00000712,-0.00000683,0.00000790,-0.00000716,0.000011
 84,0.00000121,-0.00000161,-0.00001920,0.00000295,0.00000678,-0.0000038
 2,0.00000118,0.00000384,0.00001331,0.00000893,0.00000389,-0.00000089,-
 0.00000335,-0.00000609,0.00000397,0.00000307,0.00000429,-0.00000504,0.
 00000788,0.00000098,0.00000913,0.00000698,-0.00000720,0.00002156,-0.00
 000733,-0.00000216,0.00000055,-0.00000162,0.00000391,-0.00001756,-0.00
 000298,-0.00000235,-0.00002005,-0.00000345,-0.00000848,0.00000237\\\@


 ON A TOMBSTONE, "HERE LIES LESTER MOORE,
 FOUR SLUGS FROM A 44, NO LES, NO MORE".
 Job cpu time:       0 days 12 hours 32 minutes 20.6 seconds.
 Elapsed time:       0 days  1 hours  3 minutes  1.4 seconds.
 File lengths (MBytes):  RWF=    721 Int=      0 D2E=      0 Chk=     34 Scr=      1
 Normal termination of Gaussian 16 at Sat Mar  9 13:37:32 2019.
