 Entering Gaussian System, Link 0=g16
 Initial command:
 /sw/Projects/G16/g16/l1.exe "/nvme/pbs/tmpdir/pbs.74205[22].flm1/Gau-20928.inp" -scrdir="/nvme/pbs/tmpdir/pbs.74205[22].flm1/"
 Entering Link 1 = /sw/Projects/G16/g16/l1.exe PID=     20929.
  
 Copyright (c) 1988-2017, Gaussian, Inc.  All Rights Reserved.
  
 This is part of the Gaussian(R) 16 program.  It is based on
 the Gaussian(R) 09 system (copyright 2009, Gaussian, Inc.),
 the Gaussian(R) 03 system (copyright 2003, Gaussian, Inc.),
 the Gaussian(R) 98 system (copyright 1998, Gaussian, Inc.),
 the Gaussian(R) 94 system (copyright 1995, Gaussian, Inc.),
 the Gaussian 92(TM) system (copyright 1992, Gaussian, Inc.),
 the Gaussian 90(TM) system (copyright 1990, Gaussian, Inc.),
 the Gaussian 88(TM) system (copyright 1988, Gaussian, Inc.),
 the Gaussian 86(TM) system (copyright 1986, Carnegie Mellon
 University), and the Gaussian 82(TM) system (copyright 1983,
 Carnegie Mellon University). Gaussian is a federally registered
 trademark of Gaussian, Inc.
  
 This software contains proprietary and confidential information,
 including trade secrets, belonging to Gaussian, Inc.
  
 This software is provided under written license and may be
 used, copied, transmitted, or stored only in accord with that
 written license.
  
 The following legend is applicable only to US Government
 contracts under FAR:
  
                    RESTRICTED RIGHTS LEGEND
  
 Use, reproduction and disclosure by the US Government is
 subject to restrictions as set forth in subparagraphs (a)
 and (c) of the Commercial Computer Software - Restricted
 Rights clause in FAR 52.227-19.
  
 Gaussian, Inc.
 340 Quinnipiac St., Bldg. 40, Wallingford CT 06492
  
  
 ---------------------------------------------------------------
 Warning -- This program may not be used in any manner that
 competes with the business of Gaussian, Inc. or will provide
 assistance to any competitor of Gaussian, Inc.  The licensee
 of this program is prohibited from giving any competitor of
 Gaussian, Inc. access to this program.  By using this program,
 the user acknowledges that Gaussian, Inc. is engaged in the
 business of creating and licensing software in the field of
 computational chemistry and represents and warrants to the
 licensee that it is not a competitor of Gaussian, Inc. and that
 it will not use this program in any manner prohibited above.
 ---------------------------------------------------------------
  

 Cite this work as:
 Gaussian 16, Revision B.01,
 M. J. Frisch, G. W. Trucks, H. B. Schlegel, G. E. Scuseria, 
 M. A. Robb, J. R. Cheeseman, G. Scalmani, V. Barone, 
 G. A. Petersson, H. Nakatsuji, X. Li, M. Caricato, A. V. Marenich, 
 J. Bloino, B. G. Janesko, R. Gomperts, B. Mennucci, H. P. Hratchian, 
 J. V. Ortiz, A. F. Izmaylov, J. L. Sonnenberg, D. Williams-Young, 
 F. Ding, F. Lipparini, F. Egidi, J. Goings, B. Peng, A. Petrone, 
 T. Henderson, D. Ranasinghe, V. G. Zakrzewski, J. Gao, N. Rega, 
 G. Zheng, W. Liang, M. Hada, M. Ehara, K. Toyota, R. Fukuda, 
 J. Hasegawa, M. Ishida, T. Nakajima, Y. Honda, O. Kitao, H. Nakai, 
 T. Vreven, K. Throssell, J. A. Montgomery, Jr., J. E. Peralta, 
 F. Ogliaro, M. J. Bearpark, J. J. Heyd, E. N. Brothers, K. N. Kudin, 
 V. N. Staroverov, T. A. Keith, R. Kobayashi, J. Normand, 
 K. Raghavachari, A. P. Rendell, J. C. Burant, S. S. Iyengar, 
 J. Tomasi, M. Cossi, J. M. Millam, M. Klene, C. Adamo, R. Cammi, 
 J. W. Ochterski, R. L. Martin, K. Morokuma, O. Farkas, 
 J. B. Foresman, and D. J. Fox, Gaussian, Inc., Wallingford CT, 2016.
 
 ******************************************
 Gaussian 16:  ES64L-G16RevB.01 20-Dec-2017
                 9-Mar-2019 
 ******************************************
 %mem=20gb
 %nproc=12
 Will use up to   12 processors via shared memory.
 %chk=4c1_b1_e3_4c1_PSI.inp_extract_22.chk
 ----------------------------------------------------------------------
 #M062X/6-311++G(2d,2p) opt=ModRedundant freq=noraman SCRF=(SMD,solvent
 =water)
 ----------------------------------------------------------------------
 1/18=120,19=15,26=3,38=1/1,3;
 2/9=110,12=2,17=6,18=5,40=1/2;
 3/5=4,6=6,7=1212,11=2,25=1,30=1,70=32201,71=1,72=1,74=-55/1,2,3;
 4//1;
 5/5=2,38=5,53=1/2;
 6/7=2,8=2,9=2,10=2,28=1/1;
 7//1,2,3,16;
 1/18=20,19=15,26=3/3(2);
 2/9=110/2;
 99//99;
 2/9=110/2;
 3/5=4,6=6,7=1212,11=2,25=1,30=1,70=32205,71=1,72=1,74=-55/1,2,3;
 4/5=5,16=3,69=1/1;
 5/5=2,38=5,53=1/2;
 7//1,2,3,16;
 1/18=20,19=15,26=3/3(-5);
 2/9=110/2;
 6/7=2,8=2,9=2,10=2,19=2,28=1/1;
 99/9=1/99;
 --------------------------------
 4c1_b1_e3_4c1_PSI.inp_extract_22
 --------------------------------
 Symbolic Z-matrix:
 Charge =  0 Multiplicity = 1
 C                     2.15491  -1.32836  -0.17278 
 C                     3.1151    1.34727   0.14082 
 C                    -2.33028  -1.24577   0.528 
 C                     1.15188  -0.18512  -0.08993 
 C                     1.75319   0.9672    0.70699 
 O                    -1.52741   0.96496   0.01892 
 C                    -3.69172  -0.89284  -0.0773 
 O                     3.98713   0.23483   0.10551 
 C                    -3.92226   0.61812  -0.0254 
 C                    -1.23852  -0.40744  -0.10857 
 C                    -2.73219   1.35023  -0.62414 
 C                     3.49494  -0.82415  -0.69141 
 O                    -0.0356   -0.66167   0.53096 
 H                     2.28788  -1.75762   0.81665 
 H                     1.7836   -2.11008  -0.82896 
 H                     3.59362   2.09554   0.7571 
 H                     3.0125    1.74979  -0.86462 
 H                    -2.3313   -1.04953   1.59698 
 H                    -2.10118  -2.29626   0.38107 
 H                     0.91033   0.15474  -1.09145 
 H                     1.10092   1.83352   0.68498 
 H                     1.86643   0.66025   1.74338 
 H                    -4.48032  -1.41915   0.4508 
 H                    -3.72466  -1.22741  -1.11215 
 H                    -4.05401   0.93811   1.00538 
 H                    -4.82148   0.89173  -0.57 
 H                    -1.14653  -0.63673  -1.16751 
 H                    -2.6491    1.14182  -1.68839 
 H                    -2.81286   2.4202   -0.4933 
 H                     3.40291  -0.48198  -1.71988 
 H                     4.24009  -1.6068   -0.66076 
 
 The following ModRedundant input section has been read:
 D       1       4      13      10 F                                           
 

 GradGradGradGradGradGradGradGradGradGradGradGradGradGradGradGradGradGrad
 Berny optimization.
 Initialization pass.
                           ----------------------------
                           !    Initial Parameters    !
                           ! (Angstroms and Degrees)  !
 --------------------------                            --------------------------
 ! Name  Definition              Value          Derivative Info.                !
 --------------------------------------------------------------------------------
 ! R1    R(1,4)                  1.5231         estimate D2E/DX2                !
 ! R2    R(1,12)                 1.5228         estimate D2E/DX2                !
 ! R3    R(1,14)                 1.0867         estimate D2E/DX2                !
 ! R4    R(1,15)                 1.0861         estimate D2E/DX2                !
 ! R5    R(2,5)                  1.5231         estimate D2E/DX2                !
 ! R6    R(2,8)                  1.4139         estimate D2E/DX2                !
 ! R7    R(2,16)                 1.0811         estimate D2E/DX2                !
 ! R8    R(2,17)                 1.0879         estimate D2E/DX2                !
 ! R9    R(3,7)                  1.5312         estimate D2E/DX2                !
 ! R10   R(3,10)                 1.5166         estimate D2E/DX2                !
 ! R11   R(3,18)                 1.0868         estimate D2E/DX2                !
 ! R12   R(3,19)                 1.0852         estimate D2E/DX2                !
 ! R13   R(4,5)                  1.5246         estimate D2E/DX2                !
 ! R14   R(4,13)                 1.4222         estimate D2E/DX2                !
 ! R15   R(4,20)                 1.0848         estimate D2E/DX2                !
 ! R16   R(5,21)                 1.0846         estimate D2E/DX2                !
 ! R17   R(5,22)                 1.0868         estimate D2E/DX2                !
 ! R18   R(6,10)                 1.4083         estimate D2E/DX2                !
 ! R19   R(6,11)                 1.419          estimate D2E/DX2                !
 ! R20   R(7,9)                  1.5293         estimate D2E/DX2                !
 ! R21   R(7,23)                 1.0853         estimate D2E/DX2                !
 ! R22   R(7,24)                 1.0881         estimate D2E/DX2                !
 ! R23   R(8,12)                 1.4138         estimate D2E/DX2                !
 ! R24   R(9,11)                 1.5201         estimate D2E/DX2                !
 ! R25   R(9,25)                 1.0873         estimate D2E/DX2                !
 ! R26   R(9,26)                 1.0863         estimate D2E/DX2                !
 ! R27   R(10,13)                1.3859         estimate D2E/DX2                !
 ! R28   R(10,27)                1.0874         estimate D2E/DX2                !
 ! R29   R(11,28)                1.0876         estimate D2E/DX2                !
 ! R30   R(11,29)                1.0809         estimate D2E/DX2                !
 ! R31   R(12,30)                1.0878         estimate D2E/DX2                !
 ! R32   R(12,31)                1.0811         estimate D2E/DX2                !
 ! A1    A(4,1,12)             110.4563         estimate D2E/DX2                !
 ! A2    A(4,1,14)             109.1199         estimate D2E/DX2                !
 ! A3    A(4,1,15)             110.3637         estimate D2E/DX2                !
 ! A4    A(12,1,14)            109.4634         estimate D2E/DX2                !
 ! A5    A(12,1,15)            109.4755         estimate D2E/DX2                !
 ! A6    A(14,1,15)            107.9159         estimate D2E/DX2                !
 ! A7    A(5,2,8)              111.3721         estimate D2E/DX2                !
 ! A8    A(5,2,16)             110.8918         estimate D2E/DX2                !
 ! A9    A(5,2,17)             110.5826         estimate D2E/DX2                !
 ! A10   A(8,2,16)             106.6078         estimate D2E/DX2                !
 ! A11   A(8,2,17)             109.0383         estimate D2E/DX2                !
 ! A12   A(16,2,17)            108.2113         estimate D2E/DX2                !
 ! A13   A(7,3,10)             110.2883         estimate D2E/DX2                !
 ! A14   A(7,3,18)             110.2656         estimate D2E/DX2                !
 ! A15   A(7,3,19)             110.9362         estimate D2E/DX2                !
 ! A16   A(10,3,18)            108.2833         estimate D2E/DX2                !
 ! A17   A(10,3,19)            109.0441         estimate D2E/DX2                !
 ! A18   A(18,3,19)            107.9478         estimate D2E/DX2                !
 ! A19   A(1,4,5)              109.6336         estimate D2E/DX2                !
 ! A20   A(1,4,13)             108.7887         estimate D2E/DX2                !
 ! A21   A(1,4,20)             109.3632         estimate D2E/DX2                !
 ! A22   A(5,4,13)             110.7539         estimate D2E/DX2                !
 ! A23   A(5,4,20)             109.4871         estimate D2E/DX2                !
 ! A24   A(13,4,20)            108.7897         estimate D2E/DX2                !
 ! A25   A(2,5,4)              110.3013         estimate D2E/DX2                !
 ! A26   A(2,5,21)             109.3217         estimate D2E/DX2                !
 ! A27   A(2,5,22)             109.3776         estimate D2E/DX2                !
 ! A28   A(4,5,21)             110.8478         estimate D2E/DX2                !
 ! A29   A(4,5,22)             109.0312         estimate D2E/DX2                !
 ! A30   A(21,5,22)            107.9146         estimate D2E/DX2                !
 ! A31   A(10,6,11)            113.4377         estimate D2E/DX2                !
 ! A32   A(3,7,9)              110.3865         estimate D2E/DX2                !
 ! A33   A(3,7,23)             109.9957         estimate D2E/DX2                !
 ! A34   A(3,7,24)             109.3916         estimate D2E/DX2                !
 ! A35   A(9,7,23)             110.6764         estimate D2E/DX2                !
 ! A36   A(9,7,24)             109.3601         estimate D2E/DX2                !
 ! A37   A(23,7,24)            106.9588         estimate D2E/DX2                !
 ! A38   A(2,8,12)             112.8731         estimate D2E/DX2                !
 ! A39   A(7,9,11)             110.148          estimate D2E/DX2                !
 ! A40   A(7,9,25)             109.9499         estimate D2E/DX2                !
 ! A41   A(7,9,26)             110.8927         estimate D2E/DX2                !
 ! A42   A(11,9,25)            109.0577         estimate D2E/DX2                !
 ! A43   A(11,9,26)            109.2255         estimate D2E/DX2                !
 ! A44   A(25,9,26)            107.5082         estimate D2E/DX2                !
 ! A45   A(3,10,6)             110.6728         estimate D2E/DX2                !
 ! A46   A(3,10,13)            109.2541         estimate D2E/DX2                !
 ! A47   A(3,10,27)            110.6778         estimate D2E/DX2                !
 ! A48   A(6,10,13)            108.3637         estimate D2E/DX2                !
 ! A49   A(6,10,27)            108.1204         estimate D2E/DX2                !
 ! A50   A(13,10,27)           109.7111         estimate D2E/DX2                !
 ! A51   A(6,11,9)             110.8208         estimate D2E/DX2                !
 ! A52   A(6,11,28)            109.0596         estimate D2E/DX2                !
 ! A53   A(6,11,29)            106.0973         estimate D2E/DX2                !
 ! A54   A(9,11,28)            110.6665         estimate D2E/DX2                !
 ! A55   A(9,11,29)            111.754          estimate D2E/DX2                !
 ! A56   A(28,11,29)           108.2887         estimate D2E/DX2                !
 ! A57   A(1,12,8)             111.2473         estimate D2E/DX2                !
 ! A58   A(1,12,30)            110.5916         estimate D2E/DX2                !
 ! A59   A(1,12,31)            110.9268         estimate D2E/DX2                !
 ! A60   A(8,12,30)            109.0737         estimate D2E/DX2                !
 ! A61   A(8,12,31)            106.6384         estimate D2E/DX2                !
 ! A62   A(30,12,31)           108.2306         estimate D2E/DX2                !
 ! A63   A(4,13,10)            117.5033         estimate D2E/DX2                !
 ! D1    D(12,1,4,5)           -52.5398         estimate D2E/DX2                !
 ! D2    D(12,1,4,13)         -173.7898         estimate D2E/DX2                !
 ! D3    D(12,1,4,20)           67.5128         estimate D2E/DX2                !
 ! D4    D(14,1,4,5)            67.8387         estimate D2E/DX2                !
 ! D5    D(14,1,4,13)          -53.4113         estimate D2E/DX2                !
 ! D6    D(14,1,4,20)         -172.1087         estimate D2E/DX2                !
 ! D7    D(15,1,4,5)          -173.7394         estimate D2E/DX2                !
 ! D8    D(15,1,4,13)           65.0106         estimate D2E/DX2                !
 ! D9    D(15,1,4,20)          -53.6868         estimate D2E/DX2                !
 ! D10   D(4,1,12,8)            55.8448         estimate D2E/DX2                !
 ! D11   D(4,1,12,30)          -65.5298         estimate D2E/DX2                !
 ! D12   D(4,1,12,31)          174.3732         estimate D2E/DX2                !
 ! D13   D(14,1,12,8)          -64.3277         estimate D2E/DX2                !
 ! D14   D(14,1,12,30)         174.2977         estimate D2E/DX2                !
 ! D15   D(14,1,12,31)          54.2007         estimate D2E/DX2                !
 ! D16   D(15,1,12,8)          177.5704         estimate D2E/DX2                !
 ! D17   D(15,1,12,30)          56.1958         estimate D2E/DX2                !
 ! D18   D(15,1,12,31)         -63.9012         estimate D2E/DX2                !
 ! D19   D(8,2,5,4)            -55.8014         estimate D2E/DX2                !
 ! D20   D(8,2,5,21)          -177.9295         estimate D2E/DX2                !
 ! D21   D(8,2,5,22)            64.1108         estimate D2E/DX2                !
 ! D22   D(16,2,5,4)          -174.3494         estimate D2E/DX2                !
 ! D23   D(16,2,5,21)           63.5224         estimate D2E/DX2                !
 ! D24   D(16,2,5,22)          -54.4373         estimate D2E/DX2                !
 ! D25   D(17,2,5,4)            65.6067         estimate D2E/DX2                !
 ! D26   D(17,2,5,21)          -56.5214         estimate D2E/DX2                !
 ! D27   D(17,2,5,22)         -174.4811         estimate D2E/DX2                !
 ! D28   D(5,2,8,12)            59.8981         estimate D2E/DX2                !
 ! D29   D(16,2,8,12)         -179.0157         estimate D2E/DX2                !
 ! D30   D(17,2,8,12)          -62.4053         estimate D2E/DX2                !
 ! D31   D(10,3,7,9)           -51.7625         estimate D2E/DX2                !
 ! D32   D(10,3,7,23)         -174.1794         estimate D2E/DX2                !
 ! D33   D(10,3,7,24)           68.6176         estimate D2E/DX2                !
 ! D34   D(18,3,7,9)            67.7776         estimate D2E/DX2                !
 ! D35   D(18,3,7,23)          -54.6393         estimate D2E/DX2                !
 ! D36   D(18,3,7,24)         -171.8423         estimate D2E/DX2                !
 ! D37   D(19,3,7,9)          -172.6866         estimate D2E/DX2                !
 ! D38   D(19,3,7,23)           64.8965         estimate D2E/DX2                !
 ! D39   D(19,3,7,24)          -52.3065         estimate D2E/DX2                !
 ! D40   D(7,3,10,6)            55.7696         estimate D2E/DX2                !
 ! D41   D(7,3,10,13)          175.0103         estimate D2E/DX2                !
 ! D42   D(7,3,10,27)          -64.0795         estimate D2E/DX2                !
 ! D43   D(18,3,10,6)          -64.9646         estimate D2E/DX2                !
 ! D44   D(18,3,10,13)          54.2761         estimate D2E/DX2                !
 ! D45   D(18,3,10,27)         175.1863         estimate D2E/DX2                !
 ! D46   D(19,3,10,6)          177.8177         estimate D2E/DX2                !
 ! D47   D(19,3,10,13)         -62.9417         estimate D2E/DX2                !
 ! D48   D(19,3,10,27)          57.9685         estimate D2E/DX2                !
 ! D49   D(1,4,5,2)             52.452          estimate D2E/DX2                !
 ! D50   D(1,4,5,21)           173.6757         estimate D2E/DX2                !
 ! D51   D(1,4,5,22)           -67.669          estimate D2E/DX2                !
 ! D52   D(13,4,5,2)           172.5099         estimate D2E/DX2                !
 ! D53   D(13,4,5,21)          -66.2663         estimate D2E/DX2                !
 ! D54   D(13,4,5,22)           52.389          estimate D2E/DX2                !
 ! D55   D(20,4,5,2)           -67.525          estimate D2E/DX2                !
 ! D56   D(20,4,5,21)           53.6987         estimate D2E/DX2                !
 ! D57   D(20,4,5,22)          172.3541         estimate D2E/DX2                !
 ! D58   D(1,4,13,10)         -129.6167         Frozen                          !
 ! D59   D(5,4,13,10)          109.8217         estimate D2E/DX2                !
 ! D60   D(20,4,13,10)         -10.5597         estimate D2E/DX2                !
 ! D61   D(11,6,10,3)          -61.3683         estimate D2E/DX2                !
 ! D62   D(11,6,10,13)         178.8552         estimate D2E/DX2                !
 ! D63   D(11,6,10,27)          60.0032         estimate D2E/DX2                !
 ! D64   D(10,6,11,9)           61.0982         estimate D2E/DX2                !
 ! D65   D(10,6,11,28)         -60.966          estimate D2E/DX2                !
 ! D66   D(10,6,11,29)        -177.4058         estimate D2E/DX2                !
 ! D67   D(3,7,9,11)            51.3704         estimate D2E/DX2                !
 ! D68   D(3,7,9,25)           -68.8404         estimate D2E/DX2                !
 ! D69   D(3,7,9,26)           172.4005         estimate D2E/DX2                !
 ! D70   D(23,7,9,11)          173.3869         estimate D2E/DX2                !
 ! D71   D(23,7,9,25)           53.1761         estimate D2E/DX2                !
 ! D72   D(23,7,9,26)          -65.583          estimate D2E/DX2                !
 ! D73   D(24,7,9,11)          -69.0285         estimate D2E/DX2                !
 ! D74   D(24,7,9,25)          170.7606         estimate D2E/DX2                !
 ! D75   D(24,7,9,26)           52.0016         estimate D2E/DX2                !
 ! D76   D(2,8,12,1)           -59.83           estimate D2E/DX2                !
 ! D77   D(2,8,12,30)           62.4271         estimate D2E/DX2                !
 ! D78   D(2,8,12,31)          179.0944         estimate D2E/DX2                !
 ! D79   D(7,9,11,6)           -55.0008         estimate D2E/DX2                !
 ! D80   D(7,9,11,28)           66.1193         estimate D2E/DX2                !
 ! D81   D(7,9,11,29)         -173.1087         estimate D2E/DX2                !
 ! D82   D(25,9,11,6)           65.7469         estimate D2E/DX2                !
 ! D83   D(25,9,11,28)        -173.1329         estimate D2E/DX2                !
 ! D84   D(25,9,11,29)         -52.3609         estimate D2E/DX2                !
 ! D85   D(26,9,11,6)         -177.0234         estimate D2E/DX2                !
 ! D86   D(26,9,11,28)         -55.9032         estimate D2E/DX2                !
 ! D87   D(26,9,11,29)          64.8688         estimate D2E/DX2                !
 ! D88   D(3,10,13,4)          167.4173         estimate D2E/DX2                !
 ! D89   D(6,10,13,4)          -71.9214         estimate D2E/DX2                !
 ! D90   D(27,10,13,4)          45.9201         estimate D2E/DX2                !
 --------------------------------------------------------------------------------
 Trust Radius=3.00D-01 FncErr=1.00D-07 GrdErr=1.00D-06 EigMax=2.50D+02 EigMin=1.00D-04
 Number of steps in this run=    186 maximum allowed number of steps=    186.
 GradGradGradGradGradGradGradGradGradGradGradGradGradGradGradGradGradGrad

                          Input orientation:                          
 ---------------------------------------------------------------------
 Center     Atomic      Atomic             Coordinates (Angstroms)
 Number     Number       Type             X           Y           Z
 ---------------------------------------------------------------------
      1          6           0        2.154906   -1.328357   -0.172781
      2          6           0        3.115104    1.347269    0.140815
      3          6           0       -2.330284   -1.245768    0.527999
      4          6           0        1.151880   -0.185115   -0.089934
      5          6           0        1.753185    0.967197    0.706992
      6          8           0       -1.527410    0.964960    0.018915
      7          6           0       -3.691720   -0.892838   -0.077300
      8          8           0        3.987126    0.234825    0.105506
      9          6           0       -3.922262    0.618121   -0.025397
     10          6           0       -1.238524   -0.407442   -0.108574
     11          6           0       -2.732190    1.350233   -0.624137
     12          6           0        3.494937   -0.824146   -0.691410
     13          8           0       -0.035596   -0.661666    0.530957
     14          1           0        2.287881   -1.757615    0.816652
     15          1           0        1.783600   -2.110081   -0.828964
     16          1           0        3.593624    2.095540    0.757104
     17          1           0        3.012502    1.749789   -0.864621
     18          1           0       -2.331302   -1.049532    1.596976
     19          1           0       -2.101177   -2.296261    0.381073
     20          1           0        0.910330    0.154741   -1.091449
     21          1           0        1.100922    1.833515    0.684980
     22          1           0        1.866425    0.660245    1.743375
     23          1           0       -4.480320   -1.419154    0.450798
     24          1           0       -3.724661   -1.227406   -1.112148
     25          1           0       -4.054007    0.938110    1.005380
     26          1           0       -4.821484    0.891731   -0.569995
     27          1           0       -1.146530   -0.636732   -1.167507
     28          1           0       -2.649103    1.141824   -1.688388
     29          1           0       -2.812859    2.420198   -0.493299
     30          1           0        3.402905   -0.481979   -1.719884
     31          1           0        4.240090   -1.606804   -0.660757
 ---------------------------------------------------------------------
                    Distance matrix (angstroms):
                    1          2          3          4          5
     1  C    0.000000
     2  C    2.859947   0.000000
     3  C    4.540357   6.043675   0.000000
     4  C    1.523131   2.501139   3.692193   0.000000
     5  C    2.490973   1.523100   4.648007   1.524625   0.000000
     6  O    4.342292   4.659824   2.406469   2.917724   3.351978
     7  C    5.863602   7.169275   1.531161   4.895048   5.807050
     8  O    2.424461   1.413931   6.502332   2.872832   2.426653
     9  C    6.382983   7.076991   2.512911   5.137730   5.733145
    10  C    3.516756   4.700562   1.516560   2.400793   3.391917
    11  C    5.591268   5.897119   2.868478   4.210542   4.694381
    12  C    1.522789   2.356250   5.966400   2.502009   2.863239
    13  O    2.395417   3.756986   2.367863   1.422219   2.425679
    14  H    1.086703   3.283498   4.655401   2.141297   2.778943
    15  H    1.086065   3.829705   4.417287   2.156555   3.439437
    16  H    3.828533   1.081066   6.805109   3.446879   2.159371
    17  H    3.269418   1.087865   6.281569   2.793905   2.160624
    18  H    4.830719   6.126043   1.086840   3.965531   4.641368
    19  H    4.399754   6.367309   1.085179   3.906554   5.060878
    20  H    2.143012   2.793139   3.884021   1.084841   2.145898
    21  H    3.441522   2.142307   4.613004   2.162858   1.084637
    22  H    2.776583   2.144621   4.766801   2.141548   1.086799
    23  H    6.665082   8.089478   2.158397   5.791107   6.679588
    24  H    5.954990   7.414934   2.152837   5.090378   6.175140
    25  H    6.713832   7.232637   2.822842   5.437151   5.814926
    26  H    7.331888   7.981365   3.461296   6.088607   6.697960
    27  H    3.516718   4.879497   2.155676   2.578335   3.807188
    28  H    5.610469   6.050973   3.273318   4.331662   5.014826
    29  H    6.231620   6.057559   3.836044   4.761251   4.939703
    30  H    2.160413   2.625105   6.205305   2.794992   3.272830
    31  H    2.159548   3.261082   6.686801   3.447329   3.831568
                    6          7          8          9         10
     6  O    0.000000
     7  C    2.853929   0.000000
     8  O    5.563336   7.763357   0.000000
     9  C    2.420243   1.529327   7.919752   0.000000
    10  C    1.408260   2.500951   5.269322   2.874221   0.000000
    11  C    1.418959   2.500219   6.850235   1.520115   2.363528
    12  C    5.378609   7.213175   1.413770   7.585417   4.787379
    13  O    2.265747   3.713578   4.143307   4.129595   1.385881
    14  H    4.754497   6.107587   2.713481   6.702167   3.887743
    15  H    4.597561   5.659135   3.350723   6.375395   3.542764
    16  H    5.296048   7.918514   2.010394   7.699586   5.510351
    17  H    4.691204   7.249134   2.046009   7.076434   4.826642
    18  H    2.682293   2.162982   6.617899   2.818566   2.124934
    19  H    3.331055   2.170145   6.599225   3.460519   2.133439
    20  H    2.798560   4.827503   3.302391   4.970426   2.428923
    21  H    2.847132   5.566281   3.349892   5.216723   3.335360
    22  H    3.818996   6.051438   2.713111   6.053034   3.769666
    23  H    3.819712   1.085258   8.634380   2.165336   3.441758
    24  H    3.303587   1.088086   7.943076   2.150824   2.803637
    25  H    2.712476   2.157735   8.121835   1.087314   3.313359
    26  H    3.347103   2.168825   8.858862   1.086301   3.839057
    27  H    2.029306   2.780671   5.360466   3.253269   1.087371
    28  H    2.050454   2.796874   6.933992   2.158874   2.624075
    29  H    2.008099   3.452776   7.167581   2.167300   3.259155
    30  H    5.424487   7.293874   2.046258   7.598656   4.913730
    31  H    6.351376   7.985223   2.010658   8.483983   5.635476
                   11         12         13         14         15
    11  C    0.000000
    12  C    6.596178   0.000000
    13  O    3.557190   3.739685   0.000000
    14  H    6.077475   2.145367   2.584816   0.000000
    15  H    5.692810   2.145046   2.693838   1.756868   0.000000
    16  H    6.517609   3.260751   4.563394   4.068822   4.845518
    17  H    5.763589   2.624478   4.129607   3.956468   4.050934
    18  H    3.294378   6.263591   2.560684   4.737841   4.893094
    19  H    3.834781   5.885052   2.638369   4.443388   4.073125
    20  H    3.862063   2.792569   2.047803   3.032425   2.441499
    21  H    4.079227   3.832613   2.746147   3.784498   4.279022
    22  H    5.218089   3.283846   2.614401   2.623450   3.781335
    23  H    3.446875   8.078576   4.509522   6.786527   6.430542
    24  H    2.804884   7.243082   4.077874   6.336565   5.585718
    25  H    2.138310   7.935439   4.351090   6.893627   6.836223
    26  H    2.139697   8.492457   5.150715   7.712645   7.259826
    27  H    2.599538   4.669583   2.029674   4.121704   3.297125
    28  H    1.087643   6.527498   3.874079   6.249463   5.564382
    29  H    1.080949   7.096006   4.273193   6.722175   6.462471
    30  H    6.495926   1.087799   4.113619   3.050335   2.463048
    31  H    7.573513   1.081086   4.538167   2.452876   2.513150
                   16         17         18         19         20
    16  H    0.000000
    17  H    1.757054   0.000000
    18  H    6.760297   6.515512   0.000000
    19  H    7.201394   6.638674   1.756619   0.000000
    20  H    3.792613   2.648538   4.380192   4.152699   0.000000
    21  H    2.507473   2.462196   4.574260   5.234582   2.451593
    22  H    2.452757   3.049958   4.534940   5.132120   3.034119
    23  H    8.811099   8.241050   2.463457   2.536632   5.823640
    24  H    8.251871   7.369825   3.051629   2.451094   4.836724
    25  H    7.738704   7.354677   2.696001   3.829420   5.445641
    26  H    8.603743   7.886343   3.829526   4.297429   5.802479
    27  H    5.799870   4.804661   3.035861   2.462415   2.205196
    28  H    6.772123   5.753432   3.961900   4.050101   3.741688
    29  H    6.535437   5.875556   4.079237   4.849330   4.399115
    30  H    3.579867   2.421710   6.648670   6.164459   2.648258
    31  H    4.016914   3.579839   6.970732   6.463159   3.791548
                   21         22         23         24         25
    21  H    0.000000
    22  H    1.755778   0.000000
    23  H    6.464129   6.802634   0.000000
    24  H    5.990422   6.555721   1.746593   0.000000
    25  H    5.241918   5.972718   2.458861   3.046613   0.000000
    26  H    6.126729   7.080494   2.549235   2.446976   1.752991
    27  H    3.819014   4.385576   3.787513   2.645509   3.956638
    28  H    4.491548   5.692004   3.806321   2.664982   3.044937
    29  H    4.129191   5.476846   4.290964   3.810429   2.446032
    30  H    4.055121   3.957222   8.230152   7.192163   8.065312
    31  H    4.847801   4.068617   8.792970   7.986548   8.834288
                   26         27         28         29         30
    26  H    0.000000
    27  H    4.024737   0.000000
    28  H    2.456133   2.385855   0.000000
    29  H    2.525207   3.546270   1.757639   0.000000
    30  H    8.417238   4.585458   6.266141   6.968706   0.000000
    31  H    9.400162   5.496682   7.488121   8.123354   1.757231
                   31
    31  H    0.000000
 Stoichiometry    C10H18O3
 Framework group  C1[X(C10H18O3)]
 Deg. of freedom    87
 Full point group                 C1      NOp   1
 Largest Abelian subgroup         C1      NOp   1
 Largest concise Abelian subgroup C1      NOp   1
                         Standard orientation:                         
 ---------------------------------------------------------------------
 Center     Atomic      Atomic             Coordinates (Angstroms)
 Number     Number       Type             X           Y           Z
 ---------------------------------------------------------------------
      1          6           0       -2.154906   -1.328357    0.172781
      2          6           0       -3.115104    1.347269   -0.140815
      3          6           0        2.330284   -1.245768   -0.527999
      4          6           0       -1.151880   -0.185115    0.089934
      5          6           0       -1.753185    0.967197   -0.706992
      6          8           0        1.527410    0.964960   -0.018915
      7          6           0        3.691720   -0.892838    0.077300
      8          8           0       -3.987126    0.234825   -0.105506
      9          6           0        3.922262    0.618121    0.025397
     10          6           0        1.238524   -0.407442    0.108574
     11          6           0        2.732190    1.350233    0.624137
     12          6           0       -3.494937   -0.824146    0.691410
     13          8           0        0.035596   -0.661666   -0.530957
     14          1           0       -2.287881   -1.757615   -0.816652
     15          1           0       -1.783600   -2.110081    0.828964
     16          1           0       -3.593624    2.095540   -0.757104
     17          1           0       -3.012502    1.749789    0.864621
     18          1           0        2.331302   -1.049532   -1.596976
     19          1           0        2.101177   -2.296261   -0.381073
     20          1           0       -0.910330    0.154741    1.091449
     21          1           0       -1.100922    1.833515   -0.684980
     22          1           0       -1.866425    0.660245   -1.743375
     23          1           0        4.480320   -1.419154   -0.450798
     24          1           0        3.724661   -1.227406    1.112148
     25          1           0        4.054007    0.938110   -1.005380
     26          1           0        4.821484    0.891731    0.569995
     27          1           0        1.146530   -0.636732    1.167507
     28          1           0        2.649103    1.141824    1.688388
     29          1           0        2.812859    2.420198    0.493299
     30          1           0       -3.402905   -0.481979    1.719884
     31          1           0       -4.240090   -1.606804    0.660757
 ---------------------------------------------------------------------
 Rotational constants (GHZ):           2.2027838           0.3617706           0.3294438
 Standard basis: 6-311++G(2d,2p) (5D, 7F)
 There are   557 symmetry adapted cartesian basis functions of A   symmetry.
 There are   531 symmetry adapted basis functions of A   symmetry.
   531 basis functions,   762 primitive gaussians,   557 cartesian basis functions
    51 alpha electrons       51 beta electrons
       nuclear repulsion energy       877.6216178703 Hartrees.
 NAtoms=   31 NActive=   31 NUniq=   31 SFac= 1.00D+00 NAtFMM=   60 NAOKFM=F Big=F
 Integral buffers will be    131072 words long.
 Raffenetti 2 integral format.
 Two-electron integral symmetry is turned on.
 ------------------------------------------------------------------------------
 Polarizable Continuum Model (PCM)
 =================================
 Model                : PCM.
 Atomic radii         : SMD-Coulomb.
 Polarization charges : Total charges.
 Charge compensation  : None.
 Solution method      : On-the-fly selection.
 Cavity type          : VdW (van der Waals Surface) (Alpha=1.000).
 Cavity algorithm     : GePol (No added spheres)
                        Default sphere list used, NSphG=   31.
                        Lebedev-Laikov grids with approx.  5.0 points / Ang**2.
                        Smoothing algorithm: York/Karplus (Gamma=1.0000).
                        Polarization charges: spherical gaussians, with
                                              point-specific exponents (IZeta= 3).
                        Self-potential: point-specific (ISelfS= 7).
                        Self-field    : sphere-specific E.n sum rule (ISelfD= 2).
 1st derivatives      : Analytical E(r).r(x)/FMM algorithm (CHGder, D1EAlg=3).
                        Cavity 1st derivative terms included.
 Solvent              : Water, Eps=  78.355300 Eps(inf)=   1.777849
 ------------------------------------------------------------------------------
 ------------------------------------------------------------------------------
 Atomic radii for non-electrostatic terms: SMD-CDS.
 ------------------------------------------------------------------------------
 Nuclear repulsion after PCM non-electrostatic terms =      877.6281348324 Hartrees.
 One-electron integrals computed using PRISM.
 NBasis=   531 RedAO= T EigKep=  6.67D-06  NBF=   531
 NBsUse=   531 1.00D-06 EigRej= -1.00D+00 NBFU=   531
 ExpMin= 3.60D-02 ExpMax= 8.59D+03 ExpMxC= 1.30D+03 IAcc=3 IRadAn=         5 AccDes= 0.00D+00
 Harris functional with IExCor= 1009 and IRadAn=       5 diagonalized for initial guess.
 HarFok:  IExCor= 1009 AccDes= 0.00D+00 IRadAn=         5 IDoV= 1 UseB2=F ITyADJ=14
 ICtDFT=  3500011 ScaDFX=  1.000000  1.000000  1.000000  1.000000
 FoFCou: FMM=F IPFlag=           0 FMFlag=      100000 FMFlg1=           0
         NFxFlg=           0 DoJE=T BraDBF=F KetDBF=T FulRan=T
         wScrn=  0.000000 ICntrl=       500 IOpCl=  0 I1Cent=   200000004 NGrid=           0
         NMat0=    1 NMatS0=      1 NMatT0=    0 NMatD0=    1 NMtDS0=    0 NMtDT0=    0
 Petite list used in FoFCou.
 Requested convergence on RMS density matrix=1.00D-08 within 128 cycles.
 Requested convergence on MAX density matrix=1.00D-06.
 Requested convergence on             energy=1.00D-06.
 No special actions if energy rises.
 Inv3:  Mode=1 IEnd=    12072108.
 Iteration    1 A*A^-1 deviation from unit magnitude is 6.44D-15 for    220.
 Iteration    1 A*A^-1 deviation from orthogonality  is 3.45D-15 for   1519    237.
 Iteration    1 A^-1*A deviation from unit magnitude is 6.44D-15 for    220.
 Iteration    1 A^-1*A deviation from orthogonality  is 9.35D-14 for   1676   1621.
 Error on total polarization charges =  0.06307
 SCF Done:  E(RM062X) =  -617.507884893     A.U. after   12 cycles
            NFock= 12  Conv=0.46D-08     -V/T= 2.0035
 SMD-CDS (non-electrostatic) energy       (kcal/mol) =       4.09
 (included in total energy above)

 **********************************************************************

            Population analysis using the SCF Density.

 **********************************************************************

 Orbital symmetries:
       Occupied  (A) (A) (A) (A) (A) (A) (A) (A) (A) (A) (A) (A)
                 (A) (A) (A) (A) (A) (A) (A) (A) (A) (A) (A) (A)
                 (A) (A) (A) (A) (A) (A) (A) (A) (A) (A) (A) (A)
                 (A) (A) (A) (A) (A) (A) (A) (A) (A) (A) (A) (A)
                 (A) (A) (A)
       Virtual   (A) (A) (A) (A) (A) (A) (A) (A) (A) (A) (A) (A)
                 (A) (A) (A) (A) (A) (A) (A) (A) (A) (A) (A) (A)
                 (A) (A) (A) (A) (A) (A) (A) (A) (A) (A) (A) (A)
                 (A) (A) (A) (A) (A) (A) (A) (A) (A) (A) (A) (A)
                 (A) (A) (A) (A) (A) (A) (A) (A) (A) (A) (A) (A)
                 (A) (A) (A) (A) (A) (A) (A) (A) (A) (A) (A) (A)
                 (A) (A) (A) (A) (A) (A) (A) (A) (A) (A) (A) (A)
                 (A) (A) (A) (A) (A) (A) (A) (A) (A) (A) (A) (A)
                 (A) (A) (A) (A) (A) (A) (A) (A) (A) (A) (A) (A)
                 (A) (A) (A) (A) (A) (A) (A) (A) (A) (A) (A) (A)
                 (A) (A) (A) (A) (A) (A) (A) (A) (A) (A) (A) (A)
                 (A) (A) (A) (A) (A) (A) (A) (A) (A) (A) (A) (A)
                 (A) (A) (A) (A) (A) (A) (A) (A) (A) (A) (A) (A)
                 (A) (A) (A) (A) (A) (A) (A) (A) (A) (A) (A) (A)
                 (A) (A) (A) (A) (A) (A) (A) (A) (A) (A) (A) (A)
                 (A) (A) (A) (A) (A) (A) (A) (A) (A) (A) (A) (A)
                 (A) (A) (A) (A) (A) (A) (A) (A) (A) (A) (A) (A)
                 (A) (A) (A) (A) (A) (A) (A) (A) (A) (A) (A) (A)
                 (A) (A) (A) (A) (A) (A) (A) (A) (A) (A) (A) (A)
                 (A) (A) (A) (A) (A) (A) (A) (A) (A) (A) (A) (A)
                 (A) (A) (A) (A) (A) (A) (A) (A) (A) (A) (A) (A)
                 (A) (A) (A) (A) (A) (A) (A) (A) (A) (A) (A) (A)
                 (A) (A) (A) (A) (A) (A) (A) (A) (A) (A) (A) (A)
                 (A) (A) (A) (A) (A) (A) (A) (A) (A) (A) (A) (A)
                 (A) (A) (A) (A) (A) (A) (A) (A) (A) (A) (A) (A)
                 (A) (A) (A) (A) (A) (A) (A) (A) (A) (A) (A) (A)
                 (A) (A) (A) (A) (A) (A) (A) (A) (A) (A) (A) (A)
                 (A) (A) (A) (A) (A) (A) (A) (A) (A) (A) (A) (A)
                 (A) (A) (A) (A) (A) (A) (A) (A) (A) (A) (A) (A)
                 (A) (A) (A) (A) (A) (A) (A) (A) (A) (A) (A) (A)
                 (A) (A) (A) (A) (A) (A) (A) (A) (A) (A) (A) (A)
                 (A) (A) (A) (A) (A) (A) (A) (A) (A) (A) (A) (A)
                 (A) (A) (A) (A) (A) (A) (A) (A) (A) (A) (A) (A)
                 (A) (A) (A) (A) (A) (A) (A) (A) (A) (A) (A) (A)
                 (A) (A) (A) (A) (A) (A) (A) (A) (A) (A) (A) (A)
                 (A) (A) (A) (A) (A) (A) (A) (A) (A) (A) (A) (A)
                 (A) (A) (A) (A) (A) (A) (A) (A) (A) (A) (A) (A)
                 (A) (A) (A) (A) (A) (A) (A) (A) (A) (A) (A) (A)
                 (A) (A) (A) (A) (A) (A) (A) (A) (A) (A) (A) (A)
                 (A) (A) (A) (A) (A) (A) (A) (A) (A) (A) (A) (A)
 The electronic state is 1-A.
 Alpha  occ. eigenvalues --  -19.63373 -19.62810 -19.62728 -10.63113 -10.58422
 Alpha  occ. eigenvalues --  -10.57414 -10.57380 -10.57322 -10.52444 -10.52290
 Alpha  occ. eigenvalues --  -10.52279 -10.52192 -10.52115  -1.20449  -1.16548
 Alpha  occ. eigenvalues --   -1.14064  -0.90772  -0.89320  -0.86276  -0.84631
 Alpha  occ. eigenvalues --   -0.74875  -0.73267  -0.72538  -0.70052  -0.66189
 Alpha  occ. eigenvalues --   -0.64339  -0.60297  -0.57787  -0.57042  -0.54568
 Alpha  occ. eigenvalues --   -0.54446  -0.53021  -0.51664  -0.51034  -0.49953
 Alpha  occ. eigenvalues --   -0.49624  -0.46229  -0.45568  -0.45358  -0.44211
 Alpha  occ. eigenvalues --   -0.42496  -0.41258  -0.40810  -0.39856  -0.39182
 Alpha  occ. eigenvalues --   -0.38921  -0.37176  -0.36771  -0.33968  -0.33175
 Alpha  occ. eigenvalues --   -0.32264
 Alpha virt. eigenvalues --    0.00501   0.01256   0.01355   0.01477   0.02694
 Alpha virt. eigenvalues --    0.02853   0.02968   0.04017   0.04042   0.04783
 Alpha virt. eigenvalues --    0.05093   0.05501   0.05798   0.05828   0.07348
 Alpha virt. eigenvalues --    0.07782   0.07827   0.08535   0.08746   0.09638
 Alpha virt. eigenvalues --    0.10536   0.10899   0.11258   0.11969   0.12196
 Alpha virt. eigenvalues --    0.12871   0.13161   0.13474   0.13821   0.13973
 Alpha virt. eigenvalues --    0.14065   0.14310   0.14839   0.14971   0.15225
 Alpha virt. eigenvalues --    0.15706   0.16037   0.16053   0.16436   0.16671
 Alpha virt. eigenvalues --    0.16897   0.17234   0.17341   0.17720   0.18192
 Alpha virt. eigenvalues --    0.18342   0.18904   0.18929   0.19369   0.19592
 Alpha virt. eigenvalues --    0.20139   0.20448   0.20530   0.21212   0.21626
 Alpha virt. eigenvalues --    0.22175   0.23355   0.23873   0.24466   0.25377
 Alpha virt. eigenvalues --    0.25899   0.26160   0.26546   0.27075   0.27613
 Alpha virt. eigenvalues --    0.27833   0.28186   0.28892   0.29494   0.30095
 Alpha virt. eigenvalues --    0.30471   0.30908   0.31182   0.31496   0.31874
 Alpha virt. eigenvalues --    0.32655   0.32723   0.33374   0.34326   0.34601
 Alpha virt. eigenvalues --    0.35264   0.35409   0.36036   0.36188   0.36474
 Alpha virt. eigenvalues --    0.36848   0.37005   0.37081   0.37618   0.37976
 Alpha virt. eigenvalues --    0.38193   0.39085   0.39741   0.40160   0.40876
 Alpha virt. eigenvalues --    0.41073   0.41994   0.42977   0.43682   0.45170
 Alpha virt. eigenvalues --    0.45443   0.47996   0.49903   0.50503   0.51549
 Alpha virt. eigenvalues --    0.52551   0.53270   0.53832   0.54811   0.55772
 Alpha virt. eigenvalues --    0.56702   0.57303   0.58379   0.58519   0.59296
 Alpha virt. eigenvalues --    0.59789   0.61275   0.61312   0.61639   0.61996
 Alpha virt. eigenvalues --    0.62676   0.63167   0.63888   0.64231   0.64506
 Alpha virt. eigenvalues --    0.65406   0.65748   0.66190   0.67212   0.67493
 Alpha virt. eigenvalues --    0.67837   0.68725   0.69207   0.69853   0.70697
 Alpha virt. eigenvalues --    0.71575   0.72325   0.72799   0.73197   0.73728
 Alpha virt. eigenvalues --    0.74039   0.74788   0.74995   0.75701   0.76050
 Alpha virt. eigenvalues --    0.76083   0.77451   0.78303   0.79652   0.79791
 Alpha virt. eigenvalues --    0.80287   0.83113   0.84012   0.84758   0.85029
 Alpha virt. eigenvalues --    0.86588   0.87246   0.88596   0.89497   0.90774
 Alpha virt. eigenvalues --    0.91380   0.92108   0.93686   0.94268   0.96894
 Alpha virt. eigenvalues --    0.97900   0.98676   0.99992   1.00743   1.01669
 Alpha virt. eigenvalues --    1.03372   1.03853   1.05108   1.06032   1.06750
 Alpha virt. eigenvalues --    1.07535   1.08133   1.09470   1.10610   1.11775
 Alpha virt. eigenvalues --    1.12422   1.13752   1.14564   1.15172   1.15501
 Alpha virt. eigenvalues --    1.17173   1.18263   1.19303   1.19936   1.20947
 Alpha virt. eigenvalues --    1.21575   1.22299   1.22600   1.23007   1.23568
 Alpha virt. eigenvalues --    1.24098   1.24518   1.26595   1.26966   1.27631
 Alpha virt. eigenvalues --    1.28418   1.28743   1.29246   1.29911   1.30072
 Alpha virt. eigenvalues --    1.31551   1.31755   1.32335   1.32845   1.34071
 Alpha virt. eigenvalues --    1.34865   1.35450   1.36158   1.37141   1.37274
 Alpha virt. eigenvalues --    1.38853   1.39201   1.39894   1.40968   1.41864
 Alpha virt. eigenvalues --    1.42222   1.43173   1.43705   1.44467   1.44941
 Alpha virt. eigenvalues --    1.45979   1.46424   1.47303   1.48448   1.48779
 Alpha virt. eigenvalues --    1.49937   1.50148   1.50518   1.51573   1.52822
 Alpha virt. eigenvalues --    1.52962   1.53443   1.53757   1.54366   1.56279
 Alpha virt. eigenvalues --    1.56433   1.57700   1.58265   1.59151   1.59760
 Alpha virt. eigenvalues --    1.59893   1.60067   1.60676   1.61370   1.63018
 Alpha virt. eigenvalues --    1.64188   1.64661   1.65646   1.66065   1.66477
 Alpha virt. eigenvalues --    1.67673   1.68616   1.69023   1.70184   1.70501
 Alpha virt. eigenvalues --    1.72945   1.75781   1.76001   1.77516   1.79033
 Alpha virt. eigenvalues --    1.79243   1.80106   1.82112   1.82464   1.83474
 Alpha virt. eigenvalues --    1.84761   1.87819   1.90854   1.92762   1.97065
 Alpha virt. eigenvalues --    2.00911   2.07891   2.12752   2.15733   2.19376
 Alpha virt. eigenvalues --    2.23762   2.27882   2.30600   2.33081   2.35766
 Alpha virt. eigenvalues --    2.41438   2.43220   2.43855   2.48287   2.51601
 Alpha virt. eigenvalues --    2.57594   2.76430   2.77882   2.78361   2.81859
 Alpha virt. eigenvalues --    2.87992   2.88612   2.92146   2.93395   2.95436
 Alpha virt. eigenvalues --    2.96813   2.98334   3.00588   3.03864   3.06641
 Alpha virt. eigenvalues --    3.08023   3.08298   3.09956   3.10139   3.11364
 Alpha virt. eigenvalues --    3.12745   3.13338   3.14958   3.16963   3.20723
 Alpha virt. eigenvalues --    3.24896   3.30170   3.31796   3.32853   3.35224
 Alpha virt. eigenvalues --    3.35851   3.37389   3.39701   3.39790   3.41375
 Alpha virt. eigenvalues --    3.42827   3.43428   3.44828   3.45538   3.47533
 Alpha virt. eigenvalues --    3.48001   3.48932   3.49831   3.50892   3.52678
 Alpha virt. eigenvalues --    3.54034   3.54388   3.55501   3.55619   3.56231
 Alpha virt. eigenvalues --    3.57431   3.57941   3.58509   3.59312   3.60067
 Alpha virt. eigenvalues --    3.60978   3.62133   3.62239   3.63278   3.65162
 Alpha virt. eigenvalues --    3.66190   3.67394   3.68153   3.69342   3.70715
 Alpha virt. eigenvalues --    3.71596   3.72076   3.72164   3.72773   3.73569
 Alpha virt. eigenvalues --    3.75214   3.75626   3.76208   3.76744   3.77231
 Alpha virt. eigenvalues --    3.79036   3.79310   3.79946   3.83216   3.84439
 Alpha virt. eigenvalues --    3.85046   3.87713   3.89549   3.90959   3.91897
 Alpha virt. eigenvalues --    3.92334   3.93361   3.93889   3.96014   3.99012
 Alpha virt. eigenvalues --    4.00907   4.03002   4.03307   4.03941   4.04296
 Alpha virt. eigenvalues --    4.05924   4.06256   4.06636   4.07218   4.07874
 Alpha virt. eigenvalues --    4.08020   4.09023   4.11041   4.11947   4.12253
 Alpha virt. eigenvalues --    4.12938   4.13390   4.13523   4.13938   4.15706
 Alpha virt. eigenvalues --    4.16276   4.17245   4.18340   4.18962   4.21194
 Alpha virt. eigenvalues --    4.21491   4.22550   4.23439   4.25760   4.27044
 Alpha virt. eigenvalues --    4.28031   4.30180   4.31086   4.31828   4.32676
 Alpha virt. eigenvalues --    4.33866   4.34645   4.35543   4.36502   4.37536
 Alpha virt. eigenvalues --    4.40126   4.43290   4.45668   4.48710   4.52959
 Alpha virt. eigenvalues --    4.59901   4.62241   4.74373   4.77259   4.88890
 Alpha virt. eigenvalues --    4.90999   4.91211   4.92664   4.99945   5.00157
 Alpha virt. eigenvalues --    5.06764   5.08112   5.08360   5.10034   5.12330
 Alpha virt. eigenvalues --    5.12428   5.12914   5.14488   5.30056   5.35669
 Alpha virt. eigenvalues --    5.38722   5.57246   5.58012   5.62914   5.86639
 Alpha virt. eigenvalues --    5.88614   6.04195   7.02160   7.05329   7.05863
 Alpha virt. eigenvalues --    7.09415   7.09817   7.12361   7.13934   7.16024
 Alpha virt. eigenvalues --    7.24464   7.35731   7.38764   7.44120   7.52862
 Alpha virt. eigenvalues --    7.55595   7.63393  23.95633  23.97726  24.06372
 Alpha virt. eigenvalues --   24.09993  24.12591  24.13481  24.14136  24.15975
 Alpha virt. eigenvalues --   24.17238  24.18597  50.15803  50.19388  50.23149
          Condensed to atoms (all electrons):
               1          2          3          4          5          6
     1  C    6.491599   0.187098   0.052981  -0.788548  -0.159933   0.034614
     2  C    0.187098   5.635287   0.016820   0.053014  -0.111193  -0.008024
     3  C    0.052981   0.016820   6.201121  -0.150795  -0.016128  -0.053649
     4  C   -0.788548   0.053014  -0.150795   7.446692  -0.557817  -0.085226
     5  C   -0.159933  -0.111193  -0.016128  -0.557817   6.275073  -0.021327
     6  O    0.034614  -0.008024  -0.053649  -0.085226  -0.021327   8.450831
     7  C    0.005035  -0.000882   0.029435  -0.130748   0.006684   0.030528
     8  O   -0.043704   0.123598   0.001617  -0.015335  -0.067042  -0.000167
     9  C   -0.001562   0.003146  -0.082810   0.001519  -0.012691  -0.056622
    10  C   -0.047358  -0.091152  -0.315891  -0.608090   0.081919   0.272535
    11  C    0.011909  -0.001310   0.041858   0.043314  -0.008571  -0.000667
    12  C   -0.131290  -0.259274  -0.006373   0.093845   0.159328   0.000186
    13  O   -0.154460   0.013412  -0.239418   0.291502  -0.132401   0.007344
    14  H    0.452708   0.016859   0.002746   0.023890  -0.039162   0.000259
    15  H    0.447592   0.002580  -0.001420  -0.052765  -0.000961  -0.000626
    16  H    0.000930   0.420265  -0.000416  -0.002211  -0.011773  -0.000885
    17  H   -0.029827   0.439881   0.002125   0.041290  -0.073669   0.001294
    18  H   -0.002568   0.000475   0.501848   0.007415   0.003926  -0.008009
    19  H    0.002506   0.000823   0.436406  -0.003593   0.002142   0.005636
    20  H   -0.014253  -0.008004  -0.036504   0.438528   0.019719  -0.003318
    21  H   -0.002442  -0.011276   0.003877  -0.074669   0.471023   0.003095
    22  H   -0.042755  -0.107076  -0.001526   0.012672   0.458327  -0.001032
    23  H    0.000891   0.000019  -0.066593  -0.007356   0.000145  -0.002932
    24  H   -0.001239   0.000145  -0.047120   0.005081   0.000839   0.001644
    25  H    0.000174   0.000150  -0.010365   0.006393  -0.001069  -0.001217
    26  H   -0.000266  -0.000019   0.006509  -0.000859  -0.000068   0.006856
    27  H   -0.036782  -0.005683  -0.019797   0.049267   0.014185  -0.055211
    28  H    0.003309   0.000332   0.014792   0.016185  -0.002996  -0.027027
    29  H    0.000127  -0.000286   0.007813  -0.003550   0.001888  -0.072588
    30  H   -0.076682  -0.009251   0.003307   0.042369  -0.029286  -0.000155
    31  H   -0.012783   0.010472  -0.000532  -0.013953   0.004464   0.000329
               7          8          9         10         11         12
     1  C    0.005035  -0.043704  -0.001562  -0.047358   0.011909  -0.131290
     2  C   -0.000882   0.123598   0.003146  -0.091152  -0.001310  -0.259274
     3  C    0.029435   0.001617  -0.082810  -0.315891   0.041858  -0.006373
     4  C   -0.130748  -0.015335   0.001519  -0.608090   0.043314   0.093845
     5  C    0.006684  -0.067042  -0.012691   0.081919  -0.008571   0.159328
     6  O    0.030528  -0.000167  -0.056622   0.272535  -0.000667   0.000186
     7  C    5.692816   0.000049  -0.005928   0.028732  -0.038656  -0.001490
     8  O    0.000049   8.441058  -0.000046   0.010817   0.000125   0.131556
     9  C   -0.005928  -0.000046   5.554516   0.121655   0.041315  -0.000366
    10  C    0.028732   0.010817   0.121655   6.347877  -0.160193  -0.028409
    11  C   -0.038656   0.000125   0.041315  -0.160193   5.451532  -0.000104
    12  C   -0.001490   0.131556  -0.000366  -0.028409  -0.000104   5.600645
    13  O    0.026664  -0.000092   0.007485   0.095730  -0.007125   0.027126
    14  H   -0.000953  -0.002480   0.000224   0.006633  -0.000547  -0.091145
    15  H    0.001554   0.006262   0.000001   0.008258  -0.001033  -0.014162
    16  H    0.000154  -0.074375  -0.000306  -0.003239  -0.000191   0.006173
    17  H    0.000254  -0.041853   0.000136   0.020879  -0.000028  -0.008149
    18  H   -0.020455  -0.000055  -0.010759  -0.106277  -0.003371  -0.000108
    19  H   -0.034003   0.000019   0.002631  -0.032902   0.003680  -0.001746
    20  H   -0.003035  -0.004333  -0.003958   0.006791   0.001368  -0.007087
    21  H   -0.002174   0.009174  -0.000816  -0.016445   0.001492   0.003613
    22  H    0.001297  -0.002185   0.000718   0.028366  -0.000365   0.014656
    23  H    0.428737   0.000005  -0.029859   0.041897   0.007386  -0.000013
    24  H    0.522014  -0.000007  -0.065036  -0.023419  -0.011426  -0.000242
    25  H   -0.014814  -0.000001   0.482389  -0.015248  -0.073916   0.000011
    26  H   -0.063757  -0.000001   0.467824   0.004443  -0.038788   0.000033
    27  H   -0.030876   0.000215   0.012408   0.431155   0.010001   0.004711
    28  H   -0.012283   0.000014  -0.054169  -0.049053   0.476590  -0.000079
    29  H    0.006674   0.000016  -0.041343   0.006739   0.440073  -0.000115
    30  H    0.000189  -0.043441   0.000193   0.018327  -0.000531   0.445979
    31  H    0.000036  -0.069230  -0.000050  -0.003562   0.000392   0.421475
              13         14         15         16         17         18
     1  C   -0.154460   0.452708   0.447592   0.000930  -0.029827  -0.002568
     2  C    0.013412   0.016859   0.002580   0.420265   0.439881   0.000475
     3  C   -0.239418   0.002746  -0.001420  -0.000416   0.002125   0.501848
     4  C    0.291502   0.023890  -0.052765  -0.002211   0.041290   0.007415
     5  C   -0.132401  -0.039162  -0.000961  -0.011773  -0.073669   0.003926
     6  O    0.007344   0.000259  -0.000626  -0.000885   0.001294  -0.008009
     7  C    0.026664  -0.000953   0.001554   0.000154   0.000254  -0.020455
     8  O   -0.000092  -0.002480   0.006262  -0.074375  -0.041853  -0.000055
     9  C    0.007485   0.000224   0.000001  -0.000306   0.000136  -0.010759
    10  C    0.095730   0.006633   0.008258  -0.003239   0.020879  -0.106277
    11  C   -0.007125  -0.000547  -0.001033  -0.000191  -0.000028  -0.003371
    12  C    0.027126  -0.091145  -0.014162   0.006173  -0.008149  -0.000108
    13  O    8.453024  -0.007120   0.004467  -0.000876  -0.001421   0.002747
    14  H   -0.007120   0.457487  -0.017927  -0.001418   0.002717  -0.000015
    15  H    0.004467  -0.017927   0.476138   0.001586  -0.002611   0.000337
    16  H   -0.000876  -0.001418   0.001586   0.487205  -0.019470   0.000043
    17  H   -0.001421   0.002717  -0.002611  -0.019470   0.499602  -0.000023
    18  H    0.002747  -0.000015   0.000337   0.000043  -0.000023   0.457229
    19  H   -0.004085   0.000359  -0.001013   0.000032  -0.000073  -0.018444
    20  H   -0.016620  -0.002990  -0.005184   0.001974  -0.014938  -0.000006
    21  H    0.002353  -0.004351   0.000886  -0.008682  -0.002938   0.000267
    22  H   -0.002626   0.004930  -0.003496  -0.007238   0.006449  -0.000258
    23  H   -0.003177  -0.000034   0.000039  -0.000003   0.000025  -0.003063
    24  H    0.001185   0.000032   0.000140   0.000023  -0.000061   0.004147
    25  H    0.003357   0.000026   0.000072   0.000000   0.000007   0.001474
    26  H    0.000095  -0.000021  -0.000051  -0.000010  -0.000004  -0.003100
    27  H   -0.034363   0.000602  -0.002812  -0.000187   0.001503  -0.001398
    28  H    0.004731  -0.000006   0.000101  -0.000022   0.000073  -0.000005
    29  H   -0.002807   0.000052  -0.000086   0.000059  -0.000075  -0.000810
    30  H   -0.001168   0.005629  -0.001676  -0.004610   0.015474  -0.000005
    31  H   -0.000973  -0.008061  -0.009005   0.001584  -0.004813  -0.000034
              19         20         21         22         23         24
     1  C    0.002506  -0.014253  -0.002442  -0.042755   0.000891  -0.001239
     2  C    0.000823  -0.008004  -0.011276  -0.107076   0.000019   0.000145
     3  C    0.436406  -0.036504   0.003877  -0.001526  -0.066593  -0.047120
     4  C   -0.003593   0.438528  -0.074669   0.012672  -0.007356   0.005081
     5  C    0.002142   0.019719   0.471023   0.458327   0.000145   0.000839
     6  O    0.005636  -0.003318   0.003095  -0.001032  -0.002932   0.001644
     7  C   -0.034003  -0.003035  -0.002174   0.001297   0.428737   0.522014
     8  O    0.000019  -0.004333   0.009174  -0.002185   0.000005  -0.000007
     9  C    0.002631  -0.003958  -0.000816   0.000718  -0.029859  -0.065036
    10  C   -0.032902   0.006791  -0.016445   0.028366   0.041897  -0.023419
    11  C    0.003680   0.001368   0.001492  -0.000365   0.007386  -0.011426
    12  C   -0.001746  -0.007087   0.003613   0.014656  -0.000013  -0.000242
    13  O   -0.004085  -0.016620   0.002353  -0.002626  -0.003177   0.001185
    14  H    0.000359  -0.002990  -0.004351   0.004930  -0.000034   0.000032
    15  H   -0.001013  -0.005184   0.000886  -0.003496   0.000039   0.000140
    16  H    0.000032   0.001974  -0.008682  -0.007238  -0.000003   0.000023
    17  H   -0.000073  -0.014938  -0.002938   0.006449   0.000025  -0.000061
    18  H   -0.018444  -0.000006   0.000267  -0.000258  -0.003063   0.004147
    19  H    0.474057   0.001142  -0.000312  -0.000015  -0.010554  -0.005980
    20  H    0.001142   0.420632  -0.003359  -0.003175  -0.000330   0.001161
    21  H   -0.000312  -0.003359   0.470116  -0.017011  -0.000006  -0.000017
    22  H   -0.000015  -0.003175  -0.017011   0.461679   0.000018  -0.000036
    23  H   -0.010554  -0.000330  -0.000006   0.000018   0.456574   0.000196
    24  H   -0.005980   0.001161  -0.000017  -0.000036   0.000196   0.449942
    25  H   -0.001794  -0.000099  -0.000255  -0.000030  -0.001134   0.002651
    26  H    0.001804   0.000078   0.000109   0.000018  -0.008632  -0.005428
    27  H    0.000265  -0.006148  -0.001471   0.001065  -0.001591  -0.006531
    28  H    0.000083  -0.001619   0.000221   0.000071  -0.001890   0.001452
    29  H    0.001385   0.000244  -0.001041  -0.000027   0.000598  -0.002096
    30  H    0.000011  -0.015668  -0.002403   0.003017   0.000024  -0.000032
    31  H    0.000051   0.001326   0.001348  -0.001517  -0.000002  -0.000019
              25         26         27         28         29         30
     1  C    0.000174  -0.000266  -0.036782   0.003309   0.000127  -0.076682
     2  C    0.000150  -0.000019  -0.005683   0.000332  -0.000286  -0.009251
     3  C   -0.010365   0.006509  -0.019797   0.014792   0.007813   0.003307
     4  C    0.006393  -0.000859   0.049267   0.016185  -0.003550   0.042369
     5  C   -0.001069  -0.000068   0.014185  -0.002996   0.001888  -0.029286
     6  O   -0.001217   0.006856  -0.055211  -0.027027  -0.072588  -0.000155
     7  C   -0.014814  -0.063757  -0.030876  -0.012283   0.006674   0.000189
     8  O   -0.000001  -0.000001   0.000215   0.000014   0.000016  -0.043441
     9  C    0.482389   0.467824   0.012408  -0.054169  -0.041343   0.000193
    10  C   -0.015248   0.004443   0.431155  -0.049053   0.006739   0.018327
    11  C   -0.073916  -0.038788   0.010001   0.476590   0.440073  -0.000531
    12  C    0.000011   0.000033   0.004711  -0.000079  -0.000115   0.445979
    13  O    0.003357   0.000095  -0.034363   0.004731  -0.002807  -0.001168
    14  H    0.000026  -0.000021   0.000602  -0.000006   0.000052   0.005629
    15  H    0.000072  -0.000051  -0.002812   0.000101  -0.000086  -0.001676
    16  H    0.000000  -0.000010  -0.000187  -0.000022   0.000059  -0.004610
    17  H    0.000007  -0.000004   0.001503   0.000073  -0.000075   0.015474
    18  H    0.001474  -0.003100  -0.001398  -0.000005  -0.000810  -0.000005
    19  H   -0.001794   0.001804   0.000265   0.000083   0.001385   0.000011
    20  H   -0.000099   0.000078  -0.006148  -0.001619   0.000244  -0.015668
    21  H   -0.000255   0.000109  -0.001471   0.000221  -0.001041  -0.002403
    22  H   -0.000030   0.000018   0.001065   0.000071  -0.000027   0.003017
    23  H   -0.001134  -0.008632  -0.001591  -0.001890   0.000598   0.000024
    24  H    0.002651  -0.005428  -0.006531   0.001452  -0.002096  -0.000032
    25  H    0.471632  -0.011573  -0.000420   0.003903  -0.003042  -0.000003
    26  H   -0.011573   0.472348   0.000403   0.000516  -0.010068  -0.000007
    27  H   -0.000420   0.000403   0.430051  -0.001938  -0.000907   0.000018
    28  H    0.003903   0.000516  -0.001938   0.472908  -0.006437   0.000086
    29  H   -0.003042  -0.010068  -0.000907  -0.006437   0.476692   0.000033
    30  H   -0.000003  -0.000007   0.000018   0.000086   0.000033   0.502111
    31  H    0.000001   0.000003  -0.000083  -0.000001  -0.000004  -0.019421
              31
     1  C   -0.012783
     2  C    0.010472
     3  C   -0.000532
     4  C   -0.013953
     5  C    0.004464
     6  O    0.000329
     7  C    0.000036
     8  O   -0.069230
     9  C   -0.000050
    10  C   -0.003562
    11  C    0.000392
    12  C    0.421475
    13  O   -0.000973
    14  H   -0.008061
    15  H   -0.009005
    16  H    0.001584
    17  H   -0.004813
    18  H   -0.000034
    19  H    0.000051
    20  H    0.001326
    21  H    0.001348
    22  H   -0.001517
    23  H   -0.000002
    24  H   -0.000019
    25  H    0.000001
    26  H    0.000003
    27  H   -0.000083
    28  H   -0.000001
    29  H   -0.000004
    30  H   -0.019421
    31  H    0.480110
 Mulliken charges:
               1
     1  C   -0.145019
     2  C   -0.310947
     3  C   -0.273918
     4  C   -0.077461
     5  C   -0.253575
     6  O   -0.416473
     7  C   -0.420800
     8  O   -0.360177
     9  C   -0.329837
    10  C   -0.031517
    11  C   -0.184213
    12  C   -0.359185
    13  O   -0.332491
    14  H    0.201076
    15  H    0.164814
    16  H    0.215880
    17  H    0.168241
    18  H    0.198856
    19  H    0.181480
    20  H    0.257664
    21  H    0.182091
    22  H    0.197084
    23  H    0.200616
    24  H    0.178036
    25  H    0.162742
    26  H    0.181612
    27  H    0.250349
    28  H    0.162158
    29  H    0.202891
    30  H    0.167571
    31  H    0.222453
 Sum of Mulliken charges =  -0.00000
 Mulliken charges with hydrogens summed into heavy atoms:
               1
     1  C    0.220870
     2  C    0.073174
     3  C    0.106417
     4  C    0.180203
     5  C    0.125600
     6  O   -0.416473
     7  C   -0.042147
     8  O   -0.360177
     9  C    0.014517
    10  C    0.218832
    11  C    0.180836
    12  C    0.030839
    13  O   -0.332491
 Electronic spatial extent (au):  <R**2>=           3399.3988
 Charge=             -0.0000 electrons
 Dipole moment (field-independent basis, Debye):
    X=              3.3559    Y=             -0.3562    Z=              3.5367  Tot=              4.8885
 Quadrupole moment (field-independent basis, Debye-Ang):
   XX=            -81.2071   YY=            -76.2940   ZZ=            -78.8532
   XY=              0.8643   XZ=             -1.4008   YZ=             -1.1180
 Traceless Quadrupole moment (field-independent basis, Debye-Ang):
   XX=             -2.4223   YY=              2.4908   ZZ=             -0.0685
   XY=              0.8643   XZ=             -1.4008   YZ=             -1.1180
 Octapole moment (field-independent basis, Debye-Ang**2):
  XXX=             99.0776  YYY=              6.4252  ZZZ=              2.5191  XYY=             -9.9181
  XXY=             -3.7914  XXZ=             17.3766  XZZ=             -2.7767  YZZ=              1.3452
  YYZ=              2.0543  XYZ=              7.3242
 Hexadecapole moment (field-independent basis, Debye-Ang**3):
 XXXX=          -3925.3361 YYYY=           -587.8469 ZZZZ=           -232.7274 XXXY=             66.0005
 XXXZ=            -39.7309 YYYX=              5.9220 YYYZ=             -4.0459 ZZZX=             -0.3896
 ZZZY=              0.1670 XXYY=           -648.4551 XXZZ=           -634.7769 YYZZ=           -140.7326
 XXYZ=             -3.5489 YYXZ=              5.1540 ZZXY=             -0.4404
 N-N= 8.776281348324D+02 E-N=-3.197405548874D+03  KE= 6.153694467507D+02
 D1PCM: PCM CHGder 1st derivatives, ID1Alg=3 FixD1E=F DoIter=F DoCFld=F I1PDM=0.
 Calling FoFJK, ICntrl=      2127 FMM=F ISym2X=0 I1Cent= 0 IOpClX= 0 NMat=1 NMatS=1 NMatT=0.
 ***** Axes restored to original set *****
 -------------------------------------------------------------------
 Center     Atomic                   Forces (Hartrees/Bohr)
 Number     Number              X              Y              Z
 -------------------------------------------------------------------
      1        6           0.000047531    0.002655265   -0.002648156
      2        6          -0.005885779   -0.002496379    0.000578599
      3        6          -0.001201694    0.000981742   -0.003158647
      4        6           0.005710716    0.001139939    0.001740278
      5        6           0.000891788   -0.000676333   -0.003495976
      6        8           0.007260051    0.010332363    0.006261523
      7        6           0.002685800    0.003033000    0.001247035
      8        8           0.009939668   -0.000567613    0.006163479
      9        6           0.001995635   -0.001873653   -0.001984750
     10        6          -0.005807748   -0.005407419    0.000129538
     11        6          -0.004607980   -0.004545625    0.001782286
     12        6          -0.006418600   -0.000378763    0.001475345
     13        8           0.000597711   -0.005336226    0.011033122
     14        1           0.000433559   -0.000503055    0.003832200
     15        1          -0.001502564   -0.002000034   -0.002022666
     16        1           0.001809204    0.003145607    0.002745131
     17        1          -0.001585890    0.001780730   -0.005128043
     18        1           0.000493649    0.001754439    0.003456021
     19        1           0.000928732   -0.002940584   -0.000698486
     20        1          -0.000790588    0.002336553   -0.006053059
     21        1          -0.002841861    0.002619344   -0.000469169
     22        1           0.000673701   -0.001973194    0.003174097
     23        1          -0.001811865   -0.001261233    0.001448235
     24        1           0.000563705   -0.000543299   -0.003265738
     25        1           0.000398258    0.000898344    0.003206194
     26        1          -0.002208450    0.000600016   -0.001547396
     27        1          -0.000255034   -0.001708413   -0.008071278
     28        1          -0.000322358   -0.001764254   -0.005368885
     29        1          -0.000568691    0.004518702    0.000593567
     30        1          -0.001549910    0.001624215   -0.005196494
     31        1           0.002929303   -0.003444181    0.000242092
 -------------------------------------------------------------------
 Cartesian Forces:  Max     0.011033122 RMS     0.003550044

 GradGradGradGradGradGradGradGradGradGradGradGradGradGradGradGradGradGrad
 Berny optimization.
 FormGI is forming the generalized inverse of G from B-inverse, IUseBI=4.
 Internal  Forces:  Max     0.010824079 RMS     0.002129569
 Search for a local minimum.
 Step number   1 out of a maximum of  186
 All quantities printed in internal units (Hartrees-Bohrs-Radians)
 Mixed Optimization -- RFO/linear search
 Second derivative matrix not updated -- first step.
 ITU=  0
     Eigenvalues ---    0.00610   0.00693   0.00727   0.00757   0.01432
     Eigenvalues ---    0.01492   0.01879   0.02710   0.02736   0.03112
     Eigenvalues ---    0.03311   0.04113   0.04167   0.04748   0.04777
     Eigenvalues ---    0.04906   0.04922   0.05104   0.05152   0.05188
     Eigenvalues ---    0.05334   0.05704   0.05736   0.06133   0.06179
     Eigenvalues ---    0.06267   0.06309   0.06443   0.07688   0.07949
     Eigenvalues ---    0.07951   0.07965   0.07974   0.07983   0.08357
     Eigenvalues ---    0.08744   0.08982   0.09919   0.10896   0.11484
     Eigenvalues ---    0.11708   0.11714   0.11757   0.12330   0.13154
     Eigenvalues ---    0.14222   0.14512   0.16096   0.16722   0.17717
     Eigenvalues ---    0.19209   0.21041   0.21865   0.25000   0.28613
     Eigenvalues ---    0.28639   0.28776   0.28988   0.29043   0.29252
     Eigenvalues ---    0.30085   0.30541   0.35035   0.35060   0.35068
     Eigenvalues ---    0.35086   0.35118   0.35125   0.35180   0.35185
     Eigenvalues ---    0.35196   0.35244   0.35271   0.35366   0.35376
     Eigenvalues ---    0.35416   0.35440   0.35863   0.35866   0.35880
     Eigenvalues ---    0.41153   0.41520   0.42025   0.42128   0.42669
     Eigenvalues ---    0.480431000.000001000.000001000.000001000.00000
     Eigenvalues --- 1000.000001000.000001000.000001000.000001000.00000
     Eigenvalues --- 1000.000001000.000001000.000001000.000001000.00000
     Eigenvalues --- 1000.000001000.000001000.000001000.000001000.00000
     Eigenvalues --- 1000.000001000.000001000.000001000.000001000.00000
     Eigenvalues --- 1000.000001000.000001000.000001000.000001000.00000
     Eigenvalues --- 1000.000001000.000001000.000001000.000001000.00000
     Eigenvalues --- 1000.000001000.000001000.000001000.000001000.00000
     Eigenvalues --- 1000.000001000.000001000.000001000.000001000.00000
     Eigenvalues --- 1000.000001000.000001000.000001000.000001000.00000
     Eigenvalues --- 1000.000001000.000001000.000001000.000001000.00000
     Eigenvalues --- 1000.000001000.000001000.000001000.000001000.00000
     Eigenvalues --- 1000.000001000.000001000.000001000.000001000.00000
     Eigenvalues --- 1000.000001000.000001000.000001000.000001000.00000
     Eigenvalues --- 1000.000001000.000001000.000001000.000001000.00000
     Eigenvalues --- 1000.000001000.000001000.000001000.000001000.00000
     Eigenvalues --- 1000.000001000.000001000.000001000.000001000.00000
     Eigenvalues --- 1000.000001000.000001000.000001000.000001000.00000
     Eigenvalues --- 1000.000001000.000001000.000001000.000001000.00000
     Eigenvalues --- 1000.000001000.000001000.000001000.000001000.00000
 RFO step:  Lambda=-2.82937609D-03 EMin= 6.10097269D-03
 Linear search not attempted -- first point.
 Iteration  1 RMS(Cart)=  0.03924347 RMS(Int)=  0.00043459
 Iteration  2 RMS(Cart)=  0.00106703 RMS(Int)=  0.00001824
 Iteration  3 RMS(Cart)=  0.00000021 RMS(Int)=  0.00001823
 Iteration  1 RMS(Cart)=  0.00000327 RMS(Int)=  0.00000075
 Iteration  2 RMS(Cart)=  0.00000182 RMS(Int)=  0.00000084
 Iteration  3 RMS(Cart)=  0.00000101 RMS(Int)=  0.00000095
 Iteration  4 RMS(Cart)=  0.00000056 RMS(Int)=  0.00000103
 Variable       Old X    -DE/DX   Delta X   Delta X   Delta X     New X
                                 (Linear)    (Quad)   (Total)
    R1        2.87830  -0.00169   0.00000  -0.00634  -0.00635   2.87195
    R2        2.87766  -0.00056   0.00000  -0.00166  -0.00166   2.87600
    R3        2.05357   0.00374   0.00000   0.01054   0.01054   2.06411
    R4        2.05236   0.00318   0.00000   0.00893   0.00893   2.06130
    R5        2.87824  -0.00045   0.00000  -0.00156  -0.00156   2.87668
    R6        2.67194   0.00605   0.00000   0.01443   0.01444   2.68638
    R7        2.04292   0.00454   0.00000   0.01257   0.01257   2.05549
    R8        2.05577   0.00555   0.00000   0.01569   0.01569   2.07146
    R9        2.89348  -0.00107   0.00000  -0.00415  -0.00418   2.88930
   R10        2.86588  -0.00152   0.00000  -0.00459  -0.00458   2.86130
   R11        2.05383   0.00371   0.00000   0.01047   0.01047   2.06430
   R12        2.05069   0.00314   0.00000   0.00880   0.00880   2.05949
   R13        2.88112  -0.00180   0.00000  -0.00669  -0.00671   2.87442
   R14        2.68760   0.00485   0.00000   0.01143   0.01143   2.69904
   R15        2.05005   0.00650   0.00000   0.01820   0.01820   2.06825
   R16        2.04967   0.00381   0.00000   0.01066   0.01066   2.06033
   R17        2.05375   0.00366   0.00000   0.01031   0.01031   2.06406
   R18        2.66123   0.00846   0.00000   0.01990   0.01993   2.68115
   R19        2.68144   0.00579   0.00000   0.01388   0.01391   2.69536
   R20        2.89001  -0.00066   0.00000  -0.00360  -0.00363   2.88638
   R21        2.05084   0.00263   0.00000   0.00738   0.00738   2.05822
   R22        2.05618   0.00326   0.00000   0.00922   0.00922   2.06541
   R23        2.67164   0.00619   0.00000   0.01466   0.01468   2.68632
   R24        2.87260  -0.00068   0.00000  -0.00246  -0.00246   2.87014
   R25        2.05472   0.00326   0.00000   0.00920   0.00920   2.06392
   R26        2.05281   0.00276   0.00000   0.00775   0.00775   2.06057
   R27        2.61894   0.00527   0.00000   0.01091   0.01091   2.62985
   R28        2.05483   0.00820   0.00000   0.02316   0.02316   2.07799
   R29        2.05535   0.00557   0.00000   0.01574   0.01574   2.07108
   R30        2.04270   0.00459   0.00000   0.01269   0.01269   2.05539
   R31        2.05564   0.00556   0.00000   0.01571   0.01571   2.07136
   R32        2.04296   0.00452   0.00000   0.01250   0.01250   2.05546
    A1        1.92783  -0.00036   0.00000  -0.00661  -0.00666   1.92116
    A2        1.90450   0.00016   0.00000  -0.00359  -0.00358   1.90092
    A3        1.92621  -0.00057   0.00000  -0.00197  -0.00195   1.92426
    A4        1.91050   0.00002   0.00000   0.00108   0.00105   1.91154
    A5        1.91071   0.00049   0.00000   0.00448   0.00448   1.91519
    A6        1.88349   0.00029   0.00000   0.00693   0.00691   1.89039
    A7        1.94381   0.00106   0.00000   0.00394   0.00393   1.94774
    A8        1.93543  -0.00029   0.00000  -0.00261  -0.00261   1.93282
    A9        1.93003  -0.00129   0.00000  -0.00821  -0.00822   1.92181
   A10        1.86066  -0.00064   0.00000  -0.00029  -0.00028   1.86037
   A11        1.90308   0.00063   0.00000   0.00443   0.00445   1.90753
   A12        1.88864   0.00057   0.00000   0.00316   0.00313   1.89178
   A13        1.92489  -0.00065   0.00000  -0.00698  -0.00703   1.91786
   A14        1.92450   0.00081   0.00000   0.00404   0.00401   1.92850
   A15        1.93620  -0.00005   0.00000   0.00307   0.00306   1.93927
   A16        1.88990  -0.00049   0.00000  -0.00621  -0.00620   1.88370
   A17        1.90318   0.00016   0.00000  -0.00084  -0.00081   1.90237
   A18        1.88405   0.00022   0.00000   0.00695   0.00692   1.89096
   A19        1.91347   0.00226   0.00000   0.00355   0.00353   1.91699
   A20        1.89872  -0.00042   0.00000   0.00219   0.00220   1.90093
   A21        1.90875  -0.00072   0.00000  -0.00202  -0.00202   1.90673
   A22        1.93302  -0.00096   0.00000  -0.00254  -0.00253   1.93049
   A23        1.91091  -0.00084   0.00000  -0.00405  -0.00404   1.90687
   A24        1.89874   0.00065   0.00000   0.00288   0.00287   1.90161
   A25        1.92512  -0.00029   0.00000  -0.00590  -0.00596   1.91916
   A26        1.90802   0.00056   0.00000   0.00572   0.00572   1.91374
   A27        1.90900   0.00008   0.00000   0.00146   0.00144   1.91044
   A28        1.93466  -0.00079   0.00000  -0.00468  -0.00466   1.93000
   A29        1.90295   0.00016   0.00000  -0.00320  -0.00318   1.89977
   A30        1.88347   0.00030   0.00000   0.00692   0.00689   1.89036
   A31        1.97986  -0.00506   0.00000  -0.02598  -0.02592   1.95394
   A32        1.92661   0.00205   0.00000  -0.00125  -0.00133   1.92527
   A33        1.91979  -0.00063   0.00000  -0.00064  -0.00061   1.91918
   A34        1.90924  -0.00081   0.00000  -0.00203  -0.00201   1.90723
   A35        1.93167  -0.00052   0.00000   0.00069   0.00072   1.93239
   A36        1.90869  -0.00076   0.00000  -0.00153  -0.00152   1.90717
   A37        1.86678   0.00059   0.00000   0.00489   0.00488   1.87166
   A38        1.97001  -0.00455   0.00000  -0.02455  -0.02451   1.94550
   A39        1.92245   0.00016   0.00000  -0.00394  -0.00401   1.91843
   A40        1.91899   0.00053   0.00000   0.00200   0.00202   1.92101
   A41        1.93544  -0.00064   0.00000  -0.00096  -0.00095   1.93450
   A42        1.90342  -0.00040   0.00000  -0.00181  -0.00179   1.90163
   A43        1.90635   0.00006   0.00000  -0.00029  -0.00027   1.90608
   A44        1.87637   0.00028   0.00000   0.00517   0.00516   1.88153
   A45        1.93160   0.00160   0.00000   0.00776   0.00775   1.93935
   A46        1.90684   0.00005   0.00000  -0.00098  -0.00098   1.90586
   A47        1.93169  -0.00068   0.00000  -0.00228  -0.00228   1.92941
   A48        1.89130  -0.00199   0.00000  -0.01206  -0.01204   1.87926
   A49        1.88706   0.00013   0.00000  -0.00035  -0.00034   1.88671
   A50        1.91482   0.00086   0.00000   0.00779   0.00778   1.92260
   A51        1.93419   0.00093   0.00000   0.00335   0.00337   1.93756
   A52        1.90345   0.00077   0.00000   0.00447   0.00448   1.90793
   A53        1.85175  -0.00074   0.00000  -0.00014  -0.00015   1.85160
   A54        1.93149  -0.00136   0.00000  -0.00797  -0.00799   1.92351
   A55        1.95048  -0.00007   0.00000  -0.00189  -0.00189   1.94859
   A56        1.88999   0.00051   0.00000   0.00270   0.00268   1.89268
   A57        1.94163   0.00113   0.00000   0.00523   0.00522   1.94685
   A58        1.93019  -0.00127   0.00000  -0.00837  -0.00838   1.92181
   A59        1.93604  -0.00035   0.00000  -0.00309  -0.00309   1.93295
   A60        1.90369   0.00064   0.00000   0.00417   0.00419   1.90788
   A61        1.86119  -0.00069   0.00000  -0.00056  -0.00056   1.86063
   A62        1.88898   0.00058   0.00000   0.00302   0.00299   1.89197
   A63        2.05082  -0.01082   0.00000  -0.04281  -0.04281   2.00801
    D1       -0.91699   0.00007   0.00000  -0.00664  -0.00663  -0.92362
    D2       -3.03320   0.00011   0.00000  -0.00708  -0.00708  -3.04028
    D3        1.17832  -0.00002   0.00000  -0.01067  -0.01067   1.16765
    D4        1.18401  -0.00004   0.00000  -0.01170  -0.01168   1.17233
    D5       -0.93220   0.00001   0.00000  -0.01213  -0.01213  -0.94434
[...]
 1530279,-0.00000138,-0.00001248,-0.00000035,0.00026711,-0.00007221,0.0
 0000692,0.00000067,-0.00000154,0.00000137,-0.00000146,-0.00000045,-0.0
 0000007,0.00000448,0.00000170,-0.00000058,-0.00000038,-0.00000018,-0.0
 0000033,0.00042415,-0.00003430,0.00001003,0.00011988,-0.00006931,0.000
 15139,0.00000128,0.00000347,-0.00000125,0.00000221,0.00000139,-0.00000
 082,0.00000172,-0.00000045,0.00000347,-0.00007314,-0.00043862,0.000512
 10,-0.00015692,0.00005884,0.00128219,-0.03160253,0.08399050,0.30472033
 ,-0.00003291,-0.00003240,0.00000384,0.00001543,-0.00000773,-0.00003510
 ,0.00113999,0.00052171,0.00036098,0.00026708,0.00004909,-0.00011876,-0
 .00006455,-0.00001539,0.00004151,-0.00749294,-0.00121461,0.00202859,-0
 .00153638,0.00053274,-0.00040477,-0.00002168,0.00000122,0.00000557,-0.
 22646554,0.05569991,-0.11147745,0.00113976,-0.00232691,-0.00004863,-0.
 01741898,0.00885316,-0.01565308,0.00000642,0.00002920,-0.00000788,-0.0
 0054636,0.00035684,-0.00015257,-0.00000654,0.00000803,-0.00000014,0.00
 000185,0.00000565,0.00000218,-0.00001369,-0.00000520,0.00000340,-0.000
 00110,-0.00000076,0.00000395,-0.00007019,-0.00003361,-0.00010756,-0.00
 012599,-0.00012554,-0.00019847,-0.00000125,-0.00000379,-0.00001135,-0.
 00001567,0.00001835,-0.00000004,-0.00000462,0.00000045,-0.00000712,0.0
 0033203,0.00040476,0.00008346,0.00017576,0.00006043,0.00016073,0.00408
 686,-0.00183690,0.00187702,0.24495236,0.00001050,0.00001241,-0.0000097
 1,-0.00000032,0.00001333,0.00000764,-0.00050330,-0.00677346,-0.0013218
 0,0.00004635,-0.00000025,0.00006153,0.00002060,-0.00000477,-0.00002054
 ,-0.00534926,0.00024905,0.00123841,0.02822434,-0.00793401,0.01723342,-
 0.00000321,0.00000153,0.00000152,0.05533166,-0.06362993,0.03584127,-0.
 00085333,-0.00181644,0.00039333,-0.00952647,0.00373962,-0.00960131,-0.
 00000010,-0.00000922,0.00000104,0.00014868,0.00050603,-0.00018688,-0.0
 0000245,-0.00000011,0.00000126,-0.00000129,-0.00000058,0.00000083,0.00
 000409,0.00000088,-0.00000147,-0.00000019,0.00000010,-0.00000046,-0.00
 015933,0.00010975,0.00009189,0.00199640,-0.00047894,0.00066551,0.00001
 064,0.00000132,-0.00001160,-0.00001145,0.00000984,-0.00000044,-0.00000
 182,0.00000207,-0.00000033,-0.00070704,0.00138914,0.00017270,-0.000292
 19,0.00162692,-0.00038246,-0.00859975,0.00197195,-0.00431353,-0.061230
 62,0.07023166,0.00000617,0.00000500,0.00000133,-0.00000259,-0.00000188
 ,0.00000641,0.00033578,0.00012739,0.00105139,-0.00005663,-0.00000718,0
 .00000504,0.00001296,0.00000733,-0.00000389,0.00401079,0.00077015,0.00
 058565,0.00202614,-0.00111934,-0.00020235,0.00000621,-0.00000046,-0.00
 000131,-0.11425289,0.03653374,-0.12109973,-0.00010735,0.00087778,-0.00
 014100,0.00987678,-0.00490050,0.00632863,-0.00000189,-0.00000502,0.000
 00095,0.00008026,-0.00023389,0.00009004,0.00000213,-0.00000219,-0.0000
 0094,-0.00000008,-0.00000117,-0.00000014,0.00000203,0.00000079,-0.0000
 0062,0.00000016,-0.00000003,-0.00000038,0.00031398,-0.00002841,0.00022
 968,-0.00027950,-0.00006120,0.00019050,0.00000380,-0.00000006,0.000005
 48,0.00001041,-0.00000700,0.00000010,0.00000104,-0.00000064,0.00000177
 ,-0.00007220,0.00013278,-0.00012650,0.00028981,0.00040204,0.00059309,-
 0.02423757,0.00762093,-0.01416363,0.12335037,-0.03947802,0.12597199,-0
 .00000446,0.00010946,-0.00017077,0.00008548,-0.00019347,-0.00010399,-0
 .00137277,0.00358392,0.02369422,0.00336125,0.00141631,-0.00475125,-0.0
 0046930,-0.00038043,0.00035523,0.00256147,0.00582293,0.00335272,0.0014
 3933,0.00025526,0.00066366,-0.00004163,0.00005365,0.00001066,-0.000177
 61,-0.00016217,-0.00011900,-0.05688574,0.00235573,0.03329786,0.0012810
 0,0.00076951,0.00151472,0.00001903,0.00000902,0.00000753,-0.01408463,-
 0.00280025,-0.03787746,0.00000542,0.00002152,0.00005808,0.00007204,0.0
 0006203,0.00007673,-0.00006990,-0.00001833,0.00001521,-0.00003081,-0.0
 0000881,0.00002717,-0.00319183,-0.00244651,0.00222743,0.00062582,-0.00
 019247,-0.00066577,-0.00039693,-0.00050881,0.00015461,0.00002031,-0.00
 002242,-0.00000149,-0.00005692,-0.00006381,0.00017738,0.00007428,-0.00
 009229,-0.00019343,-0.00009226,-0.00011623,-0.00031929,0.00002547,0.00
 000882,-0.00005813,-0.00003242,0.00006643,-0.00000351,0.06733279,-0.00
 010235,0.00005569,-0.00005834,-0.00004390,0.00007812,0.00004121,-0.003
 18972,0.00557217,0.01640177,-0.00121731,-0.00043710,-0.00046757,0.0000
 7985,0.00003551,-0.00005579,0.01123548,-0.03366156,-0.03532054,0.00083
 563,0.00006029,0.00003851,0.00000244,-0.00001681,0.00000284,0.00039528
 ,-0.00018370,0.00049185,0.00143884,-0.05673100,-0.04536806,-0.00412587
 ,0.00100365,-0.00410026,-0.00001083,-0.00006252,-0.00003385,0.00408374
 ,0.00536069,0.01079209,-0.00002499,-0.00001366,0.00002788,-0.00005681,
 -0.00007200,-0.00005612,0.00003099,0.00000891,-0.00000753,0.00000684,0
 .00000163,-0.00000509,-0.00287175,-0.00090647,0.00186596,0.00088253,0.
 00070330,-0.00056711,-0.00041013,-0.00020677,-0.00033091,0.00001000,0.
 00002222,-0.00000224,0.00000602,-0.00000896,-0.00001300,0.00004451,-0.
 00009718,-0.00016082,0.00000954,-0.00001233,-0.00033886,-0.00004399,-0
 .00001308,-0.00000952,0.00021175,0.00019545,-0.00005320,-0.00740570,0.
 07889599,-0.00049541,-0.00045054,0.00057621,-0.00000237,-0.00015004,-0
 .00015232,0.00179162,-0.00237091,-0.01302735,0.00360079,0.00221045,0.0
 0016331,-0.00018836,-0.00022805,0.00057526,0.00136451,-0.00887236,-0.0
 0107787,-0.00043899,-0.00018060,0.00030365,-0.00003902,-0.00002812,0.0
 0000653,0.00002798,-0.00019585,0.00012234,0.02698009,-0.04764170,-0.27
 629363,-0.00019516,0.00109880,0.00125225,-0.00008915,0.00029354,-0.000
 06778,-0.01336447,0.00059536,-0.02110199,0.00006981,-0.00007692,-0.000
 05291,-0.00009821,-0.00003640,-0.00008198,-0.00006945,-0.00002466,0.00
 002226,-0.00001398,-0.00001017,0.00000995,0.00142604,0.00118612,-0.000
 33370,-0.00004710,0.00021573,0.00025988,-0.00062832,-0.00052894,0.0009
 7374,0.00000432,0.00000890,-0.00001290,0.00011520,0.00018608,0.0000469
 3,0.00011607,0.00011944,0.00028349,0.00035966,-0.00015349,0.00042676,-
 0.00005435,0.00002795,-0.00018982,0.00007342,-0.00005813,-0.00001715,-
 0.02129720,0.05554250,0.30678071,-0.00004848,-0.00004338,0.00003281,0.
 00001620,0.00000120,-0.00003216,-0.00012318,0.00034591,0.00017701,0.00
 027404,0.00009811,-0.00015468,-0.00004210,-0.00004718,0.00003821,-0.00
 956364,-0.00076601,-0.03847227,0.00075772,0.00137637,-0.00039278,-0.00
 002302,-0.00000065,0.00000567,-0.00331427,0.00670376,0.02749595,0.0015
 4237,-0.00512256,-0.00202368,-0.05177170,0.00892923,0.03313324,-0.0000
 0109,0.00003222,-0.00000984,-0.00079849,0.00055308,0.00034796,0.000000
 95,0.00000289,-0.00000357,0.00000219,0.00000298,0.00000126,-0.00001236
 ,-0.00000398,0.00000297,-0.00000262,-0.00000130,0.00000415,-0.00005941
 ,0.00002645,0.00004017,0.00020701,0.00010453,-0.00001206,0.00002386,-0
 .00002382,0.00003460,-0.00002583,0.00001889,-0.00000549,-0.00000164,-0
 .00000079,-0.00000443,-0.00006099,0.00007644,-0.00029016,0.00017497,-0
 .00032787,-0.00045304,-0.00384960,-0.00341368,0.00252214,0.00100979,0.
 00047061,-0.00076387,0.00000586,0.00012518,0.00092947,0.06471718,0.000
 00844,0.00000251,-0.00000253,-0.00000091,0.00000067,-0.00000164,-0.000
 01255,-0.00029041,-0.00001930,-0.00001933,-0.00003759,0.00001355,-0.00
 000899,0.00001502,-0.00000193,0.00218760,0.00309653,0.01091437,0.00030
 474,0.00124612,0.00081004,0.00000188,-0.00000025,0.00000154,-0.0028651
 8,0.00356091,0.01442645,0.00017059,0.00180593,0.00342770,0.00709414,-0
 .07298640,-0.06448053,0.00000111,-0.00000130,-0.00000097,0.00024702,-0
 .00025327,-0.00014518,-0.00000008,-0.00000108,0.00000066,0.00000086,0.
 00000120,-0.00000013,0.00000035,0.00000010,0.00000044,-0.00000095,-0.0
 0000072,0.00000131,0.00005943,-0.00005350,-0.00012912,-0.00004037,-0.0
 0003352,-0.00002786,-0.00000188,0.00001189,-0.00000655,0.00001499,-0.0
 0000141,0.00000049,-0.00000198,-0.00000324,0.00000202,0.00004546,0.000
 11855,-0.00014831,-0.00007725,0.00019069,-0.00022066,-0.00225691,-0.00
 040974,0.00150112,0.00045529,0.00047104,-0.00055492,-0.00011247,0.0004
 2092,-0.00035809,-0.00877124,0.06913412,-0.00004400,-0.00003828,0.0000
 0573,0.00001442,0.00000025,-0.00003661,-0.00013735,0.00036981,0.000098
 71,0.00022143,0.00004513,-0.00012275,-0.00005634,-0.00002694,0.0000443
 3,-0.01408433,0.00186631,-0.02077155,-0.00081482,-0.00056748,0.0005521
 3,-0.00002074,0.00000117,0.00000957,0.00344393,-0.00451664,-0.01272250
 ,0.00144528,-0.00354236,0.00033180,0.03047959,-0.06055474,-0.27767808,
 0.00000304,0.00003104,-0.00001239,-0.00057180,0.00044023,0.00046330,-0
 .00000593,0.00000686,-0.00000020,0.00000249,0.00000582,0.00000196,-0.0
 0001190,-0.00000495,0.00000348,-0.00000189,-0.00000298,0.00000657,0.00
 003489,-0.00011388,-0.00007407,0.00002927,0.00013896,-0.00008482,-0.00
 002596,0.00000643,-0.00002802,-0.00001200,0.00001946,0.00000257,-0.000
 00113,-0.00000099,-0.00000637,0.00005788,0.00006977,0.00027154,-0.0001
 1367,0.00057838,0.00006325,0.00217907,0.00113965,0.00008721,0.00037634
 ,0.00007952,0.00035525,-0.00013209,0.00123214,0.00013507,-0.02352285,0
 .06480062,0.30983316,-0.00010417,-0.00009614,0.00006193,0.00001301,-0.
 00002868,-0.00004628,-0.00049031,0.00056126,-0.00007794,0.00061483,0.0
 0023847,-0.00031030,-0.00006989,0.00000545,0.00007249,-0.01081753,0.03
 893342,-0.00108327,-0.00504895,-0.00127662,0.00304156,-0.00001555,-0.0
 0001184,-0.00000161,0.00377304,-0.02772255,-0.00310652,-0.00241891,-0.
 00326478,-0.00271947,-0.04782227,0.00363475,0.00134437,0.00000091,0.00
 007282,-0.00000178,-0.00200784,0.00212180,-0.00086289,0.00000048,-0.00
 000009,0.00000008,0.00000738,0.00000528,0.00000340,-0.00002251,-0.0000
 0720,0.00000611,-0.00000267,-0.00000117,0.00000551,0.00009665,-0.00000
 619,0.00002537,0.00032571,0.00011079,-0.00003536,0.00000257,-0.0000271
 2,0.00002856,0.00001115,-0.00000840,-0.00000358,0.00000014,-0.00000233
 ,-0.00000799,0.00026121,-0.00196213,0.00019930,-0.00003049,0.00020352,
 -0.00012041,0.00111146,0.00095756,-0.00021043,0.00073641,0.00090890,-0
 .00055301,0.00002321,0.00007687,0.00026470,0.00097914,0.00357785,0.001
 28329,0.06092316,0.00005704,0.00006133,-0.00002646,-0.00001055,0.00000
 755,0.00004075,-0.00004726,0.00027467,-0.00033958,-0.00036102,-0.00011
 628,0.00017463,0.00006955,0.00001500,-0.00004735,0.00659953,-0.0100254
 8,0.00167861,-0.00310110,0.00042017,0.00161694,0.00001738,0.00000545,-
 0.00000397,0.00031177,-0.01190059,-0.00221615,-0.00009757,0.00391807,0
 .00109516,0.01265457,-0.32078739,-0.02430267,-0.00000235,-0.00004551,0
 .00000757,0.00084337,-0.00076349,0.00024367,0.00000129,-0.00000471,0.0
 0000177,-0.00000370,-0.00000355,-0.00000150,0.00001574,0.00000677,-0.0
 0000408,0.00000102,0.00000208,-0.00000672,0.00002898,-0.00001001,0.000
 04488,0.00001205,-0.00009847,0.00000907,0.00000405,0.00001073,-0.00001
 056,0.00001789,-0.00001833,0.00000086,0.00000402,0.00000183,0.00000712
 ,0.00024480,-0.00097641,0.00000043,0.00003443,0.00013971,-0.00007876,0
 .00037536,0.00078278,0.00021895,-0.00036979,0.00011410,-0.00002390,0.0
 0000422,0.00000159,-0.00008161,-0.00034026,-0.00600405,-0.00145596,-0.
 01698140,0.34498445,-0.00006031,-0.00005250,0.00003996,0.00000452,-0.0
 0002070,-0.00002479,-0.00002383,-0.00002869,0.00005649,0.00026483,0.00
 010413,-0.00018184,-0.00004558,0.00000360,0.00004343,-0.00699741,0.023
 31855,0.00015213,0.00228377,0.00063979,-0.00027403,-0.00000826,-0.0000
 0352,-0.00000191,0.00011057,0.01478082,0.00112171,-0.00099059,-0.00212
 764,-0.00129754,0.00371488,-0.03237199,-0.05440641,-0.00000173,0.00003
 964,-0.00000052,-0.00128757,0.00098538,-0.00012831,0.00000183,-0.00000
 100,-0.00000041,0.00000325,0.00000359,0.00000160,-0.00001233,-0.000004
 00,0.00000381,-0.00000012,-0.00000014,0.00000170,-0.00002401,-0.000010
 83,-0.00003808,0.00006199,0.00006347,-0.00004201,-0.00001457,-0.000019
 72,0.00001425,0.00000559,-0.00000508,0.00000262,0.00000133,0.00000073,
 -0.00000522,0.00001932,0.00069917,0.00020229,-0.00004165,0.00032682,0.
 00020770,-0.00098763,-0.00008530,0.00066649,-0.00015583,-0.00040223,0.
 00034155,0.00003615,0.00050987,0.00042896,0.00136759,-0.02980321,-0.00
 073877,0.00279106,0.02346801,0.05384788,0.00316269,-0.01152026,0.02750
 521,-0.00062647,0.00156507,0.00162360,0.00000289,0.00000107,-0.0000041
 3,0.00151814,-0.00082383,0.00077439,-0.00014420,-0.00023250,0.00009044
 ,-0.00002355,0.00002905,-0.00002051,-0.00000142,-0.00000007,0.00000444
 ,-0.00233327,-0.00242618,-0.01873576,-0.00000101,-0.00000045,-0.000002
 20,0.00002266,0.00002589,-0.00001424,0.00000378,0.00000653,0.00000789,
 -0.05662023,0.01515210,-0.02813538,-0.00018522,0.00005455,-0.00035640,
 -0.00467922,-0.00164552,0.00235949,0.00112516,0.00036007,-0.00087608,-
 0.00001857,-0.00015277,0.00010839,0.00037385,-0.00032341,0.00034628,-0
 .00000005,-0.00000038,0.00000151,-0.00000121,0.00000070,0.00000069,-0.
 00001018,0.00012001,-0.00028596,0.00010847,0.00008105,-0.00000817,-0.0
 0002029,0.00006439,-0.00010498,-0.00000148,0.00000048,-0.00000071,0.00
 000047,-0.00000019,-0.00000021,0.00000026,0.00000034,-0.00000021,-0.00
 000061,0.00000021,0.00000019,-0.00001341,0.00000073,-0.00000598,-0.000
 00081,-0.00000066,-0.00000142,-0.00000371,0.00000171,-0.00000115,0.060
 07921,0.00152473,-0.00407157,0.01207501,-0.00285174,0.00415943,-0.0031
 1256,-0.00001841,0.00000971,-0.00001568,0.00084688,-0.00017972,-0.0006
 3695,0.00026811,-0.00047482,0.00020470,-0.00004923,0.00003895,-0.00001
 767,-0.00000301,-0.00000610,0.00000909,-0.00763451,-0.00002242,-0.0338
 3882,-0.00000232,-0.00000050,-0.00000413,0.00007087,-0.00002204,0.0000
 8457,0.00001367,0.00000206,0.00001497,0.01758007,-0.08894489,0.0919558
 7,-0.00029026,0.00002279,-0.00017755,-0.00285765,0.00025464,0.00090236
 ,0.00029694,0.00032078,-0.00022747,-0.00007202,0.00007948,0.00009984,-
 0.00012460,0.00045501,0.00136815,0.00000001,-0.00000150,0.00000156,-0.
 00000034,-0.00000049,0.00000113,-0.00020190,0.00042115,-0.00013809,0.0
 0018827,0.00011481,0.00004961,-0.00002715,-0.00011232,0.00007939,-0.00
 000475,0.00000054,-0.00000121,-0.00000071,-0.00000028,-0.00000131,0.00
 000021,0.00000063,0.00000018,-0.00000236,0.00000035,0.00000043,-0.0000
 1532,-0.00000018,-0.00000705,-0.00000137,0.00000023,-0.00000309,-0.000
 00386,0.00000274,-0.00000245,-0.00873897,0.09452939,-0.00065987,0.0064
 1127,-0.01059601,-0.00162253,0.00303669,0.00103889,0.00002651,-0.00001
 357,0.00002326,-0.00115328,0.00008940,-0.00000028,0.00027561,-0.000354
 58,0.00001556,0.00007285,-0.00004780,0.00003516,0.00000355,0.00000728,
 -0.00001278,-0.01020914,-0.00884669,-0.02691904,0.00000350,0.00000011,
 0.00000604,-0.00007859,0.00002480,-0.00013126,-0.00001604,0.00000113,-
 0.00002150,-0.02688153,0.08773093,-0.25594153,0.00035396,0.00002602,0.
 00029935,0.00191714,0.00083072,0.00027361,0.00035861,0.00020163,0.0003
 1269,0.00013996,-0.00034524,0.00038789,0.00082176,-0.00076108,0.000169
 27,-0.00000039,0.00000064,-0.00000057,-0.00000049,0.00000053,-0.000000
 60,0.00033428,-0.00039181,-0.00002781,0.00013784,-0.00002936,-0.000089
 12,-0.00005911,0.00010319,-0.00005132,0.00000621,-0.00000081,0.0000022
 0,0.00000072,0.00000055,0.00000231,-0.00000057,-0.00000049,-0.00000020
 ,0.00000331,-0.00000037,-0.00000044,0.00001237,0.00000122,0.00001422,0
 .00000280,0.00000087,0.00000572,0.00000513,-0.00000379,0.00000259,0.03
 623063,-0.08864639,0.28882516,-0.02014036,0.02027550,-0.00001962,-0.00
 015941,-0.00207343,-0.00139817,-0.00016880,0.00009556,-0.00015923,-0.0
 0076521,-0.00509792,0.00153905,0.00014299,-0.00043870,-0.00031039,-0.0
 0028246,0.00023806,-0.00013016,-0.00002718,-0.00006663,0.00006541,0.01
 216994,-0.01333972,-0.00119927,-0.00000694,-0.00000361,-0.00002232,0.0
 0064366,-0.00028674,0.00093111,0.00008969,0.00001606,0.00006528,-0.192
 21819,0.14224675,0.00338778,-0.00317506,0.00105518,0.00041964,0.001561
 00,-0.00006680,-0.00000407,0.00073386,-0.00017874,-0.00045597,0.000430
 53,-0.00050527,-0.00015809,-0.00004746,-0.00004730,0.00006544,0.000002
 14,0.00000220,0.00000038,-0.00000382,-0.00001019,0.00000004,0.00006102
 ,-0.00010766,-0.00018203,0.00013431,0.00021248,0.00001397,0.00004658,0
 .00007208,0.00006065,-0.00003947,0.00000599,-0.00001496,-0.00000509,0.
 00000101,-0.00000766,-0.00000033,0.00000234,0.00000447,-0.00001230,0.0
 0000275,0.00000210,-0.00001213,0.00002712,-0.00009615,-0.00001206,0.00
 000102,-0.00001269,-0.00002566,0.00001626,-0.00001411,-0.00171266,0.00
 211072,-0.00002521,0.20279891,-0.00999118,0.01195647,0.00086228,-0.004
 56411,-0.00064930,-0.00330429,-0.00006393,0.00002925,-0.00005671,-0.00
 163364,-0.00130087,0.00099331,-0.00001154,-0.00026459,0.00012475,-0.00
 007414,0.00006852,-0.00003651,-0.00001208,-0.00002398,0.00002028,0.017
 10766,-0.02803190,-0.00562031,-0.00000100,-0.00000262,-0.00000561,0.00
 012358,-0.00008102,0.00034821,0.00002487,0.00001039,0.00001474,0.13340
 279,-0.17957001,-0.00228267,-0.00138722,0.00044275,0.00021680,0.000599
 40,0.00039718,-0.00030803,0.00099287,0.00027780,-0.00040587,0.00104530
 ,-0.00118773,-0.00036142,-0.00003218,0.00009966,0.00010260,0.00000059,
 0.00000154,-0.00000067,-0.00000103,-0.00000277,0.00000041,-0.00001245,
 0.00000932,-0.00008948,0.00022182,0.00014267,-0.00000835,0.00005202,0.
 00006154,0.00000801,-0.00001323,0.00000242,-0.00000532,-0.00000173,0.0
 0000044,-0.00000203,-0.00000010,0.00000068,0.00000123,-0.00000298,0.00
 000118,0.00000066,0.00000070,0.00000719,-0.00003125,-0.00000373,0.0000
 0005,-0.00000328,-0.00000824,0.00000524,-0.00000458,0.00840126,-0.0065
 7585,0.00097500,-0.14415835,0.20417635,0.01118949,-0.00897380,-0.00049
 297,-0.00256913,-0.00109062,-0.00183240,0.00004955,-0.00002706,0.00004
 790,0.00075442,0.00193460,0.00018825,-0.00006115,-0.00006257,-0.000030
 84,0.00009693,-0.00007357,0.00005062,0.00001013,0.00001831,-0.00002087
 ,0.01497675,-0.02291775,-0.00322451,0.00000207,0.00000098,0.00000764,-
 0.00014723,0.00007719,-0.00029506,-0.00002868,-0.00000448,-0.00001849,
 -0.00270921,0.00465390,-0.05151040,0.00115951,-0.00027152,0.00005361,-
 0.00066924,-0.00068773,0.00050903,-0.00036492,0.00013081,0.00034682,0.
 00060014,-0.00093918,0.00013792,0.00024791,-0.00031790,0.00039546,-0.0
 0000028,-0.00000091,-0.00000126,0.00000106,0.00000279,0.00000016,0.000
 15794,-0.00035449,0.00013048,0.00012853,0.00006037,-0.00004398,-0.0000
 2133,0.00000885,-0.00003557,0.00001201,-0.00000182,0.00000458,0.000001
 02,-0.00000015,0.00000210,-0.00000003,-0.00000065,-0.00000113,0.000004
 07,-0.00000061,-0.00000078,0.00001168,0.00000095,0.00002788,0.00000489
 ,-0.00000027,0.00000477,0.00000800,-0.00000536,0.00000466,-0.02049967,
 0.01998356,0.00237858,-0.00234522,0.00885812,0.05321783\\0.00005817,0.
 00004398,0.00014944,0.00000131,0.00002251,0.00000454,-0.00000100,0.000
 01141,-0.00000174,-0.00010014,0.00000246,-0.00016531,0.00000008,0.0000
 0029,0.00000417,0.00000103,0.00002807,-0.00000047,-0.00001418,-0.00001
 057,0.00000921,-0.00000006,0.00000019,-0.00000292,-0.00000750,-0.00000
 310,0.00000086,-0.00001350,0.00010062,0.00008556,0.00001054,-0.0000034
 4,0.00000141,0.00001305,-0.00001172,-0.00001087,0.00003815,-0.00018933
 ,-0.00009975,-0.00000094,0.00000224,-0.00000714,0.00000469,0.00000325,
 0.00000102,-0.00000179,0.00000069,-0.00000296,0.00000184,-0.00000041,0
 .00000732,-0.00000208,-0.00000625,-0.00000649,0.00000063,0.00000087,0.
 00000101,0.00000575,-0.00000076,0.00001273,0.00000164,-0.00000406,0.00
 000180,-0.00000210,-0.00000024,-0.00000545,0.00000179,-0.00000183,-0.0
 0000614,0.00000020,-0.00000010,0.00000056,0.00000012,-0.00000506,0.000
 00079,0.00000319,-0.00000068,0.00000640,-0.00000019,0.00001485,0.00001
 499,-0.00000063,0.00000349,0.00000703,0.00000185,-0.00000478,0.0000016
 7,0.00000152,0.00000172,0.00000464,-0.00000145,0.00000568,-0.00000590\
 \\@


 HOW IS IT THAT THE SKY FEEDS THE STARS?

                           -- LUCRETIUS
 Job cpu time:       0 days 12 hours 28 minutes  1.0 seconds.
 Elapsed time:       0 days  1 hours  2 minutes 36.1 seconds.
 File lengths (MBytes):  RWF=    722 Int=      0 D2E=      0 Chk=     34 Scr=      1
 Normal termination of Gaussian 16 at Sat Mar  9 17:37:24 2019.
