 Entering Gaussian System, Link 0=g16
 Initial command:
 /sw/Projects/G16/g16/l1.exe "/nvme/pbs/tmpdir/pbs.74205[6].flm1/Gau-18461.inp" -scrdir="/nvme/pbs/tmpdir/pbs.74205[6].flm1/"
 Entering Link 1 = /sw/Projects/G16/g16/l1.exe PID=     18462.
  
 Copyright (c) 1988-2017, Gaussian, Inc.  All Rights Reserved.
  
 This is part of the Gaussian(R) 16 program.  It is based on
 the Gaussian(R) 09 system (copyright 2009, Gaussian, Inc.),
 the Gaussian(R) 03 system (copyright 2003, Gaussian, Inc.),
 the Gaussian(R) 98 system (copyright 1998, Gaussian, Inc.),
 the Gaussian(R) 94 system (copyright 1995, Gaussian, Inc.),
 the Gaussian 92(TM) system (copyright 1992, Gaussian, Inc.),
 the Gaussian 90(TM) system (copyright 1990, Gaussian, Inc.),
 the Gaussian 88(TM) system (copyright 1988, Gaussian, Inc.),
 the Gaussian 86(TM) system (copyright 1986, Carnegie Mellon
 University), and the Gaussian 82(TM) system (copyright 1983,
 Carnegie Mellon University). Gaussian is a federally registered
 trademark of Gaussian, Inc.
  
 This software contains proprietary and confidential information,
 including trade secrets, belonging to Gaussian, Inc.
  
 This software is provided under written license and may be
 used, copied, transmitted, or stored only in accord with that
 written license.
  
 The following legend is applicable only to US Government
 contracts under FAR:
  
                    RESTRICTED RIGHTS LEGEND
  
 Use, reproduction and disclosure by the US Government is
 subject to restrictions as set forth in subparagraphs (a)
 and (c) of the Commercial Computer Software - Restricted
 Rights clause in FAR 52.227-19.
  
 Gaussian, Inc.
 340 Quinnipiac St., Bldg. 40, Wallingford CT 06492
  
  
 ---------------------------------------------------------------
 Warning -- This program may not be used in any manner that
 competes with the business of Gaussian, Inc. or will provide
 assistance to any competitor of Gaussian, Inc.  The licensee
 of this program is prohibited from giving any competitor of
 Gaussian, Inc. access to this program.  By using this program,
 the user acknowledges that Gaussian, Inc. is engaged in the
 business of creating and licensing software in the field of
 computational chemistry and represents and warrants to the
 licensee that it is not a competitor of Gaussian, Inc. and that
 it will not use this program in any manner prohibited above.
 ---------------------------------------------------------------
  

 Cite this work as:
 Gaussian 16, Revision B.01,
 M. J. Frisch, G. W. Trucks, H. B. Schlegel, G. E. Scuseria, 
 M. A. Robb, J. R. Cheeseman, G. Scalmani, V. Barone, 
 G. A. Petersson, H. Nakatsuji, X. Li, M. Caricato, A. V. Marenich, 
 J. Bloino, B. G. Janesko, R. Gomperts, B. Mennucci, H. P. Hratchian, 
 J. V. Ortiz, A. F. Izmaylov, J. L. Sonnenberg, D. Williams-Young, 
 F. Ding, F. Lipparini, F. Egidi, J. Goings, B. Peng, A. Petrone, 
 T. Henderson, D. Ranasinghe, V. G. Zakrzewski, J. Gao, N. Rega, 
 G. Zheng, W. Liang, M. Hada, M. Ehara, K. Toyota, R. Fukuda, 
 J. Hasegawa, M. Ishida, T. Nakajima, Y. Honda, O. Kitao, H. Nakai, 
 T. Vreven, K. Throssell, J. A. Montgomery, Jr., J. E. Peralta, 
 F. Ogliaro, M. J. Bearpark, J. J. Heyd, E. N. Brothers, K. N. Kudin, 
 V. N. Staroverov, T. A. Keith, R. Kobayashi, J. Normand, 
 K. Raghavachari, A. P. Rendell, J. C. Burant, S. S. Iyengar, 
 J. Tomasi, M. Cossi, J. M. Millam, M. Klene, C. Adamo, R. Cammi, 
 J. W. Ochterski, R. L. Martin, K. Morokuma, O. Farkas, 
 J. B. Foresman, and D. J. Fox, Gaussian, Inc., Wallingford CT, 2016.
 
 ******************************************
 Gaussian 16:  ES64L-G16RevB.01 20-Dec-2017
                 9-Mar-2019 
 ******************************************
 %mem=20gb
 %nproc=12
 Will use up to   12 processors via shared memory.
 %chk=4c1_b1_e3_4c1_PSI.inp_extract_6.chk
 ----------------------------------------------------------------------
 #M062X/6-311++G(2d,2p) opt=ModRedundant freq=noraman SCRF=(SMD,solvent
 =water)
 ----------------------------------------------------------------------
 1/18=120,19=15,26=3,38=1/1,3;
 2/9=110,12=2,17=6,18=5,40=1/2;
 3/5=4,6=6,7=1212,11=2,25=1,30=1,70=32201,71=1,72=1,74=-55/1,2,3;
 4//1;
 5/5=2,38=5,53=1/2;
 6/7=2,8=2,9=2,10=2,28=1/1;
 7//1,2,3,16;
 1/18=20,19=15,26=3/3(2);
 2/9=110/2;
 99//99;
 2/9=110/2;
 3/5=4,6=6,7=1212,11=2,25=1,30=1,70=32205,71=1,72=1,74=-55/1,2,3;
 4/5=5,16=3,69=1/1;
 5/5=2,38=5,53=1/2;
 7//1,2,3,16;
 1/18=20,19=15,26=3/3(-5);
 2/9=110/2;
 6/7=2,8=2,9=2,10=2,19=2,28=1/1;
 99/9=1/99;
 -------------------------------
 4c1_b1_e3_4c1_PSI.inp_extract_6
 -------------------------------
 Symbolic Z-matrix:
 Charge =  0 Multiplicity = 1
 C                     1.42509   0.9657   -0.36374 
 C                     3.6805   -0.72337   0.20059 
 C                    -2.19983  -1.35821  -0.27576 
 C                     1.25021  -0.25298   0.53834 
 C                     2.27778  -1.31398   0.17003 
 O                    -1.62129   0.72706   0.77498 
 C                    -3.48868  -0.7307   -0.81355 
 O                     3.77496   0.4137   -0.63483 
 C                    -3.91781   0.44338   0.06741 
 C                    -1.13888  -0.29223  -0.073 
 C                    -2.75594   1.40447   0.26023 
 C                     2.87203   1.43847  -0.27206 
 O                    -0.03919  -0.8684    0.54019 
 H                     1.21009   0.71441  -1.39745 
 H                     0.77127   1.77803  -0.06812 
 H                     4.40799  -1.43561  -0.16264 
 H                     3.95491  -0.44266   1.21488 
 H                    -2.38649  -1.84092   0.67991 
 H                    -1.81933  -2.10906  -0.96075 
 H                     1.42935   0.06596   1.56049 
 H                     2.22336  -2.14696   0.86443 
 H                     2.06129  -1.69249  -0.82544 
 H                    -4.27314  -1.4791   -0.86338 
 H                    -3.32235  -0.37748  -1.82926 
 H                    -4.24207   0.07882   1.03916 
 H                    -4.75348   0.97637  -0.37722 
 H                    -0.86931   0.15303  -1.0223 
 H                    -2.4903    1.87838  -0.6822 
 H                    -2.99244   2.18067   0.97456 
 H                     3.10203   1.77738   0.73538 
 H                     3.04592   2.25896  -0.95381 
 
 The following ModRedundant input section has been read:
 D       1       4      13      10 F                                           
 

 GradGradGradGradGradGradGradGradGradGradGradGradGradGradGradGradGradGrad
 Berny optimization.
 Initialization pass.
                           ----------------------------
                           !    Initial Parameters    !
                           ! (Angstroms and Degrees)  !
 --------------------------                            --------------------------
 ! Name  Definition              Value          Derivative Info.                !
 --------------------------------------------------------------------------------
 ! R1    R(1,4)                  1.5263         estimate D2E/DX2                !
 ! R2    R(1,12)                 1.525          estimate D2E/DX2                !
 ! R3    R(1,14)                 1.0853         estimate D2E/DX2                !
 ! R4    R(1,15)                 1.0839         estimate D2E/DX2                !
 ! R5    R(2,5)                  1.5223         estimate D2E/DX2                !
 ! R6    R(2,8)                  1.4141         estimate D2E/DX2                !
 ! R7    R(2,16)                 1.0809         estimate D2E/DX2                !
 ! R8    R(2,17)                 1.0876         estimate D2E/DX2                !
 ! R9    R(3,7)                  1.5311         estimate D2E/DX2                !
 ! R10   R(3,10)                 1.5176         estimate D2E/DX2                !
 ! R11   R(3,18)                 1.0868         estimate D2E/DX2                !
 ! R12   R(3,19)                 1.0852         estimate D2E/DX2                !
 ! R13   R(4,5)                  1.5223         estimate D2E/DX2                !
 ! R14   R(4,13)                 1.4287         estimate D2E/DX2                !
 ! R15   R(4,20)                 1.0856         estimate D2E/DX2                !
 ! R16   R(5,21)                 1.0858         estimate D2E/DX2                !
 ! R17   R(5,22)                 1.0868         estimate D2E/DX2                !
 ! R18   R(6,10)                 1.4109         estimate D2E/DX2                !
 ! R19   R(6,11)                 1.4182         estimate D2E/DX2                !
 ! R20   R(7,9)                  1.5293         estimate D2E/DX2                !
 ! R21   R(7,23)                 1.0853         estimate D2E/DX2                !
 ! R22   R(7,24)                 1.0882         estimate D2E/DX2                !
 ! R23   R(8,12)                 1.4132         estimate D2E/DX2                !
 ! R24   R(9,11)                 1.5201         estimate D2E/DX2                !
 ! R25   R(9,25)                 1.0874         estimate D2E/DX2                !
 ! R26   R(9,26)                 1.0863         estimate D2E/DX2                !
 ! R27   R(10,13)                1.3847         estimate D2E/DX2                !
 ! R28   R(10,27)                1.0826         estimate D2E/DX2                !
 ! R29   R(11,28)                1.0878         estimate D2E/DX2                !
 ! R30   R(11,29)                1.0811         estimate D2E/DX2                !
 ! R31   R(12,30)                1.0875         estimate D2E/DX2                !
 ! R32   R(12,31)                1.0808         estimate D2E/DX2                !
 ! A1    A(4,1,12)             108.707          estimate D2E/DX2                !
 ! A2    A(4,1,14)             110.8146         estimate D2E/DX2                !
 ! A3    A(4,1,15)             111.5993         estimate D2E/DX2                !
 ! A4    A(12,1,14)            108.4815         estimate D2E/DX2                !
 ! A5    A(12,1,15)            108.8818         estimate D2E/DX2                !
 ! A6    A(14,1,15)            108.2891         estimate D2E/DX2                !
 ! A7    A(5,2,8)              111.2012         estimate D2E/DX2                !
 ! A8    A(5,2,16)             110.9631         estimate D2E/DX2                !
 ! A9    A(5,2,17)             110.5693         estimate D2E/DX2                !
 ! A10   A(8,2,16)             106.6389         estimate D2E/DX2                !
 ! A11   A(8,2,17)             109.06           estimate D2E/DX2                !
 ! A12   A(16,2,17)            108.2786         estimate D2E/DX2                !
 ! A13   A(7,3,10)             110.3377         estimate D2E/DX2                !
 ! A14   A(7,3,18)             110.2626         estimate D2E/DX2                !
 ! A15   A(7,3,19)             110.9165         estimate D2E/DX2                !
 ! A16   A(10,3,18)            108.3347         estimate D2E/DX2                !
 ! A17   A(10,3,19)            108.978          estimate D2E/DX2                !
 ! A18   A(18,3,19)            107.9353         estimate D2E/DX2                !
 ! A19   A(1,4,5)              109.6445         estimate D2E/DX2                !
 ! A20   A(1,4,13)             116.6226         estimate D2E/DX2                !
 ! A21   A(1,4,20)             107.6374         estimate D2E/DX2                !
 ! A22   A(5,4,13)             108.0161         estimate D2E/DX2                !
 ! A23   A(5,4,20)             108.7337         estimate D2E/DX2                !
 ! A24   A(13,4,20)            105.9164         estimate D2E/DX2                !
 ! A25   A(2,5,4)              110.2881         estimate D2E/DX2                !
 ! A26   A(2,5,21)             109.3278         estimate D2E/DX2                !
 ! A27   A(2,5,22)             109.698          estimate D2E/DX2                !
 ! A28   A(4,5,21)             110.2513         estimate D2E/DX2                !
 ! A29   A(4,5,22)             109.2628         estimate D2E/DX2                !
 ! A30   A(21,5,22)            107.9756         estimate D2E/DX2                !
 ! A31   A(10,6,11)            113.6082         estimate D2E/DX2                !
 ! A32   A(3,7,9)              110.3976         estimate D2E/DX2                !
 ! A33   A(3,7,23)             109.9954         estimate D2E/DX2                !
 ! A34   A(3,7,24)             109.4043         estimate D2E/DX2                !
 ! A35   A(9,7,23)             110.6726         estimate D2E/DX2                !
 ! A36   A(9,7,24)             109.3537         estimate D2E/DX2                !
 ! A37   A(23,7,24)            106.9447         estimate D2E/DX2                !
 ! A38   A(2,8,12)             112.8771         estimate D2E/DX2                !
 ! A39   A(7,9,11)             110.1198         estimate D2E/DX2                !
 ! A40   A(7,9,25)             109.9435         estimate D2E/DX2                !
 ! A41   A(7,9,26)             110.9007         estimate D2E/DX2                !
 ! A42   A(11,9,25)            109.059          estimate D2E/DX2                !
 ! A43   A(11,9,26)            109.2497         estimate D2E/DX2                !
 ! A44   A(25,9,26)            107.5103         estimate D2E/DX2                !
 ! A45   A(3,10,6)             110.4088         estimate D2E/DX2                !
 ! A46   A(3,10,13)            108.7907         estimate D2E/DX2                !
 ! A47   A(3,10,27)            110.231          estimate D2E/DX2                !
 ! A48   A(6,10,13)            107.8182         estimate D2E/DX2                !
 ! A49   A(6,10,27)            108.3609         estimate D2E/DX2                !
 ! A50   A(13,10,27)           111.2042         estimate D2E/DX2                !
 ! A51   A(6,11,9)             110.8276         estimate D2E/DX2                !
 ! A52   A(6,11,28)            109.0967         estimate D2E/DX2                !
 ! A53   A(6,11,29)            106.1503         estimate D2E/DX2                !
 ! A54   A(9,11,28)            110.6215         estimate D2E/DX2                !
 ! A55   A(9,11,29)            111.7498         estimate D2E/DX2                !
 ! A56   A(28,11,29)           108.245          estimate D2E/DX2                !
 ! A57   A(1,12,8)             111.469          estimate D2E/DX2                !
 ! A58   A(1,12,30)            110.6688         estimate D2E/DX2                !
 ! A59   A(1,12,31)            110.4917         estimate D2E/DX2                !
 ! A60   A(8,12,30)            109.1875         estimate D2E/DX2                !
 ! A61   A(8,12,31)            106.6049         estimate D2E/DX2                !
 ! A62   A(30,12,31)           108.2839         estimate D2E/DX2                !
 ! A63   A(4,13,10)            122.4747         estimate D2E/DX2                !
 ! D1    D(12,1,4,5)           -54.5257         estimate D2E/DX2                !
 ! D2    D(12,1,4,13)         -177.6374         estimate D2E/DX2                !
 ! D3    D(12,1,4,20)           63.595          estimate D2E/DX2                !
 ! D4    D(14,1,4,5)            64.6032         estimate D2E/DX2                !
 ! D5    D(14,1,4,13)          -58.5086         estimate D2E/DX2                !
 ! D6    D(14,1,4,20)         -177.2761         estimate D2E/DX2                !
 ! D7    D(15,1,4,5)          -174.6272         estimate D2E/DX2                !
 ! D8    D(15,1,4,13)           62.261          estimate D2E/DX2                !
 ! D9    D(15,1,4,20)          -56.5065         estimate D2E/DX2                !
 ! D10   D(4,1,12,8)            57.664          estimate D2E/DX2                !
 ! D11   D(4,1,12,30)          -64.0598         estimate D2E/DX2                !
 ! D12   D(4,1,12,31)          176.0102         estimate D2E/DX2                !
 ! D13   D(14,1,12,8)          -62.9162         estimate D2E/DX2                !
 ! D14   D(14,1,12,30)         175.36           estimate D2E/DX2                !
 ! D15   D(14,1,12,31)          55.43           estimate D2E/DX2                !
 ! D16   D(15,1,12,8)          179.4376         estimate D2E/DX2                !
 ! D17   D(15,1,12,30)          57.7138         estimate D2E/DX2                !
 ! D18   D(15,1,12,31)         -62.2162         estimate D2E/DX2                !
 ! D19   D(8,2,5,4)            -55.3008         estimate D2E/DX2                !
 ! D20   D(8,2,5,21)          -176.6822         estimate D2E/DX2                !
 ! D21   D(8,2,5,22)            65.0924         estimate D2E/DX2                !
 ! D22   D(16,2,5,4)          -173.8236         estimate D2E/DX2                !
 ! D23   D(16,2,5,21)           64.7949         estimate D2E/DX2                !
 ! D24   D(16,2,5,22)          -53.4304         estimate D2E/DX2                !
 ! D25   D(17,2,5,4)            66.01           estimate D2E/DX2                !
 ! D26   D(17,2,5,21)          -55.3715         estimate D2E/DX2                !
 ! D27   D(17,2,5,22)         -173.5968         estimate D2E/DX2                !
 ! D28   D(5,2,8,12)            58.9656         estimate D2E/DX2                !
 ! D29   D(16,2,8,12)         -179.941          estimate D2E/DX2                !
 ! D30   D(17,2,8,12)          -63.224          estimate D2E/DX2                !
 ! D31   D(10,3,7,9)           -51.9906         estimate D2E/DX2                !
 ! D32   D(10,3,7,23)         -174.4101         estimate D2E/DX2                !
 ! D33   D(10,3,7,24)           68.3966         estimate D2E/DX2                !
 ! D34   D(18,3,7,9)            67.6427         estimate D2E/DX2                !
 ! D35   D(18,3,7,23)          -54.7767         estimate D2E/DX2                !
 ! D36   D(18,3,7,24)         -171.9701         estimate D2E/DX2                !
 ! D37   D(19,3,7,9)          -172.8516         estimate D2E/DX2                !
 ! D38   D(19,3,7,23)           64.729          estimate D2E/DX2                !
 ! D39   D(19,3,7,24)          -52.4644         estimate D2E/DX2                !
 ! D40   D(7,3,10,6)            55.7966         estimate D2E/DX2                !
 ! D41   D(7,3,10,13)          173.9262         estimate D2E/DX2                !
 ! D42   D(7,3,10,27)          -63.8944         estimate D2E/DX2                !
 ! D43   D(18,3,10,6)          -64.9961         estimate D2E/DX2                !
 ! D44   D(18,3,10,13)          53.1335         estimate D2E/DX2                !
 ! D45   D(18,3,10,27)         175.3128         estimate D2E/DX2                !
 ! D46   D(19,3,10,6)          177.8086         estimate D2E/DX2                !
 ! D47   D(19,3,10,13)         -64.0617         estimate D2E/DX2                !
 ! D48   D(19,3,10,27)          58.1176         estimate D2E/DX2                !
 ! D49   D(1,4,5,2)             53.9328         estimate D2E/DX2                !
 ! D50   D(1,4,5,21)           174.7635         estimate D2E/DX2                !
 ! D51   D(1,4,5,22)           -66.7215         estimate D2E/DX2                !
 ! D52   D(13,4,5,2)          -178.0112         estimate D2E/DX2                !
 ! D53   D(13,4,5,21)          -57.1805         estimate D2E/DX2                !
 ! D54   D(13,4,5,22)           61.3345         estimate D2E/DX2                !
 ! D55   D(20,4,5,2)           -63.5043         estimate D2E/DX2                !
 ! D56   D(20,4,5,21)           57.3265         estimate D2E/DX2                !
 ! D57   D(20,4,5,22)          175.8414         estimate D2E/DX2                !
 ! D58   D(1,4,13,10)           -9.6169         Frozen                          !
 ! D59   D(5,4,13,10)         -133.5668         estimate D2E/DX2                !
 ! D60   D(20,4,13,10)         110.0778         estimate D2E/DX2                !
 ! D61   D(11,6,10,3)          -61.3337         estimate D2E/DX2                !
 ! D62   D(11,6,10,13)         179.9424         estimate D2E/DX2                !
 ! D63   D(11,6,10,27)          59.48           estimate D2E/DX2                !
 ! D64   D(10,6,11,9)           61.0889         estimate D2E/DX2                !
 ! D65   D(10,6,11,28)         -60.9481         estimate D2E/DX2                !
 ! D66   D(10,6,11,29)        -177.3833         estimate D2E/DX2                !
 ! D67   D(3,7,9,11)            51.429          estimate D2E/DX2                !
 ! D68   D(3,7,9,25)           -68.7616         estimate D2E/DX2                !
 ! D69   D(3,7,9,26)           172.4758         estimate D2E/DX2                !
 ! D70   D(23,7,9,11)          173.4502         estimate D2E/DX2                !
 ! D71   D(23,7,9,25)           53.2596         estimate D2E/DX2                !
 ! D72   D(23,7,9,26)          -65.503          estimate D2E/DX2                !
 ! D73   D(24,7,9,11)          -68.9886         estimate D2E/DX2                !
 ! D74   D(24,7,9,25)          170.8208         estimate D2E/DX2                !
 ! D75   D(24,7,9,26)           52.0583         estimate D2E/DX2                !
 ! D76   D(2,8,12,1)           -60.7139         estimate D2E/DX2                !
 ! D77   D(2,8,12,30)           61.8643         estimate D2E/DX2                !
 ! D78   D(2,8,12,31)          178.6341         estimate D2E/DX2                !
 ! D79   D(7,9,11,6)           -54.916          estimate D2E/DX2                !
 ! D80   D(7,9,11,28)           66.2254         estimate D2E/DX2                !
 ! D81   D(7,9,11,29)         -173.0921         estimate D2E/DX2                !
 ! D82   D(25,9,11,6)           65.8072         estimate D2E/DX2                !
 ! D83   D(25,9,11,28)        -173.0514         estimate D2E/DX2                !
 ! D84   D(25,9,11,29)         -52.3689         estimate D2E/DX2                !
 ! D85   D(26,9,11,6)         -176.9461         estimate D2E/DX2                !
 ! D86   D(26,9,11,28)         -55.8047         estimate D2E/DX2                !
 ! D87   D(26,9,11,29)          64.8778         estimate D2E/DX2                !
 ! D88   D(3,10,13,4)          162.1846         estimate D2E/DX2                !
 ! D89   D(6,10,13,4)          -78.0621         estimate D2E/DX2                !
 ! D90   D(27,10,13,4)          40.597          estimate D2E/DX2                !
 --------------------------------------------------------------------------------
 Trust Radius=3.00D-01 FncErr=1.00D-07 GrdErr=1.00D-06 EigMax=2.50D+02 EigMin=1.00D-04
 Number of steps in this run=    186 maximum allowed number of steps=    186.
 GradGradGradGradGradGradGradGradGradGradGradGradGradGradGradGradGradGrad

                          Input orientation:                          
 ---------------------------------------------------------------------
 Center     Atomic      Atomic             Coordinates (Angstroms)
 Number     Number       Type             X           Y           Z
 ---------------------------------------------------------------------
      1          6           0        1.425093    0.965704   -0.363735
      2          6           0        3.680504   -0.723374    0.200590
      3          6           0       -2.199825   -1.358210   -0.275759
      4          6           0        1.250210   -0.252976    0.538336
      5          6           0        2.277780   -1.313978    0.170033
      6          8           0       -1.621286    0.727062    0.774979
      7          6           0       -3.488683   -0.730695   -0.813550
      8          8           0        3.774956    0.413698   -0.634830
      9          6           0       -3.917812    0.443384    0.067414
     10          6           0       -1.138876   -0.292232   -0.072996
     11          6           0       -2.755941    1.404470    0.260233
     12          6           0        2.872029    1.438473   -0.272061
     13          8           0       -0.039192   -0.868399    0.540191
     14          1           0        1.210092    0.714407   -1.397447
     15          1           0        0.771273    1.778031   -0.068115
     16          1           0        4.407990   -1.435609   -0.162640
     17          1           0        3.954909   -0.442663    1.214880
     18          1           0       -2.386490   -1.840917    0.679913
     19          1           0       -1.819328   -2.109063   -0.960747
     20          1           0        1.429349    0.065955    1.560487
     21          1           0        2.223363   -2.146961    0.864427
     22          1           0        2.061293   -1.692487   -0.825441
     23          1           0       -4.273136   -1.479096   -0.863382
     24          1           0       -3.322354   -0.377482   -1.829262
     25          1           0       -4.242068    0.078821    1.039161
     26          1           0       -4.753483    0.976367   -0.377217
     27          1           0       -0.869307    0.153031   -1.022303
     28          1           0       -2.490296    1.878378   -0.682200
     29          1           0       -2.992441    2.180673    0.974556
     30          1           0        3.102025    1.777378    0.735382
     31          1           0        3.045916    2.258956   -0.953808
 ---------------------------------------------------------------------
                    Distance matrix (angstroms):
                    1          2          3          4          5
     1  C    0.000000
     2  C    2.873730   0.000000
     3  C    4.306779   5.933649   0.000000
     4  C    1.526269   2.498335   3.713090   0.000000
     5  C    2.491773   1.522295   4.499959   1.522259   0.000000
     6  O    3.260988   5.526542   2.405643   3.043347   4.442355
     7  C    5.217787   7.240565   1.531061   4.951052   5.878754
     8  O    2.429004   1.414136   6.242323   2.862711   2.423676
     9  C    5.385661   7.688528   2.512964   5.235947   6.440824
    10  C    2.870691   4.846355   1.517575   2.466374   3.574432
    11  C    4.250047   6.779314   2.868615   4.344389   5.721577
    12  C    1.524972   2.355974   5.791818   2.479524   2.850362
    13  O    2.514984   3.737981   2.360937   1.428743   2.388287
    14  H    1.085328   3.274732   4.145052   2.164416   2.776922
    15  H    1.083857   3.846148   4.325107   2.173052   3.447724
    16  H    3.834634   1.080949   6.609236   3.444062   2.159458
    17  H    3.297801   1.087603   6.398514   2.794475   2.159550
    18  H    4.847111   6.187655   1.086811   3.970792   4.721552
    19  H    4.509643   5.789386   1.085250   3.887721   4.324016
    20  H    2.124193   2.745917   4.309402   1.085634   2.134810
    21  H    3.440102   2.142554   4.635380   2.154192   1.085820
    22  H    2.771985   2.147967   4.309410   2.142413   1.086786
    23  H    6.220652   8.059996   2.158363   5.828854   6.633982
    24  H    5.146860   7.299312   2.152968   5.150666   6.019610
    25  H    5.905200   8.007113   2.822203   5.525037   6.723369
    26  H    6.178600   8.622941   3.461461   6.196277   7.415108
    27  H    2.521591   4.792112   2.147430   2.663229   3.671231
    28  H    4.032947   6.754791   3.274915   4.474792   5.801033
    29  H    4.773026   7.318518   3.836042   4.910501   6.374564
    30  H    2.163094   2.621908   6.242110   2.755065   3.248920
    31  H    2.155865   3.260311   6.407920   3.429410   3.823468
                    6          7          8          9         10
     6  O    0.000000
     7  C    2.852306   0.000000
     8  O    5.586160   7.355408   0.000000
     9  C    2.419742   1.529284   7.724811   0.000000
    10  C    1.410936   2.502451   4.995972   2.878078   0.000000
    11  C    1.418199   2.499770   6.665987   1.520135   2.367433
    12  C    4.668220   6.742192   1.413167   6.870763   4.372908
    13  O    2.259124   3.708175   4.191917   4.121648   1.384656
    14  H    3.568795   4.950529   2.692682   5.339913   2.878392
    15  H    2.745848   4.999660   3.347340   4.877209   2.816857
    16  H    6.473673   7.954749   2.010878   8.538297   5.664192
    17  H    5.714518   7.720398   2.046256   8.005092   5.256225
    18  H    2.681248   2.162835   6.691431   2.817469   2.126461
    19  H    3.331001   2.169864   6.145450   3.460598   2.133540
    20  H    3.218767   5.518853   3.231441   5.564517   3.064693
    21  H    4.800972   6.119549   3.348460   6.712611   3.952649
    22  H    4.687958   5.632710   2.721946   6.411617   3.573230
    23  H    3.818857   1.085336   8.270834   2.165310   3.443391
    24  H    3.300867   1.088162   7.240473   2.150761   2.803447
    25  H    2.712657   2.157648   8.196771   1.087355   3.317284
    26  H    3.346695   2.168909   8.550862   1.086330   3.842822
    27  H    2.031060   2.772306   4.667683   3.250411   1.082640
    28  H    2.050385   2.796657   6.434354   2.158456   2.628500
    29  H    2.008204   3.452484   7.177046   2.167347   3.263178
    30  H    4.838843   7.219907   2.046934   7.176617   4.787693
    31  H    5.207512   7.187397   2.009533   7.268611   4.979646
                   11         12         13         14         15
    11  C    0.000000
    12  C    5.653188   0.000000
    13  O    3.553173   3.802186   0.000000
    14  H    4.353563   2.133729   2.796503   0.000000
    15  H    3.562106   2.137772   2.833810   1.758119   0.000000
    16  H    7.717952   3.260598   4.537965   4.046464   4.854084
    17  H    7.025579   2.631026   4.072996   3.961955   4.088165
    18  H    3.293199   6.269982   2.544626   4.876526   4.860843
    19  H    3.835746   5.921835   2.638361   4.164142   4.755786
    20  H    4.582460   2.706171   2.017581   3.036106   2.452878
    21  H    6.145826   3.816767   2.618970   3.785528   4.287629
    22  H    5.828857   3.281224   2.637444   2.616271   3.779178
    23  H    3.446642   7.740494   4.502138   5.929795   6.057011
    24  H    2.803955   6.640252   4.078536   4.682067   4.950319
    25  H    2.138375   7.360593   4.337092   6.005587   5.408046
    26  H    2.140044   7.640225   5.144836   6.055883   5.591166
    27  H    2.601997   4.026515   2.042987   2.186270   2.498520
    28  H    1.087812   5.395948   3.879038   3.944525   3.320392
    29  H    1.081055   6.041268   4.266989   5.043572   3.926172
    30  H    5.889023   1.087518   4.111627   3.042742   2.465363
    31  H    5.988788   1.080837   4.640073   2.439815   2.487919
                   16         17         18         19         20
    16  H    0.000000
    17  H    1.757494   0.000000
    18  H    6.858508   6.515723   0.000000
    19  H    6.314270   6.391561   1.756514   0.000000
    20  H    3.754486   2.599344   4.355709   4.652013   0.000000
    21  H    2.516641   2.454730   4.623684   4.435769   2.451929
    22  H    2.451995   3.051352   4.697967   3.905261   3.030532
    23  H    8.709471   8.549508   2.464165   2.535254   6.385974
    24  H    7.978438   7.888574   3.051793   2.451893   5.853693
    25  H    8.863483   8.215428   2.693998   3.828334   5.695342
    26  H    9.476089   8.965741   3.828481   4.297633   6.543008
    27  H    5.577872   5.350972   3.029061   2.454261   3.458642
    28  H    7.670645   7.108221   3.962232   4.053082   4.866019
    29  H    8.314872   7.430028   4.077644   4.850096   4.936352
    30  H    3.582635   2.426090   6.574111   6.496229   2.531326
    31  H    4.016342   3.581651   6.999217   6.538367   3.707320
                   21         22         23         24         25
    21  H    0.000000
    22  H    1.757404   0.000000
    23  H    6.755432   6.338136   0.000000
    24  H    6.414202   5.632100   1.746558   0.000000
    25  H    6.840061   6.807836   2.459215   3.046627   0.000000
    26  H    7.744239   7.332452   2.548801   2.447340   1.753072
    27  H    4.291191   3.468877   3.778246   2.636298   3.953563
    28  H    6.388583   5.786930   3.805782   2.664015   3.044699
    29  H    6.778286   6.616765   4.290933   3.809776   2.446124
    30  H    4.023573   3.944522   8.219104   7.245237   7.544076
    31  H    4.836804   4.074293   8.218864   6.947812   7.863817
                   26         27         28         29         30
    26  H    0.000000
    27  H    4.022542   0.000000
    28  H    2.455332   2.391673   0.000000
    29  H    2.525651   3.550560   1.757377   0.000000
    30  H    7.974240   4.636749   5.770077   6.112476   0.000000
    31  H    7.925157   4.446187   5.555921   6.339280   1.757393
                   31
    31  H    0.000000
 Stoichiometry    C10H18O3
 Framework group  C1[X(C10H18O3)]
 Deg. of freedom    87
 Full point group                 C1      NOp   1
 Largest Abelian subgroup         C1      NOp   1
 Largest concise Abelian subgroup C1      NOp   1
                         Standard orientation:                         
 ---------------------------------------------------------------------
 Center     Atomic      Atomic             Coordinates (Angstroms)
 Number     Number       Type             X           Y           Z
 ---------------------------------------------------------------------
      1          6           0       -1.425093    0.965704    0.363735
      2          6           0       -3.680504   -0.723374   -0.200590
      3          6           0        2.199825   -1.358210    0.275759
      4          6           0       -1.250210   -0.252976   -0.538336
      5          6           0       -2.277780   -1.313978   -0.170033
      6          8           0        1.621286    0.727062   -0.774979
      7          6           0        3.488683   -0.730695    0.813550
      8          8           0       -3.774956    0.413698    0.634830
      9          6           0        3.917812    0.443384   -0.067414
     10          6           0        1.138876   -0.292232    0.072996
     11          6           0        2.755941    1.404470   -0.260233
     12          6           0       -2.872029    1.438473    0.272061
     13          8           0        0.039192   -0.868399   -0.540191
     14          1           0       -1.210092    0.714407    1.397447
     15          1           0       -0.771273    1.778031    0.068115
     16          1           0       -4.407990   -1.435609    0.162640
     17          1           0       -3.954909   -0.442663   -1.214880
     18          1           0        2.386490   -1.840917   -0.679913
     19          1           0        1.819328   -2.109063    0.960747
     20          1           0       -1.429349    0.065955   -1.560487
     21          1           0       -2.223363   -2.146961   -0.864427
     22          1           0       -2.061293   -1.692487    0.825441
     23          1           0        4.273136   -1.479096    0.863382
     24          1           0        3.322354   -0.377482    1.829262
     25          1           0        4.242068    0.078821   -1.039161
     26          1           0        4.753483    0.976367    0.377217
     27          1           0        0.869307    0.153031    1.022303
     28          1           0        2.490296    1.878378    0.682200
     29          1           0        2.992441    2.180673   -0.974556
     30          1           0       -3.102025    1.777378   -0.735382
     31          1           0       -3.045916    2.258956    0.953808
 ---------------------------------------------------------------------
 Rotational constants (GHZ):           2.1118936           0.3742171           0.3416296
 Standard basis: 6-311++G(2d,2p) (5D, 7F)
 There are   557 symmetry adapted cartesian basis functions of A   symmetry.
 There are   531 symmetry adapted basis functions of A   symmetry.
   531 basis functions,   762 primitive gaussians,   557 cartesian basis functions
    51 alpha electrons       51 beta electrons
       nuclear repulsion energy       881.7593547871 Hartrees.
 NAtoms=   31 NActive=   31 NUniq=   31 SFac= 1.00D+00 NAtFMM=   60 NAOKFM=F Big=F
 Integral buffers will be    131072 words long.
 Raffenetti 2 integral format.
 Two-electron integral symmetry is turned on.
 ------------------------------------------------------------------------------
 Polarizable Continuum Model (PCM)
 =================================
 Model                : PCM.
 Atomic radii         : SMD-Coulomb.
 Polarization charges : Total charges.
 Charge compensation  : None.
 Solution method      : On-the-fly selection.
 Cavity type          : VdW (van der Waals Surface) (Alpha=1.000).
 Cavity algorithm     : GePol (No added spheres)
                        Default sphere list used, NSphG=   31.
                        Lebedev-Laikov grids with approx.  5.0 points / Ang**2.
                        Smoothing algorithm: York/Karplus (Gamma=1.0000).
                        Polarization charges: spherical gaussians, with
                                              point-specific exponents (IZeta= 3).
                        Self-potential: point-specific (ISelfS= 7).
                        Self-field    : sphere-specific E.n sum rule (ISelfD= 2).
 1st derivatives      : Analytical E(r).r(x)/FMM algorithm (CHGder, D1EAlg=3).
                        Cavity 1st derivative terms included.
 Solvent              : Water, Eps=  78.355300 Eps(inf)=   1.777849
 ------------------------------------------------------------------------------
 ------------------------------------------------------------------------------
 Atomic radii for non-electrostatic terms: SMD-CDS.
 ------------------------------------------------------------------------------
 Nuclear repulsion after PCM non-electrostatic terms =      881.7657813196 Hartrees.
 One-electron integrals computed using PRISM.
 NBasis=   531 RedAO= T EigKep=  3.95D-06  NBF=   531
 NBsUse=   531 1.00D-06 EigRej= -1.00D+00 NBFU=   531
 ExpMin= 3.60D-02 ExpMax= 8.59D+03 ExpMxC= 1.30D+03 IAcc=3 IRadAn=         5 AccDes= 0.00D+00
 Harris functional with IExCor= 1009 and IRadAn=       5 diagonalized for initial guess.
 HarFok:  IExCor= 1009 AccDes= 0.00D+00 IRadAn=         5 IDoV= 1 UseB2=F ITyADJ=14
 ICtDFT=  3500011 ScaDFX=  1.000000  1.000000  1.000000  1.000000
 FoFCou: FMM=F IPFlag=           0 FMFlag=      100000 FMFlg1=           0
         NFxFlg=           0 DoJE=T BraDBF=F KetDBF=T FulRan=T
         wScrn=  0.000000 ICntrl=       500 IOpCl=  0 I1Cent=   200000004 NGrid=           0
         NMat0=    1 NMatS0=      1 NMatT0=    0 NMatD0=    1 NMtDS0=    0 NMtDT0=    0
 Petite list used in FoFCou.
 Requested convergence on RMS density matrix=1.00D-08 within 128 cycles.
 Requested convergence on MAX density matrix=1.00D-06.
 Requested convergence on             energy=1.00D-06.
 No special actions if energy rises.
 Inv3:  Mode=1 IEnd=    12144432.
 Iteration    1 A*A^-1 deviation from unit magnitude is 6.88D-15 for    394.
 Iteration    1 A*A^-1 deviation from orthogonality  is 3.06D-15 for   1998    185.
 Iteration    1 A^-1*A deviation from unit magnitude is 7.33D-15 for    355.
 Iteration    1 A^-1*A deviation from orthogonality  is 6.82D-14 for   1838   1837.
 Error on total polarization charges =  0.06286
 SCF Done:  E(RM062X) =  -617.503214974     A.U. after   12 cycles
            NFock= 12  Conv=0.56D-08     -V/T= 2.0035
 SMD-CDS (non-electrostatic) energy       (kcal/mol) =       4.03
 (included in total energy above)

 **********************************************************************

            Population analysis using the SCF Density.

 **********************************************************************

 Orbital symmetries:
       Occupied  (A) (A) (A) (A) (A) (A) (A) (A) (A) (A) (A) (A)
                 (A) (A) (A) (A) (A) (A) (A) (A) (A) (A) (A) (A)
                 (A) (A) (A) (A) (A) (A) (A) (A) (A) (A) (A) (A)
                 (A) (A) (A) (A) (A) (A) (A) (A) (A) (A) (A) (A)
                 (A) (A) (A)
       Virtual   (A) (A) (A) (A) (A) (A) (A) (A) (A) (A) (A) (A)
                 (A) (A) (A) (A) (A) (A) (A) (A) (A) (A) (A) (A)
                 (A) (A) (A) (A) (A) (A) (A) (A) (A) (A) (A) (A)
                 (A) (A) (A) (A) (A) (A) (A) (A) (A) (A) (A) (A)
                 (A) (A) (A) (A) (A) (A) (A) (A) (A) (A) (A) (A)
                 (A) (A) (A) (A) (A) (A) (A) (A) (A) (A) (A) (A)
                 (A) (A) (A) (A) (A) (A) (A) (A) (A) (A) (A) (A)
                 (A) (A) (A) (A) (A) (A) (A) (A) (A) (A) (A) (A)
                 (A) (A) (A) (A) (A) (A) (A) (A) (A) (A) (A) (A)
                 (A) (A) (A) (A) (A) (A) (A) (A) (A) (A) (A) (A)
                 (A) (A) (A) (A) (A) (A) (A) (A) (A) (A) (A) (A)
                 (A) (A) (A) (A) (A) (A) (A) (A) (A) (A) (A) (A)
                 (A) (A) (A) (A) (A) (A) (A) (A) (A) (A) (A) (A)
                 (A) (A) (A) (A) (A) (A) (A) (A) (A) (A) (A) (A)
                 (A) (A) (A) (A) (A) (A) (A) (A) (A) (A) (A) (A)
                 (A) (A) (A) (A) (A) (A) (A) (A) (A) (A) (A) (A)
                 (A) (A) (A) (A) (A) (A) (A) (A) (A) (A) (A) (A)
                 (A) (A) (A) (A) (A) (A) (A) (A) (A) (A) (A) (A)
                 (A) (A) (A) (A) (A) (A) (A) (A) (A) (A) (A) (A)
                 (A) (A) (A) (A) (A) (A) (A) (A) (A) (A) (A) (A)
                 (A) (A) (A) (A) (A) (A) (A) (A) (A) (A) (A) (A)
                 (A) (A) (A) (A) (A) (A) (A) (A) (A) (A) (A) (A)
                 (A) (A) (A) (A) (A) (A) (A) (A) (A) (A) (A) (A)
                 (A) (A) (A) (A) (A) (A) (A) (A) (A) (A) (A) (A)
                 (A) (A) (A) (A) (A) (A) (A) (A) (A) (A) (A) (A)
                 (A) (A) (A) (A) (A) (A) (A) (A) (A) (A) (A) (A)
                 (A) (A) (A) (A) (A) (A) (A) (A) (A) (A) (A) (A)
                 (A) (A) (A) (A) (A) (A) (A) (A) (A) (A) (A) (A)
                 (A) (A) (A) (A) (A) (A) (A) (A) (A) (A) (A) (A)
                 (A) (A) (A) (A) (A) (A) (A) (A) (A) (A) (A) (A)
                 (A) (A) (A) (A) (A) (A) (A) (A) (A) (A) (A) (A)
                 (A) (A) (A) (A) (A) (A) (A) (A) (A) (A) (A) (A)
                 (A) (A) (A) (A) (A) (A) (A) (A) (A) (A) (A) (A)
                 (A) (A) (A) (A) (A) (A) (A) (A) (A) (A) (A) (A)
                 (A) (A) (A) (A) (A) (A) (A) (A) (A) (A) (A) (A)
                 (A) (A) (A) (A) (A) (A) (A) (A) (A) (A) (A) (A)
                 (A) (A) (A) (A) (A) (A) (A) (A) (A) (A) (A) (A)
                 (A) (A) (A) (A) (A) (A) (A) (A) (A) (A) (A) (A)
                 (A) (A) (A) (A) (A) (A) (A) (A) (A) (A) (A) (A)
                 (A) (A) (A) (A) (A) (A) (A) (A) (A) (A) (A) (A)
 The electronic state is 1-A.
 Alpha  occ. eigenvalues --  -19.63182 -19.62792 -19.62652 -10.63024 -10.58599
 Alpha  occ. eigenvalues --  -10.57556 -10.57427 -10.57261 -10.52602 -10.52407
 Alpha  occ. eigenvalues --  -10.52311 -10.52231 -10.52087  -1.20101  -1.16626
 Alpha  occ. eigenvalues --   -1.13780  -0.90752  -0.89323  -0.86477  -0.84768
 Alpha  occ. eigenvalues --   -0.75345  -0.73471  -0.72443  -0.69785  -0.65689
 Alpha  occ. eigenvalues --   -0.64681  -0.60149  -0.57460  -0.56701  -0.54603
 Alpha  occ. eigenvalues --   -0.54174  -0.52900  -0.52400  -0.51107  -0.50347
 Alpha  occ. eigenvalues --   -0.49960  -0.46725  -0.45506  -0.44455  -0.43765
 Alpha  occ. eigenvalues --   -0.43155  -0.41507  -0.40822  -0.40060  -0.39143
 Alpha  occ. eigenvalues --   -0.38075  -0.37069  -0.36574  -0.34323  -0.32984
 Alpha  occ. eigenvalues --   -0.32187
 Alpha virt. eigenvalues --    0.00457   0.01297   0.01368   0.01490   0.02671
 Alpha virt. eigenvalues --    0.02863   0.03021   0.03993   0.04073   0.04766
 Alpha virt. eigenvalues --    0.05073   0.05476   0.05777   0.06028   0.07331
 Alpha virt. eigenvalues --    0.07574   0.08209   0.08481   0.09063   0.09980
 Alpha virt. eigenvalues --    0.10655   0.10909   0.11395   0.11835   0.12303
 Alpha virt. eigenvalues --    0.12621   0.13170   0.13466   0.13788   0.13951
 Alpha virt. eigenvalues --    0.14040   0.14695   0.14952   0.15238   0.15521
 Alpha virt. eigenvalues --    0.15796   0.16185   0.16254   0.16711   0.17063
 Alpha virt. eigenvalues --    0.17280   0.17409   0.17720   0.17787   0.18277
 Alpha virt. eigenvalues --    0.18420   0.18758   0.19215   0.19503   0.20103
 Alpha virt. eigenvalues --    0.20187   0.20592   0.20828   0.21480   0.21544
 Alpha virt. eigenvalues --    0.22550   0.23176   0.23669   0.24356   0.25253
 Alpha virt. eigenvalues --    0.25386   0.25904   0.26605   0.26835   0.27486
 Alpha virt. eigenvalues --    0.28005   0.28261   0.29140   0.29226   0.29963
 Alpha virt. eigenvalues --    0.30418   0.30737   0.31131   0.32334   0.32556
 Alpha virt. eigenvalues --    0.33125   0.33593   0.34061   0.34286   0.34683
 Alpha virt. eigenvalues --    0.34837   0.35407   0.36059   0.36308   0.36468
 Alpha virt. eigenvalues --    0.37169   0.37271   0.37603   0.37956   0.38563
 Alpha virt. eigenvalues --    0.39319   0.39616   0.40325   0.40479   0.41507
 Alpha virt. eigenvalues --    0.42271   0.42533   0.42835   0.43748   0.44525
 Alpha virt. eigenvalues --    0.46406   0.46800   0.49456   0.50314   0.51577
 Alpha virt. eigenvalues --    0.51987   0.52938   0.54013   0.54951   0.55890
 Alpha virt. eigenvalues --    0.57052   0.57481   0.58243   0.58789   0.59460
 Alpha virt. eigenvalues --    0.59997   0.60771   0.61486   0.61826   0.62697
 Alpha virt. eigenvalues --    0.62707   0.63351   0.63672   0.63836   0.65010
 Alpha virt. eigenvalues --    0.65361   0.66252   0.67166   0.67410   0.67871
 Alpha virt. eigenvalues --    0.68151   0.68779   0.69160   0.69360   0.70435
 Alpha virt. eigenvalues --    0.71708   0.72090   0.72932   0.73739   0.73826
 Alpha virt. eigenvalues --    0.74528   0.74654   0.75521   0.75840   0.76409
 Alpha virt. eigenvalues --    0.76742   0.77618   0.78389   0.78513   0.79961
 Alpha virt. eigenvalues --    0.81195   0.83481   0.83603   0.84401   0.85621
 Alpha virt. eigenvalues --    0.86071   0.87588   0.88871   0.89596   0.91007
 Alpha virt. eigenvalues --    0.91578   0.91838   0.91993   0.94466   0.95732
 Alpha virt. eigenvalues --    0.97204   0.98472   1.00473   1.01353   1.03430
 Alpha virt. eigenvalues --    1.04028   1.04814   1.05915   1.06984   1.07290
 Alpha virt. eigenvalues --    1.08123   1.08209   1.09295   1.09869   1.11064
 Alpha virt. eigenvalues --    1.13313   1.13895   1.14293   1.15249   1.16972
 Alpha virt. eigenvalues --    1.17148   1.17960   1.19141   1.19872   1.20499
 Alpha virt. eigenvalues --    1.21490   1.21982   1.22703   1.22927   1.23095
 Alpha virt. eigenvalues --    1.24545   1.25322   1.26105   1.26702   1.27750
 Alpha virt. eigenvalues --    1.28347   1.29535   1.29931   1.30436   1.31234
 Alpha virt. eigenvalues --    1.31632   1.32413   1.33136   1.33767   1.34045
 Alpha virt. eigenvalues --    1.34970   1.35582   1.36180   1.37281   1.37775
 Alpha virt. eigenvalues --    1.38632   1.40280   1.40801   1.41447   1.42312
 Alpha virt. eigenvalues --    1.43260   1.43568   1.44822   1.45256   1.45684
 Alpha virt. eigenvalues --    1.46781   1.47077   1.47420   1.48629   1.49430
 Alpha virt. eigenvalues --    1.49988   1.50088   1.50860   1.52019   1.52904
 Alpha virt. eigenvalues --    1.53410   1.54057   1.54525   1.55236   1.56354
 Alpha virt. eigenvalues --    1.56866   1.57408   1.58228   1.58392   1.59647
 Alpha virt. eigenvalues --    1.60254   1.60871   1.61902   1.62693   1.63998
 Alpha virt. eigenvalues --    1.64182   1.65414   1.65589   1.66019   1.67498
 Alpha virt. eigenvalues --    1.68189   1.68628   1.69399   1.70565   1.71656
 Alpha virt. eigenvalues --    1.74042   1.74333   1.75903   1.78310   1.79135
 Alpha virt. eigenvalues --    1.79724   1.80225   1.81143   1.82298   1.83730
 Alpha virt. eigenvalues --    1.84371   1.87331   1.91188   1.91903   1.97450
 Alpha virt. eigenvalues --    2.01932   2.10445   2.13762   2.17663   2.20744
 Alpha virt. eigenvalues --    2.24300   2.28740   2.31464   2.33628   2.35270
 Alpha virt. eigenvalues --    2.41390   2.42751   2.44885   2.48986   2.53098
 Alpha virt. eigenvalues --    2.59380   2.76292   2.78137   2.79159   2.79683
 Alpha virt. eigenvalues --    2.87083   2.89563   2.92769   2.93629   2.95658
 Alpha virt. eigenvalues --    2.97289   2.99000   3.01115   3.04104   3.06062
 Alpha virt. eigenvalues --    3.07586   3.08635   3.10249   3.11037   3.12269
 Alpha virt. eigenvalues --    3.13061   3.14325   3.16535   3.18091   3.20787
 Alpha virt. eigenvalues --    3.26098   3.26700   3.32468   3.33713   3.35182
 Alpha virt. eigenvalues --    3.36702   3.38260   3.39143   3.40295   3.41817
 Alpha virt. eigenvalues --    3.43298   3.43869   3.45129   3.46734   3.47623
 Alpha virt. eigenvalues --    3.48536   3.49170   3.50549   3.52212   3.52727
 Alpha virt. eigenvalues --    3.53695   3.53851   3.55280   3.56047   3.56987
 Alpha virt. eigenvalues --    3.57419   3.58220   3.59047   3.59741   3.60086
 Alpha virt. eigenvalues --    3.60670   3.61744   3.63800   3.64763   3.64865
 Alpha virt. eigenvalues --    3.66306   3.67233   3.67943   3.69200   3.71259
 Alpha virt. eigenvalues --    3.71596   3.72362   3.72563   3.73212   3.74282
 Alpha virt. eigenvalues --    3.74562   3.76664   3.76811   3.78136   3.78257
 Alpha virt. eigenvalues --    3.78543   3.80064   3.80752   3.81588   3.83277
 Alpha virt. eigenvalues --    3.86435   3.88388   3.89382   3.90723   3.91653
 Alpha virt. eigenvalues --    3.92973   3.93546   3.94706   3.94988   3.99286
 Alpha virt. eigenvalues --    3.99880   4.03118   4.03277   4.04193   4.04874
 Alpha virt. eigenvalues --    4.05802   4.06720   4.06929   4.07415   4.07921
 Alpha virt. eigenvalues --    4.09807   4.10354   4.11264   4.12149   4.12843
 Alpha virt. eigenvalues --    4.13275   4.13534   4.14166   4.14746   4.15959
 Alpha virt. eigenvalues --    4.16890   4.18136   4.19401   4.20847   4.21969
 Alpha virt. eigenvalues --    4.22810   4.23839   4.25286   4.26112   4.26607
 Alpha virt. eigenvalues --    4.28506   4.31158   4.32449   4.32662   4.33077
 Alpha virt. eigenvalues --    4.33418   4.35556   4.36182   4.37944   4.39982
 Alpha virt. eigenvalues --    4.42777   4.44813   4.47997   4.49132   4.58901
 Alpha virt. eigenvalues --    4.60804   4.62817   4.73775   4.77286   4.89057
 Alpha virt. eigenvalues --    4.90743   4.91537   4.93554   4.99135   5.01198
 Alpha virt. eigenvalues --    5.06722   5.08318   5.08532   5.10361   5.11862
 Alpha virt. eigenvalues --    5.12958   5.13337   5.14551   5.30153   5.35101
 Alpha virt. eigenvalues --    5.37966   5.55946   5.58981   5.63824   5.86802
 Alpha virt. eigenvalues --    5.88745   6.03014   7.02614   7.05957   7.06388
 Alpha virt. eigenvalues --    7.08899   7.10430   7.11755   7.14901   7.17291
 Alpha virt. eigenvalues --    7.25232   7.36346   7.41934   7.44620   7.52506
 Alpha virt. eigenvalues --    7.55010   7.61420  23.95616  23.97340  24.05597
 Alpha virt. eigenvalues --   24.09444  24.12202  24.13565  24.14270  24.16794
 Alpha virt. eigenvalues --   24.17694  24.18421  50.16215  50.20080  50.24079
          Condensed to atoms (all electrons):
               1          2          3          4          5          6
     1  C    6.601786   0.159154  -0.421428  -0.624031  -0.030549  -0.090930
     2  C    0.159154   5.616256   0.029869   0.128342  -0.211263  -0.001990
     3  C   -0.421428   0.029869   8.756809   0.034808  -0.111116  -0.008843
     4  C   -0.624031   0.128342   0.034808   7.346137  -0.789900  -0.029240
     5  C   -0.030549  -0.211263  -0.111116  -0.789900   6.437557   0.009749
     6  O   -0.090930  -0.001990  -0.008843  -0.029240   0.009749   8.383318
     7  C   -0.009895  -0.004358  -0.103801  -0.002844  -0.005739   0.022234
     8  O   -0.064569   0.081508   0.002144   0.005498  -0.003502  -0.000055
     9  C   -0.044928  -0.001613   0.313403  -0.011727  -0.007790  -0.039814
    10  C    0.277420  -0.044249  -2.052655  -0.452199   0.121478   0.340725
    11  C    0.094213   0.003500  -0.319256  -0.041661   0.024492   0.001755
    12  C   -0.529402  -0.312671  -0.178084  -0.145063   0.330681  -0.037028
    13  O    0.069754   0.032192  -0.258102   0.123840  -0.185108   0.013962
    14  H    0.427578   0.020781   0.006799   0.050822  -0.029707   0.001060
    15  H    0.407234  -0.007713   0.015515  -0.033035  -0.016873   0.008027
    16  H    0.001231   0.424012  -0.001314  -0.008531  -0.018026   0.000069
    17  H   -0.004566   0.466085   0.002770   0.042538  -0.084169  -0.000054
    18  H    0.004251  -0.000268   0.482633   0.008790   0.000174  -0.010576
    19  H    0.009317  -0.000929   0.375886  -0.014352   0.009470   0.006282
    20  H    0.000274   0.005022  -0.007161   0.447469  -0.066485  -0.010448
    21  H   -0.009025  -0.032349  -0.003837  -0.047969   0.465168   0.000302
    22  H   -0.044519  -0.077561   0.000693   0.064526   0.433664  -0.000503
    23  H   -0.005809   0.000062  -0.027548  -0.002668  -0.000510  -0.003196
    24  H    0.006099  -0.000006  -0.100996   0.002518   0.001677  -0.000247
    25  H    0.000264   0.000031  -0.025410   0.005790  -0.000747  -0.003336
    26  H    0.002728  -0.000094  -0.014809  -0.002244   0.000199   0.007321
    27  H    0.010420   0.003478  -0.005353   0.063404  -0.051240  -0.061094
    28  H    0.008892   0.000277   0.002044   0.005757   0.001669  -0.030384
    29  H    0.004065   0.000181  -0.005000  -0.004276   0.001153  -0.069369
    30  H   -0.004191  -0.003368   0.002565   0.042804  -0.024591  -0.000142
    31  H   -0.060204   0.011323  -0.001347   0.001483   0.006440  -0.000573
               7          8          9         10         11         12
     1  C   -0.009895  -0.064569  -0.044928   0.277420   0.094213  -0.529402
     2  C   -0.004358   0.081508  -0.001613  -0.044249   0.003500  -0.312671
     3  C   -0.103801   0.002144   0.313403  -2.052655  -0.319256  -0.178084
     4  C   -0.002844   0.005498  -0.011727  -0.452199  -0.041661  -0.145063
     5  C   -0.005739  -0.003502  -0.007790   0.121478   0.024492   0.330681
     6  O    0.022234  -0.000055  -0.039814   0.340725   0.001755  -0.037028
     7  C    5.665114  -0.000138  -0.047779   0.033399  -0.034251   0.008663
     8  O   -0.000138   8.436429   0.000105  -0.003053  -0.000006   0.136253
     9  C   -0.047779   0.000105   5.764153  -0.134978  -0.079334  -0.020809
    10  C    0.033399  -0.003053  -0.134978   7.603582   0.056154  -0.281484
    11  C   -0.034251  -0.000006  -0.079334   0.056154   5.545678   0.039441
    12  C    0.008663   0.136253  -0.020809  -0.281484   0.039441   6.674309
    13  O    0.033592  -0.004101   0.002259   0.085055   0.000463   0.034418
    14  H    0.009089  -0.016151  -0.003386  -0.035739   0.002439  -0.074706
    15  H   -0.004704   0.012634  -0.005614   0.027187   0.003398  -0.012217
    16  H   -0.000067  -0.068298  -0.000115  -0.002831   0.000448   0.011087
    17  H   -0.000041  -0.043610   0.000136   0.000184  -0.000564  -0.023109
    18  H   -0.012279   0.000027  -0.023237  -0.085021   0.000072   0.000173
    19  H   -0.020920  -0.000151  -0.004190   0.017308   0.005835   0.003604
    20  H   -0.000904  -0.004523   0.000735   0.024534  -0.002789  -0.017219
    21  H    0.000222   0.008373   0.000023   0.001054  -0.000318   0.004018
    22  H   -0.000258  -0.006094   0.001287  -0.006754  -0.002454   0.005447
    23  H    0.426748  -0.000008  -0.018039   0.005347   0.002098  -0.001011
    24  H    0.541728  -0.000015  -0.091347   0.023695   0.002644   0.001990
    25  H    0.001841  -0.000001   0.461596  -0.003803  -0.068176   0.000350
    26  H   -0.058621   0.000002   0.454856   0.022442  -0.035072   0.000408
    27  H   -0.056379   0.005020   0.043705   0.409710  -0.019527  -0.012564
    28  H    0.006006  -0.000025  -0.078857  -0.039996   0.496711   0.001294
    29  H    0.009399  -0.000002  -0.037061   0.012903   0.432299   0.001452
    30  H   -0.000402  -0.041847   0.000508  -0.000446  -0.000548   0.367475
    31  H   -0.000036  -0.072800   0.000449  -0.003264  -0.000063   0.460083
              13         14         15         16         17         18
     1  C    0.069754   0.427578   0.407234   0.001231  -0.004566   0.004251
     2  C    0.032192   0.020781  -0.007713   0.424012   0.466085  -0.000268
     3  C   -0.258102   0.006799   0.015515  -0.001314   0.002770   0.482633
     4  C    0.123840   0.050822  -0.033035  -0.008531   0.042538   0.008790
     5  C   -0.185108  -0.029707  -0.016873  -0.018026  -0.084169   0.000174
     6  O    0.013962   0.001060   0.008027   0.000069  -0.000054  -0.010576
     7  C    0.033592   0.009089  -0.004704  -0.000067  -0.000041  -0.012279
     8  O   -0.004101  -0.016151   0.012634  -0.068298  -0.043610   0.000027
     9  C    0.002259  -0.003386  -0.005614  -0.000115   0.000136  -0.023237
    10  C    0.085055  -0.035739   0.027187  -0.002831   0.000184  -0.085021
    11  C    0.000463   0.002439   0.003398   0.000448  -0.000564   0.000072
    12  C    0.034418  -0.074706  -0.012217   0.011087  -0.023109   0.000173
    13  O    8.561242  -0.003763  -0.006625  -0.002634  -0.001221   0.001154
    14  H   -0.003763   0.439053  -0.022303   0.001579  -0.000459   0.000996
    15  H   -0.006625  -0.022303   0.475638  -0.000243   0.000049  -0.000663
    16  H   -0.002634   0.001579  -0.000243   0.482731  -0.015336   0.000039
    17  H   -0.001221  -0.000459   0.000049  -0.015336   0.490261  -0.000019
    18  H    0.001154   0.000996  -0.000663   0.000039  -0.000019   0.456448
    19  H   -0.003056   0.000091  -0.001142   0.000258  -0.000152  -0.017378
    20  H   -0.037965   0.000784  -0.009595  -0.000212  -0.005518  -0.000129
    21  H   -0.005481  -0.002863   0.000103  -0.007760   0.000135   0.000218
    22  H   -0.002818   0.000345  -0.001279  -0.006484   0.002532  -0.000056
    23  H   -0.002446   0.000142   0.000372  -0.000018   0.000017  -0.004547
    24  H    0.000978   0.001413  -0.000590   0.000043  -0.000031   0.006171
    25  H    0.003049   0.000251  -0.000140   0.000001  -0.000002   0.003004
    26  H   -0.000085  -0.000390  -0.000005  -0.000001  -0.000001  -0.003340
    27  H   -0.030408  -0.010390  -0.001882  -0.002481   0.002532  -0.009899
    28  H    0.004198   0.001832  -0.001951   0.000069  -0.000068   0.001098
    29  H   -0.001998  -0.000477  -0.001402   0.000006   0.000001  -0.000616
    30  H   -0.001880   0.000689  -0.004169  -0.003474   0.010763   0.000109
    31  H    0.000026  -0.001608  -0.014570   0.002285  -0.003760  -0.000002
              19         20         21         22         23         24
     1  C    0.009317   0.000274  -0.009025  -0.044519  -0.005809   0.006099
     2  C   -0.000929   0.005022  -0.032349  -0.077561   0.000062  -0.000006
     3  C    0.375886  -0.007161  -0.003837   0.000693  -0.027548  -0.100996
     4  C   -0.014352   0.447469  -0.047969   0.064526  -0.002668   0.002518
     5  C    0.009470  -0.066485   0.465168   0.433664  -0.000510   0.001677
     6  O    0.006282  -0.010448   0.000302  -0.000503  -0.003196  -0.000247
     7  C   -0.020920  -0.000904   0.000222  -0.000258   0.426748   0.541728
     8  O   -0.000151  -0.004523   0.008373  -0.006094  -0.000008  -0.000015
     9  C   -0.004190   0.000735   0.000023   0.001287  -0.018039  -0.091347
    10  C    0.017308   0.024534   0.001054  -0.006754   0.005347   0.023695
    11  C    0.005835  -0.002789  -0.000318  -0.002454   0.002098   0.002644
    12  C    0.003604  -0.017219   0.004018   0.005447  -0.001011   0.001990
    13  O   -0.003056  -0.037965  -0.005481  -0.002818  -0.002446   0.000978
    14  H    0.000091   0.000784  -0.002863   0.000345   0.000142   0.001413
    15  H   -0.001142  -0.009595   0.000103  -0.001279   0.000372  -0.000590
    16  H    0.000258  -0.000212  -0.007760  -0.006484  -0.000018   0.000043
    17  H   -0.000152  -0.005518   0.000135   0.002532   0.000017  -0.000031
    18  H   -0.017378  -0.000129   0.000218  -0.000056  -0.004547   0.006171
    19  H    0.476562   0.000643  -0.000013  -0.002001  -0.011388  -0.005483
    20  H    0.000643   0.401317  -0.005862   0.002432  -0.000082   0.000102
    21  H   -0.000013  -0.005862   0.469678  -0.018450  -0.000030   0.000054
    22  H   -0.002001   0.002432  -0.018450   0.462300   0.000001  -0.000123
    23  H   -0.011388  -0.000082  -0.000030   0.000001   0.455330  -0.003243
    24  H   -0.005483   0.000102   0.000054  -0.000123  -0.003243   0.455082
    25  H   -0.001867  -0.000364   0.000037   0.000036  -0.000621   0.003251
    26  H    0.001782   0.000050  -0.000006  -0.000013  -0.010269  -0.005249
    27  H   -0.002273  -0.000758  -0.000917   0.006664  -0.001814  -0.017261
    28  H    0.000371  -0.000357   0.000020  -0.000212  -0.001832   0.002963
    29  H    0.001159   0.000481  -0.000037  -0.000003   0.000184  -0.001851
    30  H   -0.000119  -0.005570  -0.001286   0.002196  -0.000013  -0.000034
    31  H    0.000013   0.002005   0.001243  -0.001601  -0.000010   0.000042
              25         26         27         28         29         30
     1  C    0.000264   0.002728   0.010420   0.008892   0.004065  -0.004191
     2  C    0.000031  -0.000094   0.003478   0.000277   0.000181  -0.003368
     3  C   -0.025410  -0.014809  -0.005353   0.002044  -0.005000   0.002565
     4  C    0.005790  -0.002244   0.063404   0.005757  -0.004276   0.042804
     5  C   -0.000747   0.000199  -0.051240   0.001669   0.001153  -0.024591
     6  O   -0.003336   0.007321  -0.061094  -0.030384  -0.069369  -0.000142
     7  C    0.001841  -0.058621  -0.056379   0.006006   0.009399  -0.000402
     8  O   -0.000001   0.000002   0.005020  -0.000025  -0.000002  -0.041847
     9  C    0.461596   0.454856   0.043705  -0.078857  -0.037061   0.000508
    10  C   -0.003803   0.022442   0.409710  -0.039996   0.012903  -0.000446
    11  C   -0.068176  -0.035072  -0.019527   0.496711   0.432299  -0.000548
    12  C    0.000350   0.000408  -0.012564   0.001294   0.001452   0.367475
    13  O    0.003049  -0.000085  -0.030408   0.004198  -0.001998  -0.001880
    14  H    0.000251  -0.000390  -0.010390   0.001832  -0.000477   0.000689
    15  H   -0.000140  -0.000005  -0.001882  -0.001951  -0.001402  -0.004169
    16  H    0.000001  -0.000001  -0.002481   0.000069   0.000006  -0.003474
    17  H   -0.000002  -0.000001   0.002532  -0.000068   0.000001   0.010763
    18  H    0.003004  -0.003340  -0.009899   0.001098  -0.000616   0.000109
    19  H   -0.001867   0.001782  -0.002273   0.000371   0.001159  -0.000119
    20  H   -0.000364   0.000050  -0.000758  -0.000357   0.000481  -0.005570
    21  H    0.000037  -0.000006  -0.000917   0.000020  -0.000037  -0.001286
    22  H    0.000036  -0.000013   0.006664  -0.000212  -0.000003   0.002196
    23  H   -0.000621  -0.010269  -0.001814  -0.001832   0.000184  -0.000013
    24  H    0.003251  -0.005249  -0.017261   0.002963  -0.001851  -0.000034
    25  H    0.471234  -0.010290  -0.002325   0.003696  -0.003137   0.000023
    26  H   -0.010290   0.475413   0.002345   0.000733  -0.009651  -0.000010
    27  H   -0.002325   0.002345   0.483592  -0.012868   0.000547   0.004291
    28  H    0.003696   0.000733  -0.012868   0.479972  -0.006661   0.000002
    29  H   -0.003137  -0.009651   0.000547  -0.006661   0.476210  -0.000018
    30  H    0.000023  -0.000010   0.004291   0.000002  -0.000018   0.495318
    31  H   -0.000012   0.000017  -0.001269  -0.000171   0.000073  -0.014404
              31
     1  C   -0.060204
     2  C    0.011323
     3  C   -0.001347
     4  C    0.001483
     5  C    0.006440
     6  O   -0.000573
     7  C   -0.000036
     8  O   -0.072800
     9  C    0.000449
    10  C   -0.003264
    11  C   -0.000063
    12  C    0.460083
    13  O    0.000026
    14  H   -0.001608
    15  H   -0.014570
    16  H    0.002285
    17  H   -0.003760
    18  H   -0.000002
    19  H    0.000013
    20  H    0.002005
    21  H    0.001243
    22  H   -0.001601
    23  H   -0.000010
    24  H    0.000042
    25  H   -0.000012
    26  H    0.000017
    27  H   -0.001269
    28  H   -0.000171
    29  H    0.000073
    30  H   -0.014404
    31  H    0.480248
 Mulliken charges:
               1
     1  C   -0.140636
     2  C   -0.283638
     3  C   -0.379878
     4  C   -0.164785
     5  C   -0.206255
     6  O   -0.396982
     7  C   -0.394620
     8  O   -0.359045
     9  C   -0.392597
    10  C    0.084296
    11  C   -0.107619
    12  C   -0.435782
    13  O   -0.418489
    14  H    0.236199
    15  H    0.196558
    16  H    0.213968
    17  H    0.164678
    18  H    0.202672
    19  H    0.176833
    20  H    0.290094
    21  H    0.185554
    22  H    0.189062
    23  H    0.204804
    24  H    0.176027
    25  H    0.165778
    26  H    0.181854
    27  H    0.264991
    28  H    0.155780
    29  H    0.201442
    30  H    0.179770
    31  H    0.209966
 Sum of Mulliken charges =  -0.00000
 Mulliken charges with hydrogens summed into heavy atoms:
               1
     1  C    0.292121
     2  C    0.095007
     3  C   -0.000373
     4  C    0.125309
     5  C    0.168361
     6  O   -0.396982
     7  C   -0.013789
     8  O   -0.359045
     9  C   -0.044965
    10  C    0.349287
    11  C    0.249603
    12  C   -0.046046
    13  O   -0.418489
 Electronic spatial extent (au):  <R**2>=           3307.8011
 Charge=              0.0000 electrons
 Dipole moment (field-independent basis, Debye):
    X=              2.1073    Y=              0.9569    Z=              1.3030  Tot=              2.6560
 Quadrupole moment (field-independent basis, Debye-Ang):
   XX=            -77.9626   YY=            -76.2517   ZZ=            -82.0290
   XY=              3.6198   XZ=              9.6380   YZ=             -0.1973
 Traceless Quadrupole moment (field-independent basis, Debye-Ang):
   XX=              0.7852   YY=              2.4961   ZZ=             -3.2812
   XY=              3.6198   XZ=              9.6380   YZ=             -0.1973
 Octapole moment (field-independent basis, Debye-Ang**2):
  XXX=             67.3964  YYY=             10.0418  ZZZ=             -0.3123  XYY=             -6.7802
  XXY=            -10.2643  XXZ=            -24.1805  XZZ=             -1.4489  YZZ=              0.8738
  YYZ=              2.1634  XYZ=              0.5577
 Hexadecapole moment (field-independent basis, Debye-Ang**3):
 XXXX=          -3639.2853 YYYY=           -598.5379 ZZZZ=           -251.3159 XXXY=            100.0493
 XXXZ=             98.0205 YYYX=              1.1745 YYYZ=              0.2908 ZZZX=              2.1798
 ZZZY=              1.2856 XXYY=           -629.1996 XXZZ=           -644.2366 YYZZ=           -138.2414
 XXYZ=             -6.0278 YYXZ=             -9.6190 ZZXY=              0.6133
 N-N= 8.817657813196D+02 E-N=-3.205566168138D+03  KE= 6.153573701839D+02
 D1PCM: PCM CHGder 1st derivatives, ID1Alg=3 FixD1E=F DoIter=F DoCFld=F I1PDM=0.
 Calling FoFJK, ICntrl=      2127 FMM=F ISym2X=0 I1Cent= 0 IOpClX= 0 NMat=1 NMatS=1 NMatT=0.
 ***** Axes restored to original set *****
 -------------------------------------------------------------------
 Center     Atomic                   Forces (Hartrees/Bohr)
 Number     Number              X              Y              Z
 -------------------------------------------------------------------
      1        6           0.001714685   -0.003357205    0.001660825
      2        6          -0.006587123   -0.000839309    0.001048254
      3        6          -0.000999660    0.002553710   -0.002300681
      4        6           0.002602920    0.006042729   -0.003136403
      5        6           0.001041128    0.002753148    0.001895358
      6        8           0.004648617    0.004535579    0.012061694
      7        6           0.001979889    0.001744132    0.003289343
      8        8           0.007009278    0.000669494   -0.009309557
      9        6           0.002500097   -0.000246131   -0.002243307
     10        6          -0.004275966   -0.002473308   -0.001217211
     11        6          -0.004150096   -0.004762863   -0.002219856
     12        6          -0.005488918   -0.003041940    0.001194321
     13        8          -0.000180865   -0.013242569    0.000873078
     14        1          -0.000545048   -0.001862722   -0.003851175
     15        1          -0.003288787    0.002728097    0.001480449
     16        1           0.002849280   -0.003161699   -0.001563872
     17        1           0.000389081    0.001227035    0.005544649
     18        1          -0.000203778   -0.000647258    0.003867949
     19        1           0.001392891   -0.001924012   -0.002086149
     20        1           0.002339961    0.002312138    0.005210516
     21        1          -0.000525557   -0.002269773    0.002362375
     22        1          -0.000996756   -0.000310332   -0.003707389
     23        1          -0.001835491   -0.001896144    0.000035780
     24        1           0.001102577    0.001542254   -0.002767685
     25        1          -0.000207991   -0.001205563    0.003111778
     26        1          -0.002015776    0.001352846   -0.001312292
     27        1           0.001522475    0.003854534   -0.008084889
     28        1           0.000780117    0.001870636   -0.005393166
     29        1          -0.001243772    0.003243061    0.002972040
     30        1           0.000140496    0.001355467    0.005577081
     31        1           0.000532089    0.003455968   -0.002991857
 -------------------------------------------------------------------
 Cartesian Forces:  Max     0.013242569 RMS     0.003577272

 GradGradGradGradGradGradGradGradGradGradGradGradGradGradGradGradGradGrad
 Berny optimization.
 FormGI is forming the generalized inverse of G from B-inverse, IUseBI=4.
 Internal  Forces:  Max     0.016188977 RMS     0.002343253
 Search for a local minimum.
 Step number   1 out of a maximum of  186
 All quantities printed in internal units (Hartrees-Bohrs-Radians)
 Mixed Optimization -- RFO/linear search
 Second derivative matrix not updated -- first step.
 ITU=  0
     Eigenvalues ---    0.00611   0.00706   0.00730   0.00752   0.01417
     Eigenvalues ---    0.01486   0.01895   0.02723   0.02741   0.03094
     Eigenvalues ---    0.03102   0.04038   0.04168   0.04773   0.04788
     Eigenvalues ---    0.04928   0.04928   0.04958   0.05151   0.05195
     Eigenvalues ---    0.05382   0.05717   0.05786   0.06147   0.06192
     Eigenvalues ---    0.06311   0.06382   0.06473   0.07700   0.07701
     Eigenvalues ---    0.07945   0.07961   0.07969   0.07977   0.08406
     Eigenvalues ---    0.08740   0.08821   0.09892   0.10894   0.11472
     Eigenvalues ---    0.11703   0.11713   0.11758   0.12322   0.13105
     Eigenvalues ---    0.14389   0.14459   0.16219   0.16697   0.17844
     Eigenvalues ---    0.19125   0.21359   0.21850   0.25000   0.28562
     Eigenvalues ---    0.28615   0.28775   0.28941   0.28961   0.29295
     Eigenvalues ---    0.30031   0.30483   0.35026   0.35067   0.35091
     Eigenvalues ---    0.35101   0.35120   0.35184   0.35187   0.35240
     Eigenvalues ---    0.35300   0.35322   0.35357   0.35358   0.35367
     Eigenvalues ---    0.35532   0.35677   0.35867   0.35880   0.35893
     Eigenvalues ---    0.41170   0.41259   0.41584   0.42069   0.42279
     Eigenvalues ---    0.482611000.000001000.000001000.000001000.00000
     Eigenvalues --- 1000.000001000.000001000.000001000.000001000.00000
     Eigenvalues --- 1000.000001000.000001000.000001000.000001000.00000
     Eigenvalues --- 1000.000001000.000001000.000001000.000001000.00000
     Eigenvalues --- 1000.000001000.000001000.000001000.000001000.00000
     Eigenvalues --- 1000.000001000.000001000.000001000.000001000.00000
     Eigenvalues --- 1000.000001000.000001000.000001000.000001000.00000
     Eigenvalues --- 1000.000001000.000001000.000001000.000001000.00000
     Eigenvalues --- 1000.000001000.000001000.000001000.000001000.00000
     Eigenvalues --- 1000.000001000.000001000.000001000.000001000.00000
     Eigenvalues --- 1000.000001000.000001000.000001000.000001000.00000
     Eigenvalues --- 1000.000001000.000001000.000001000.000001000.00000
     Eigenvalues --- 1000.000001000.000001000.000001000.000001000.00000
     Eigenvalues --- 1000.000001000.000001000.000001000.000001000.00000
     Eigenvalues --- 1000.000001000.000001000.000001000.000001000.00000
     Eigenvalues --- 1000.000001000.000001000.000001000.000001000.00000
     Eigenvalues --- 1000.000001000.000001000.000001000.000001000.00000
     Eigenvalues --- 1000.000001000.000001000.000001000.000001000.00000
     Eigenvalues --- 1000.000001000.000001000.000001000.000001000.00000
     Eigenvalues --- 1000.000001000.000001000.000001000.000001000.00000
 RFO step:  Lambda=-3.61768580D-03 EMin= 6.10780294D-03
 Linear search not attempted -- first point.
 Iteration  1 RMS(Cart)=  0.06924007 RMS(Int)=  0.00093879
 Iteration  2 RMS(Cart)=  0.00234238 RMS(Int)=  0.00002492
 Iteration  3 RMS(Cart)=  0.00000051 RMS(Int)=  0.00002492
 Iteration  1 RMS(Cart)=  0.00000925 RMS(Int)=  0.00000215
 Iteration  2 RMS(Cart)=  0.00000512 RMS(Int)=  0.00000240
 Iteration  3 RMS(Cart)=  0.00000283 RMS(Int)=  0.00000271
 Iteration  4 RMS(Cart)=  0.00000157 RMS(Int)=  0.00000292
 Iteration  5 RMS(Cart)=  0.00000087 RMS(Int)=  0.00000305
 Variable       Old X    -DE/DX   Delta X   Delta X   Delta X     New X
                                 (Linear)    (Quad)   (Total)
    R1        2.88423  -0.00263   0.00000  -0.00973  -0.00975   2.87448
    R2        2.88178  -0.00036   0.00000  -0.00168  -0.00167   2.88011
    R3        2.05097   0.00421   0.00000   0.01178   0.01178   2.06275
    R4        2.04819   0.00443   0.00000   0.01235   0.01235   2.06054
    R5        2.87672  -0.00077   0.00000  -0.00195  -0.00196   2.87476
    R6        2.67233   0.00618   0.00000   0.01484   0.01486   2.68719
    R7        2.04270   0.00453   0.00000   0.01249   0.01249   2.05519
    R8        2.05527   0.00558   0.00000   0.01575   0.01575   2.07103
    R9        2.89329  -0.00098   0.00000  -0.00369  -0.00371   2.88957
   R10        2.86780  -0.00133   0.00000  -0.00407  -0.00407   2.86373
   R11        2.05378   0.00372   0.00000   0.01047   0.01047   2.06425
   R12        2.05082   0.00314   0.00000   0.00878   0.00878   2.05960
   R13        2.87665  -0.00147   0.00000  -0.00643  -0.00644   2.87021
   R14        2.69993   0.00351   0.00000   0.00846   0.00846   2.70840
   R15        2.05155   0.00597   0.00000   0.01673   0.01673   2.06828
   R16        2.05190   0.00328   0.00000   0.00920   0.00920   2.06110
   R17        2.05373   0.00370   0.00000   0.01042   0.01042   2.06415
   R18        2.66628   0.00828   0.00000   0.01941   0.01943   2.68571
   R19        2.68001   0.00581   0.00000   0.01375   0.01378   2.69379
   R20        2.88993  -0.00076   0.00000  -0.00355  -0.00358   2.88635
   R21        2.05099   0.00263   0.00000   0.00737   0.00737   2.05835
   R22        2.05633   0.00325   0.00000   0.00920   0.00920   2.06552
   R23        2.67050   0.00583   0.00000   0.01445   0.01446   2.68496
   R24        2.87264  -0.00069   0.00000  -0.00237  -0.00237   2.87026
   R25        2.05480   0.00325   0.00000   0.00915   0.00915   2.06395
   R26        2.05287   0.00275   0.00000   0.00773   0.00773   2.06060
   R27        2.61662   0.00496   0.00000   0.01021   0.01021   2.62683
   R28        2.04589   0.00905   0.00000   0.02512   0.02512   2.07102
   R29        2.05567   0.00568   0.00000   0.01603   0.01603   2.07169
   R30        2.04290   0.00457   0.00000   0.01260   0.01260   2.05550
   R31        2.05511   0.00562   0.00000   0.01585   0.01585   2.07096
   R32        2.04249   0.00459   0.00000   0.01267   0.01267   2.05516
    A1        1.89730  -0.00047   0.00000  -0.00655  -0.00661   1.89069
    A2        1.93408   0.00014   0.00000  -0.00361  -0.00360   1.93048
    A3        1.94778  -0.00074   0.00000  -0.00445  -0.00441   1.94337
    A4        1.89336   0.00038   0.00000   0.00230   0.00229   1.89565
    A5        1.90035   0.00056   0.00000   0.00802   0.00801   1.90836
    A6        1.89000   0.00017   0.00000   0.00472   0.00468   1.89468
    A7        1.94083   0.00066   0.00000   0.00449   0.00447   1.94529
    A8        1.93667  -0.00019   0.00000  -0.00294  -0.00294   1.93373
    A9        1.92980  -0.00122   0.00000  -0.00817  -0.00817   1.92163
   A10        1.86120  -0.00073   0.00000  -0.00097  -0.00096   1.86024
   A11        1.90346   0.00099   0.00000   0.00490   0.00493   1.90838
   A12        1.88982   0.00054   0.00000   0.00309   0.00307   1.89289
   A13        1.92576  -0.00064   0.00000  -0.00700  -0.00705   1.91870
   A14        1.92445   0.00090   0.00000   0.00482   0.00479   1.92923
   A15        1.93586  -0.00011   0.00000   0.00269   0.00268   1.93854
   A16        1.89080  -0.00056   0.00000  -0.00653  -0.00652   1.88428
   A17        1.90202   0.00019   0.00000  -0.00083  -0.00080   1.90123
   A18        1.88383   0.00022   0.00000   0.00687   0.00684   1.89066
   A19        1.91366   0.00208   0.00000   0.00102   0.00092   1.91457
   A20        2.03545  -0.00336   0.00000  -0.02341  -0.02335   2.01210
   A21        1.87863   0.00033   0.00000   0.00083   0.00090   1.87953
   A22        1.88524   0.00044   0.00000   0.00614   0.00605   1.89128
   A23        1.89776  -0.00116   0.00000   0.00092   0.00088   1.89865
   A24        1.84859   0.00169   0.00000   0.01606   0.01602   1.86461
   A25        1.92489  -0.00032   0.00000  -0.00867  -0.00872   1.91617
   A26        1.90813   0.00065   0.00000   0.00474   0.00474   1.91287
   A27        1.91459  -0.00016   0.00000   0.00187   0.00183   1.91642
   A28        1.92425  -0.00078   0.00000  -0.00209  -0.00208   1.92217
   A29        1.90700   0.00033   0.00000  -0.00254  -0.00253   1.90446
   A30        1.88453   0.00029   0.00000   0.00705   0.00703   1.89156
   A31        1.98284  -0.00501   0.00000  -0.02681  -0.02674   1.95610
   A32        1.92680   0.00211   0.00000  -0.00031  -0.00038   1.92643
   A33        1.91978  -0.00064   0.00000  -0.00056  -0.00054   1.91924
   A34        1.90947  -0.00082   0.00000  -0.00231  -0.00230   1.90716
   A35        1.93160  -0.00051   0.00000   0.00069   0.00072   1.93232
   A36        1.90858  -0.00082   0.00000  -0.00208  -0.00207   1.90651
   A37        1.86654   0.00060   0.00000   0.00465   0.00464   1.87118
   A38        1.97008  -0.00434   0.00000  -0.02336  -0.02334   1.94674
   A39        1.92195   0.00011   0.00000  -0.00347  -0.00354   1.91841
   A40        1.91888   0.00055   0.00000   0.00202   0.00205   1.92092
   A41        1.93558  -0.00065   0.00000  -0.00141  -0.00141   1.93418
   A42        1.90344  -0.00039   0.00000  -0.00177  -0.00176   1.90168
   A43        1.90677   0.00010   0.00000  -0.00022  -0.00020   1.90657
   A44        1.87641   0.00028   0.00000   0.00502   0.00501   1.88142
   A45        1.92700   0.00154   0.00000   0.00820   0.00819   1.93519
   A46        1.89876   0.00022   0.00000   0.00137   0.00137   1.90013
   A47        1.92389  -0.00057   0.00000  -0.00239  -0.00237   1.92152
   A48        1.88178  -0.00167   0.00000  -0.00806  -0.00806   1.87372
   A49        1.89126  -0.00002   0.00000  -0.00275  -0.00274   1.88851
   A50        1.94088   0.00050   0.00000   0.00366   0.00365   1.94453
   A51        1.93431   0.00095   0.00000   0.00313   0.00315   1.93745
   A52        1.90410   0.00072   0.00000   0.00437   0.00438   1.90848
   A53        1.85267  -0.00072   0.00000  -0.00016  -0.00017   1.85250
   A54        1.93071  -0.00127   0.00000  -0.00723  -0.00725   1.92346
   A55        1.95040  -0.00013   0.00000  -0.00222  -0.00222   1.94818
   A56        1.88923   0.00050   0.00000   0.00259   0.00258   1.89181
   A57        1.94550   0.00116   0.00000   0.00361   0.00363   1.94913
   A58        1.93153  -0.00146   0.00000  -0.00904  -0.00905   1.92248
   A59        1.92844  -0.00021   0.00000  -0.00187  -0.00187   1.92657
   A60        1.90568   0.00064   0.00000   0.00483   0.00483   1.91052
   A61        1.86061  -0.00070   0.00000  -0.00059  -0.00059   1.86002
   A62        1.88991   0.00060   0.00000   0.00349   0.00347   1.89338
   A63        2.13759  -0.01619   0.00000  -0.06383  -0.06383   2.07375
    D1       -0.95165  -0.00040   0.00000  -0.01474  -0.01472  -0.96637
    D2       -3.10036  -0.00018   0.00000  -0.00624  -0.00626  -3.10661
    D3        1.10994  -0.00046   0.00000  -0.01261  -0.01264   1.09730
    D4        1.12754  -0.00014   0.00000  -0.01817  -0.01814   1.10940
[...]
 ,0.00000520,-0.00000357,-0.00000271,-0.00000212,0.00000470,0.00000170,
 -0.00000056,0.00000063,0.00000076,0.00000147,0.00042975,-0.00010176,0.
 00038227,-0.00008988,-0.00021012,0.00022938,0.00001973,0.00001017,0.00
 000583,-0.00000036,-0.00000240,0.00000057,-0.00000057,-0.00000095,-0.0
 0000066,-0.00043139,0.00016029,0.00071798,0.00117819,-0.00356203,-0.00
 104780,-0.07958572,-0.07884015,0.28124584,-0.00007236,-0.00004499,-0.0
 0000696,0.00000403,0.00002746,0.00001081,0.00086163,0.00091517,0.00133
 082,0.00028850,0.00007710,-0.00001190,-0.00004379,-0.00004205,-0.00001
 448,-0.00726347,-0.00211219,-0.00110296,-0.00519480,0.00294494,-0.0022
 3217,-0.00003508,0.00000321,0.00000520,-0.19632516,0.10012655,-0.08452
 353,0.00151851,-0.00169687,-0.00104618,-0.01567486,0.01615599,-0.01026
 864,0.00004420,0.00000609,0.00002043,-0.00055523,0.00039771,-0.0000484
 1,-0.00000448,-0.00000083,-0.00000516,-0.00000867,0.00004092,0.0000139
 1,-0.00001258,-0.00000352,0.00000083,-0.00000172,-0.00000130,-0.000002
 63,-0.00006821,0.00005894,-0.00016471,-0.00028100,0.00014950,-0.000343
 78,-0.00004617,-0.00002459,-0.00000936,0.00000076,0.00000487,-0.000000
 37,-0.00000048,0.00000378,0.00000294,0.00037529,0.00012127,0.00026679,
 0.00017682,-0.00025494,-0.00002125,0.00861268,-0.00552937,0.00375111,0
 .21213048,0.00000140,-0.00002251,0.00000600,-0.00000066,-0.00000485,-0
 .00000009,0.00035288,-0.00338058,-0.00468386,0.00004401,-0.00001008,0.
 00005472,-0.00000023,0.00000324,0.00000032,-0.00657077,-0.00061577,-0.
 00112811,0.01929995,-0.01274471,0.01211287,-0.00000811,0.00000229,0.00
 000016,0.10163419,-0.11750607,0.06031448,-0.00039155,-0.00179232,-0.00
 096878,-0.01218294,0.01163365,-0.00844466,0.00000315,0.00000964,0.0000
 0750,0.00005536,0.00055327,0.00018247,-0.00000438,0.00000395,0.0000048
 0,-0.00001166,0.00002014,0.00000522,0.00000117,0.00000100,-0.00000074,
 0.00000014,0.00000014,-0.00000011,-0.00032010,0.00012033,-0.00005541,0
 .00171660,-0.00052719,0.00049535,0.00002468,0.00000540,0.00000171,-0.0
 0000133,0.00000003,0.00000031,-0.00000098,-0.00000086,-0.00000051,-0.0
 0067923,0.00069728,0.00066669,-0.00043845,0.00126271,0.00003013,0.0070
 0605,-0.00538867,0.00384590,-0.11142169,0.12646408,0.00000555,-0.00001
 340,0.00000298,0.00000033,-0.00000262,0.00000006,0.00065718,-0.0030935
 4,-0.00204823,0.00002738,0.00000079,0.00002628,0.00000103,0.00000103,-
 0.00000073,-0.00190312,-0.00056976,0.00119953,0.01642877,-0.01012680,0
 .00830685,-0.00000592,0.00000127,-0.00000023,-0.08699621,0.06066218,-0
 .09684588,-0.00023077,-0.00076753,-0.00050013,-0.00086840,0.00260353,-
 0.00329792,0.00000269,0.00000682,0.00000312,0.00002208,0.00019586,0.00
 006519,-0.00000322,0.00000248,0.00000249,-0.00000797,0.00001453,0.0000
 0271,0.00000016,0.00000054,-0.00000047,-0.00000028,-0.00000004,0.00000
 003,0.00009524,-0.00009779,0.00020624,0.00087638,-0.00057829,0.0003709
 2,0.00001239,0.00000307,-0.00000078,-0.00000035,0.00000022,-0.00000046
 ,-0.00000022,-0.00000085,0.00000039,-0.00052255,0.00078758,0.00052136,
 -0.00012689,0.00086557,0.00100035,-0.02127343,0.01320122,-0.01132226,0
 .09370733,-0.06288506,0.10197330,-0.00314098,-0.00143784,0.00028438,0.
 00000059,0.00003478,0.00000164,-0.00562414,-0.01175850,0.01951516,0.00
 333664,0.00151124,-0.00070955,-0.00004064,-0.00001096,-0.00004976,-0.0
 0207377,0.00383518,0.01257157,0.00107392,-0.00017583,0.00098046,-0.000
 03383,-0.00005542,0.00002514,-0.00019110,0.00003986,-0.00023951,-0.072
 53699,-0.03418247,0.06305037,0.00140476,-0.00081672,0.00231285,-0.0000
 8367,0.00034773,-0.00015258,-0.00304998,0.01934017,-0.03239944,-0.0022
 7352,-0.00135075,-0.00010678,-0.00014852,-0.00026817,0.00015913,-0.000
 01389,-0.00000773,0.00000540,0.00000429,-0.00000010,0.00000152,-0.0027
 7929,-0.00304841,-0.00049073,0.00068078,0.00014055,-0.00055356,-0.0002
 8236,-0.00046878,0.00013578,0.00001051,-0.00004262,0.00002224,0.000034
 16,0.00000633,0.00006047,0.00012650,0.00004708,-0.00020075,-0.00007934
 ,0.00013690,-0.00034985,0.00004780,0.00002589,-0.00002029,-0.00006324,
 0.00002441,0.00000935,0.08564820,-0.00182156,-0.00026547,-0.00011557,-
 0.00001133,-0.00023405,-0.00001411,-0.00803312,-0.00835732,0.01941804,
 -0.00249629,-0.00134777,-0.00093209,0.00026647,0.00025527,0.00011041,0
 .01474009,-0.00052587,-0.03260069,0.00087623,0.00026359,0.00019643,-0.
 00002362,0.00007586,-0.00001304,0.00022483,-0.00019512,0.00032132,-0.0
 3180574,-0.09279147,0.09401985,-0.00257296,0.00268523,-0.00390903,-0.0
 0020345,0.00021481,-0.00045615,0.00671484,-0.00807274,0.01926479,-0.00
 086114,-0.00010156,-0.00042909,-0.00029196,-0.00025517,-0.00003464,0.0
 0006898,0.00003139,-0.00000428,0.00001046,0.00000621,0.00000175,-0.003
 13011,-0.00212110,-0.00016755,0.00078310,0.00073185,-0.00006275,0.0002
 2326,0.00019890,0.00004558,-0.00002116,-0.00001794,0.00000781,-0.00000
 593,-0.00002038,-0.00004128,0.00008158,0.00005013,-0.00033045,-0.00013
 341,0.00039200,-0.00042343,-0.00001065,-0.00008468,0.00006170,0.000111
 50,0.00016183,0.00010454,0.02802034,0.10939368,0.00138890,0.00011600,-
 0.00068960,-0.00003373,0.00025440,-0.00010189,-0.00147835,-0.00078117,
 0.00474425,0.00273461,0.00178327,-0.00002100,-0.00033398,-0.00024626,0
 .00001691,0.01399646,-0.00701613,-0.02874734,0.00035552,-0.00038664,0.
 00042163,0.00024473,-0.00019277,-0.00001706,0.00019467,-0.00042777,0.0
 0010987,0.05533458,0.08978742,-0.23451506,-0.00208063,0.00177603,-0.00
 029133,-0.00016019,-0.00020770,0.00067668,-0.00775285,0.01177551,-0.01
 322137,0.00096436,0.00063847,0.00131487,-0.00015238,-0.00026607,-0.000
 32026,-0.00003866,-0.00003358,0.00001332,-0.00001689,-0.00001332,0.000
 01377,-0.00149228,-0.00096832,0.00072786,0.00053360,0.00056212,0.00022
 749,-0.00024078,-0.00023978,0.00004787,0.00003325,-0.00005024,-0.00001
 131,-0.00003597,-0.00001011,-0.00005245,0.00006569,-0.00003503,0.00011
 267,0.00028914,-0.00017399,0.00003526,-0.00003888,0.00010727,-0.000128
 27,0.00014398,0.00009577,0.00004966,-0.06341697,-0.09502245,0.26828545
 ,0.00000583,0.00006637,0.00004206,-0.00000396,0.00003070,-0.00000237,-
 0.00015734,0.00015931,0.00029712,0.00024396,0.00012976,0.00002928,-0.0
 0005149,-0.00003247,-0.00001032,-0.00080373,0.01999837,-0.03033387,0.0
 0075206,0.00135924,0.00044559,0.00001214,-0.00000530,0.00000427,-0.008
 76797,-0.01079637,0.02448107,0.00212815,-0.00212831,-0.00416604,-0.073
 57568,-0.02988204,0.07238767,-0.00000164,-0.00003597,0.00000061,-0.000
 78528,0.00017577,0.00034109,0.00000947,-0.00000818,-0.00000525,0.00011
 778,-0.00007015,-0.00002818,-0.00000800,-0.00000472,0.00000182,-0.0000
 0120,-0.00000154,-0.00000040,-0.00008691,-0.00000168,0.00006977,0.0001
 8780,0.00006332,0.00009587,-0.00002358,-0.00002383,-0.00001495,0.00000
 125,0.00000073,-0.00000189,0.00000092,-0.00000141,0.00000033,-0.000027
 48,0.00021628,-0.00023772,0.00031965,-0.00008886,-0.00053843,-0.003673
 51,-0.00415739,-0.00108669,0.00088959,0.00073778,-0.00016668,-0.000013
 94,-0.00062867,0.00068647,0.08410214,0.00005248,0.00006649,0.00004434,
 0.00000073,-0.00001790,-0.00000347,0.00013763,-0.00033036,-0.00034466,
 -0.00015645,-0.00007093,-0.00001454,0.00003177,0.00002959,0.00001024,0
 .00629878,-0.01171713,0.01941550,0.00052040,0.00090895,0.00111647,0.00
 002397,-0.00000009,-0.00000432,-0.00821416,-0.00719113,0.01740568,-0.0
 0159204,0.00140055,0.00369315,-0.02916604,-0.08647208,0.07462497,-0.00
 002528,-0.00001410,-0.00002306,0.00063439,-0.00015033,-0.00042913,0.00
 000647,-0.00001583,-0.00001470,0.00009059,-0.00007337,-0.00000326,0.00
 000781,0.00000206,-0.00000009,0.00000121,0.00000093,0.00000093,0.00003
 462,0.00005692,-0.00002960,-0.00003808,-0.00010642,-0.00005186,0.00001
 972,0.00001900,0.00000953,-0.00000129,-0.00000362,0.00000098,0.0000001
 5,-0.00000078,-0.00000165,0.00004574,0.00020921,-0.00019912,0.00008337
 ,-0.00003813,-0.00026086,-0.00310654,-0.00153816,-0.00036025,0.0001893
 8,0.00065056,-0.00029607,0.00004881,0.00000093,-0.00051186,0.02762803,
 0.09350896,-0.00014499,-0.00007289,-0.00002207,0.00000177,0.00002858,0
 .00000923,-0.00017762,0.00007280,0.00018639,0.00023757,0.00006445,-0.0
 0001369,-0.00005045,-0.00005397,-0.00001080,-0.00894777,0.01347591,-0.
 01480218,-0.00048863,-0.00000287,0.00090387,-0.00004051,0.00000077,0.0
 0000733,-0.00044690,-0.00264704,0.00340721,0.00169248,-0.00350412,0.00
 025294,0.06947925,0.07807979,-0.24029879,0.00005105,0.00002428,0.00001
 503,-0.00058801,0.00009704,0.00029775,-0.00001897,0.00000605,-0.000014
 59,-0.00016006,0.00010106,-0.00001035,-0.00001280,-0.00000427,0.000000
 66,-0.00000172,-0.00000099,-0.00000219,0.00008571,-0.00001337,-0.00015
 830,0.00004181,0.00014743,0.00000934,-0.00004128,-0.00001913,-0.000009
 59,0.00000395,0.00000418,-0.00000157,0.00000075,0.00000380,0.00000365,
 0.00003211,0.00008217,0.00014114,-0.00013663,0.00049432,0.00011457,-0.
 00063589,-0.00091798,0.00103181,0.00073739,0.00047090,0.00025605,-0.00
 031332,0.00089910,0.00071496,-0.06701173,-0.09377486,0.26408326,-0.000
 08737,-0.00004768,-0.00002601,-0.00000395,0.00007271,0.00001899,-0.000
 54137,0.00044808,0.00019136,0.00061519,0.00032551,0.00005586,-0.000134
 93,-0.00012473,-0.00002470,-0.01442148,0.02905694,0.01779331,-0.005061
 95,-0.00281941,0.00032678,-0.00003454,-0.00000898,0.00001000,0.0077059
 3,-0.02063649,-0.01793123,-0.00110746,-0.00117816,-0.00445942,-0.05693
 989,0.03248834,0.03030124,0.00005693,-0.00000780,0.00002794,-0.0019337
 1,0.00214128,0.00004677,0.00000574,-0.00000495,-0.00001197,0.00000428,
 0.00002520,0.00002356,-0.00002764,-0.00001026,0.00000052,-0.00000490,-
 0.00000324,-0.00000439,0.00009318,-0.00001685,0.00003854,0.00029253,0.
 00011423,0.00010930,-0.00008294,-0.00004239,-0.00003534,0.00000733,0.0
 0000019,-0.00000270,0.00000490,0.00000105,0.00000566,0.00043284,-0.001
 61340,-0.00093504,-0.00001681,0.00018234,-0.00004822,0.00112102,0.0008
 7997,0.00047669,0.00076967,0.00112899,0.00026006,0.00000149,-0.0001125
 6,0.00010725,-0.00077973,0.00643639,0.00687639,0.07010259,0.00009073,0
 .00003472,0.00003618,0.00000241,-0.00005930,-0.00001854,-0.00000342,0.
 00037544,-0.00011576,-0.00044806,-0.00023976,-0.00001194,0.00010475,0.
 00009942,0.00002144,0.01194948,-0.01820608,-0.00993338,-0.00400531,-0.
 00094042,0.00029318,0.00003215,0.00000452,-0.00000638,0.00298288,-0.01
 335525,-0.01271532,-0.00047203,0.00259374,0.00393480,0.03638645,-0.196
 87919,-0.12662073,-0.00005022,0.00000415,-0.00002667,0.00152505,-0.001
 13933,-0.00012441,0.00000267,0.00000402,0.00000686,0.00000735,-0.00003
 295,-0.00001142,0.00002253,0.00000849,-0.00000111,0.00000398,0.0000028
 1,0.00000383,0.00002747,-0.00003663,0.00005402,-0.00001924,-0.00011547
 ,-0.00004887,0.00007727,0.00004007,0.00002102,-0.00000620,-0.00000260,
 0.00000181,-0.00000272,-0.00000341,-0.00000446,0.00034740,-0.00089004,
 -0.00076597,0.00009564,0.00004155,-0.00018716,0.00081128,0.00067473,0.
 00041603,-0.00019243,0.00040355,-0.00001916,0.00005939,-0.00005989,-0.
 00041770,-0.00269707,0.01088098,0.00696982,-0.04665995,0.21677867,-0.0
 0001426,-0.00001747,-0.00002788,-0.00000555,0.00002316,0.00000260,-0.0
 0015862,0.00030550,-0.00000531,0.00010665,0.00012061,0.00000295,-0.000
 04913,-0.00003907,-0.00000423,-0.00652086,0.01582085,0.01208318,-0.001
 38037,-0.00045073,0.00114210,-0.00000206,-0.00000439,0.00000392,0.0014
 4578,-0.00041465,-0.00145683,-0.00107127,0.00048201,-0.00104674,0.0375
 7806,-0.13563632,-0.16896485,0.00001039,-0.00000754,0.00000579,-0.0009
 7482,0.00067262,0.00011716,-0.00000294,0.00000339,0.00000168,-0.000013
 75,-0.00000558,0.00000124,-0.00000804,-0.00000337,-0.00000040,-0.00000
 135,-0.00000085,-0.00000044,0.00002073,-0.00001485,-0.00000202,0.00012
 764,0.00003680,0.00000762,-0.00002485,-0.00001569,-0.00000710,0.000003
 92,-0.00000049,-0.00000159,0.00000306,0.00000013,0.00000142,0.00023439
 ,-0.00047459,-0.00005957,-0.00007812,0.00025647,0.00029003,-0.00048500
 ,0.00011570,0.00076779,-0.00018727,-0.00012702,0.00002974,-0.00008060,
 0.00010786,0.00054439,0.00472008,-0.01999819,-0.01609057,-0.03318814,0
 .13926689,0.17266441,-0.00766395,-0.00956403,-0.02985898,0.00061798,-0
 .00266999,0.00297070,0.00000894,-0.00002160,0.00014911,0.00088326,0.00
 128469,-0.00184466,-0.00028975,0.00019350,-0.00033884,-0.00013004,0.00
 007709,0.00010036,0.00001237,-0.00001100,0.00000754,-0.00151230,0.0184
 0912,0.02745024,-0.00000322,0.00000605,-0.00001316,-0.00002241,-0.0000
 4658,-0.00030062,0.00007090,-0.00003823,0.00002756,-0.06129262,-0.0166
 1173,-0.05528927,-0.00015948,0.00016554,0.00033643,-0.00545651,-0.0029
 8357,0.00006827,0.00116903,0.00063824,0.00040919,-0.00009495,-0.000076
 63,-0.00009042,-0.00000061,-0.00063781,-0.00086838,-0.00004744,-0.0000
 4082,-0.00000232,-0.00000096,-0.00000425,-0.00000613,0.00018390,-0.000
 07922,0.00058782,0.00022822,-0.00003872,-0.00004748,-0.00003292,0.0000
 2868,0.00002903,-0.00000996,0.00000195,-0.00000420,0.00000056,0.000002
 97,-0.00000058,-0.00000098,-0.00000176,0.00000253,-0.00000719,0.000000
 56,-0.00000046,0.00003591,-0.00005826,0.00023275,-0.00000131,0.0000002
 5,-0.00000820,-0.00001178,0.00000895,0.00000036,0.07160866,-0.00437139
 ,-0.00213130,-0.01068630,-0.00060750,0.00236631,-0.00443066,0.00000617
 ,-0.00000746,0.00007149,0.00026052,0.00003184,-0.00127237,-0.00003733,
 -0.00038942,0.00043523,-0.00002516,0.00002523,0.00001220,0.00000494,-0
 .00000350,0.00000308,0.00762471,-0.01756134,-0.02685313,-0.00000019,0.
 00000153,-0.00000375,-0.00007541,-0.00003551,-0.00011930,0.00001868,-0
 .00001000,0.00000767,-0.01708806,-0.06869932,-0.05385109,0.00000006,0.
 00016043,0.00013115,-0.00182546,0.00023030,-0.00028167,-0.00003959,0.0
 0032024,0.00016665,0.00005494,0.00008290,0.00028307,-0.00008033,0.0003
 4143,0.00073758,-0.00002139,-0.00001775,-0.00000247,0.00000024,-0.0000
 0103,-0.00000231,-0.00006262,-0.00002421,0.00006751,-0.00014703,-0.000
 06274,0.00006192,0.00006773,0.00003639,0.00005058,-0.00000328,0.000000
 86,-0.00000185,0.00000027,0.00000119,-0.00000060,-0.00000063,-0.000000
 64,0.00000109,-0.00000225,0.00000044,0.00000004,-0.00001541,-0.0000477
 4,0.00009731,0.00000072,0.00000039,-0.00000229,-0.00000389,0.00000360,
 0.00000007,0.01114505,0.07655921,-0.00146093,0.00004150,-0.00205068,-0
 .00016657,0.00261130,0.00166065,0.00000941,0.00000117,0.00001258,0.000
 99532,0.00081240,0.00018620,0.00009351,-0.00009790,0.00007109,-0.00009
 141,0.00000545,0.00005188,0.00000367,-0.00000738,0.00000302,0.00764248
 ,-0.01146837,-0.00989186,-0.00000376,0.00000484,-0.00000812,0.00011074
 ,0.00004270,-0.00015571,0.00003304,-0.00002626,0.00001605,-0.05290142,
 -0.05855200,-0.27162255,-0.00028225,-0.00004445,0.00024893,-0.00042268
 ,0.00013232,0.00098249,-0.00057456,-0.00021904,0.00012486,0.00015288,-
 0.00010975,0.00044275,-0.00013911,-0.00120439,0.00055043,-0.00000966,-
 0.00000996,-0.00000122,-0.00000212,-0.00000498,-0.00000098,0.00008184,
 -0.00046111,0.00046549,-0.00004142,-0.00011835,-0.00002572,-0.00010238
 ,0.00005695,-0.00019545,-0.00000591,0.00000044,-0.00000111,0.00000014,
 0.00000052,-0.00000009,-0.00000079,-0.00000034,0.00000189,-0.00000423,
 -0.00000028,-0.00000029,-0.00005872,-0.00001320,0.00008364,0.00000119,
 0.00000103,-0.00000470,-0.00000626,0.00000616,0.00000147,0.05194971,0.
 07304553,0.29552205,-0.00445858,-0.02551986,0.02032330,-0.00288765,0.0
 0193308,0.00265255,-0.00010974,0.00013785,-0.00005153,-0.00523461,0.00
 080858,-0.00281310,-0.00020339,0.00049634,-0.00018195,-0.00025391,0.00
 019782,0.00002426,-0.00002111,-0.00006878,0.00000944,-0.00063514,0.027
 07684,-0.01621450,-0.00000870,0.00001311,-0.00002449,0.00106459,-0.000
 49374,0.00033606,0.00007437,-0.00005058,0.00007769,-0.05354915,-0.0349
 1733,0.02644924,-0.00176858,-0.00268595,0.00116831,0.00150098,0.000645
 25,-0.00036275,0.00119260,0.00080841,-0.00003963,0.00012142,0.00128514
 ,-0.00058529,-0.00003595,-0.00011725,0.00000703,-0.00000585,-0.0000029
 5,-0.00000566,0.00000095,-0.00000455,-0.00000256,0.00003088,0.00019819
 ,0.00009435,0.00030177,-0.00006710,0.00000331,0.00010444,-0.00006842,-
 0.00002832,-0.00003183,0.00001047,-0.00001413,-0.00000421,0.00000438,-
 0.00000623,-0.00000008,-0.00000004,0.00000383,-0.00001367,0.00000075,0
 .00000055,0.00002363,0.00010023,-0.00003342,-0.00000798,0.00000720,-0.
 00001474,-0.00002319,0.00001883,-0.00000405,0.00191864,0.00522287,-0.0
 0479975,0.06291902,-0.00336726,-0.00790606,0.00696235,0.00334380,0.000
 05470,-0.00401100,-0.00003853,0.00004663,-0.00000880,-0.00149299,0.001
 62496,-0.00125244,0.00015378,0.00018671,0.00008652,-0.00014819,0.00007
 313,0.00002582,-0.00000513,-0.00002818,0.00000670,0.00393485,-0.027563
 91,0.01475611,-0.00000509,0.00000804,-0.00001166,0.00038785,-0.0001818
 3,0.00013997,0.00003971,-0.00003279,0.00003904,-0.02856126,-0.20956995
 ,0.12625998,-0.00054720,-0.00057013,0.00035951,0.00062660,0.00023920,-
 0.00012472,-0.00017364,0.00038412,-0.00003785,0.00000738,-0.00116817,0
 .00083901,-0.00001315,0.00002349,0.00034051,-0.00000798,-0.00000525,-0
 .00000411,-0.00000021,-0.00000444,-0.00000138,0.00010935,-0.00001789,0
 .00019826,-0.00016350,-0.00006902,0.00004199,-0.00001830,-0.00002538,-
 0.00003804,-0.00001324,0.00000374,-0.00000557,-0.00000130,0.00000247,-
 0.00000350,0.00000009,-0.00000032,0.00000182,-0.00000736,0.00000009,-0
 .00000034,0.00002104,0.00003657,0.00000733,-0.00000244,0.00000484,-0.0
 0000866,-0.00001048,0.00000986,-0.00000124,0.00092156,0.00882966,-0.00
 442453,0.02503123,0.23561514,-0.00164935,-0.00459555,0.00263110,0.0009
 2467,-0.00142430,0.00023247,0.00002003,-0.00002467,-0.00000681,-0.0006
 0696,-0.00009057,0.00047777,0.00004932,-0.00023383,-0.00012310,0.00003
 433,-0.00002300,-0.00001317,0.00000184,0.00001308,-0.00000384,-0.00062
 744,-0.01180494,0.00890489,0.00000037,-0.00000134,0.00000434,-0.000019
 79,0.00006762,0.00001593,-0.00001415,0.00001214,-0.00001080,0.02234625
 ,0.13627715,-0.16002722,-0.00013461,-0.00004913,0.00034834,0.00055978,
 -0.00010321,0.00070852,0.00042235,0.00027159,0.00006341,0.00013020,-0.
 00023844,0.00041433,0.00008226,-0.00011806,0.00042410,0.00000314,0.000
 00520,-0.00000240,-0.00000116,-0.00000073,0.00000075,0.00016866,-0.000
 16695,0.00037566,-0.00010155,0.00001282,-0.00001679,0.00000914,0.00000
 809,-0.00001607,0.00000549,-0.00000200,0.00000248,0.00000003,-0.000000
 87,0.00000117,-0.00000002,-0.00000031,-0.00000071,0.00000247,-0.000000
 64,0.00000010,0.00000697,0.00001061,-0.00002361,0.00000022,-0.00000127
 ,0.00000421,0.00000319,-0.00000306,0.00000004,0.00435213,0.02233560,-0
 .01646701,-0.02596781,-0.14013103,0.16210194\\-0.00079909,0.00161075,0
 .00210628,-0.00000334,-0.00001404,-0.00000064,-0.00001181,0.00002260,0
 .00001575,0.00147668,-0.00301239,-0.00434927,-0.00000370,-0.00000020,-
 0.00000177,-0.00000220,0.00002911,0.00000200,0.00000456,-0.00001134,0.
 00000148,0.00002705,-0.00000746,-0.00000657,-0.00000338,-0.00000161,0.
 00000186,0.00063606,-0.00137797,-0.00268194,0.00000030,-0.00001268,0.0
 0001699,-0.00002534,0.00000615,-0.00000234,-0.00135511,0.00277029,0.00
 491511,-0.00000016,-0.00000031,0.00000822,0.00001016,-0.00000673,-0.00
 000956,-0.00000301,0.00000504,0.00000316,-0.00000416,-0.00001059,-0.00
 000326,0.00000438,0.00000470,-0.00001311,0.00001005,0.00000072,0.00000
 070,0.00000252,0.00000113,-0.00000380,0.00000833,-0.00000606,-0.000003
 10,-0.00000222,0.00000065,0.00001083,0.00000314,0.00000700,-0.00000479
 ,-0.00000358,0.00000308,0.00000541,0.00000283,0.00000642,-0.00000938,0
 .00000519,0.00001453,0.00000469,0.00001805,-0.00001094,0.00000696,-0.0
 0000286,0.00000397,0.00000021,0.00000232,0.00000224,-0.00000844,0.0000
 0279,-0.00000678,-0.00000880,0.00000557,-0.00000931,0.00000708\\\@


 ... IT CAN BE VERY DIFFICULT, IN THESE COMPLEX TIMES,
 TO UNDERSTAND JUST HOW SCIENTISTS DO WHAT THEY DO.

                     DON MOSER IN THE FEBRUARY 1979 SMITHSONIAN
 Job cpu time:       0 days 13 hours  8 minutes 46.6 seconds.
 Elapsed time:       0 days  1 hours  5 minutes 48.6 seconds.
 File lengths (MBytes):  RWF=    721 Int=      0 D2E=      0 Chk=     34 Scr=      1
 Normal termination of Gaussian 16 at Sat Mar  9 14:27:40 2019.
