 Entering Gaussian System, Link 0=g16
 Initial command:
 /apps/gaussian/g16a03/g16/l1.exe "/jobfs/local/2011970.r-man2/Gau-25420.inp" -scrdir="/jobfs/local/2011970.r-man2/"
 Entering Link 1 = /apps/gaussian/g16a03/g16/l1.exe PID=     25421.
  
 Copyright (c) 1988,1990,1992,1993,1995,1998,2003,2009,2016,
            Gaussian, Inc.  All Rights Reserved.
  
 This is part of the Gaussian(R) 16 program.  It is based on
 the Gaussian(R) 09 system (copyright 2009, Gaussian, Inc.),
 the Gaussian(R) 03 system (copyright 2003, Gaussian, Inc.),
 the Gaussian(R) 98 system (copyright 1998, Gaussian, Inc.),
 the Gaussian(R) 94 system (copyright 1995, Gaussian, Inc.),
 the Gaussian 92(TM) system (copyright 1992, Gaussian, Inc.),
 the Gaussian 90(TM) system (copyright 1990, Gaussian, Inc.),
 the Gaussian 88(TM) system (copyright 1988, Gaussian, Inc.),
 the Gaussian 86(TM) system (copyright 1986, Carnegie Mellon
 University), and the Gaussian 82(TM) system (copyright 1983,
 Carnegie Mellon University). Gaussian is a federally registered
 trademark of Gaussian, Inc.
  
 This software contains proprietary and confidential information,
 including trade secrets, belonging to Gaussian, Inc.
  
 This software is provided under written license and may be
 used, copied, transmitted, or stored only in accord with that
 written license.
  
 The following legend is applicable only to US Government
 contracts under FAR:
  
                    RESTRICTED RIGHTS LEGEND
  
 Use, reproduction and disclosure by the US Government is
 subject to restrictions as set forth in subparagraphs (a)
 and (c) of the Commercial Computer Software - Restricted
 Rights clause in FAR 52.227-19.
  
 Gaussian, Inc.
 340 Quinnipiac St., Bldg. 40, Wallingford CT 06492
  
  
 ---------------------------------------------------------------
 Warning -- This program may not be used in any manner that
 competes with the business of Gaussian, Inc. or will provide
 assistance to any competitor of Gaussian, Inc.  The licensee
 of this program is prohibited from giving any competitor of
 Gaussian, Inc. access to this program.  By using this program,
 the user acknowledges that Gaussian, Inc. is engaged in the
 business of creating and licensing software in the field of
 computational chemistry and represents and warrants to the
 licensee that it is not a competitor of Gaussian, Inc. and that
 it will not use this program in any manner prohibited above.
 ---------------------------------------------------------------
  

 Cite this work as:
 Gaussian 16, Revision A.03,
 M. J. Frisch, G. W. Trucks, H. B. Schlegel, G. E. Scuseria, 
 M. A. Robb, J. R. Cheeseman, G. Scalmani, V. Barone, 
 G. A. Petersson, H. Nakatsuji, X. Li, M. Caricato, A. V. Marenich, 
 J. Bloino, B. G. Janesko, R. Gomperts, B. Mennucci, H. P. Hratchian, 
 J. V. Ortiz, A. F. Izmaylov, J. L. Sonnenberg, D. Williams-Young, 
 F. Ding, F. Lipparini, F. Egidi, J. Goings, B. Peng, A. Petrone, 
 T. Henderson, D. Ranasinghe, V. G. Zakrzewski, J. Gao, N. Rega, 
 G. Zheng, W. Liang, M. Hada, M. Ehara, K. Toyota, R. Fukuda, 
 J. Hasegawa, M. Ishida, T. Nakajima, Y. Honda, O. Kitao, H. Nakai, 
 T. Vreven, K. Throssell, J. A. Montgomery, Jr., J. E. Peralta, 
 F. Ogliaro, M. J. Bearpark, J. J. Heyd, E. N. Brothers, K. N. Kudin, 
 V. N. Staroverov, T. A. Keith, R. Kobayashi, J. Normand, 
 K. Raghavachari, A. P. Rendell, J. C. Burant, S. S. Iyengar, 
 J. Tomasi, M. Cossi, J. M. Millam, M. Klene, C. Adamo, R. Cammi, 
 J. W. Ochterski, R. L. Martin, K. Morokuma, O. Farkas, 
 J. B. Foresman, and D. J. Fox, Gaussian, Inc., Wallingford CT, 2016.
 
 ******************************************
 Gaussian 16:  ES64L-G16RevA.03 25-Dec-2016
                 4-Nov-2018 
 ******************************************
 %mem=6000mb
 %nproc=24
 Will use up to   24 processors via shared memory.
 %chk=D_1a_4e_D_PSI.inp_extract_22.chk
 ----------------------------------------------------------------------
 #M062X/6-311++G(2d,2p) opt=ModRedundant freq=noraman SCRF=(Solvent=Wat
 er)
 ----------------------------------------------------------------------
 1/18=120,19=15,26=3,38=1/1,3;
 2/9=110,12=2,17=6,18=5,40=1/2;
 3/5=4,6=6,7=1212,11=2,25=1,30=1,70=2201,71=1,72=1,74=-55/1,2,3;
 4//1;
 5/5=2,38=5,53=1/2;
 6/7=2,8=2,9=2,10=2,28=1/1;
 7//1,2,3,16;
 1/18=20,19=15,26=3/3(2);
 2/9=110/2;
 99//99;
 2/9=110/2;
 3/5=4,6=6,7=1212,11=2,25=1,30=1,70=2205,71=1,72=1,74=-55/1,2,3;
 4/5=5,16=3,69=1/1;
 5/5=2,38=5,53=1/2;
 7//1,2,3,16;
 1/18=20,19=15,26=3/3(-5);
 2/9=110/2;
 6/7=2,8=2,9=2,10=2,19=2,28=1/1;
 99/9=1/99;
 ----------------------------
 D_1a_4e_D_PSI.inp_extract_22
 ----------------------------
 Symbolic Z-matrix:
 Charge =  0 Multiplicity = 1
 C                    -3.48167   0.87184   0.05203 
 C                    -1.10088  -0.73343   0.43673 
 C                     1.07479  -0.33098  -0.66117 
 C                    -3.32343  -0.42818  -0.73613 
 O                     3.20957  -1.03245   0.16668 
 C                     3.633     0.29077   0.44606 
 C                    -2.11643   1.43861   0.40322 
 C                     1.43686   1.13322  -0.43023 
 C                     1.81995  -1.21925   0.33416 
 C                     2.96061   1.28534  -0.48689 
 O                    -1.3198    0.48581   1.09523 
 O                    -0.3232   -0.57937  -0.71774 
 C                    -2.41578  -1.38714   0.03488 
 H                    -4.03783   0.68251   0.96728 
 H                    -4.03556   1.61137  -0.51933 
 H                     1.41739  -0.61097  -1.65 
 H                    -4.28986  -0.89327  -0.90484 
 H                    -2.89925  -0.21439  -1.71353 
 H                     4.70734   0.29736   0.32347 
 H                     3.40448   0.52261   1.4838 
 H                    -1.59677   1.76214  -0.49161 
 H                    -2.19818   2.28583   1.07004 
 H                     1.07453   1.45719   0.53954 
 H                     0.96381   1.75368  -1.18455 
 H                     3.31286   1.1144   -1.50108 
 H                     3.25231   2.29338  -0.20745 
 H                    -2.91365  -1.69638   0.94997 
 H                    -2.20227  -2.28284  -0.53805 
 H                    -0.58573  -1.34844   1.15661 
 H                     1.55548  -0.98554   1.36063 
 H                     1.61617  -2.26549   0.1499 
 
 The following ModRedundant input section has been read:
 D       8       3      12       2 F                                           
 

 GradGradGradGradGradGradGradGradGradGradGradGradGradGradGradGradGradGrad
 Berny optimization.
 Initialization pass.
                           ----------------------------
                           !    Initial Parameters    !
                           ! (Angstroms and Degrees)  !
 --------------------------                            --------------------------
 ! Name  Definition              Value          Derivative Info.                !
 --------------------------------------------------------------------------------
 ! R1    R(1,4)                  1.5285         estimate D2E/DX2                !
 ! R2    R(1,7)                  1.5194         estimate D2E/DX2                !
 ! R3    R(1,14)                 1.0876         estimate D2E/DX2                !
 ! R4    R(1,15)                 1.0864         estimate D2E/DX2                !
 ! R5    R(2,11)                 1.4029         estimate D2E/DX2                !
 ! R6    R(2,12)                 1.4005         estimate D2E/DX2                !
 ! R7    R(2,13)                 1.5224         estimate D2E/DX2                !
 ! R8    R(2,29)                 1.0779         estimate D2E/DX2                !
 ! R9    R(3,8)                  1.5259         estimate D2E/DX2                !
 ! R10   R(3,9)                  1.5281         estimate D2E/DX2                !
 ! R11   R(3,12)                 1.421          estimate D2E/DX2                !
 ! R12   R(3,16)                 1.0833         estimate D2E/DX2                !
 ! R13   R(4,13)                 1.529          estimate D2E/DX2                !
 ! R14   R(4,17)                 1.0857         estimate D2E/DX2                !
 ! R15   R(4,18)                 1.0867         estimate D2E/DX2                !
 ! R16   R(5,6)                  1.4171         estimate D2E/DX2                !
 ! R17   R(5,9)                  1.4121         estimate D2E/DX2                !
 ! R18   R(6,10)                 1.5204         estimate D2E/DX2                !
 ! R19   R(6,19)                 1.0813         estimate D2E/DX2                !
 ! R20   R(6,20)                 1.0876         estimate D2E/DX2                !
 ! R21   R(7,11)                 1.4217         estimate D2E/DX2                !
 ! R22   R(7,21)                 1.0842         estimate D2E/DX2                !
 ! R23   R(7,22)                 1.0813         estimate D2E/DX2                !
 ! R24   R(8,10)                 1.5324         estimate D2E/DX2                !
 ! R25   R(8,23)                 1.0848         estimate D2E/DX2                !
 ! R26   R(8,24)                 1.0852         estimate D2E/DX2                !
 ! R27   R(9,30)                 1.0855         estimate D2E/DX2                !
 ! R28   R(9,31)                 1.0817         estimate D2E/DX2                !
 ! R29   R(10,25)                1.0871         estimate D2E/DX2                !
 ! R30   R(10,26)                1.086          estimate D2E/DX2                !
 ! R31   R(13,27)                1.0867         estimate D2E/DX2                !
 ! R32   R(13,28)                1.0845         estimate D2E/DX2                !
 ! A1    A(4,1,7)              110.0866         estimate D2E/DX2                !
 ! A2    A(4,1,14)             109.8046         estimate D2E/DX2                !
 ! A3    A(4,1,15)             111.1352         estimate D2E/DX2                !
 ! A4    A(7,1,14)             109.2646         estimate D2E/DX2                !
 ! A5    A(7,1,15)             109.0127         estimate D2E/DX2                !
 ! A6    A(14,1,15)            107.4802         estimate D2E/DX2                !
 ! A7    A(11,2,12)            112.2095         estimate D2E/DX2                !
 ! A8    A(11,2,13)            111.2408         estimate D2E/DX2                !
 ! A9    A(11,2,29)            104.8904         estimate D2E/DX2                !
 ! A10   A(12,2,13)            108.0143         estimate D2E/DX2                !
 ! A11   A(12,2,29)            110.3603         estimate D2E/DX2                !
 ! A12   A(13,2,29)            110.1246         estimate D2E/DX2                !
 ! A13   A(8,3,9)              110.091          estimate D2E/DX2                !
 ! A14   A(8,3,12)             114.0291         estimate D2E/DX2                !
 ! A15   A(8,3,16)             108.1262         estimate D2E/DX2                !
 ! A16   A(9,3,12)             113.833          estimate D2E/DX2                !
 ! A17   A(9,3,16)             106.8639         estimate D2E/DX2                !
 ! A18   A(12,3,16)            103.2743         estimate D2E/DX2                !
 ! A19   A(1,4,13)             109.5642         estimate D2E/DX2                !
 ! A20   A(1,4,17)             110.6299         estimate D2E/DX2                !
 ! A21   A(1,4,18)             109.686          estimate D2E/DX2                !
 ! A22   A(13,4,17)            109.7606         estimate D2E/DX2                !
 ! A23   A(13,4,18)            110.1941         estimate D2E/DX2                !
 ! A24   A(17,4,18)            106.9752         estimate D2E/DX2                !
 ! A25   A(6,5,9)              113.2144         estimate D2E/DX2                !
 ! A26   A(5,6,10)             110.9581         estimate D2E/DX2                !
 ! A27   A(5,6,19)             106.2722         estimate D2E/DX2                !
 ! A28   A(5,6,20)             108.9276         estimate D2E/DX2                !
 ! A29   A(10,6,19)            111.4588         estimate D2E/DX2                !
 ! A30   A(10,6,20)            110.6779         estimate D2E/DX2                !
 ! A31   A(19,6,20)            108.3986         estimate D2E/DX2                !
 ! A32   A(1,7,11)             111.4689         estimate D2E/DX2                !
 ! A33   A(1,7,21)             110.5627         estimate D2E/DX2                !
 ! A34   A(1,7,22)             111.5245         estimate D2E/DX2                !
 ! A35   A(11,7,21)            109.46           estimate D2E/DX2                !
 ! A36   A(11,7,22)            105.5038         estimate D2E/DX2                !
 ! A37   A(21,7,22)            108.1453         estimate D2E/DX2                !
 ! A38   A(3,8,10)             109.0028         estimate D2E/DX2                !
 ! A39   A(3,8,23)             110.0368         estimate D2E/DX2                !
 ! A40   A(3,8,24)             109.876          estimate D2E/DX2                !
 ! A41   A(10,8,23)            109.6061         estimate D2E/DX2                !
 ! A42   A(10,8,24)            110.5479         estimate D2E/DX2                !
 ! A43   A(23,8,24)            107.7609         estimate D2E/DX2                !
 ! A44   A(3,9,5)              109.0104         estimate D2E/DX2                !
 ! A45   A(3,9,30)             111.8391         estimate D2E/DX2                !
 ! A46   A(3,9,31)             111.0647         estimate D2E/DX2                !
 ! A47   A(5,9,30)             108.8716         estimate D2E/DX2                !
 ! A48   A(5,9,31)             107.0455         estimate D2E/DX2                !
 ! A49   A(30,9,31)            108.8707         estimate D2E/DX2                !
 ! A50   A(6,10,8)             110.6174         estimate D2E/DX2                !
 ! A51   A(6,10,25)            109.0431         estimate D2E/DX2                !
 ! A52   A(6,10,26)            109.3003         estimate D2E/DX2                !
 ! A53   A(8,10,25)            109.9426         estimate D2E/DX2                !
 ! A54   A(8,10,26)            110.4712         estimate D2E/DX2                !
 ! A55   A(25,10,26)           107.396          estimate D2E/DX2                !
 ! A56   A(2,11,7)             116.1938         estimate D2E/DX2                !
 ! A57   A(2,12,3)             122.1889         estimate D2E/DX2                !
 ! A58   A(2,13,4)             112.1169         estimate D2E/DX2                !
 ! A59   A(2,13,27)            107.1952         estimate D2E/DX2                !
 ! A60   A(2,13,28)            108.9075         estimate D2E/DX2                !
 ! A61   A(4,13,27)            109.3374         estimate D2E/DX2                !
 ! A62   A(4,13,28)            111.6216         estimate D2E/DX2                !
 ! A63   A(27,13,28)           107.4597         estimate D2E/DX2                !
 ! D1    D(7,1,4,13)            53.1272         estimate D2E/DX2                !
 ! D2    D(7,1,4,17)           174.2704         estimate D2E/DX2                !
 ! D3    D(7,1,4,18)           -67.9533         estimate D2E/DX2                !
 ! D4    D(14,1,4,13)          -67.2089         estimate D2E/DX2                !
 ! D5    D(14,1,4,17)           53.9344         estimate D2E/DX2                !
 ! D6    D(14,1,4,18)          171.7107         estimate D2E/DX2                !
 ! D7    D(15,1,4,13)          174.0081         estimate D2E/DX2                !
 ! D8    D(15,1,4,17)          -64.8486         estimate D2E/DX2                !
 ! D9    D(15,1,4,18)           52.9277         estimate D2E/DX2                !
 ! D10   D(4,1,7,11)           -54.8877         estimate D2E/DX2                !
 ! D11   D(4,1,7,21)            67.1096         estimate D2E/DX2                !
 ! D12   D(4,1,7,22)          -172.5253         estimate D2E/DX2                !
 ! D13   D(14,1,7,11)           65.7736         estimate D2E/DX2                !
 ! D14   D(14,1,7,21)         -172.229          estimate D2E/DX2                !
 ! D15   D(14,1,7,22)          -51.8639         estimate D2E/DX2                !
 ! D16   D(15,1,7,11)         -177.0339         estimate D2E/DX2                !
 ! D17   D(15,1,7,21)          -55.0365         estimate D2E/DX2                !
 ! D18   D(15,1,7,22)           65.3286         estimate D2E/DX2                !
 ! D19   D(12,2,11,7)           66.5445         estimate D2E/DX2                !
 ! D20   D(13,2,11,7)          -54.5923         estimate D2E/DX2                !
 ! D21   D(29,2,11,7)         -173.6257         estimate D2E/DX2                !
 ! D22   D(11,2,12,3)           73.8116         estimate D2E/DX2                !
 ! D23   D(13,2,12,3)         -163.2139         estimate D2E/DX2                !
 ! D24   D(29,2,12,3)          -42.7768         estimate D2E/DX2                !
 ! D25   D(11,2,13,4)           51.5095         estimate D2E/DX2                !
 ! D26   D(11,2,13,27)         -68.4852         estimate D2E/DX2                !
 ! D27   D(11,2,13,28)         175.5396         estimate D2E/DX2                !
 ! D28   D(12,2,13,4)          -72.0533         estimate D2E/DX2                !
 ! D29   D(12,2,13,27)         167.9519         estimate D2E/DX2                !
 ! D30   D(12,2,13,28)          51.9767         estimate D2E/DX2                !
 ! D31   D(29,2,13,4)          167.3621         estimate D2E/DX2                !
 ! D32   D(29,2,13,27)          47.3673         estimate D2E/DX2                !
 ! D33   D(29,2,13,28)         -68.6079         estimate D2E/DX2                !
 ! D34   D(9,3,8,10)            54.5536         estimate D2E/DX2                !
 ! D35   D(9,3,8,23)           -65.6685         estimate D2E/DX2                !
 ! D36   D(9,3,8,24)           175.8346         estimate D2E/DX2                !
 ! D37   D(12,3,8,10)         -176.0893         estimate D2E/DX2                !
 ! D38   D(12,3,8,23)           63.6887         estimate D2E/DX2                !
 ! D39   D(12,3,8,24)          -54.8083         estimate D2E/DX2                !
 ! D40   D(16,3,8,10)          -61.8546         estimate D2E/DX2                !
 ! D41   D(16,3,8,23)          177.9233         estimate D2E/DX2                !
 ! D42   D(16,3,8,24)           59.4264         estimate D2E/DX2                !
 ! D43   D(8,3,9,5)            -59.2198         estimate D2E/DX2                !
 ! D44   D(8,3,9,30)            61.22           estimate D2E/DX2                !
 ! D45   D(8,3,9,31)          -176.9264         estimate D2E/DX2                !
 ! D46   D(12,3,9,5)           171.3171         estimate D2E/DX2                !
 ! D47   D(12,3,9,30)          -68.243          estimate D2E/DX2                !
 ! D48   D(12,3,9,31)           53.6106         estimate D2E/DX2                !
 ! D49   D(16,3,9,5)            57.976          estimate D2E/DX2                !
 ! D50   D(16,3,9,30)          178.4159         estimate D2E/DX2                !
 ! D51   D(16,3,9,31)          -59.7305         estimate D2E/DX2                !
 ! D52   D(8,3,12,2)           -82.2405         Frozen                          !
 ! D53   D(9,3,12,2)            45.2126         estimate D2E/DX2                !
 ! D54   D(16,3,12,2)          160.6842         estimate D2E/DX2                !
 ! D55   D(1,4,13,2)           -51.9549         estimate D2E/DX2                !
 ! D56   D(1,4,13,27)           66.7831         estimate D2E/DX2                !
 ! D57   D(1,4,13,28)         -174.4573         estimate D2E/DX2                !
 ! D58   D(17,4,13,2)         -173.6219         estimate D2E/DX2                !
 ! D59   D(17,4,13,27)         -54.8839         estimate D2E/DX2                !
 ! D60   D(17,4,13,28)          63.8757         estimate D2E/DX2                !
 ! D61   D(18,4,13,2)           68.8179         estimate D2E/DX2                !
 ! D62   D(18,4,13,27)        -172.4441         estimate D2E/DX2                !
 ! D63   D(18,4,13,28)         -53.6845         estimate D2E/DX2                !
 ! D64   D(9,5,6,10)           -60.9386         estimate D2E/DX2                !
 ! D65   D(9,5,6,19)           177.7358         estimate D2E/DX2                !
 ! D66   D(9,5,6,20)            61.1405         estimate D2E/DX2                !
 ! D67   D(6,5,9,3)             62.8088         estimate D2E/DX2                !
 ! D68   D(6,5,9,30)           -59.439          estimate D2E/DX2                !
 ! D69   D(6,5,9,31)          -176.9755         estimate D2E/DX2                !
 ! D70   D(5,6,10,8)            54.4265         estimate D2E/DX2                !
 ! D71   D(5,6,10,25)          -66.5962         estimate D2E/DX2                !
 ! D72   D(5,6,10,26)          176.2748         estimate D2E/DX2                !
 ! D73   D(19,6,10,8)          172.6531         estimate D2E/DX2                !
 ! D74   D(19,6,10,25)          51.6304         estimate D2E/DX2                !
 ! D75   D(19,6,10,26)         -65.4986         estimate D2E/DX2                !
 ! D76   D(20,6,10,8)          -66.6268         estimate D2E/DX2                !
 ! D77   D(20,6,10,25)         172.3505         estimate D2E/DX2                !
 ! D78   D(20,6,10,26)          55.2215         estimate D2E/DX2                !
 ! D79   D(1,7,11,2)            57.0634         estimate D2E/DX2                !
 ! D80   D(21,7,11,2)          -65.5689         estimate D2E/DX2                !
 ! D81   D(22,7,11,2)          178.2774         estimate D2E/DX2                !
 ! D82   D(3,8,10,6)           -52.0223         estimate D2E/DX2                !
 ! D83   D(3,8,10,25)           68.4652         estimate D2E/DX2                !
 ! D84   D(3,8,10,26)         -173.1796         estimate D2E/DX2                !
 ! D85   D(23,8,10,6)           68.4648         estimate D2E/DX2                !
 ! D86   D(23,8,10,25)        -171.0476         estimate D2E/DX2                !
 ! D87   D(23,8,10,26)         -52.6924         estimate D2E/DX2                !
 ! D88   D(24,8,10,6)         -172.8929         estimate D2E/DX2                !
 ! D89   D(24,8,10,25)         -52.4053         estimate D2E/DX2                !
 ! D90   D(24,8,10,26)          65.9499         estimate D2E/DX2                !
 --------------------------------------------------------------------------------
 Trust Radius=3.00D-01 FncErr=1.00D-07 GrdErr=1.00D-06 EigMax=2.50D+02 EigMin=1.00D-04
 Number of steps in this run=    186 maximum allowed number of steps=    186.
 GradGradGradGradGradGradGradGradGradGradGradGradGradGradGradGradGradGrad

                          Input orientation:                          
 ---------------------------------------------------------------------
 Center     Atomic      Atomic             Coordinates (Angstroms)
 Number     Number       Type             X           Y           Z
 ---------------------------------------------------------------------
      1          6           0       -3.481665    0.871843    0.052032
      2          6           0       -1.100876   -0.733426    0.436725
      3          6           0        1.074791   -0.330983   -0.661168
      4          6           0       -3.323434   -0.428175   -0.736128
      5          8           0        3.209573   -1.032451    0.166675
      6          6           0        3.633001    0.290766    0.446058
      7          6           0       -2.116427    1.438611    0.403219
      8          6           0        1.436863    1.133223   -0.430233
      9          6           0        1.819947   -1.219246    0.334157
     10          6           0        2.960608    1.285344   -0.486892
     11          8           0       -1.319803    0.485814    1.095227
     12          8           0       -0.323197   -0.579373   -0.717742
     13          6           0       -2.415781   -1.387136    0.034883
     14          1           0       -4.037834    0.682514    0.967277
     15          1           0       -4.035560    1.611373   -0.519333
     16          1           0        1.417393   -0.610971   -1.650003
     17          1           0       -4.289856   -0.893269   -0.904842
     18          1           0       -2.899252   -0.214390   -1.713533
     19          1           0        4.707338    0.297355    0.323472
     20          1           0        3.404479    0.522612    1.483802
     21          1           0       -1.596773    1.762136   -0.491609
     22          1           0       -2.198179    2.285832    1.070040
     23          1           0        1.074529    1.457189    0.539538
     24          1           0        0.963807    1.753682   -1.184554
     25          1           0        3.312862    1.114399   -1.501076
     26          1           0        3.252312    2.293379   -0.207453
     27          1           0       -2.913653   -1.696376    0.949970
     28          1           0       -2.202269   -2.282844   -0.538046
     29          1           0       -0.585725   -1.348442    1.156615
     30          1           0        1.555481   -0.985538    1.360633
     31          1           0        1.616166   -2.265490    0.149898
 ---------------------------------------------------------------------
                    Distance matrix (angstroms):
                    1          2          3          4          5
     1  C    0.000000
     2  C    2.897073   0.000000
     3  C    4.766208   2.469991   0.000000
     4  C    1.528489   2.531507   4.399937   0.000000
     5  O    6.957884   4.329239   2.394718   6.622717   0.000000
     6  C    7.149222   4.843413   2.856039   7.092702   1.417127
     7  C    1.519353   2.397960   3.801086   2.497973   5.876085
     8  C    4.949022   3.267432   1.525885   5.019160   2.861633
     9  C    5.706079   2.962726   1.528051   5.312784   1.412092
    10  C    6.477986   4.628623   2.489817   6.518240   2.421014
    11  O    2.431239   1.402890   3.079961   2.864223   4.866476
    12  O    3.560126   1.400468   1.421010   3.004101   3.669869
    13  C    2.497877   1.522429   3.712686   1.529019   5.638065
    14  H    1.087586   3.303346   5.460581   2.155362   7.490459
    15  H    1.086353   3.876145   5.468871   2.171147   7.742891
    16  H    5.394111   3.272783   1.083312   4.831565   2.586479
    17  H    2.164348   3.463372   5.399535   1.085702   7.576870
    18  H    2.153213   2.850818   4.112674   1.086718   6.443768
    19  H    8.213616   5.900058   3.815720   8.132801   2.009047
    20  H    7.042081   4.792935   3.279782   7.148209   2.047201
    21  H    2.154295   2.708422   3.398110   2.799752   5.598573
    22  H    2.164034   3.274306   4.533998   3.448808   6.408654
    23  H    4.619437   3.088973   2.153893   4.952171   3.300871
    24  H    4.697766   3.616237   2.152226   4.831358   3.825156
    25  H    6.973993   5.162423   2.793481   6.856027   2.720483
    26  H    6.887274   5.341045   3.440164   7.136301   3.347080
    27  H    2.779331   2.115858   4.513064   2.149228   6.208723
    28  H    3.455010   2.136338   3.816286   2.176246   5.598942
    29  H    3.812642   1.077899   2.663995   3.453175   3.934986
    30  H    5.525861   2.823721   2.178803   5.339557   2.040529
    31  H    5.986678   3.132380   2.166387   5.344195   2.014848
                    6          7          8          9         10
     6  C    0.000000
     7  C    5.863046   0.000000
     8  C    2.510108   3.662482   0.000000
     9  C    2.362165   4.750159   2.503029   0.000000
    10  C    1.520425   5.156750   1.532367   2.871968   0.000000
    11  O    4.998973   1.421727   3.216423   3.653011   4.632954
    12  O    4.214626   2.923095   2.472541   2.471638   3.783363
    13  C    6.290643   2.865332   4.627246   4.249605   6.026604
    14  H    7.698496   2.140479   5.668199   6.191214   7.173298
    15  H    7.841098   2.136357   5.493995   6.559559   7.003836
    16  H    3.180491   4.572132   2.128481   2.113987   2.707462
    17  H    8.123948   3.445647   6.093212   6.242681   7.582234
    18  H    6.898503   2.797475   4.718560   5.241527   6.171856
    19  H    1.081328   6.919002   3.458721   3.261475   2.164227
    20  H    1.087606   5.699747   2.812097   2.620400   2.159263
    21  H    5.513138   1.084171   3.098749   4.609176   4.582256
    22  H    6.194538   1.081257   4.097909   5.382605   5.480702
    23  H    2.813372   3.193921   1.084756   2.785881   2.154155
    24  H    3.453059   3.479674   1.085243   3.446413   2.166400
    25  H    2.138268   5.762693   2.160192   3.323067   1.087140
    26  H    2.140668   5.470549   2.165975   3.831911   1.085961
    27  H    6.860127   3.280648   5.370156   4.797275   6.742564
    28  H    6.453085   3.839606   4.992436   4.250906   6.276136
    29  H    4.581435   3.267770   3.573179   2.545660   4.713218
    30  H    2.604129   4.502893   2.776764   1.085456   3.247250
    31  H    3.269523   5.264673   3.452528   1.081714   3.849863
                   11         12         13         14         15
    11  O    0.000000
    12  O    2.326952   0.000000
    13  C    2.415251   2.365974   0.000000
    14  H    2.728141   4.269681   2.789958   0.000000
    15  H    3.353956   4.315133   3.452810   1.752939   0.000000
    16  H    4.028829   1.974782   4.258462   6.187306   5.995992
    17  H    3.837103   3.983456   2.153867   2.459967   2.546864
    18  H    3.297587   2.785834   2.160101   3.047548   2.459821
    19  H    6.079272   5.211436   7.325273   8.777293   8.881173
    20  H    4.740378   4.467296   6.294595   7.461929   7.781525
    21  H    2.055179   2.675032   3.296344   3.041827   2.443600
    22  H    2.003059   3.862787   3.822250   2.442441   2.521303
    23  H    2.642950   2.771638   4.530687   5.188385   5.220919
    24  H    3.466953   2.705076   4.772146   5.549251   5.045438
    25  H    5.347662   4.086979   6.436940   7.766082   7.430350
    26  H    5.086109   4.614907   6.762558   7.557851   7.326355
    27  H    2.706180   3.277106   1.086688   2.631197   3.789291
    28  H    3.333436   2.542640   1.084494   3.798506   4.304211
    29  H    1.976647   2.042940   2.146831   4.009699   4.844654
    30  H    3.240768   2.830909   4.205926   5.849983   6.444995
    31  H    4.133187   2.712364   4.128115   6.428573   6.886214
                   16         17         18         19         20
    16  H    0.000000
    17  H    5.762608   0.000000
    18  H    4.335290   1.746035   0.000000
    19  H    3.942512   9.158375   7.891228   0.000000
    20  H    3.879981   8.180045   7.106557   1.759133   0.000000
    21  H    4.007332   3.804554   2.663870   6.523171   5.518260
    22  H    5.372380   4.287418   3.806690   7.224789   5.888117
    23  H    3.031325   6.032206   4.864303   3.819581   2.682114
    24  H    2.452339   5.889445   4.367648   4.290577   3.820018
    25  H    2.567466   7.885908   6.356192   2.437437   3.044356
    26  H    3.726007   8.217382   6.811675   2.526479   2.453388
    27  H    5.166810   2.445249   3.048071   7.902339   6.717714
    28  H    4.139271   2.534458   2.479124   7.425787   6.587418
    29  H    3.526110   4.263493   3.856972   5.605291   4.419233
    30  H    3.036988   6.269677   5.467158   3.557488   2.389243
    31  H    2.452873   6.154394   5.297961   4.019160   3.570837
                   21         22         23         24         25
    21  H    0.000000
    22  H    1.753481   0.000000
    23  H    2.879603   3.417411   0.000000
    24  H    2.652699   3.919762   1.752901   0.000000
    25  H    5.054018   6.193098   3.048236   2.454980   0.000000
    26  H    4.886368   5.598205   2.449479   2.546224   1.751320
    27  H    3.971603   4.047753   5.100884   5.611933   7.257932
    28  H    4.090311   4.843424   5.087872   5.170643   6.548691
    29  H    3.662589   3.976864   3.317950   4.183933   5.322395
    30  H    4.573535   4.987612   2.621531   3.785681   3.960745
    31  H    5.191944   6.009195   3.782001   4.284866   4.126517
                   26         27         28         29         30
    26  H    0.000000
    27  H    7.434843   0.000000
    28  H    7.127662   1.750487   0.000000
    29  H    5.463888   2.362839   2.521547   0.000000
    30  H    4.011163   4.543907   4.405527   2.181304   0.000000
    31  H    4.856744   4.635004   3.879950   2.588973   1.762906
                   31
    31  H    0.000000
 Stoichiometry    C10H18O3
 Framework group  C1[X(C10H18O3)]
 Deg. of freedom    87
 Full point group                 C1      NOp   1
 Largest Abelian subgroup         C1      NOp   1
 Largest concise Abelian subgroup C1      NOp   1
                         Standard orientation:                         
 ---------------------------------------------------------------------
 Center     Atomic      Atomic             Coordinates (Angstroms)
 Number     Number       Type             X           Y           Z
 ---------------------------------------------------------------------
      1          6           0        3.481665    0.871843   -0.052032
      2          6           0        1.100876   -0.733426   -0.436725
      3          6           0       -1.074791   -0.330983    0.661168
      4          6           0        3.323434   -0.428175    0.736128
      5          8           0       -3.209573   -1.032451   -0.166675
      6          6           0       -3.633001    0.290766   -0.446058
      7          6           0        2.116427    1.438611   -0.403219
      8          6           0       -1.436863    1.133223    0.430233
      9          6           0       -1.819947   -1.219246   -0.334157
     10          6           0       -2.960608    1.285344    0.486892
     11          8           0        1.319803    0.485814   -1.095227
     12          8           0        0.323197   -0.579373    0.717742
     13          6           0        2.415781   -1.387136   -0.034883
     14          1           0        4.037834    0.682514   -0.967277
     15          1           0        4.035560    1.611373    0.519333
     16          1           0       -1.417393   -0.610971    1.650003
     17          1           0        4.289856   -0.893269    0.904842
     18          1           0        2.899252   -0.214390    1.713533
     19          1           0       -4.707338    0.297355   -0.323472
     20          1           0       -3.404479    0.522612   -1.483802
     21          1           0        1.596773    1.762136    0.491609
     22          1           0        2.198179    2.285832   -1.070040
     23          1           0       -1.074529    1.457189   -0.539538
     24          1           0       -0.963807    1.753682    1.184554
     25          1           0       -3.312862    1.114399    1.501076
     26          1           0       -3.252312    2.293379    0.207453
     27          1           0        2.913653   -1.696376   -0.949970
     28          1           0        2.202269   -2.282844    0.538046
     29          1           0        0.585725   -1.348442   -1.156615
     30          1           0       -1.555481   -0.985538   -1.360633
     31          1           0       -1.616166   -2.265490   -0.149898
 ---------------------------------------------------------------------
 Rotational constants (GHZ):           1.9382100           0.4315027           0.3927260
 Standard basis: 6-311++G(2d,2p) (5D, 7F)
 There are   557 symmetry adapted cartesian basis functions of A   symmetry.
 There are   531 symmetry adapted basis functions of A   symmetry.
   531 basis functions,   762 primitive gaussians,   557 cartesian basis functions
    51 alpha electrons       51 beta electrons
       nuclear repulsion energy       899.8005757996 Hartrees.
 NAtoms=   31 NActive=   31 NUniq=   31 SFac= 1.00D+00 NAtFMM=   60 NAOKFM=F Big=F
 Integral buffers will be    131072 words long.
 Raffenetti 2 integral format.
 Two-electron integral symmetry is turned on.
 ------------------------------------------------------------------------------
 Polarizable Continuum Model (PCM)
 =================================
 Model                : PCM.
 Atomic radii         : UFF (Universal Force Field).
 Polarization charges : Total charges.
 Charge compensation  : None.
 Solution method      : On-the-fly selection.
 Cavity type          : Scaled VdW (van der Waals Surface) (Alpha=1.100).
 Cavity algorithm     : GePol (No added spheres)
                        Default sphere list used, NSphG=   31.
                        Lebedev-Laikov grids with approx.  5.0 points / Ang**2.
                        Smoothing algorithm: York/Karplus (Gamma=1.0000).
                        Polarization charges: spherical gaussians, with
                                              point-specific exponents (IZeta= 3).
                        Self-potential: point-specific (ISelfS= 7).
                        Self-field    : sphere-specific E.n sum rule (ISelfD= 2).
 1st derivatives      : Analytical E(r).r(x)/FMM algorithm (CHGder, D1EAlg=3).
                        Cavity 1st derivative terms included.
 Solvent              : Water, Eps=  78.355300 Eps(inf)=   1.777849
 ------------------------------------------------------------------------------
 One-electron integrals computed using PRISM.
 NBasis=   531 RedAO= T EigKep=  4.67D-06  NBF=   531
 NBsUse=   531 1.00D-06 EigRej= -1.00D+00 NBFU=   531
 ExpMin= 3.60D-02 ExpMax= 8.59D+03 ExpMxC= 1.30D+03 IAcc=3 IRadAn=         5 AccDes= 0.00D+00
 Harris functional with IExCor= 1009 and IRadAn=       5 diagonalized for initial guess.
 HarFok:  IExCor= 1009 AccDes= 0.00D+00 IRadAn=         5 IDoV= 1 UseB2=F ITyADJ=14
 ICtDFT=  3500011 ScaDFX=  1.000000  1.000000  1.000000  1.000000
 FoFCou: FMM=F IPFlag=           0 FMFlag=      100000 FMFlg1=           0
         NFxFlg=           0 DoJE=T BraDBF=F KetDBF=T FulRan=T
         wScrn=  0.000000 ICntrl=       500 IOpCl=  0 I1Cent=   200000004 NGrid=           0
         NMat0=    1 NMatS0=      1 NMatT0=    0 NMatD0=    1 NMtDS0=    0 NMtDT0=    0
 Petite list used in FoFCou.
 Requested convergence on RMS density matrix=1.00D-08 within 128 cycles.
 Requested convergence on MAX density matrix=1.00D-06.
 Requested convergence on             energy=1.00D-06.
 No special actions if energy rises.
 Inv3:  Mode=1 IEnd=    12144432.
 Iteration    1 A*A^-1 deviation from unit magnitude is 3.89D-15 for   1998.
 Iteration    1 A*A^-1 deviation from orthogonality  is 2.44D-15 for   1983    840.
 Iteration    1 A^-1*A deviation from unit magnitude is 3.89D-15 for   1998.
 Iteration    1 A^-1*A deviation from orthogonality  is 1.84D-15 for   1993   1980.
 Error on total polarization charges =  0.01467
 SCF Done:  E(RM062X) =  -617.497053893     A.U. after   13 cycles
            NFock= 13  Conv=0.26D-08     -V/T= 2.0035

 **********************************************************************

            Population analysis using the SCF density.

 **********************************************************************

 Orbital symmetries:
       Occupied  (A) (A) (A) (A) (A) (A) (A) (A) (A) (A) (A) (A)
                 (A) (A) (A) (A) (A) (A) (A) (A) (A) (A) (A) (A)
                 (A) (A) (A) (A) (A) (A) (A) (A) (A) (A) (A) (A)
                 (A) (A) (A) (A) (A) (A) (A) (A) (A) (A) (A) (A)
                 (A) (A) (A)
       Virtual   (A) (A) (A) (A) (A) (A) (A) (A) (A) (A) (A) (A)
                 (A) (A) (A) (A) (A) (A) (A) (A) (A) (A) (A) (A)
                 (A) (A) (A) (A) (A) (A) (A) (A) (A) (A) (A) (A)
                 (A) (A) (A) (A) (A) (A) (A) (A) (A) (A) (A) (A)
                 (A) (A) (A) (A) (A) (A) (A) (A) (A) (A) (A) (A)
                 (A) (A) (A) (A) (A) (A) (A) (A) (A) (A) (A) (A)
                 (A) (A) (A) (A) (A) (A) (A) (A) (A) (A) (A) (A)
                 (A) (A) (A) (A) (A) (A) (A) (A) (A) (A) (A) (A)
                 (A) (A) (A) (A) (A) (A) (A) (A) (A) (A) (A) (A)
                 (A) (A) (A) (A) (A) (A) (A) (A) (A) (A) (A) (A)
                 (A) (A) (A) (A) (A) (A) (A) (A) (A) (A) (A) (A)
                 (A) (A) (A) (A) (A) (A) (A) (A) (A) (A) (A) (A)
                 (A) (A) (A) (A) (A) (A) (A) (A) (A) (A) (A) (A)
                 (A) (A) (A) (A) (A) (A) (A) (A) (A) (A) (A) (A)
                 (A) (A) (A) (A) (A) (A) (A) (A) (A) (A) (A) (A)
                 (A) (A) (A) (A) (A) (A) (A) (A) (A) (A) (A) (A)
                 (A) (A) (A) (A) (A) (A) (A) (A) (A) (A) (A) (A)
                 (A) (A) (A) (A) (A) (A) (A) (A) (A) (A) (A) (A)
                 (A) (A) (A) (A) (A) (A) (A) (A) (A) (A) (A) (A)
                 (A) (A) (A) (A) (A) (A) (A) (A) (A) (A) (A) (A)
                 (A) (A) (A) (A) (A) (A) (A) (A) (A) (A) (A) (A)
                 (A) (A) (A) (A) (A) (A) (A) (A) (A) (A) (A) (A)
                 (A) (A) (A) (A) (A) (A) (A) (A) (A) (A) (A) (A)
                 (A) (A) (A) (A) (A) (A) (A) (A) (A) (A) (A) (A)
                 (A) (A) (A) (A) (A) (A) (A) (A) (A) (A) (A) (A)
                 (A) (A) (A) (A) (A) (A) (A) (A) (A) (A) (A) (A)
                 (A) (A) (A) (A) (A) (A) (A) (A) (A) (A) (A) (A)
                 (A) (A) (A) (A) (A) (A) (A) (A) (A) (A) (A) (A)
                 (A) (A) (A) (A) (A) (A) (A) (A) (A) (A) (A) (A)
                 (A) (A) (A) (A) (A) (A) (A) (A) (A) (A) (A) (A)
                 (A) (A) (A) (A) (A) (A) (A) (A) (A) (A) (A) (A)
                 (A) (A) (A) (A) (A) (A) (A) (A) (A) (A) (A) (A)
                 (A) (A) (A) (A) (A) (A) (A) (A) (A) (A) (A) (A)
                 (A) (A) (A) (A) (A) (A) (A) (A) (A) (A) (A) (A)
                 (A) (A) (A) (A) (A) (A) (A) (A) (A) (A) (A) (A)
                 (A) (A) (A) (A) (A) (A) (A) (A) (A) (A) (A) (A)
                 (A) (A) (A) (A) (A) (A) (A) (A) (A) (A) (A) (A)
                 (A) (A) (A) (A) (A) (A) (A) (A) (A) (A) (A) (A)
                 (A) (A) (A) (A) (A) (A) (A) (A) (A) (A) (A) (A)
                 (A) (A) (A) (A) (A) (A) (A) (A) (A) (A) (A) (A)
 The electronic state is 1-A.
 Alpha  occ. eigenvalues --  -19.63026 -19.62950 -19.62641 -10.63433 -10.58832
 Alpha  occ. eigenvalues --  -10.58125 -10.57890 -10.57572 -10.53084 -10.52927
 Alpha  occ. eigenvalues --  -10.52883 -10.52841 -10.52725  -1.19900  -1.16858
 Alpha  occ. eigenvalues --   -1.13447  -0.90912  -0.89667  -0.87418  -0.84932
 Alpha  occ. eigenvalues --   -0.75319  -0.74152  -0.73341  -0.70866  -0.66945
 Alpha  occ. eigenvalues --   -0.62663  -0.60381  -0.59000  -0.56960  -0.55638
 Alpha  occ. eigenvalues --   -0.54704  -0.53241  -0.52135  -0.50500  -0.50054
 Alpha  occ. eigenvalues --   -0.49361  -0.47076  -0.46053  -0.45427  -0.44938
 Alpha  occ. eigenvalues --   -0.44185  -0.42494  -0.40491  -0.40322  -0.40049
 Alpha  occ. eigenvalues --   -0.38389  -0.37751  -0.36713  -0.34354  -0.33133
 Alpha  occ. eigenvalues --   -0.31709
 Alpha virt. eigenvalues --   -0.00091   0.00750   0.00879   0.01018   0.02210
 Alpha virt. eigenvalues --    0.02523   0.02657   0.03422   0.03487   0.04377
 Alpha virt. eigenvalues --    0.04769   0.04883   0.05635   0.05848   0.07228
 Alpha virt. eigenvalues --    0.07387   0.07589   0.08099   0.08995   0.09339
 Alpha virt. eigenvalues --    0.10352   0.10618   0.11079   0.11907   0.12173
 Alpha virt. eigenvalues --    0.12364   0.12793   0.12951   0.13190   0.13649
 Alpha virt. eigenvalues --    0.13820   0.14071   0.14361   0.14654   0.14987
 Alpha virt. eigenvalues --    0.15149   0.15195   0.15627   0.15826   0.16210
 Alpha virt. eigenvalues --    0.16365   0.16872   0.17404   0.17645   0.18110
 Alpha virt. eigenvalues --    0.18294   0.18533   0.18705   0.18865   0.19215
 Alpha virt. eigenvalues --    0.19396   0.20107   0.20617   0.20848   0.21193
 Alpha virt. eigenvalues --    0.21839   0.22982   0.23643   0.23723   0.24074
 Alpha virt. eigenvalues --    0.24884   0.25796   0.26197   0.26364   0.27098
 Alpha virt. eigenvalues --    0.27761   0.28049   0.28572   0.28944   0.29515
 Alpha virt. eigenvalues --    0.29657   0.30396   0.30781   0.31834   0.32159
 Alpha virt. eigenvalues --    0.33000   0.33543   0.33844   0.34133   0.34244
 Alpha virt. eigenvalues --    0.35079   0.35290   0.35439   0.35683   0.36557
 Alpha virt. eigenvalues --    0.37148   0.37473   0.37533   0.38051   0.38385
 Alpha virt. eigenvalues --    0.38637   0.39122   0.39439   0.39692   0.40796
 Alpha virt. eigenvalues --    0.40919   0.41834   0.43146   0.44161   0.44378
 Alpha virt. eigenvalues --    0.45323   0.45873   0.48851   0.50416   0.51105
 Alpha virt. eigenvalues --    0.52139   0.52240   0.53684   0.54495   0.55465
 Alpha virt. eigenvalues --    0.56306   0.57883   0.57998   0.58543   0.59420
 Alpha virt. eigenvalues --    0.60039   0.60432   0.60705   0.61462   0.61566
 Alpha virt. eigenvalues --    0.62512   0.63127   0.63417   0.63582   0.64161
 Alpha virt. eigenvalues --    0.64668   0.65557   0.65940   0.66356   0.67049
 Alpha virt. eigenvalues --    0.68359   0.68738   0.69526   0.70443   0.70795
 Alpha virt. eigenvalues --    0.71200   0.71707   0.72121   0.72954   0.73201
 Alpha virt. eigenvalues --    0.74079   0.74538   0.74790   0.75202   0.75393
 Alpha virt. eigenvalues --    0.75875   0.77282   0.78058   0.78345   0.79370
 Alpha virt. eigenvalues --    0.79788   0.81660   0.82689   0.84749   0.85844
 Alpha virt. eigenvalues --    0.86628   0.87448   0.88542   0.88571   0.89383
 Alpha virt. eigenvalues --    0.89954   0.91356   0.92527   0.94094   0.95409
 Alpha virt. eigenvalues --    0.97667   0.98621   0.98975   1.00110   1.01205
 Alpha virt. eigenvalues --    1.02254   1.03626   1.04837   1.05682   1.06096
 Alpha virt. eigenvalues --    1.07320   1.08763   1.10068   1.10579   1.13182
 Alpha virt. eigenvalues --    1.13585   1.14063   1.15163   1.16415   1.17388
 Alpha virt. eigenvalues --    1.17990   1.19676   1.19959   1.20028   1.20948
 Alpha virt. eigenvalues --    1.21925   1.22276   1.22749   1.23531   1.24218
 Alpha virt. eigenvalues --    1.24851   1.25908   1.26366   1.27038   1.27551
 Alpha virt. eigenvalues --    1.28775   1.28954   1.30108   1.30790   1.31098
 Alpha virt. eigenvalues --    1.32651   1.33003   1.33998   1.34786   1.35028
 Alpha virt. eigenvalues --    1.35318   1.35962   1.36540   1.38404   1.38757
 Alpha virt. eigenvalues --    1.39128   1.39786   1.40918   1.40977   1.41882
 Alpha virt. eigenvalues --    1.43588   1.44059   1.44117   1.44697   1.45900
 Alpha virt. eigenvalues --    1.46676   1.46807   1.47307   1.48164   1.48416
 Alpha virt. eigenvalues --    1.49322   1.50005   1.50955   1.51237   1.52391
 Alpha virt. eigenvalues --    1.52978   1.54018   1.54601   1.55509   1.56057
 Alpha virt. eigenvalues --    1.56685   1.57203   1.57798   1.58528   1.59191
 Alpha virt. eigenvalues --    1.59429   1.59869   1.61113   1.61677   1.62601
 Alpha virt. eigenvalues --    1.63358   1.64676   1.65054   1.65819   1.67327
 Alpha virt. eigenvalues --    1.68451   1.69195   1.69840   1.70923   1.73426
 Alpha virt. eigenvalues --    1.74373   1.75268   1.75997   1.77123   1.77935
 Alpha virt. eigenvalues --    1.78533   1.78627   1.80216   1.81998   1.83894
 Alpha virt. eigenvalues --    1.84113   1.87857   1.88518   1.95230   1.97243
 Alpha virt. eigenvalues --    2.03491   2.05673   2.16026   2.17769   2.20978
 Alpha virt. eigenvalues --    2.23742   2.26253   2.28808   2.34516   2.39650
 Alpha virt. eigenvalues --    2.40671   2.43829   2.46151   2.47213   2.56189
 Alpha virt. eigenvalues --    2.58578   2.76155   2.77002   2.80397   2.81970
 Alpha virt. eigenvalues --    2.84348   2.89977   2.92823   2.93513   2.94710
 Alpha virt. eigenvalues --    2.96315   2.97875   3.00420   3.03327   3.04205
 Alpha virt. eigenvalues --    3.07108   3.08304   3.09768   3.10089   3.11631
 Alpha virt. eigenvalues --    3.12842   3.15175   3.15919   3.20047   3.22084
 Alpha virt. eigenvalues --    3.24019   3.28781   3.30348   3.32844   3.34812
 Alpha virt. eigenvalues --    3.36289   3.36810   3.38096   3.39044   3.41304
 Alpha virt. eigenvalues --    3.43300   3.43605   3.44600   3.46108   3.46910
 Alpha virt. eigenvalues --    3.48137   3.48848   3.50792   3.51240   3.51958
 Alpha virt. eigenvalues --    3.53244   3.53839   3.55012   3.55788   3.56136
 Alpha virt. eigenvalues --    3.56615   3.57653   3.58015   3.58914   3.59894
 Alpha virt. eigenvalues --    3.60977   3.61373   3.63861   3.64189   3.65536
 Alpha virt. eigenvalues --    3.66151   3.67044   3.67872   3.68607   3.69386
 Alpha virt. eigenvalues --    3.70559   3.71247   3.71556   3.72938   3.73886
 Alpha virt. eigenvalues --    3.74730   3.75520   3.76367   3.77229   3.77468
 Alpha virt. eigenvalues --    3.78068   3.78969   3.80935   3.83693   3.84158
 Alpha virt. eigenvalues --    3.87247   3.88185   3.89261   3.90576   3.92593
 Alpha virt. eigenvalues --    3.92918   3.94388   3.95087   3.95916   3.98041
 Alpha virt. eigenvalues --    4.00396   4.01543   4.03119   4.03346   4.04377
 Alpha virt. eigenvalues --    4.04993   4.05500   4.06778   4.06947   4.08120
 Alpha virt. eigenvalues --    4.08610   4.09344   4.09934   4.11464   4.12076
 Alpha virt. eigenvalues --    4.12703   4.12908   4.14575   4.15501   4.16555
 Alpha virt. eigenvalues --    4.17896   4.18163   4.19103   4.19508   4.20714
 Alpha virt. eigenvalues --    4.21803   4.23514   4.24940   4.26137   4.27288
 Alpha virt. eigenvalues --    4.29262   4.31710   4.31899   4.32304   4.32893
 Alpha virt. eigenvalues --    4.34107   4.34828   4.36407   4.36622   4.40031
 Alpha virt. eigenvalues --    4.41590   4.42050   4.45850   4.46846   4.48138
 Alpha virt. eigenvalues --    4.57475   4.60269   4.75635   4.75985   4.83530
 Alpha virt. eigenvalues --    4.85489   4.93055   4.95378   4.99550   5.01419
 Alpha virt. eigenvalues --    5.06821   5.07286   5.07824   5.08485   5.12103
 Alpha virt. eigenvalues --    5.12468   5.14219   5.15743   5.30783   5.39406
 Alpha virt. eigenvalues --    5.39900   5.58227   5.59115   5.63889   5.84154
 Alpha virt. eigenvalues --    5.89486   6.01352   7.01971   7.04668   7.06026
 Alpha virt. eigenvalues --    7.08240   7.10923   7.13583   7.14275   7.20350
 Alpha virt. eigenvalues --    7.27032   7.36535   7.40523   7.48067   7.53830
 Alpha virt. eigenvalues --    7.54573   7.65691  23.96086  23.97404  24.06549
 Alpha virt. eigenvalues --   24.08724  24.11215  24.11799  24.13164  24.15818
 Alpha virt. eigenvalues --   24.16820  24.20460  50.17136  50.18334  50.25071
          Condensed to atoms (all electrons):
               1          2          3          4          5          6
     1  C    5.856333   0.266023  -0.099593  -0.042233   0.000046   0.001613
     2  C    0.266023   7.450552  -1.127460  -0.304253  -0.003791   0.020004
     3  C   -0.099593  -1.127460   7.926630   0.154889   0.024169   0.068249
     4  C   -0.042233  -0.304253   0.154889   5.788986   0.000855   0.001259
     5  O    0.000046  -0.003791   0.024169   0.000855   8.342674   0.097250
     6  C    0.001613   0.020004   0.068249   0.001259   0.097250   5.410067
     7  C   -0.175578  -0.486565   0.183937   0.017724   0.001233  -0.013302
     8  C    0.078793   0.377202  -1.222565  -0.026743  -0.029963  -0.070638
     9  C    0.000233   0.201343  -0.820927  -0.041960   0.162083  -0.222844
    10  C    0.014909  -0.073091   0.047244  -0.005404  -0.035144   0.112652
    11  O   -0.056866   0.265762   0.065700   0.001592   0.000454   0.003634
    12  O   -0.009024   0.331004  -0.095409  -0.044486  -0.003531  -0.005568
    13  C   -0.159924  -1.004209   0.332092  -0.017380   0.001281   0.015569
    14  H    0.494592   0.006989  -0.004220  -0.022503  -0.000009   0.000209
    15  H    0.436571   0.003991  -0.000242  -0.051844   0.000003  -0.000202
    16  H   -0.004304  -0.049116   0.635855   0.010201  -0.000688   0.010545
    17  H   -0.021364   0.007578   0.009193   0.426543   0.000026   0.000093
    18  H   -0.068302  -0.007981  -0.007315   0.516763   0.000021   0.000062
    19  H   -0.000041   0.000150  -0.006329  -0.000031  -0.073902   0.421383
    20  H    0.000428  -0.004737   0.055621   0.000233  -0.036762   0.461225
    21  H   -0.074367  -0.001338  -0.014308  -0.008040  -0.000456   0.003647
    22  H   -0.017010  -0.005095  -0.001321   0.008244   0.000056  -0.001024
    23  H   -0.015707  -0.023438   0.048606  -0.002451  -0.002178  -0.013417
    24  H    0.009726   0.013186  -0.055876  -0.003279   0.000140  -0.003666
    25  H   -0.000686  -0.005944  -0.007025   0.000741  -0.008013  -0.083029
    26  H    0.000958  -0.003050   0.001955   0.000143   0.008222  -0.031515
    27  H   -0.014177  -0.138830   0.007957  -0.003085   0.000054  -0.000080
    28  H   -0.008872  -0.042529   0.000115  -0.036530   0.000164  -0.000026
    29  H    0.031617   0.553748  -0.141126  -0.042927   0.001239  -0.008074
    30  H   -0.001958  -0.094547   0.239315   0.007792  -0.046186  -0.009258
    31  H   -0.000241   0.026016  -0.118713   0.000383  -0.057204   0.000358
               7          8          9         10         11         12
     1  C   -0.175578   0.078793   0.000233   0.014909  -0.056866  -0.009024
     2  C   -0.486565   0.377202   0.201343  -0.073091   0.265762   0.331004
     3  C    0.183937  -1.222565  -0.820927   0.047244   0.065700  -0.095409
     4  C    0.017724  -0.026743  -0.041960  -0.005404   0.001592  -0.044486
     5  O    0.001233  -0.029963   0.162083  -0.035144   0.000454  -0.003531
     6  C   -0.013302  -0.070638  -0.222844   0.112652   0.003634  -0.005568
     7  C    5.583899  -0.073765   0.010184  -0.037570   0.091723   0.006121
     8  C   -0.073765   6.726619   0.442088  -0.450404   0.004353  -0.006199
     9  C    0.010184   0.442088   6.032669  -0.035305  -0.050493   0.054191
    10  C   -0.037570  -0.450404  -0.035305   6.138071  -0.005756  -0.017315
    11  O    0.091723   0.004353  -0.050493  -0.005756   8.202907  -0.054194
    12  O    0.006121  -0.006199   0.054191  -0.017315  -0.054194   8.343028
    13  C    0.188212  -0.108960  -0.146474   0.006496  -0.056251  -0.100464
    14  H   -0.093858   0.000681  -0.001513   0.000115  -0.000203  -0.000587
    15  H   -0.029185   0.000401   0.001783  -0.000086   0.010404   0.000488
    16  H    0.007134  -0.090170  -0.129528  -0.009975   0.003295  -0.091816
    17  H    0.006494  -0.001907  -0.002244   0.000382  -0.005737  -0.000331
    18  H    0.002292   0.001324  -0.000445  -0.000323   0.003370  -0.001909
    19  H   -0.000664  -0.002801   0.020838  -0.021694  -0.000166   0.000430
    20  H    0.001551  -0.015184  -0.036789  -0.055776   0.001133  -0.001660
    21  H    0.472178   0.008072  -0.002856  -0.014897  -0.031691   0.007999
    22  H    0.428563   0.005294   0.002523   0.004894  -0.072036   0.002024
    23  H    0.027075   0.443351  -0.032167  -0.064131   0.001291  -0.006096
    24  H   -0.015521   0.414592   0.008684   0.013614  -0.003868   0.000548
    25  H    0.002777   0.006944   0.009064   0.446191  -0.000205  -0.000517
    26  H    0.000032  -0.060703   0.001288   0.453831   0.000184  -0.001991
    27  H    0.017073   0.001538  -0.001957   0.001155  -0.004518   0.009132
    28  H    0.008120  -0.003940   0.005833  -0.000930   0.009048  -0.003443
    29  H   -0.048696   0.055168   0.055820  -0.007162  -0.066492  -0.014337
    30  H    0.011564  -0.160163   0.334318   0.034847  -0.004119  -0.016282
    31  H   -0.001524   0.024176   0.484408   0.010169  -0.000151   0.012857
              13         14         15         16         17         18
     1  C   -0.159924   0.494592   0.436571  -0.004304  -0.021364  -0.068302
     2  C   -1.004209   0.006989   0.003991  -0.049116   0.007578  -0.007981
     3  C    0.332092  -0.004220  -0.000242   0.635855   0.009193  -0.007315
     4  C   -0.017380  -0.022503  -0.051844   0.010201   0.426543   0.516763
     5  O    0.001281  -0.000009   0.000003  -0.000688   0.000026   0.000021
     6  C    0.015569   0.000209  -0.000202   0.010545   0.000093   0.000062
     7  C    0.188212  -0.093858  -0.029185   0.007134   0.006494   0.002292
     8  C   -0.108960   0.000681   0.000401  -0.090170  -0.001907   0.001324
     9  C   -0.146474  -0.001513   0.001783  -0.129528  -0.002244  -0.000445
    10  C    0.006496   0.000115  -0.000086  -0.009975   0.000382  -0.000323
    11  O   -0.056251  -0.000203   0.010404   0.003295  -0.005737   0.003370
    12  O   -0.100464  -0.000587   0.000488  -0.091816  -0.000331  -0.001909
    13  C    6.668907  -0.012666  -0.000994   0.006931  -0.042329  -0.056173
    14  H   -0.012666   0.483485  -0.012661  -0.000103  -0.001922   0.001834
    15  H   -0.000994  -0.012661   0.489067  -0.000179  -0.007497  -0.003644
    16  H    0.006931  -0.000103  -0.000179   0.441096   0.000526  -0.000447
    17  H   -0.042329  -0.001922  -0.007497   0.000526   0.463528  -0.006957
    18  H   -0.056173   0.001834  -0.003644  -0.000447  -0.006957   0.457169
    19  H   -0.000138   0.000008   0.000001  -0.002507  -0.000001   0.000010
    20  H    0.002745   0.000001  -0.000030   0.002012   0.000015  -0.000011
    21  H    0.025104   0.004067  -0.001702  -0.000722  -0.002447  -0.000563
    22  H   -0.006782  -0.006280  -0.008630   0.000113   0.001619  -0.002263
    23  H   -0.003042  -0.000010   0.000004   0.006429  -0.000106   0.000259
    24  H   -0.004761   0.000202   0.000205  -0.004842  -0.000003   0.000129
    25  H   -0.000016  -0.000022   0.000048  -0.000263   0.000003  -0.000068
    26  H    0.000181  -0.000029   0.000002  -0.001218   0.000013  -0.000045
    27  H    0.507578  -0.002779  -0.002048  -0.000064  -0.002677   0.002360
    28  H    0.436354  -0.001512   0.001114   0.000506  -0.009099  -0.001332
    29  H   -0.058096   0.000973   0.001175  -0.009603   0.002039  -0.004389
    30  H   -0.000200  -0.000508   0.000104   0.014595   0.000164   0.000086
    31  H   -0.010421   0.000113  -0.000009  -0.006554  -0.000108   0.000068
              19         20         21         22         23         24
     1  C   -0.000041   0.000428  -0.074367  -0.017010  -0.015707   0.009726
     2  C    0.000150  -0.004737  -0.001338  -0.005095  -0.023438   0.013186
     3  C   -0.006329   0.055621  -0.014308  -0.001321   0.048606  -0.055876
     4  C   -0.000031   0.000233  -0.008040   0.008244  -0.002451  -0.003279
     5  O   -0.073902  -0.036762  -0.000456   0.000056  -0.002178   0.000140
     6  C    0.421383   0.461225   0.003647  -0.001024  -0.013417  -0.003666
     7  C   -0.000664   0.001551   0.472178   0.428563   0.027075  -0.015521
     8  C   -0.002801  -0.015184   0.008072   0.005294   0.443351   0.414592
     9  C    0.020838  -0.036789  -0.002856   0.002523  -0.032167   0.008684
    10  C   -0.021694  -0.055776  -0.014897   0.004894  -0.064131   0.013614
    11  O   -0.000166   0.001133  -0.031691  -0.072036   0.001291  -0.003868
    12  O    0.000430  -0.001660   0.007999   0.002024  -0.006096   0.000548
    13  C   -0.000138   0.002745   0.025104  -0.006782  -0.003042  -0.004761
    14  H    0.000008   0.000001   0.004067  -0.006280  -0.000010   0.000202
    15  H    0.000001  -0.000030  -0.001702  -0.008630   0.000004   0.000205
    16  H   -0.002507   0.002012  -0.000722   0.000113   0.006429  -0.004842
    17  H   -0.000001   0.000015  -0.002447   0.001619  -0.000106  -0.000003
    18  H    0.000010  -0.000011  -0.000563  -0.002263   0.000259   0.000129
    19  H    0.469471  -0.008415  -0.000130  -0.000023  -0.000395   0.001273
    20  H   -0.008415   0.499260   0.000020   0.000004  -0.011021   0.000739
    21  H   -0.000130   0.000020   0.520722  -0.018569  -0.001294  -0.002419
    22  H   -0.000023   0.000004  -0.018569   0.479185  -0.002427   0.000502
    23  H   -0.000395  -0.011021  -0.001294  -0.002427   0.454029  -0.016349
    24  H    0.001273   0.000739  -0.002419   0.000502  -0.016349   0.472215
    25  H   -0.004907   0.002246  -0.000099   0.000002   0.002175  -0.004297
    26  H   -0.009035   0.005454  -0.000507   0.000238  -0.006707  -0.010093
    27  H    0.000003  -0.000025  -0.001204   0.000595  -0.000278   0.000144
    28  H   -0.000009   0.000037  -0.000125   0.001052  -0.000238  -0.000156
    29  H   -0.000524   0.000344   0.001084  -0.000820  -0.005689   0.002933
    30  H   -0.001010   0.005227  -0.001873   0.000683  -0.002589  -0.001727
    31  H    0.003283  -0.003742  -0.000148   0.000067   0.000771  -0.000792
              25         26         27         28         29         30
     1  C   -0.000686   0.000958  -0.014177  -0.008872   0.031617  -0.001958
     2  C   -0.005944  -0.003050  -0.138830  -0.042529   0.553748  -0.094547
     3  C   -0.007025   0.001955   0.007957   0.000115  -0.141126   0.239315
     4  C    0.000741   0.000143  -0.003085  -0.036530  -0.042927   0.007792
     5  O   -0.008013   0.008222   0.000054   0.000164   0.001239  -0.046186
     6  C   -0.083029  -0.031515  -0.000080  -0.000026  -0.008074  -0.009258
     7  C    0.002777   0.000032   0.017073   0.008120  -0.048696   0.011564
     8  C    0.006944  -0.060703   0.001538  -0.003940   0.055168  -0.160163
     9  C    0.009064   0.001288  -0.001957   0.005833   0.055820   0.334318
    10  C    0.446191   0.453831   0.001155  -0.000930  -0.007162   0.034847
    11  O   -0.000205   0.000184  -0.004518   0.009048  -0.066492  -0.004119
    12  O   -0.000517  -0.001991   0.009132  -0.003443  -0.014337  -0.016282
    13  C   -0.000016   0.000181   0.507578   0.436354  -0.058096  -0.000200
    14  H   -0.000022  -0.000029  -0.002779  -0.001512   0.000973  -0.000508
    15  H    0.000048   0.000002  -0.002048   0.001114   0.001175   0.000104
    16  H   -0.000263  -0.001218  -0.000064   0.000506  -0.009603   0.014595
    17  H    0.000003   0.000013  -0.002677  -0.009099   0.002039   0.000164
    18  H   -0.000068  -0.000045   0.002360  -0.001332  -0.004389   0.000086
    19  H   -0.004907  -0.009035   0.000003  -0.000009  -0.000524  -0.001010
    20  H    0.002246   0.005454  -0.000025   0.000037   0.000344   0.005227
    21  H   -0.000099  -0.000507  -0.001204  -0.000125   0.001084  -0.001873
    22  H    0.000002   0.000238   0.000595   0.001052  -0.000820   0.000683
    23  H    0.002175  -0.006707  -0.000278  -0.000238  -0.005689  -0.002589
    24  H   -0.004297  -0.010093   0.000144  -0.000156   0.002933  -0.001727
    25  H    0.480366  -0.010922  -0.000085   0.000094   0.000335  -0.000783
    26  H   -0.010922   0.496311   0.000082  -0.000064  -0.000931  -0.000168
    27  H   -0.000085   0.000082   0.451211  -0.001657  -0.019275   0.001496
    28  H    0.000094  -0.000064  -0.001657   0.471915  -0.010518   0.000906
    29  H    0.000335  -0.000931  -0.019275  -0.010518   0.508731  -0.025613
    30  H   -0.000783  -0.000168   0.001496   0.000906  -0.025613   0.514338
    31  H   -0.000980   0.001535   0.000193  -0.001754  -0.006277  -0.027872
              31
     1  C   -0.000241
     2  C    0.026016
     3  C   -0.118713
     4  C    0.000383
     5  O   -0.057204
     6  C    0.000358
     7  C   -0.001524
     8  C    0.024176
     9  C    0.484408
    10  C    0.010169
    11  O   -0.000151
    12  O    0.012857
    13  C   -0.010421
    14  H    0.000113
    15  H   -0.000009
    16  H   -0.006554
    17  H   -0.000108
    18  H    0.000068
    19  H    0.003283
    20  H   -0.003742
    21  H   -0.000148
    22  H    0.000067
    23  H    0.000771
    24  H   -0.000792
    25  H   -0.000980
    26  H    0.001535
    27  H    0.000193
    28  H   -0.001754
    29  H   -0.006277
    30  H   -0.027872
    31  H    0.461855
 Mulliken charges:
               1
     1  C   -0.421597
     2  C   -0.147573
     3  C   -0.079099
     4  C   -0.283199
     5  O   -0.342140
     6  C   -0.165174
     7  C   -0.091658
     8  C   -0.266493
     9  C   -0.301847
    10  C   -0.449607
    11  O   -0.252105
    12  O   -0.292663
    13  C   -0.402173
    14  H    0.168116
    15  H    0.173590
    16  H    0.262861
    17  H    0.186514
    18  H    0.176420
    19  H    0.215869
    20  H    0.135855
    21  H    0.136860
    22  H    0.206623
    23  H    0.225739
    24  H    0.188818
    25  H    0.176874
    26  H    0.166548
    27  H    0.192166
    28  H    0.187476
    29  H    0.255342
    30  H    0.229421
    31  H    0.210238
 Sum of Mulliken charges =  -0.00000
 Mulliken charges with hydrogens summed into heavy atoms:
               1
     1  C   -0.079891
     2  C    0.107768
     3  C    0.183762
     4  C    0.079734
     5  O   -0.342140
     6  C    0.186551
     7  C    0.251825
     8  C    0.148063
     9  C    0.137813
    10  C   -0.106185
    11  O   -0.252105
    12  O   -0.292663
    13  C   -0.022531
 Electronic spatial extent (au):  <R**2>=           2967.8889
 Charge=              0.0000 electrons
 Dipole moment (field-independent basis, Debye):
    X=              1.2497    Y=              1.4641    Z=             -0.0281  Tot=              1.9252
 Quadrupole moment (field-independent basis, Debye-Ang):
   XX=            -77.3842   YY=            -77.4986   ZZ=            -82.5009
   XY=             -6.2741   XZ=              1.0839   YZ=              2.0892
 Traceless Quadrupole moment (field-independent basis, Debye-Ang):
   XX=              1.7437   YY=              1.6293   ZZ=             -3.3730
   XY=             -6.2741   XZ=              1.0839   YZ=              2.0892
 Octapole moment (field-independent basis, Debye-Ang**2):
  XXX=             21.6886  YYY=             -0.4611  ZZZ=              1.3952  XYY=              9.0561
  XXY=             28.1552  XXZ=             -1.6673  XZZ=             -7.1983  YZZ=             -1.2933
  YYZ=             -2.6073  XYZ=              1.9555
 Hexadecapole moment (field-independent basis, Debye-Ang**3):
 XXXX=          -2992.2209 YYYY=           -606.5124 ZZZZ=           -297.0635 XXXY=            -88.1847
 XXXZ=              6.9707 YYYX=              9.5633 YYYZ=             -6.5642 ZZZX=             -1.4900
 ZZZY=              1.9250 XXYY=           -621.6253 XXZZ=           -557.4413 YYZZ=           -150.5393
 XXYZ=             -3.7117 YYXZ=             -3.7614 ZZXY=              3.0887
 N-N= 8.998005757996D+02 E-N=-3.241390955672D+03  KE= 6.153345950699D+02
 D1PCM: PCM CHGder 1st derivatives, ID1Alg=3 FixD1E=F DoIter=F DoCFld=F I1PDM=0.
 Calling FoFJK, ICntrl=      2127 FMM=F ISym2X=0 I1Cent= 0 IOpClX= 0 NMat=1 NMatS=1 NMatT=0.
 ***** Axes restored to original set *****
 -------------------------------------------------------------------
 Center     Atomic                   Forces (Hartrees/Bohr)
 Number     Number              X              Y              Z
 -------------------------------------------------------------------
      1        6           0.001991807   -0.000490136   -0.001905954
      2        6          -0.002494956    0.004467039   -0.005037263
      3        6          -0.003454787    0.002493879    0.008501721
      4        6           0.002023728    0.000926763    0.003249126
      5        8           0.005888429   -0.006880231   -0.002481717
      6        6          -0.005668388    0.000393969   -0.003992738
      7        6          -0.002883908   -0.005989820   -0.001138714
      8        6           0.003868815   -0.003026770   -0.000501722
      9        6           0.002112316    0.006042305   -0.004501230
     10        6          -0.001449270   -0.000207957    0.002284154
     11        8           0.004687758    0.002335222    0.010521934
     12        8          -0.005430893   -0.001637081   -0.010479755
     13        6           0.000226625    0.001717992   -0.002060099
     14        1          -0.001095632   -0.000871566    0.003021022
     15        1          -0.001662588    0.001680760   -0.001564861
     16        1           0.003231844   -0.001570594   -0.004870101
     17        1          -0.002311843   -0.001105760   -0.000292742
     18        1           0.002347547    0.000762571   -0.002588327
     19        1           0.004338299    0.000002528   -0.000619434
     20        1          -0.001775474    0.002342700    0.005478797
     21        1           0.002969215    0.001227191   -0.006010975
     22        1          -0.000417565    0.003420412    0.002786556
     23        1          -0.002773956    0.000023777    0.004529515
     24        1          -0.001991433    0.001422399   -0.002362948
     25        1           0.000991442   -0.001210546   -0.002884136
     26        1           0.000678753    0.002906399    0.000482947
     27        1          -0.001466469   -0.000382803    0.003076772
     28        1           0.000827463   -0.002355705   -0.001913448
     29        1           0.003796700   -0.004288194    0.006165700
     30        1          -0.003455656    0.002521616    0.006206663
     31        1          -0.001647925   -0.004670360   -0.001098743
 -------------------------------------------------------------------
 Cartesian Forces:  Max     0.010521934 RMS     0.003533969

 GradGradGradGradGradGradGradGradGradGradGradGradGradGradGradGradGradGrad
 Berny optimization.
 FormGI is forming the generalized inverse of G from B-inverse, IUseBI=4.
 Internal  Forces:  Max     0.018637041 RMS     0.002365575
 Search for a local minimum.
 Step number   1 out of a maximum of  186
 All quantities printed in internal units (Hartrees-Bohrs-Radians)
 Mixed Optimization -- RFO/linear search
 Second derivative matrix not updated -- first step.
 ITU=  0
     Eigenvalues ---    0.00627   0.00631   0.00723   0.00726   0.01408
     Eigenvalues ---    0.01441   0.01686   0.02612   0.02701   0.03079
     Eigenvalues ---    0.03130   0.03811   0.04088   0.04589   0.04750
     Eigenvalues ---    0.04851   0.04892   0.05145   0.05161   0.05240
     Eigenvalues ---    0.05309   0.05698   0.05717   0.06122   0.06181
     Eigenvalues ---    0.06311   0.06532   0.07024   0.07592   0.07720
     Eigenvalues ---    0.07841   0.07946   0.07994   0.08034   0.08260
     Eigenvalues ---    0.08835   0.09147   0.09446   0.10702   0.11563
     Eigenvalues ---    0.11606   0.11708   0.11763   0.12402   0.12504
     Eigenvalues ---    0.14712   0.14883   0.16509   0.16541   0.17953
     Eigenvalues ---    0.19121   0.21544   0.21974   0.25000   0.28291
     Eigenvalues ---    0.28547   0.28641   0.28868   0.28953   0.29027
     Eigenvalues ---    0.30043   0.30289   0.35091   0.35093   0.35145
     Eigenvalues ---    0.35195   0.35198   0.35238   0.35284   0.35314
     Eigenvalues ---    0.35343   0.35368   0.35426   0.35457   0.35495
     Eigenvalues ---    0.35597   0.35788   0.35834   0.35843   0.36249
     Eigenvalues ---    0.40833   0.41341   0.42124   0.42309   0.43616
     Eigenvalues ---    0.455431000.000001000.000001000.000001000.00000
     Eigenvalues --- 1000.000001000.000001000.000001000.000001000.00000
     Eigenvalues --- 1000.000001000.000001000.000001000.000001000.00000
     Eigenvalues --- 1000.000001000.000001000.000001000.000001000.00000
     Eigenvalues --- 1000.000001000.000001000.000001000.000001000.00000
     Eigenvalues --- 1000.000001000.000001000.000001000.000001000.00000
     Eigenvalues --- 1000.000001000.000001000.000001000.000001000.00000
     Eigenvalues --- 1000.000001000.000001000.000001000.000001000.00000
     Eigenvalues --- 1000.000001000.000001000.000001000.000001000.00000
     Eigenvalues --- 1000.000001000.000001000.000001000.000001000.00000
     Eigenvalues --- 1000.000001000.000001000.000001000.000001000.00000
     Eigenvalues --- 1000.000001000.000001000.000001000.000001000.00000
     Eigenvalues --- 1000.000001000.000001000.000001000.000001000.00000
     Eigenvalues --- 1000.000001000.000001000.000001000.000001000.00000
     Eigenvalues --- 1000.000001000.000001000.000001000.000001000.00000
     Eigenvalues --- 1000.000001000.000001000.000001000.000001000.00000
     Eigenvalues --- 1000.000001000.000001000.000001000.000001000.00000
     Eigenvalues --- 1000.000001000.000001000.000001000.000001000.00000
     Eigenvalues --- 1000.000001000.000001000.000001000.000001000.00000
     Eigenvalues --- 1000.000001000.000001000.000001000.000001000.00000
 RFO step:  Lambda=-4.98270691D-03 EMin= 6.26684135D-03
 Linear search not attempted -- first point.
 Iteration  1 RMS(Cart)=  0.11822997 RMS(Int)=  0.00240761
 Iteration  2 RMS(Cart)=  0.00742860 RMS(Int)=  0.00007086
 Iteration  3 RMS(Cart)=  0.00001405 RMS(Int)=  0.00007048
 Iteration  4 RMS(Cart)=  0.00000000 RMS(Int)=  0.00007048
 Iteration  1 RMS(Cart)=  0.00003755 RMS(Int)=  0.00000877
 Iteration  2 RMS(Cart)=  0.00002080 RMS(Int)=  0.00000979
 Iteration  3 RMS(Cart)=  0.00001152 RMS(Int)=  0.00001108
 Iteration  4 RMS(Cart)=  0.00000638 RMS(Int)=  0.00001194
 Iteration  5 RMS(Cart)=  0.00000353 RMS(Int)=  0.00001245
 Iteration  6 RMS(Cart)=  0.00000196 RMS(Int)=  0.00001275
 Iteration  7 RMS(Cart)=  0.00000108 RMS(Int)=  0.00001291
 Iteration  8 RMS(Cart)=  0.00000060 RMS(Int)=  0.00001301
 Variable       Old X    -DE/DX   Delta X   Delta X   Delta X     New X
                                 (Linear)    (Quad)   (Total)
    R1        2.88843  -0.00065   0.00000  -0.00132  -0.00133   2.88710
    R2        2.87116   0.00037   0.00000   0.00141   0.00142   2.87258
    R3        2.05524   0.00325   0.00000   0.00914   0.00914   2.06438
    R4        2.05291   0.00281   0.00000   0.00787   0.00787   2.06078
    R5        2.65108   0.00390   0.00000   0.00798   0.00799   2.65906
    R6        2.64650   0.00145   0.00000   0.00315   0.00315   2.64966
    R7        2.87697  -0.00074   0.00000  -0.00270  -0.00271   2.87426
    R8        2.03693   0.00838   0.00000   0.02280   0.02280   2.05974
    R9        2.88351  -0.00191   0.00000  -0.00596  -0.00594   2.87757
   R10        2.88760  -0.00091   0.00000  -0.00259  -0.00255   2.88505
   R11        2.68532  -0.00082   0.00000  -0.00191  -0.00191   2.68341
   R12        2.04716   0.00587   0.00000   0.01627   0.01627   2.06343
   R13        2.88943  -0.00134   0.00000  -0.00412  -0.00412   2.88530
   R14        2.05168   0.00258   0.00000   0.00720   0.00720   2.05888
   R15        2.05360   0.00339   0.00000   0.00951   0.00951   2.06311
   R16        2.67798   0.00374   0.00000   0.00840   0.00838   2.68636
   R17        2.66847   0.00333   0.00000   0.00756   0.00758   2.67605
   R18        2.87319   0.00046   0.00000   0.00108   0.00104   2.87422
   R19        2.04341   0.00438   0.00000   0.01206   0.01206   2.05547
   R20        2.05528   0.00610   0.00000   0.01714   0.01714   2.07242
   R21        2.68667   0.00260   0.00000   0.00581   0.00581   2.69249
   R22        2.04879   0.00675   0.00000   0.01876   0.01876   2.06754
   R23        2.04328   0.00443   0.00000   0.01218   0.01218   2.05546
   R24        2.89575  -0.00057   0.00000  -0.00197  -0.00200   2.89376
   R25        2.04989   0.00498   0.00000   0.01387   0.01387   2.06376
   R26        2.05081   0.00333   0.00000   0.00927   0.00927   2.06008
   R27        2.05121   0.00726   0.00000   0.02025   0.02025   2.07146
   R28        2.04414   0.00501   0.00000   0.01381   0.01381   2.05796
   R29        2.05440   0.00320   0.00000   0.00898   0.00898   2.06338
   R30        2.05217   0.00301   0.00000   0.00840   0.00840   2.06057
   R31        2.05354   0.00337   0.00000   0.00945   0.00945   2.06299
   R32        2.04940   0.00312   0.00000   0.00868   0.00868   2.05808
    A1        1.92137  -0.00095   0.00000  -0.00317  -0.00340   1.91798
    A2        1.91645   0.00092   0.00000   0.00123   0.00133   1.91779
    A3        1.93968  -0.00054   0.00000  -0.00208  -0.00205   1.93763
    A4        1.90703   0.00003   0.00000  -0.00219  -0.00213   1.90490
    A5        1.90263   0.00056   0.00000   0.00324   0.00330   1.90593
    A6        1.87588   0.00001   0.00000   0.00310   0.00307   1.87895
    A7        1.95843  -0.00069   0.00000  -0.01006  -0.00990   1.94853
    A8        1.94152   0.00378   0.00000   0.01450   0.01425   1.95577
    A9        1.83068  -0.00246   0.00000  -0.01299  -0.01302   1.81766
   A10        1.88521  -0.00265   0.00000  -0.01296  -0.01286   1.87235
   A11        1.92615   0.00183   0.00000   0.01357   0.01355   1.93970
   A12        1.92204   0.00032   0.00000   0.00898   0.00904   1.93108
   A13        1.92145  -0.00013   0.00000  -0.00782  -0.00803   1.91342
   A14        1.99018  -0.00218   0.00000  -0.01936  -0.01958   1.97060
   A15        1.88716   0.00103   0.00000   0.00954   0.00969   1.89684
   A16        1.98676   0.00061   0.00000  -0.00626  -0.00668   1.98008
   A17        1.86513  -0.00041   0.00000   0.00508   0.00508   1.87021
   A18        1.80248   0.00133   0.00000   0.02379   0.02392   1.82640
   A19        1.91226   0.00214   0.00000   0.00065   0.00069   1.91294
   A20        1.93086  -0.00021   0.00000   0.00194   0.00199   1.93285
   A21        1.91438  -0.00102   0.00000  -0.00248  -0.00258   1.91180
   A22        1.91568  -0.00063   0.00000   0.00161   0.00158   1.91727
   A23        1.92325  -0.00101   0.00000  -0.00693  -0.00694   1.91631
   A24        1.86707   0.00066   0.00000   0.00521   0.00522   1.87229
   A25        1.97596  -0.00483   0.00000  -0.02692  -0.02688   1.94908
   A26        1.93658   0.00216   0.00000   0.00927   0.00931   1.94590
   A27        1.85480  -0.00127   0.00000  -0.00380  -0.00380   1.85100
   A28        1.90114   0.00057   0.00000   0.00639   0.00640   1.90755
   A29        1.94532  -0.00030   0.00000  -0.00262  -0.00262   1.94270
   A30        1.93169  -0.00173   0.00000  -0.01008  -0.01013   1.92156
   A31        1.89191   0.00060   0.00000   0.00122   0.00120   1.89311
   A32        1.94550   0.00219   0.00000   0.00503   0.00496   1.95046
   A33        1.92968  -0.00130   0.00000  -0.00451  -0.00456   1.92512
   A34        1.94647  -0.00023   0.00000  -0.00185  -0.00176   1.94471
   A35        1.91044  -0.00004   0.00000  -0.00031  -0.00024   1.91020
   A36        1.84139  -0.00127   0.00000  -0.00205  -0.00207   1.83932
   A37        1.88749   0.00064   0.00000   0.00385   0.00385   1.89134
   A38        1.90246   0.00126   0.00000   0.00032   0.00036   1.90282
   A39        1.92050  -0.00163   0.00000  -0.01354  -0.01354   1.90697
   A40        1.91770  -0.00057   0.00000  -0.00465  -0.00469   1.91301
   A41        1.91299   0.00044   0.00000   0.00931   0.00928   1.92227
   A42        1.92942   0.00016   0.00000   0.00652   0.00650   1.93593
   A43        1.88078   0.00032   0.00000   0.00197   0.00186   1.88264
   A44        1.90259   0.00179   0.00000   0.01058   0.01071   1.91330
   A45        1.95196  -0.00236   0.00000  -0.01729  -0.01735   1.93462
   A46        1.93844  -0.00067   0.00000  -0.00643  -0.00657   1.93187
   A47        1.90017   0.00105   0.00000   0.00959   0.00962   1.90979
   A48        1.86830  -0.00048   0.00000   0.00413   0.00412   1.87241
   A49        1.90015   0.00079   0.00000   0.00068   0.00053   1.90068
   A50        1.93064  -0.00113   0.00000  -0.00692  -0.00698   1.92366
   A51        1.90316  -0.00011   0.00000  -0.00237  -0.00234   1.90082
   A52        1.90765   0.00075   0.00000   0.00452   0.00452   1.91217
   A53        1.91886   0.00079   0.00000   0.00122   0.00120   1.92006
   A54        1.92809  -0.00021   0.00000   0.00079   0.00082   1.92890
   A55        1.87441  -0.00006   0.00000   0.00306   0.00305   1.87746
   A56        2.02796  -0.00582   0.00000  -0.03762  -0.03752   1.99045
   A57        2.13260  -0.01864   0.00000  -0.07309  -0.07309   2.05951
   A58        1.95681  -0.00211   0.00000  -0.01657  -0.01669   1.94012
   A59        1.87091   0.00007   0.00000   0.00407   0.00407   1.87498
   A60        1.90079   0.00102   0.00000  -0.00009  -0.00008   1.90071
   A61        1.90830   0.00143   0.00000   0.00842   0.00852   1.91681
   A62        1.94816  -0.00027   0.00000  -0.00177  -0.00189   1.94627
   A63        1.87553  -0.00006   0.00000   0.00716   0.00713   1.88266
    D1        0.92724  -0.00011   0.00000   0.00372   0.00372   0.93096
    D2        3.04159   0.00037   0.00000   0.00740   0.00744   3.04903
    D3       -1.18601   0.00043   0.00000   0.01343   0.01346  -1.17255
    D4       -1.17302  -0.00014   0.00000   0.00766   0.00764  -1.16537
    D5        0.94133   0.00035   0.00000   0.01133   0.01136   0.95269
    D6        2.99692   0.00041   0.00000   0.01737   0.01738   3.01430
[...]
 00000170,-0.00000209,0.00000714,0.00000352,0.00000060,0.00000446,-0.00
 000120,0.00000297,0.00007121,0.00044416,-0.00000862,0.00000520,0.00000
 040,0.00000228,-0.00000201,0.00000011,-0.00000154,-0.00017788,-0.00019
 073,0.00102433,-0.00225236,0.00326215,-0.00214928,-0.00002251,0.000010
 76,-0.00002149,0.00000550,-0.00000254,-0.00000608,-0.00038147,-0.00021
 413,0.00115438,0.00044933,0.00016188,0.00061790,-0.09406289,0.05416292
 ,0.28524516,0.00000541,0.00001012,-0.00002546,0.00060196,-0.00025968,-
 0.00131871,-0.00516130,0.00340014,0.00054491,0.00000019,-0.00003661,0.
 00001586,0.00026164,0.00427312,-0.00286304,0.00312095,0.01226713,0.005
 97802,0.00015230,-0.00012106,0.00006026,-0.00771304,-0.03427681,-0.006
 48997,-0.00119539,0.00024804,-0.00039599,-0.05686468,-0.05192896,-0.01
 205024,-0.00017616,0.00034434,0.00025661,-0.00241902,-0.00296965,0.000
 49909,-0.00007952,0.00001679,0.00021089,-0.00000425,-0.00000298,0.0000
 0681,-0.00001692,0.00000993,-0.00000395,0.00010236,0.00008645,-0.00020
 595,-0.00002662,0.00000985,-0.00000921,0.00001189,-0.00000018,0.000012
 38,0.00000062,-0.00067920,0.00063594,0.00046947,-0.00045206,0.00007502
 ,0.00003953,-0.00002040,-0.00002181,-0.00002169,0.00002317,0.00000820,
 0.00148635,0.00047524,0.00039587,0.00147190,0.00064256,-0.00032788,0.0
 0188519,0.01155372,0.00152282,0.06377042,0.00000100,0.00000321,0.00000
 743,0.00026555,-0.00007557,-0.00039487,-0.00006407,0.00202362,0.000320
 19,-0.00000834,-0.00001691,0.00000572,0.00145352,-0.00444505,0.0040339
 9,-0.00565097,-0.01615896,-0.00733835,0.00006576,-0.00006067,-0.000008
 07,-0.00077619,-0.00216394,-0.00047785,0.00145779,0.00078111,-0.000418
 39,-0.05224365,-0.29287577,-0.05174695,-0.00015152,0.00011106,0.000093
 09,-0.00043120,-0.00035008,0.00022430,-0.00001330,0.00002134,0.0000576
 7,-0.00001116,-0.00000540,0.00000208,-0.00000967,0.00000507,-0.0000039
 4,0.00007545,0.00010875,-0.00000612,-0.00001458,0.00000350,-0.00000573
 ,0.00000439,0.00000058,0.00000651,0.00040260,0.00035784,-0.00008754,-0
 .00021904,0.00070038,0.00029531,0.00002040,-0.00001584,0.00002140,-0.0
 0001088,0.00001235,0.00000691,-0.00021590,0.00031483,0.00019325,-0.000
 35950,0.00033059,-0.00012119,-0.00064881,-0.00546092,-0.00134830,0.057
 45610,0.31696967,0.00000192,-0.00000130,0.00000431,-0.00004367,-0.0000
 2779,-0.00013860,-0.00009081,-0.00011014,0.00046722,0.00000065,-0.0000
 0232,0.00000347,-0.00176516,0.00612274,-0.00250098,0.00722241,0.019923
 67,0.00617021,0.00002124,-0.00001406,-0.00000891,0.00101499,0.00085662
 ,-0.00098485,-0.00129546,-0.00039994,-0.00008950,-0.01233810,-0.053857
 15,-0.06081111,-0.00003140,-0.00000921,0.00002395,-0.00012374,-0.00014
 513,0.00048415,-0.00001089,-0.00000908,0.00004521,-0.00000337,-0.00000
 188,-0.00000019,-0.00000192,0.00000117,-0.00000107,-0.00010420,0.00051
 742,0.00016009,-0.00000197,-0.00000022,-0.00000180,0.00000114,0.000001
 24,0.00000031,-0.00015832,-0.00065369,0.00061309,0.00069971,-0.0009478
 5,0.00051359,0.00000403,-0.00000337,0.00001046,0.00000047,0.00000155,0
 .,-0.00024310,0.00036630,0.00030532,0.00007161,-0.00028229,-0.00012362
 ,-0.00634440,-0.02786654,-0.00515677,0.01320793,0.05661801,0.06098697,
 0.00057737,-0.00084296,-0.00021359,-0.01188453,-0.00590694,0.02720906,
 0.00124562,-0.00014747,0.00120205,0.00876271,0.00618688,-0.01735170,-0
 .00030392,0.00001111,-0.00019160,0.00004593,0.00009713,0.00009010,-0.0
 0026112,0.00003675,-0.00002707,-0.00048744,0.00013965,0.00003936,0.000
 11374,-0.00020974,0.00029127,0.00007416,-0.00024153,-0.00007440,0.0016
 0298,0.00101177,-0.00072512,-0.00946511,-0.00307718,-0.00053902,-0.106
 39611,-0.03469262,0.10211162,-0.00016272,-0.00015564,0.00032771,-0.000
 12434,-0.00026760,0.00000629,-0.00052699,-0.00010571,0.00004136,0.0009
 3355,-0.00084534,0.00030274,-0.00140911,0.00346338,-0.00181583,-0.0000
 2623,-0.00000548,-0.00001384,0.00000855,-0.00001230,-0.00001909,-0.000
 04107,0.00006419,0.00000529,0.00006030,-0.00002005,0.00000327,0.000013
 25,-0.00003561,-0.00002728,0.00002902,-0.00001350,0.00000652,0.0000048
 7,0.00001256,0.00000700,-0.00010438,-0.00003461,-0.00001633,0.11895824
 ,-0.00098839,0.00094721,0.00073934,-0.00455086,-0.00490934,0.01037026,
 0.00013815,0.00050723,0.00046752,-0.01053494,-0.00749032,0.02010594,-0
 .00008048,0.00000392,-0.00005904,0.00000941,0.00002599,0.00001583,-0.0
 0000438,-0.00021668,0.00011680,0.00005062,0.00003016,0.00000711,0.0000
 0191,-0.00007049,0.00009071,0.00001226,-0.00001070,-0.00000608,0.00030
 411,0.00066803,-0.00024007,-0.00221359,0.00004121,-0.00065988,-0.03349
 512,-0.06755966,0.05611989,0.00025956,-0.00025227,-0.00041008,0.000224
 68,0.00025109,-0.00019998,-0.00020217,-0.00004010,0.00000447,-0.000110
 17,0.00100144,-0.00075367,0.00259233,-0.00269280,0.00208573,-0.0000051
 8,-0.00000243,-0.00000261,0.00000057,-0.00000327,-0.00000348,0.0000851
 1,0.00007393,-0.00003072,-0.00004707,-0.00001733,-0.00002781,0.0000048
 3,-0.00000888,-0.00000639,0.00000424,-0.00000996,-0.00000174,0.0000026
 0,0.00000168,-0.00000019,-0.00000850,-0.00000424,-0.00000299,0.0352282
 8,0.07092079,0.00022758,-0.00096468,0.00072083,-0.00472778,-0.00332574
 ,0.00531673,-0.00048431,-0.00009992,0.00053515,0.00650264,0.00502264,-
 0.01517675,0.00003025,-0.00000069,-0.00000142,-0.00000081,-0.00000927,
 -0.00000297,-0.00022263,0.00016291,0.00002259,0.00004341,0.00002687,0.
 00000460,0.00004700,0.00003072,0.00001057,-0.00001142,0.00000166,-0.00
 000899,-0.00020647,0.00056139,0.00063652,-0.00156802,-0.00079805,0.000
 75664,0.10660585,0.05799377,-0.23395724,0.00005878,0.00044407,0.000514
 49,-0.00024367,-0.00006897,0.00019274,-0.00010282,-0.00001312,-0.00000
 629,-0.00009157,-0.00043816,0.00046897,-0.00224808,0.00247827,-0.00027
 101,0.00000114,0.00000067,0.00000037,-0.00000108,0.00000094,0.00000113
 ,-0.00002487,-0.00002963,-0.00005143,0.00007107,0.00002383,0.00003501,
 0.,-0.00000665,-0.00000801,-0.00000739,0.00000142,0.00000301,0.0000059
 1,-0.00000107,-0.00000367,0.00000063,-0.00000123,-0.00000360,-0.112251
 54,-0.06619505,0.25400789,-0.00169423,0.00261757,-0.00297257,0.0058513
 6,-0.02364233,-0.01553746,0.00017142,0.00013073,-0.00005057,-0.0019257
 6,0.01398979,0.01188189,0.00001738,-0.00000050,0.00003675,-0.00000471,
 -0.00001352,-0.00000337,-0.00134649,0.00136491,-0.00088533,0.00008021,
 -0.00003766,-0.00005807,0.00001519,0.00002372,-0.00007476,0.00000574,0
 .00004257,0.00002498,-0.00555547,-0.00653465,-0.00317192,0.00110722,0.
 00028602,-0.00029822,-0.05269925,0.02745965,0.01976339,0.00001032,-0.0
 0036233,-0.00025322,0.00028074,0.00131143,0.00051437,0.00000558,0.0000
 1543,0.00001411,0.00026801,-0.00064575,0.00055973,0.00071247,-0.000638
 54,-0.00018326,-0.00000209,0.00000238,-0.00000109,0.00000185,0.0000006
 4,0.00000072,0.00011946,-0.00013224,0.00014357,0.00024306,-0.00013230,
 0.00013092,0.00004634,0.00005065,0.00002657,-0.00000851,0.00001101,0.0
 0000925,-0.00001680,0.00000140,0.00000335,0.00000876,0.00000166,0.0000
 0111,-0.00193858,0.01292352,0.00811453,0.05549766,0.00287043,-0.001686
 15,0.00385036,0.00305826,-0.01057631,-0.00630806,-0.00021579,0.0002936
 6,0.00017382,0.00181727,-0.01754959,-0.01264240,-0.00000048,-0.0000099
 6,0.00004068,-0.00000616,-0.00000441,-0.00000205,0.00030675,0.00110393
 ,-0.00018516,0.00013925,-0.00003446,-0.00004281,0.00002859,0.00000885,
 -0.00007870,-0.00000370,0.00006952,0.00003476,-0.00267505,-0.00080673,
 -0.00129395,0.00100815,0.00108106,0.00022339,0.02430489,-0.22577194,-0
 .12470502,0.00006552,0.00010783,-0.00014264,-0.00011614,-0.00114648,-0
 .00087413,-0.00004156,-0.00000718,-0.00000803,0.00006218,0.00081975,-0
 .00001142,-0.00063130,0.00067871,-0.00002365,-0.00000190,0.00000089,-0
 .00000067,0.00000220,0.00000052,0.00000121,-0.00003779,-0.00006317,0.0
 0007994,-0.00005282,-0.00003537,-0.00005673,0.00003551,0.00003717,0.00
 004243,-0.00000168,0.00000033,-0.00001086,-0.00001605,-0.00000058,0.00
 000127,0.00001759,0.00000113,-0.00000011,-0.00033714,0.00837210,0.0050
 3261,-0.02908052,0.24493660,-0.00206068,0.00227904,-0.00149359,0.00423
 569,-0.00550400,-0.00633999,-0.00021153,0.00028076,0.00014109,-0.00126
 582,0.01539842,0.01085743,-0.00003052,-0.00000087,0.00000871,0.0000023
 9,0.00000743,0.00000245,-0.00058023,0.00074202,-0.00056248,0.00008573,
 -0.00002660,-0.00003422,0.00001197,-0.00002078,-0.00002947,-0.00000592
 ,0.00003526,0.00003053,-0.00245868,-0.00221451,0.00006802,0.00101556,0
 .00082935,0.00058799,0.01667463,-0.12709556,-0.13633619,-0.00010010,0.
 00016884,0.00023723,-0.00015894,0.00084029,0.00055401,-0.00005144,-0.0
 0001825,-0.00000681,0.00044357,-0.00083864,0.00046142,0.00068574,-0.00
 062456,0.00075717,-0.00000277,-0.00000062,-0.00000132,0.00000186,-0.00
 000110,-0.00000084,0.00006463,-0.00010696,0.00009592,0.00010211,-0.000
 11443,0.00006181,0.00002341,0.00003441,0.00002750,-0.00000306,0.000001
 42,0.00000381,-0.00001234,-0.00000149,-0.00000009,0.00000909,-0.000002
 43,-0.00000187,0.00165861,-0.02112450,-0.01444989,-0.01802326,0.136795
 07,0.14527126,0.00038855,-0.00049721,-0.00003977,-0.11330794,0.0795370
 5,-0.08005027,0.00337354,-0.00061441,0.00019701,-0.00375395,-0.0041211
 5,-0.00068260,0.00022652,-0.00009638,0.00073827,-0.00000143,-0.0000698
 4,0.00007303,0.00158012,-0.00069771,0.00040124,-0.00048041,-0.00004838
 ,-0.00009517,-0.00262894,-0.00085273,-0.00110369,-0.00000382,-0.000159
 20,-0.00003948,0.00150886,0.00388098,-0.00004163,0.00687298,-0.0134490
 8,0.02241376,-0.01456245,0.01803606,-0.01792111,-0.00003903,0.00003571
 ,0.00012684,0.00005407,0.00012460,0.00005788,0.00005506,0.00014643,-0.
 00014921,-0.00099667,0.00125308,-0.00079034,0.00007932,0.00005037,-0.0
 0018630,0.00001248,0.00002960,-0.00001521,0.00001309,0.00001983,-0.000
 01507,-0.00015466,0.00018487,-0.00008791,0.00001142,0.00010552,-0.0000
 2572,-0.00001926,-0.00001667,-0.00002313,-0.00000832,0.00013227,-0.000
 00600,0.00001181,-0.00000047,-0.00000518,-0.00003686,-0.00000815,-0.00
 000278,0.00071212,0.00039408,0.00049445,0.00074229,-0.00049887,-0.0000
 4869,0.12414294,-0.00007715,-0.00055988,0.00004636,0.07071009,-0.14942
 072,0.09917378,0.00149404,-0.00003832,0.00044828,-0.00228989,-0.000947
 01,-0.00065322,0.00053430,0.00025963,-0.00068280,-0.00004846,-0.000295
 27,-0.00006691,-0.00248002,-0.00099553,-0.00548328,-0.00022454,-0.0000
 8141,-0.00005000,-0.00017588,0.00047893,0.00081830,0.00000445,0.000007
 45,0.00004288,0.02086888,-0.03841265,0.01232350,-0.00136977,0.00258299
 ,0.00681454,-0.00616750,0.01027963,-0.00661788,0.00006541,0.00008307,0
 .00000849,0.00023933,0.00020658,0.00015751,-0.00015468,0.00007189,-0.0
 0011415,-0.00051910,0.00056233,-0.00033677,0.00003577,-0.00000459,-0.0
 0008706,0.00001385,0.00004592,-0.00000069,-0.00003261,0.00000895,0.000
 01116,0.00001255,-0.00020098,0.00029802,0.00090845,-0.00132036,0.00074
 168,0.00009419,0.00001352,0.00004572,0.00001198,0.00004230,-0.00003917
 ,-0.00002339,-0.00000140,-0.00000139,-0.00002600,0.00000982,-0.0000171
 7,0.00065352,0.00043430,0.00016746,0.00098462,0.00018235,0.00028148,-0
 .08293212,0.17737086,-0.00000736,-0.00024861,-0.00006899,-0.07835392,0
 .10705023,-0.14617651,-0.00517593,-0.00121141,0.00001652,-0.00099733,-
 0.00121307,0.00075665,-0.00023181,-0.00052663,0.00063885,-0.00006386,0
 .00021880,-0.00002107,-0.00070284,-0.00282231,-0.00066298,0.00067385,-
 0.00013922,0.00013277,0.00034742,0.00029099,-0.00035923,-0.00008534,0.
 00026050,0.00009038,0.00933574,-0.01864951,0.01073217,0.00201126,0.020
 02862,-0.03532525,-0.00451955,0.00517533,-0.00280697,0.00003199,0.0000
 6731,-0.00000666,0.00011890,0.00012954,0.00001673,0.00029437,-0.000029
 31,0.00000226,-0.00021217,0.00043898,-0.00023121,0.00020838,-0.0001184
 6,0.00009751,0.00000517,-0.00006603,0.00001262,0.00002256,-0.00000580,
 0.00000016,0.00018898,-0.00041533,0.00017624,0.00034866,-0.00062058,0.
 00028536,0.00002873,0.00007251,0.00003815,-0.00004578,-0.00013987,-0.0
 0000877,0.00000570,-0.00001108,-0.00000348,0.00013628,0.00002327,0.000
 02356,0.00004368,-0.00038776,0.00073918,0.00026266,0.00007470,0.000074
 49,0.07688390,-0.10675750,0.17105963,0.00000892,-0.00009116,0.00004076
 ,-0.00185808,-0.00149270,-0.00005939,0.00790178,-0.00479511,-0.0149349
 4,-0.00001756,-0.00001717,-0.00003169,-0.03347818,0.00394696,0.0347031
 6,0.00175730,0.00557319,0.00266616,0.00003148,0.00028960,-0.00010843,0
 .00024444,-0.00093533,0.00037635,-0.06386602,0.01810055,0.05856637,-0.
 00023238,-0.00059820,-0.00036722,0.00026152,-0.00024825,0.00021025,0.0
 0063255,0.00030864,0.00166885,-0.00001192,0.00012264,0.00000380,-0.000
 00443,0.00000015,-0.00000031,0.00003630,0.00001169,0.00001255,-0.00156
 132,0.00204388,-0.00236790,0.00000096,0.00001132,-0.00000361,-0.000001
 83,0.00000907,-0.00000958,0.00011960,-0.00001474,-0.00046290,0.0005318
 5,-0.00069456,-0.00115115,-0.00000524,-0.00002829,0.00003931,0.0000130
 6,-0.00001851,-0.00000371,-0.00001290,0.00013432,0.00035186,-0.0000938
 1,-0.00008821,0.00014528,-0.00007256,0.00006941,-0.00005533,0.00019651
 ,-0.00019513,0.00011767,-0.00000826,0.00000379,-0.00000300,0.00001188,
 0.00000873,0.00000756,-0.00323366,-0.00040890,-0.00092432,0.09008896,-
 0.00000660,0.00003882,-0.00000471,0.00028968,0.00114171,-0.00073798,-0
 .00475501,0.00468832,0.01702040,0.00004545,0.00004625,0.00001909,-0.00
 311979,0.00316342,0.00425631,-0.00148460,0.00168280,0.00320464,-0.0000
 2542,-0.00012367,-0.00001062,-0.00047964,0.00139390,0.00070643,0.02009
 374,-0.07721220,-0.06673257,0.00009325,-0.00031110,-0.00002270,-0.0001
 3996,-0.00022485,-0.00000809,-0.00023899,0.00003006,-0.00061008,0.0000
 2393,-0.00019203,0.00002175,0.00000132,0.00000036,-0.00000433,-0.00000
 878,-0.00001100,-0.00000434,0.00132220,-0.00108155,0.00259192,0.000015
 17,-0.00001893,0.00001510,0.00000074,-0.00001035,0.00000682,0.00009699
 ,0.00008906,0.00004723,0.00035278,0.00057760,-0.00033540,0.00002544,0.
 00000699,-0.00000171,0.00000835,-0.00001565,0.00000951,0.00024172,-0.0
 0009941,-0.00018627,0.00002837,0.00010426,-0.00026382,0.00001352,-0.00
 004163,-0.00021003,0.00003249,-0.00003091,-0.00003534,0.00001547,0.000
 00104,-0.00000175,-0.00000405,0.00000263,-0.00000037,-0.00028432,-0.00
 027929,-0.00008652,-0.02077526,0.07361053,0.00003250,-0.00005847,0.000
 07920,0.00041140,0.00054128,-0.00168814,0.00831534,-0.00770523,-0.0238
 8157,0.00018532,0.00011551,-0.00002005,0.00889979,0.00056306,0.0017089
 5,-0.00110811,-0.00020672,0.00136856,-0.00005209,0.00035221,-0.0002099
 0,0.00031440,-0.00156823,0.00093960,0.06102886,-0.06478558,-0.25853356
 ,0.00013290,0.00014203,-0.00000816,0.00032053,0.00012701,0.00054419,-0
 .00174642,0.00004056,0.00124154,0.00000046,-0.00052636,0.00043666,0.00
 000148,0.00000433,-0.00000812,0.00004009,-0.00000607,0.00001312,-0.002
 21557,0.00282565,-0.00238015,0.00004966,-0.00005022,0.00004363,-0.0000
 0530,-0.00001150,0.00002531,-0.00002331,0.00025688,0.00035184,0.000541
 78,0.00110687,-0.00020137,-0.00000062,-0.00003598,0.00004925,0.0000139
 2,-0.00005174,0.00001394,0.00004817,0.00104449,0.00042000,-0.00031287,
 -0.00000631,0.00039532,-0.00011580,-0.00014541,-0.00010140,0.00007479,
 0.00006120,-0.00000423,-0.00006412,-0.00001364,-0.00002233,0.00002113,
 0.00003749,0.00001686,0.00015088,-0.00062771,0.00098005,-0.07492226,0.
 06934919,0.28015069,-0.00000748,0.00002042,0.00001099,-0.00000986,0.00
 049454,0.00033305,0.00347386,0.01533726,0.00373299,0.00004160,0.000026
 52,0.00000385,-0.01573229,-0.04302723,-0.00534163,-0.00568621,0.002392
 21,0.00173968,0.00000415,-0.00005523,-0.00000539,-0.00184011,0.0017454
 2,-0.00319282,-0.04998332,-0.02147183,-0.00191768,-0.00062851,-0.00067
 315,-0.00024016,-0.00019655,0.00005328,-0.00007960,0.00156346,-0.00094
 018,0.00055628,-0.00001190,-0.00013296,0.00006437,-0.00000553,-0.00000
 396,-0.00000124,-0.00000651,-0.00000592,-0.00000481,0.00048712,-0.0007
 2983,0.00018596,0.00001356,-0.00001432,0.00000541,-0.00000113,0.000001
 27,-0.00000302,-0.00056849,-0.00183964,-0.00013220,0.00012844,-0.00006
 224,-0.00030729,0.00003348,-0.00000290,0.00000035,-0.00000210,-0.00000
 087,-0.00000088,-0.00001197,-0.00033826,-0.00009850,0.00038090,0.00124
 188,-0.00009503,0.00008776,0.00001939,0.00004226,0.00023439,-0.0001375
 5,0.00021075,-0.00000250,0.00000080,-0.00000780,-0.00000506,-0.0000083
 6,-0.00000858,-0.00055775,0.00029857,0.00037197,0.00262104,0.00862180,
 -0.00001694,0.06618750,0.00001075,-0.00000158,-0.00001726,0.00009382,-
 0.00043630,0.00045615,-0.00255710,-0.01678247,-0.00302211,-0.00003311,
 -0.00003892,-0.00000968,-0.00621105,-0.00379169,-0.00075705,-0.0003800
 9,0.00297555,0.00086772,-0.00004365,0.00005835,0.00008563,0.00197192,-
 0.00004663,0.00349608,-0.03258356,-0.31099379,-0.03142014,0.00034389,0
 .00020595,-0.00023566,0.00003462,0.00033767,-0.00009465,0.00063789,0.0
 0138610,-0.00037712,0.00002625,0.00009256,-0.00013182,0.00001020,0.000
 00513,0.00000147,0.00000362,0.00000100,0.00000368,-0.00019596,0.000805
 35,0.00012795,-0.00000597,0.00001455,-0.00000468,-0.00000244,0.0000021
 2,-0.00000689,-0.00009784,-0.00036730,0.00004496,0.00009780,0.00005630
 ,0.00000813,-0.00004427,0.00001547,-0.00002232,-0.00000910,0.00001353,
 -0.00001436,0.00000070,0.00028947,0.00000099,-0.00032842,-0.00113791,-
 0.00005566,-0.00006649,0.00000948,0.00004702,-0.00008470,-0.00009061,-
 0.00002115,0.00003072,0.00000836,0.00000473,0.00000667,-0.00000473,0.0
 0000186,0.00041627,-0.00008310,-0.00038176,-0.00023244,-0.00692519,-0.
 00076858,0.03919106,0.33442323,0.00001105,-0.00003266,0.00002525,-0.00
 045247,-0.00060157,0.00051319,0.00318086,0.02611050,0.00322435,-0.0000
 1431,-0.00002460,-0.00000506,0.00124011,0.00293093,0.00135693,-0.00019
 799,-0.00008954,0.00006696,0.00006671,0.00010373,-0.00004753,-0.002770
 48,0.00128778,-0.00335089,-0.00375198,-0.03365038,-0.05740465,-0.00023
 893,-0.00016546,0.00001215,0.00012631,-0.00002180,0.00003216,0.0015440
 1,-0.00170447,0.00071157,-0.00002864,0.00006723,0.00001363,-0.00000689
 ,-0.00000315,0.00000007,0.00000820,0.00000557,0.00000315,0.00071644,-0
 .00060337,0.00108928,-0.00000515,0.00000743,-0.00000896,0.00000198,0.0
 0000701,-0.00000572,-0.00011467,-0.00009702,0.00035754,0.00000150,0.00
 041864,0.00036526,0.00003269,-0.00001215,0.00000976,-0.00000322,0.0000
 0489,-0.00000508,-0.00008300,0.00028446,0.00018039,0.00011681,0.001456
 80,0.00025916,0.00008816,-0.00002940,-0.00000025,0.00006079,-0.0000093
 9,0.00001521,-0.00001539,0.00000209,-0.00000282,0.00000405,-0.00000135
 ,-0.00000094,-0.00020803,0.00015652,-0.00020218,-0.00350420,-0.0279917
 6,-0.00171975,0.00419567,0.03219451,0.05451781\\0.00000491,0.00001490,
 -0.00000751,-0.00036730,0.00161066,-0.00024963,-0.00007052,0.00105876,
 -0.00229257,-0.00000279,-0.00000102,0.00000152,0.00001641,-0.00002595,
 -0.00002198,0.00001273,0.00003469,0.00001472,-0.00000278,0.00000922,-0
 .00000398,-0.00006296,-0.00017151,0.00157102,-0.00002482,-0.00001546,0
 .00000841,-0.00000685,-0.00000671,0.00000283,-0.00002332,0.00009419,0.
 00011823,0.00049595,-0.00261957,0.00082012,0.00001856,0.00000841,0.000
 01531,0.00000706,0.00000173,-0.00000286,-0.00000779,0.00000566,0.00000
 070,0.00000415,-0.00000345,0.00001357,0.00000902,-0.00001135,-0.000000
 24,0.00000483,-0.00000049,0.,-0.00000403,-0.00000100,0.00000127,0.0000
 0240,0.00000115,-0.00000757,-0.00000474,-0.00000960,-0.00000033,0.0000
 0759,0.00000840,-0.00000297,-0.00000506,0.00000018,-0.00000391,0.00000
 660,-0.00000544,0.00000229,0.00000717,-0.00000572,0.00000320,0.0000058
 1,0.00001060,-0.00000971,0.00000596,0.00000412,0.00000952,-0.00000612,
 -0.00000638,0.00000082,-0.00001353,0.00001413,0.00001331,-0.00000302,0
 .00000321,-0.00000424,-0.00000355,0.00000365,0.00001068\\\@


 A MUSTACHE HAIR ACROSS A CHIP IS LIKE A REDWOOD
 TREE FALLING THROUGH A HOUSING PROJECT.
 - AN IBM MANAGER IN EAST FISHKILL, NEW YORK
   AS QUOTED IN "FROM SANDS TO CIRCUITS", IBM INNOVATION JANUARY 1985.
 Job cpu time:       0 days 14 hours 18 minutes 11.6 seconds.
 Elapsed time:       0 days  0 hours 53 minutes 39.7 seconds.
 File lengths (MBytes):  RWF=    684 Int=      0 D2E=      0 Chk=     32 Scr=      1
 Normal termination of Gaussian 16 at Sun Nov  4 22:56:09 2018.
