 Entering Gaussian System, Link 0=g16
 Initial command:
 /apps/gaussian/g16a03/g16/l1.exe "/jobfs/local/2011969.r-man2/Gau-22172.inp" -scrdir="/jobfs/local/2011969.r-man2/"
 Entering Link 1 = /apps/gaussian/g16a03/g16/l1.exe PID=     22173.
  
 Copyright (c) 1988,1990,1992,1993,1995,1998,2003,2009,2016,
            Gaussian, Inc.  All Rights Reserved.
  
 This is part of the Gaussian(R) 16 program.  It is based on
 the Gaussian(R) 09 system (copyright 2009, Gaussian, Inc.),
 the Gaussian(R) 03 system (copyright 2003, Gaussian, Inc.),
 the Gaussian(R) 98 system (copyright 1998, Gaussian, Inc.),
 the Gaussian(R) 94 system (copyright 1995, Gaussian, Inc.),
 the Gaussian 92(TM) system (copyright 1992, Gaussian, Inc.),
 the Gaussian 90(TM) system (copyright 1990, Gaussian, Inc.),
 the Gaussian 88(TM) system (copyright 1988, Gaussian, Inc.),
 the Gaussian 86(TM) system (copyright 1986, Carnegie Mellon
 University), and the Gaussian 82(TM) system (copyright 1983,
 Carnegie Mellon University). Gaussian is a federally registered
 trademark of Gaussian, Inc.
  
 This software contains proprietary and confidential information,
 including trade secrets, belonging to Gaussian, Inc.
  
 This software is provided under written license and may be
 used, copied, transmitted, or stored only in accord with that
 written license.
  
 The following legend is applicable only to US Government
 contracts under FAR:
  
                    RESTRICTED RIGHTS LEGEND
  
 Use, reproduction and disclosure by the US Government is
 subject to restrictions as set forth in subparagraphs (a)
 and (c) of the Commercial Computer Software - Restricted
 Rights clause in FAR 52.227-19.
  
 Gaussian, Inc.
 340 Quinnipiac St., Bldg. 40, Wallingford CT 06492
  
  
 ---------------------------------------------------------------
 Warning -- This program may not be used in any manner that
 competes with the business of Gaussian, Inc. or will provide
 assistance to any competitor of Gaussian, Inc.  The licensee
 of this program is prohibited from giving any competitor of
 Gaussian, Inc. access to this program.  By using this program,
 the user acknowledges that Gaussian, Inc. is engaged in the
 business of creating and licensing software in the field of
 computational chemistry and represents and warrants to the
 licensee that it is not a competitor of Gaussian, Inc. and that
 it will not use this program in any manner prohibited above.
 ---------------------------------------------------------------
  

 Cite this work as:
 Gaussian 16, Revision A.03,
 M. J. Frisch, G. W. Trucks, H. B. Schlegel, G. E. Scuseria, 
 M. A. Robb, J. R. Cheeseman, G. Scalmani, V. Barone, 
 G. A. Petersson, H. Nakatsuji, X. Li, M. Caricato, A. V. Marenich, 
 J. Bloino, B. G. Janesko, R. Gomperts, B. Mennucci, H. P. Hratchian, 
 J. V. Ortiz, A. F. Izmaylov, J. L. Sonnenberg, D. Williams-Young, 
 F. Ding, F. Lipparini, F. Egidi, J. Goings, B. Peng, A. Petrone, 
 T. Henderson, D. Ranasinghe, V. G. Zakrzewski, J. Gao, N. Rega, 
 G. Zheng, W. Liang, M. Hada, M. Ehara, K. Toyota, R. Fukuda, 
 J. Hasegawa, M. Ishida, T. Nakajima, Y. Honda, O. Kitao, H. Nakai, 
 T. Vreven, K. Throssell, J. A. Montgomery, Jr., J. E. Peralta, 
 F. Ogliaro, M. J. Bearpark, J. J. Heyd, E. N. Brothers, K. N. Kudin, 
 V. N. Staroverov, T. A. Keith, R. Kobayashi, J. Normand, 
 K. Raghavachari, A. P. Rendell, J. C. Burant, S. S. Iyengar, 
 J. Tomasi, M. Cossi, J. M. Millam, M. Klene, C. Adamo, R. Cammi, 
 J. W. Ochterski, R. L. Martin, K. Morokuma, O. Farkas, 
 J. B. Foresman, and D. J. Fox, Gaussian, Inc., Wallingford CT, 2016.
 
 ******************************************
 Gaussian 16:  ES64L-G16RevA.03 25-Dec-2016
                 4-Nov-2018 
 ******************************************
 %mem=6000mb
 %nproc=24
 Will use up to   24 processors via shared memory.
 %chk=D_1a_4e_D_PSI.inp_extract_21.chk
 ----------------------------------------------------------------------
 #M062X/6-311++G(2d,2p) opt=ModRedundant freq=noraman SCRF=(Solvent=Wat
 er)
 ----------------------------------------------------------------------
 1/18=120,19=15,26=3,38=1/1,3;
 2/9=110,12=2,17=6,18=5,40=1/2;
 3/5=4,6=6,7=1212,11=2,25=1,30=1,70=2201,71=1,72=1,74=-55/1,2,3;
 4//1;
 5/5=2,38=5,53=1/2;
 6/7=2,8=2,9=2,10=2,28=1/1;
 7//1,2,3,16;
 1/18=20,19=15,26=3/3(2);
 2/9=110/2;
 99//99;
 2/9=110/2;
 3/5=4,6=6,7=1212,11=2,25=1,30=1,70=2205,71=1,72=1,74=-55/1,2,3;
 4/5=5,16=3,69=1/1;
 5/5=2,38=5,53=1/2;
 7//1,2,3,16;
 1/18=20,19=15,26=3/3(-5);
 2/9=110/2;
 6/7=2,8=2,9=2,10=2,19=2,28=1/1;
 99/9=1/99;
 ----------------------------
 D_1a_4e_D_PSI.inp_extract_21
 ----------------------------
 Symbolic Z-matrix:
 Charge =  0 Multiplicity = 1
 C                    -3.39777   0.9576    0.20182 
 C                    -1.12764  -0.83808   0.32257 
 C                     1.07624  -0.38517  -0.69254 
 C                    -3.3217   -0.21343  -0.77726 
 O                     3.13988  -1.00214   0.34947 
 C                     3.57054   0.33977   0.49797 
 C                    -1.99917   1.37725   0.62128 
 C                     1.46242   1.08918  -0.63014 
 C                     1.73989  -1.15675   0.44753 
 C                     2.98803   1.2178   -0.59752 
 O                    -1.26353   0.28353   1.15538 
 O                    -0.33089  -0.5669   -0.7956 
 C                    -2.48048  -1.33482  -0.16754 
 H                    -3.96533   0.66594   1.08248 
 H                    -3.90286   1.80941  -0.24475 
 H                     1.46288  -0.79805  -1.61687 
 H                    -4.31538  -0.58441  -1.00895 
 H                    -2.88118   0.11996  -1.71311 
 H                     4.65085   0.31742   0.45634 
 H                     3.27206   0.70033   1.47964 
 H                    -1.46101   1.7976   -0.22061 
 H                    -2.02632   2.11859   1.40791 
 H                     1.03872   1.54073   0.26167 
 H                     1.05242   1.61014  -1.48958 
 H                     3.40692   0.91586  -1.55421 
 H                     3.27958   2.24974  -0.42623 
 H                    -3.00085  -1.7479    0.69233 
 H                    -2.32263  -2.14441  -0.87163 
 H                    -0.66201  -1.58806   0.94101 
 H                     1.41018  -0.80244   1.41927 
 H                     1.53808  -2.21651   0.37413 
 
 The following ModRedundant input section has been read:
 D       8       3      12       2 F                                           
 

 GradGradGradGradGradGradGradGradGradGradGradGradGradGradGradGradGradGrad
 Berny optimization.
 Initialization pass.
                           ----------------------------
                           !    Initial Parameters    !
                           ! (Angstroms and Degrees)  !
 --------------------------                            --------------------------
 ! Name  Definition              Value          Derivative Info.                !
 --------------------------------------------------------------------------------
 ! R1    R(1,4)                  1.5283         estimate D2E/DX2                !
 ! R2    R(1,7)                  1.5192         estimate D2E/DX2                !
 ! R3    R(1,14)                 1.0875         estimate D2E/DX2                !
 ! R4    R(1,15)                 1.0863         estimate D2E/DX2                !
 ! R5    R(2,11)                 1.4036         estimate D2E/DX2                !
 ! R6    R(2,12)                 1.3995         estimate D2E/DX2                !
 ! R7    R(2,13)                 1.5222         estimate D2E/DX2                !
 ! R8    R(2,29)                 1.0778         estimate D2E/DX2                !
 ! R9    R(3,8)                  1.5254         estimate D2E/DX2                !
 ! R10   R(3,9)                  1.5282         estimate D2E/DX2                !
 ! R11   R(3,12)                 1.4226         estimate D2E/DX2                !
 ! R12   R(3,16)                 1.0837         estimate D2E/DX2                !
 ! R13   R(4,13)                 1.5287         estimate D2E/DX2                !
 ! R14   R(4,17)                 1.0857         estimate D2E/DX2                !
 ! R15   R(4,18)                 1.0868         estimate D2E/DX2                !
 ! R16   R(5,6)                  1.4171         estimate D2E/DX2                !
 ! R17   R(5,9)                  1.4119         estimate D2E/DX2                !
 ! R18   R(6,10)                 1.52           estimate D2E/DX2                !
 ! R19   R(6,19)                 1.0813         estimate D2E/DX2                !
 ! R20   R(6,20)                 1.0876         estimate D2E/DX2                !
 ! R21   R(7,11)                 1.4222         estimate D2E/DX2                !
 ! R22   R(7,21)                 1.084          estimate D2E/DX2                !
 ! R23   R(7,22)                 1.0813         estimate D2E/DX2                !
 ! R24   R(8,10)                 1.5314         estimate D2E/DX2                !
 ! R25   R(8,23)                 1.0857         estimate D2E/DX2                !
 ! R26   R(8,24)                 1.0854         estimate D2E/DX2                !
 ! R27   R(9,30)                 1.0856         estimate D2E/DX2                !
 ! R28   R(9,31)                 1.0813         estimate D2E/DX2                !
 ! R29   R(10,25)                1.0872         estimate D2E/DX2                !
 ! R30   R(10,26)                1.0859         estimate D2E/DX2                !
 ! R31   R(13,27)                1.0866         estimate D2E/DX2                !
 ! R32   R(13,28)                1.0845         estimate D2E/DX2                !
 ! A1    A(4,1,7)              110.0418         estimate D2E/DX2                !
 ! A2    A(4,1,14)             109.8307         estimate D2E/DX2                !
 ! A3    A(4,1,15)             111.137          estimate D2E/DX2                !
 ! A4    A(7,1,14)             109.3259         estimate D2E/DX2                !
 ! A5    A(7,1,15)             108.9616         estimate D2E/DX2                !
 ! A6    A(14,1,15)            107.4891         estimate D2E/DX2                !
 ! A7    A(11,2,12)            111.9834         estimate D2E/DX2                !
 ! A8    A(11,2,13)            111.4546         estimate D2E/DX2                !
 ! A9    A(11,2,29)            104.9161         estimate D2E/DX2                !
 ! A10   A(12,2,13)            108.1767         estimate D2E/DX2                !
 ! A11   A(12,2,29)            110.3235         estimate D2E/DX2                !
 ! A12   A(13,2,29)            109.9747         estimate D2E/DX2                !
 ! A13   A(8,3,9)              110.337          estimate D2E/DX2                !
 ! A14   A(8,3,12)             112.1397         estimate D2E/DX2                !
 ! A15   A(8,3,16)             108.2295         estimate D2E/DX2                !
 ! A16   A(9,3,12)             114.7775         estimate D2E/DX2                !
 ! A17   A(9,3,16)             106.7987         estimate D2E/DX2                !
 ! A18   A(12,3,16)            104.031          estimate D2E/DX2                !
 ! A19   A(1,4,13)             109.5084         estimate D2E/DX2                !
 ! A20   A(1,4,17)             110.6699         estimate D2E/DX2                !
 ! A21   A(1,4,18)             109.6816         estimate D2E/DX2                !
 ! A22   A(13,4,17)            109.7618         estimate D2E/DX2                !
 ! A23   A(13,4,18)            110.2088         estimate D2E/DX2                !
 ! A24   A(17,4,18)            106.9814         estimate D2E/DX2                !
 ! A25   A(6,5,9)              113.4375         estimate D2E/DX2                !
 ! A26   A(5,6,10)             110.794          estimate D2E/DX2                !
 ! A27   A(5,6,19)             106.2605         estimate D2E/DX2                !
 ! A28   A(5,6,20)             108.9732         estimate D2E/DX2                !
 ! A29   A(10,6,19)            111.5342         estimate D2E/DX2                !
 ! A30   A(10,6,20)            110.7232         estimate D2E/DX2                !
 ! A31   A(19,6,20)            108.409          estimate D2E/DX2                !
 ! A32   A(1,7,11)             111.5581         estimate D2E/DX2                !
 ! A33   A(1,7,21)             110.4701         estimate D2E/DX2                !
 ! A34   A(1,7,22)             111.5387         estimate D2E/DX2                !
 ! A35   A(11,7,21)            109.4557         estimate D2E/DX2                !
 ! A36   A(11,7,22)            105.4882         estimate D2E/DX2                !
 ! A37   A(21,7,22)            108.1565         estimate D2E/DX2                !
 ! A38   A(3,8,10)             109.5285         estimate D2E/DX2                !
 ! A39   A(3,8,23)             109.682          estimate D2E/DX2                !
 ! A40   A(3,8,24)             109.6271         estimate D2E/DX2                !
 ! A41   A(10,8,23)            109.6543         estimate D2E/DX2                !
 ! A42   A(10,8,24)            110.6625         estimate D2E/DX2                !
 ! A43   A(23,8,24)            107.6602         estimate D2E/DX2                !
 ! A44   A(3,9,5)              108.8745         estimate D2E/DX2                !
 ! A45   A(3,9,30)             111.7824         estimate D2E/DX2                !
 ! A46   A(3,9,31)             111.2931         estimate D2E/DX2                !
 ! A47   A(5,9,30)             109.1219         estimate D2E/DX2                !
 ! A48   A(5,9,31)             106.7186         estimate D2E/DX2                !
 ! A49   A(30,9,31)            108.9018         estimate D2E/DX2                !
 ! A50   A(6,10,8)             110.4036         estimate D2E/DX2                !
 ! A51   A(6,10,25)            109.0339         estimate D2E/DX2                !
 ! A52   A(6,10,26)            109.4125         estimate D2E/DX2                !
 ! A53   A(8,10,25)            109.9858         estimate D2E/DX2                !
 ! A54   A(8,10,26)            110.5273         estimate D2E/DX2                !
 ! A55   A(25,10,26)           107.4146         estimate D2E/DX2                !
 ! A56   A(2,11,7)             116.2177         estimate D2E/DX2                !
 ! A57   A(2,12,3)             122.0057         estimate D2E/DX2                !
 ! A58   A(2,13,4)             112.2157         estimate D2E/DX2                !
 ! A59   A(2,13,27)            107.1496         estimate D2E/DX2                !
 ! A60   A(2,13,28)            108.8616         estimate D2E/DX2                !
 ! A61   A(4,13,27)            109.3267         estimate D2E/DX2                !
 ! A62   A(4,13,28)            111.6394         estimate D2E/DX2                !
 ! A63   A(27,13,28)           107.4377         estimate D2E/DX2                !
 ! D1    D(7,1,4,13)            53.3548         estimate D2E/DX2                !
 ! D2    D(7,1,4,17)           174.4889         estimate D2E/DX2                !
 ! D3    D(7,1,4,18)           -67.7058         estimate D2E/DX2                !
 ! D4    D(14,1,4,13)          -67.0454         estimate D2E/DX2                !
 ! D5    D(14,1,4,17)           54.0887         estimate D2E/DX2                !
 ! D6    D(14,1,4,18)          171.894          estimate D2E/DX2                !
 ! D7    D(15,1,4,13)          174.1428         estimate D2E/DX2                !
 ! D8    D(15,1,4,17)          -64.7232         estimate D2E/DX2                !
 ! D9    D(15,1,4,18)           53.0822         estimate D2E/DX2                !
 ! D10   D(4,1,7,11)           -55.0651         estimate D2E/DX2                !
 ! D11   D(4,1,7,21)            66.9235         estimate D2E/DX2                !
 ! D12   D(4,1,7,22)          -172.7504         estimate D2E/DX2                !
 ! D13   D(14,1,7,11)           65.6393         estimate D2E/DX2                !
 ! D14   D(14,1,7,21)         -172.3722         estimate D2E/DX2                !
 ! D15   D(14,1,7,22)          -52.046          estimate D2E/DX2                !
 ! D16   D(15,1,7,11)         -177.1518         estimate D2E/DX2                !
 ! D17   D(15,1,7,21)          -55.1633         estimate D2E/DX2                !
 ! D18   D(15,1,7,22)           65.1628         estimate D2E/DX2                !
 ! D19   D(12,2,11,7)           67.3796         estimate D2E/DX2                !
 ! D20   D(13,2,11,7)          -53.9595         estimate D2E/DX2                !
 ! D21   D(29,2,11,7)         -172.9408         estimate D2E/DX2                !
 ! D22   D(11,2,12,3)           71.6386         estimate D2E/DX2                !
 ! D23   D(13,2,12,3)         -165.1517         estimate D2E/DX2                !
 ! D24   D(29,2,12,3)          -44.8188         estimate D2E/DX2                !
 ! D25   D(11,2,13,4)           51.0968         estimate D2E/DX2                !
 ! D26   D(11,2,13,27)         -68.9136         estimate D2E/DX2                !
 ! D27   D(11,2,13,28)         175.1845         estimate D2E/DX2                !
 ! D28   D(12,2,13,4)          -72.4327         estimate D2E/DX2                !
 ! D29   D(12,2,13,27)         167.5569         estimate D2E/DX2                !
 ! D30   D(12,2,13,28)          51.655          estimate D2E/DX2                !
 ! D31   D(29,2,13,4)          167.0167         estimate D2E/DX2                !
 ! D32   D(29,2,13,27)          47.0063         estimate D2E/DX2                !
 ! D33   D(29,2,13,28)         -68.8956         estimate D2E/DX2                !
 ! D34   D(9,3,8,10)            53.7716         estimate D2E/DX2                !
 ! D35   D(9,3,8,23)           -66.6186         estimate D2E/DX2                !
 ! D36   D(9,3,8,24)           175.3711         estimate D2E/DX2                !
 ! D37   D(12,3,8,10)         -176.9316         estimate D2E/DX2                !
 ! D38   D(12,3,8,23)           62.6783         estimate D2E/DX2                !
 ! D39   D(12,3,8,24)          -55.332          estimate D2E/DX2                !
 ! D40   D(16,3,8,10)          -62.7532         estimate D2E/DX2                !
 ! D41   D(16,3,8,23)          176.8567         estimate D2E/DX2                !
 ! D42   D(16,3,8,24)           58.8464         estimate D2E/DX2                !
 ! D43   D(8,3,9,5)            -58.2816         estimate D2E/DX2                !
 ! D44   D(8,3,9,30)            62.3445         estimate D2E/DX2                !
 ! D45   D(8,3,9,31)          -175.6391         estimate D2E/DX2                !
 ! D46   D(12,3,9,5)           173.8567         estimate D2E/DX2                !
 ! D47   D(12,3,9,30)          -65.5172         estimate D2E/DX2                !
 ! D48   D(12,3,9,31)           56.4993         estimate D2E/DX2                !
 ! D49   D(16,3,9,5)            59.1305         estimate D2E/DX2                !
 ! D50   D(16,3,9,30)          179.7566         estimate D2E/DX2                !
 ! D51   D(16,3,9,31)          -58.2269         estimate D2E/DX2                !
 ! D52   D(8,3,12,2)           -97.2407         Frozen                          !
 ! D53   D(9,3,12,2)            29.7047         estimate D2E/DX2                !
 ! D54   D(16,3,12,2)          146.0292         estimate D2E/DX2                !
 ! D55   D(1,4,13,2)           -51.9084         estimate D2E/DX2                !
 ! D56   D(1,4,13,27)           66.8273         estimate D2E/DX2                !
 ! D57   D(1,4,13,28)         -174.4363         estimate D2E/DX2                !
 ! D58   D(17,4,13,2)         -173.5902         estimate D2E/DX2                !
 ! D59   D(17,4,13,27)         -54.8544         estimate D2E/DX2                !
 ! D60   D(17,4,13,28)          63.882          estimate D2E/DX2                !
 ! D61   D(18,4,13,2)           68.8325         estimate D2E/DX2                !
 ! D62   D(18,4,13,27)        -172.4318         estimate D2E/DX2                !
 ! D63   D(18,4,13,28)         -53.6954         estimate D2E/DX2                !
 ! D64   D(9,5,6,10)           -61.6047         estimate D2E/DX2                !
 ! D65   D(9,5,6,19)           177.0796         estimate D2E/DX2                !
 ! D66   D(9,5,6,20)            60.4556         estimate D2E/DX2                !
 ! D67   D(6,5,9,3)             62.8165         estimate D2E/DX2                !
 ! D68   D(6,5,9,30)           -59.4328         estimate D2E/DX2                !
 ! D69   D(6,5,9,31)          -176.958          estimate D2E/DX2                !
 ! D70   D(5,6,10,8)            54.5422         estimate D2E/DX2                !
 ! D71   D(5,6,10,25)          -66.3938         estimate D2E/DX2                !
 ! D72   D(5,6,10,26)          176.3964         estimate D2E/DX2                !
 ! D73   D(19,6,10,8)          172.6958         estimate D2E/DX2                !
 ! D74   D(19,6,10,25)          51.7597         estimate D2E/DX2                !
 ! D75   D(19,6,10,26)         -65.4501         estimate D2E/DX2                !
 ! D76   D(20,6,10,8)          -66.4891         estimate D2E/DX2                !
 ! D77   D(20,6,10,25)         172.5748         estimate D2E/DX2                !
 ! D78   D(20,6,10,26)          55.365          estimate D2E/DX2                !
 ! D79   D(1,7,11,2)            56.7275         estimate D2E/DX2                !
 ! D80   D(21,7,11,2)          -65.8444         estimate D2E/DX2                !
 ! D81   D(22,7,11,2)          177.9992         estimate D2E/DX2                !
 ! D82   D(3,8,10,6)           -51.626          estimate D2E/DX2                !
 ! D83   D(3,8,10,25)           68.741          estimate D2E/DX2                !
 ! D84   D(3,8,10,26)         -172.8197         estimate D2E/DX2                !
 ! D85   D(23,8,10,6)           68.7811         estimate D2E/DX2                !
 ! D86   D(23,8,10,25)        -170.852          estimate D2E/DX2                !
 ! D87   D(23,8,10,26)         -52.4127         estimate D2E/DX2                !
 ! D88   D(24,8,10,6)         -172.6005         estimate D2E/DX2                !
 ! D89   D(24,8,10,25)         -52.2335         estimate D2E/DX2                !
 ! D90   D(24,8,10,26)          66.2058         estimate D2E/DX2                !
 --------------------------------------------------------------------------------
 Trust Radius=3.00D-01 FncErr=1.00D-07 GrdErr=1.00D-06 EigMax=2.50D+02 EigMin=1.00D-04
 Number of steps in this run=    186 maximum allowed number of steps=    186.
 GradGradGradGradGradGradGradGradGradGradGradGradGradGradGradGradGradGrad

                          Input orientation:                          
 ---------------------------------------------------------------------
 Center     Atomic      Atomic             Coordinates (Angstroms)
 Number     Number       Type             X           Y           Z
 ---------------------------------------------------------------------
      1          6           0       -3.397765    0.957604    0.201822
      2          6           0       -1.127639   -0.838081    0.322570
      3          6           0        1.076240   -0.385167   -0.692538
      4          6           0       -3.321703   -0.213430   -0.777259
      5          8           0        3.139884   -1.002138    0.349472
      6          6           0        3.570544    0.339766    0.497974
      7          6           0       -1.999172    1.377249    0.621275
      8          6           0        1.462415    1.089175   -0.630143
      9          6           0        1.739894   -1.156751    0.447527
     10          6           0        2.988028    1.217803   -0.597515
     11          8           0       -1.263528    0.283532    1.155383
     12          8           0       -0.330891   -0.566897   -0.795595
     13          6           0       -2.480484   -1.334819   -0.167537
     14          1           0       -3.965332    0.665938    1.082479
     15          1           0       -3.902855    1.809414   -0.244753
     16          1           0        1.462875   -0.798050   -1.616873
     17          1           0       -4.315380   -0.584407   -1.008946
     18          1           0       -2.881179    0.119958   -1.713112
     19          1           0        4.650853    0.317420    0.456336
     20          1           0        3.272062    0.700334    1.479644
     21          1           0       -1.461006    1.797599   -0.220605
     22          1           0       -2.026324    2.118594    1.407913
     23          1           0        1.038720    1.540729    0.261674
     24          1           0        1.052424    1.610137   -1.489576
     25          1           0        3.406924    0.915858   -1.554207
     26          1           0        3.279580    2.249735   -0.426231
     27          1           0       -3.000853   -1.747903    0.692334
     28          1           0       -2.322629   -2.144406   -0.871629
     29          1           0       -0.662014   -1.588063    0.941013
     30          1           0        1.410177   -0.802440    1.419269
     31          1           0        1.538084   -2.216509    0.374129
 ---------------------------------------------------------------------
                    Distance matrix (angstroms):
                    1          2          3          4          5
     1  C    0.000000
     2  C    2.896988   0.000000
     3  C    4.756010   2.468331   0.000000
     4  C    1.528302   2.532534   4.402110   0.000000
     5  O    6.826657   4.270760   2.392711   6.606337   0.000000
     6  C    7.001911   4.846753   2.857341   7.031025   1.417119
     7  C    1.519245   2.399267   3.780261   2.497047   5.669679
     8  C    4.932629   3.366060   1.525355   4.960464   2.854319
     9  C    5.561152   2.887890   1.528243   5.292421   1.411911
    10  C    6.440885   4.691687   2.496693   6.472514   2.418260
    11  O    2.432821   1.403588   3.055566   2.866733   4.657518
    12  O    3.567164   1.399515   1.422556   3.011683   3.680610
    13  C    2.496604   1.522217   3.718568   1.528700   5.653893
    14  H    1.087547   3.300309   5.447289   2.155498   7.335112
    15  H    1.086336   3.877230   5.459678   2.170990   7.606451
    16  H    5.478667   3.236326   1.083676   4.892741   2.592397
    17  H    2.164665   3.463954   5.404570   1.085678   7.589516
    18  H    2.153017   2.852498   4.117996   1.086752   6.462705
    19  H    8.078048   5.894408   3.819869   8.084875   2.008900
    20  H    6.795999   4.802386   3.273885   7.028962   2.047723
    21  H    2.152922   2.711638   3.380060   2.795764   5.415875
    22  H    2.164117   3.275291   4.506286   3.448379   6.127721
    23  H    4.475044   3.218005   2.149652   4.813496   3.299814
    24  H    4.805290   3.745707   2.148738   4.792262   3.816224
    25  H    7.027743   5.211608   2.804858   6.866830   2.715513
    26  H    6.830153   5.433129   3.445045   7.054597   3.346029
    27  H    2.778113   2.115049   4.516371   2.148780   6.195351
    28  H    3.454082   2.135556   3.831358   2.176172   5.712697
    29  H    3.809351   1.077846   2.671512   3.451959   3.891999
    30  H    5.262722   2.764874   2.178385   5.249986   2.043583
    31  H    5.870885   3.001467   2.169076   5.381036   2.010241
                    6          7          8          9         10
     6  C    0.000000
     7  C    5.666861   0.000000
     8  C    2.505687   3.692102   0.000000
     9  C    2.365034   4.520172   2.506502   0.000000
    10  C    1.519990   5.136442   1.531373   2.878968   0.000000
    11  O    4.878893   1.422203   3.356774   3.405293   4.692680
    12  O    4.209104   2.927522   2.446609   2.486248   3.773541
    13  C    6.313642   2.865170   4.651473   4.268677   6.050238
    14  H    7.565544   2.141135   5.707245   6.022870   7.174688
    15  H    7.652660   2.135598   5.427098   6.412332   6.925223
    16  H    3.195226   4.661223   2.129614   2.113564   2.725591
    17  H    8.081627   3.445364   6.027212   6.254217   7.533724
    18  H    6.823631   2.794294   4.580285   5.258580   6.074324
    19  H    1.081342   6.735969   3.455746   3.262965   2.164781
    20  H    1.087555   5.383393   2.806639   2.619460   2.159407
    21  H    5.287545   1.084010   3.035783   4.406852   4.502458
    22  H    5.942823   1.081263   4.169493   5.082777   5.475116
    23  H    2.812167   3.063466   1.085705   2.793311   2.154597
    24  H    3.450381   3.717817   1.085412   3.446832   2.167086
    25  H    2.137779   5.845637   2.159872   3.328909   1.087154
    26  H    2.141681   5.451947   2.165772   3.839041   1.085921
    27  H    6.897782   3.282528   5.451488   4.783730   6.806307
    28  H    6.540368   3.838677   4.984067   4.384031   6.291476
    29  H    4.671976   3.268532   3.761560   2.489723   4.854149
    30  H    2.611629   4.124500   2.789449   1.085602   3.261658
    31  H    3.268145   5.048600   3.455696   1.081296   3.852393
                   11         12         13         14         15
    11  O    0.000000
    12  O    2.323652   0.000000
    13  C    2.418710   2.367469   0.000000
    14  H    2.729706   4.272728   2.787533   0.000000
    15  H    3.354809   4.325414   3.451855   1.752993   0.000000
    16  H    4.035901   1.986335   4.235419   6.236601   6.121490
    17  H    3.840760   3.990235   2.153586   2.461698   2.546477
    18  H    3.297244   2.795993   2.160031   3.047755   2.460521
    19  H    5.955646   5.212209   7.346773   8.645933   8.711113
    20  H    4.566229   4.445656   6.320351   7.248365   7.462107
    21  H    2.055417   2.683023   3.294570   3.041436   2.441997
    22  H    2.003268   3.865463   3.822874   2.444559   2.519577
    23  H    2.771210   2.726855   4.564843   5.145825   4.974718
    24  H    3.757569   2.671076   4.785603   5.717067   5.113129
    25  H    5.436436   4.092104   6.453679   7.833564   7.479705
    26  H    5.196854   4.594056   6.789277   7.567917   7.198207
    27  H    2.712829   3.276798   1.086646   2.628509   3.787644
    28  H    3.335469   2.541916   1.084479   3.796715   4.303810
    29  H    1.977534   2.041624   2.144726   4.001555   4.842720
    30  H    2.897873   2.827087   4.235401   5.582621   6.149720
    31  H    3.835309   2.753642   4.149659   6.252827   6.796682
                   16         17         18         19         20
    16  H    0.000000
    17  H    5.814073   0.000000
    18  H    4.441037   1.746113   0.000000
    19  H    3.963038   9.129824   7.840727   0.000000
    20  H    3.886738   8.087825   6.956501   1.759218   0.000000
    21  H    4.151631   3.800380   2.656868   6.324871   5.147501
    22  H    5.461744   4.288030   3.803435   6.981004   5.485390
    23  H    3.029642   5.898904   4.613456   3.818623   2.679091
    24  H    2.446230   5.818965   4.212343   4.290266   3.817172
    25  H    2.592438   7.885562   6.340264   2.438805   3.044485
    26  H    3.742598   8.127443   6.644318   2.528469   2.456229
    27  H    5.114638   2.444598   3.047851   7.929052   6.779615
    28  H    4.086331   2.534464   2.479398   7.513556   6.702358
    29  H    3.417902   4.261074   3.858291   5.665010   4.582994
    30  H    3.036602   6.223003   5.392436   3.561363   2.393447
    31  H    2.445766   6.232150   5.417152   4.014584   3.568868
                   21         22         23         24         25
    21  H    0.000000
    22  H    1.753480   0.000000
    23  H    2.558751   3.322994   0.000000
    24  H    2.821836   4.258246   1.752678   0.000000
    25  H    5.123739   6.304039   3.048980   2.455580   0.000000
    26  H    4.766536   5.615505   2.448950   2.549512   1.751506
    27  H    3.971797   4.051118   5.226731   5.697914   7.293982
    28  H    4.087252   4.843271   5.115004   5.086200   6.531379
    29  H    3.667486   3.977266   3.625374   4.367556   5.389991
    30  H    4.206314   4.510223   2.639782   3.796037   3.972544
    31  H    5.045920   5.706736   3.791945   4.283980   4.125865
                   26         27         28         29         30
    26  H    0.000000
    27  H    7.528355   0.000000
    28  H    7.133835   1.750195   0.000000
    29  H    5.668705   2.357447   2.520482   0.000000
    30  H    4.026948   4.569411   4.580713   2.267136   0.000000
    31  H    4.860115   4.574144   4.057366   2.357272   1.763028
                   31
    31  H    0.000000
 Stoichiometry    C10H18O3
 Framework group  C1[X(C10H18O3)]
 Deg. of freedom    87
 Full point group                 C1      NOp   1
 Largest Abelian subgroup         C1      NOp   1
 Largest concise Abelian subgroup C1      NOp   1
                         Standard orientation:                         
 ---------------------------------------------------------------------
 Center     Atomic      Atomic             Coordinates (Angstroms)
 Number     Number       Type             X           Y           Z
 ---------------------------------------------------------------------
      1          6           0        3.397765    0.957604   -0.201822
      2          6           0        1.127639   -0.838081   -0.322570
      3          6           0       -1.076240   -0.385167    0.692538
      4          6           0        3.321703   -0.213430    0.777259
      5          8           0       -3.139884   -1.002138   -0.349472
      6          6           0       -3.570544    0.339766   -0.497974
      7          6           0        1.999172    1.377249   -0.621275
      8          6           0       -1.462415    1.089175    0.630143
      9          6           0       -1.739894   -1.156751   -0.447527
     10          6           0       -2.988028    1.217803    0.597515
     11          8           0        1.263528    0.283532   -1.155383
     12          8           0        0.330891   -0.566897    0.795595
     13          6           0        2.480484   -1.334819    0.167537
     14          1           0        3.965332    0.665938   -1.082479
     15          1           0        3.902855    1.809414    0.244753
     16          1           0       -1.462875   -0.798050    1.616873
     17          1           0        4.315380   -0.584407    1.008946
     18          1           0        2.881179    0.119958    1.713112
     19          1           0       -4.650853    0.317420   -0.456336
     20          1           0       -3.272062    0.700334   -1.479644
     21          1           0        1.461006    1.797599    0.220605
     22          1           0        2.026324    2.118594   -1.407913
     23          1           0       -1.038720    1.540729   -0.261674
     24          1           0       -1.052424    1.610137    1.489576
     25          1           0       -3.406924    0.915858    1.554207
     26          1           0       -3.279580    2.249735    0.426231
     27          1           0        3.000853   -1.747903   -0.692334
     28          1           0        2.322629   -2.144406    0.871629
     29          1           0        0.662014   -1.588063   -0.941013
     30          1           0       -1.410177   -0.802440   -1.419269
     31          1           0       -1.538084   -2.216509   -0.374129
 ---------------------------------------------------------------------
 Rotational constants (GHZ):           1.8945832           0.4350869           0.4042640
 Standard basis: 6-311++G(2d,2p) (5D, 7F)
 There are   557 symmetry adapted cartesian basis functions of A   symmetry.
 There are   531 symmetry adapted basis functions of A   symmetry.
   531 basis functions,   762 primitive gaussians,   557 cartesian basis functions
    51 alpha electrons       51 beta electrons
       nuclear repulsion energy       901.6443840063 Hartrees.
 NAtoms=   31 NActive=   31 NUniq=   31 SFac= 1.00D+00 NAtFMM=   60 NAOKFM=F Big=F
 Integral buffers will be    131072 words long.
 Raffenetti 2 integral format.
 Two-electron integral symmetry is turned on.
 ------------------------------------------------------------------------------
 Polarizable Continuum Model (PCM)
 =================================
 Model                : PCM.
 Atomic radii         : UFF (Universal Force Field).
 Polarization charges : Total charges.
 Charge compensation  : None.
 Solution method      : On-the-fly selection.
 Cavity type          : Scaled VdW (van der Waals Surface) (Alpha=1.100).
 Cavity algorithm     : GePol (No added spheres)
                        Default sphere list used, NSphG=   31.
                        Lebedev-Laikov grids with approx.  5.0 points / Ang**2.
                        Smoothing algorithm: York/Karplus (Gamma=1.0000).
                        Polarization charges: spherical gaussians, with
                                              point-specific exponents (IZeta= 3).
                        Self-potential: point-specific (ISelfS= 7).
                        Self-field    : sphere-specific E.n sum rule (ISelfD= 2).
 1st derivatives      : Analytical E(r).r(x)/FMM algorithm (CHGder, D1EAlg=3).
                        Cavity 1st derivative terms included.
 Solvent              : Water, Eps=  78.355300 Eps(inf)=   1.777849
 ------------------------------------------------------------------------------
 One-electron integrals computed using PRISM.
 NBasis=   531 RedAO= T EigKep=  4.47D-06  NBF=   531
 NBsUse=   531 1.00D-06 EigRej= -1.00D+00 NBFU=   531
 ExpMin= 3.60D-02 ExpMax= 8.59D+03 ExpMxC= 1.30D+03 IAcc=3 IRadAn=         5 AccDes= 0.00D+00
 Harris functional with IExCor= 1009 and IRadAn=       5 diagonalized for initial guess.
 HarFok:  IExCor= 1009 AccDes= 0.00D+00 IRadAn=         5 IDoV= 1 UseB2=F ITyADJ=14
 ICtDFT=  3500011 ScaDFX=  1.000000  1.000000  1.000000  1.000000
 FoFCou: FMM=F IPFlag=           0 FMFlag=      100000 FMFlg1=           0
         NFxFlg=           0 DoJE=T BraDBF=F KetDBF=T FulRan=T
         wScrn=  0.000000 ICntrl=       500 IOpCl=  0 I1Cent=   200000004 NGrid=           0
         NMat0=    1 NMatS0=      1 NMatT0=    0 NMatD0=    1 NMtDS0=    0 NMtDT0=    0
 Petite list used in FoFCou.
 Requested convergence on RMS density matrix=1.00D-08 within 128 cycles.
 Requested convergence on MAX density matrix=1.00D-06.
 Requested convergence on             energy=1.00D-06.
 No special actions if energy rises.
 Inv3:  Mode=1 IEnd=    12241200.
 Iteration    1 A*A^-1 deviation from unit magnitude is 4.66D-15 for   2020.
 Iteration    1 A*A^-1 deviation from orthogonality  is 1.78D-15 for   2014    838.
 Iteration    1 A^-1*A deviation from unit magnitude is 4.66D-15 for   2020.
 Iteration    1 A^-1*A deviation from orthogonality  is 3.09D-15 for   1417   1408.
 Error on total polarization charges =  0.01462
 SCF Done:  E(RM062X) =  -617.497343771     A.U. after   13 cycles
            NFock= 13  Conv=0.25D-08     -V/T= 2.0035

 **********************************************************************

            Population analysis using the SCF density.

 **********************************************************************

 Orbital symmetries:
       Occupied  (A) (A) (A) (A) (A) (A) (A) (A) (A) (A) (A) (A)
                 (A) (A) (A) (A) (A) (A) (A) (A) (A) (A) (A) (A)
                 (A) (A) (A) (A) (A) (A) (A) (A) (A) (A) (A) (A)
                 (A) (A) (A) (A) (A) (A) (A) (A) (A) (A) (A) (A)
                 (A) (A) (A)
       Virtual   (A) (A) (A) (A) (A) (A) (A) (A) (A) (A) (A) (A)
                 (A) (A) (A) (A) (A) (A) (A) (A) (A) (A) (A) (A)
                 (A) (A) (A) (A) (A) (A) (A) (A) (A) (A) (A) (A)
                 (A) (A) (A) (A) (A) (A) (A) (A) (A) (A) (A) (A)
                 (A) (A) (A) (A) (A) (A) (A) (A) (A) (A) (A) (A)
                 (A) (A) (A) (A) (A) (A) (A) (A) (A) (A) (A) (A)
                 (A) (A) (A) (A) (A) (A) (A) (A) (A) (A) (A) (A)
                 (A) (A) (A) (A) (A) (A) (A) (A) (A) (A) (A) (A)
                 (A) (A) (A) (A) (A) (A) (A) (A) (A) (A) (A) (A)
                 (A) (A) (A) (A) (A) (A) (A) (A) (A) (A) (A) (A)
                 (A) (A) (A) (A) (A) (A) (A) (A) (A) (A) (A) (A)
                 (A) (A) (A) (A) (A) (A) (A) (A) (A) (A) (A) (A)
                 (A) (A) (A) (A) (A) (A) (A) (A) (A) (A) (A) (A)
                 (A) (A) (A) (A) (A) (A) (A) (A) (A) (A) (A) (A)
                 (A) (A) (A) (A) (A) (A) (A) (A) (A) (A) (A) (A)
                 (A) (A) (A) (A) (A) (A) (A) (A) (A) (A) (A) (A)
                 (A) (A) (A) (A) (A) (A) (A) (A) (A) (A) (A) (A)
                 (A) (A) (A) (A) (A) (A) (A) (A) (A) (A) (A) (A)
                 (A) (A) (A) (A) (A) (A) (A) (A) (A) (A) (A) (A)
                 (A) (A) (A) (A) (A) (A) (A) (A) (A) (A) (A) (A)
                 (A) (A) (A) (A) (A) (A) (A) (A) (A) (A) (A) (A)
                 (A) (A) (A) (A) (A) (A) (A) (A) (A) (A) (A) (A)
                 (A) (A) (A) (A) (A) (A) (A) (A) (A) (A) (A) (A)
                 (A) (A) (A) (A) (A) (A) (A) (A) (A) (A) (A) (A)
                 (A) (A) (A) (A) (A) (A) (A) (A) (A) (A) (A) (A)
                 (A) (A) (A) (A) (A) (A) (A) (A) (A) (A) (A) (A)
                 (A) (A) (A) (A) (A) (A) (A) (A) (A) (A) (A) (A)
                 (A) (A) (A) (A) (A) (A) (A) (A) (A) (A) (A) (A)
                 (A) (A) (A) (A) (A) (A) (A) (A) (A) (A) (A) (A)
                 (A) (A) (A) (A) (A) (A) (A) (A) (A) (A) (A) (A)
                 (A) (A) (A) (A) (A) (A) (A) (A) (A) (A) (A) (A)
                 (A) (A) (A) (A) (A) (A) (A) (A) (A) (A) (A) (A)
                 (A) (A) (A) (A) (A) (A) (A) (A) (A) (A) (A) (A)
                 (A) (A) (A) (A) (A) (A) (A) (A) (A) (A) (A) (A)
                 (A) (A) (A) (A) (A) (A) (A) (A) (A) (A) (A) (A)
                 (A) (A) (A) (A) (A) (A) (A) (A) (A) (A) (A) (A)
                 (A) (A) (A) (A) (A) (A) (A) (A) (A) (A) (A) (A)
                 (A) (A) (A) (A) (A) (A) (A) (A) (A) (A) (A) (A)
                 (A) (A) (A) (A) (A) (A) (A) (A) (A) (A) (A) (A)
                 (A) (A) (A) (A) (A) (A) (A) (A) (A) (A) (A) (A)
 The electronic state is 1-A.
 Alpha  occ. eigenvalues --  -19.63049 -19.62890 -19.62709 -10.63464 -10.58835
 Alpha  occ. eigenvalues --  -10.58214 -10.57894 -10.57595 -10.53080 -10.52944
 Alpha  occ. eigenvalues --  -10.52905 -10.52882 -10.52738  -1.19915  -1.16877
 Alpha  occ. eigenvalues --   -1.13406  -0.90936  -0.89713  -0.87395  -0.84983
 Alpha  occ. eigenvalues --   -0.75412  -0.74239  -0.73239  -0.70854  -0.66858
 Alpha  occ. eigenvalues --   -0.62756  -0.60389  -0.58931  -0.57164  -0.55847
 Alpha  occ. eigenvalues --   -0.54547  -0.53318  -0.51865  -0.50776  -0.49750
 Alpha  occ. eigenvalues --   -0.49550  -0.47187  -0.46020  -0.45483  -0.44972
 Alpha  occ. eigenvalues --   -0.44157  -0.42275  -0.40958  -0.40204  -0.40029
 Alpha  occ. eigenvalues --   -0.38409  -0.37828  -0.36497  -0.34200  -0.33227
 Alpha  occ. eigenvalues --   -0.31878
 Alpha virt. eigenvalues --   -0.00104   0.00751   0.00898   0.00976   0.02208
 Alpha virt. eigenvalues --    0.02527   0.02654   0.03326   0.03501   0.04383
 Alpha virt. eigenvalues --    0.04835   0.04881   0.05566   0.05883   0.07161
 Alpha virt. eigenvalues --    0.07432   0.07640   0.08179   0.08766   0.09484
 Alpha virt. eigenvalues --    0.10472   0.10556   0.11170   0.11784   0.12138
 Alpha virt. eigenvalues --    0.12348   0.12877   0.13033   0.13171   0.13649
 Alpha virt. eigenvalues --    0.13800   0.14169   0.14271   0.14604   0.14945
 Alpha virt. eigenvalues --    0.15144   0.15170   0.15729   0.15937   0.16067
 Alpha virt. eigenvalues --    0.16381   0.16796   0.16932   0.17450   0.17781
 Alpha virt. eigenvalues --    0.17998   0.18501   0.18668   0.18991   0.19516
 Alpha virt. eigenvalues --    0.19982   0.20221   0.20822   0.20964   0.21229
 Alpha virt. eigenvalues --    0.21821   0.23262   0.23284   0.23590   0.24199
 Alpha virt. eigenvalues --    0.25273   0.25489   0.26030   0.26448   0.27143
 Alpha virt. eigenvalues --    0.27759   0.28275   0.28800   0.28956   0.29212
 Alpha virt. eigenvalues --    0.29672   0.30422   0.30790   0.31493   0.32074
 Alpha virt. eigenvalues --    0.32808   0.33201   0.33783   0.34018   0.34585
 Alpha virt. eigenvalues --    0.34852   0.35180   0.35553   0.36092   0.36538
 Alpha virt. eigenvalues --    0.36889   0.37256   0.37732   0.37872   0.38405
 Alpha virt. eigenvalues --    0.38562   0.38977   0.39348   0.39919   0.40793
 Alpha virt. eigenvalues --    0.41024   0.41997   0.43321   0.43915   0.44130
 Alpha virt. eigenvalues --    0.45567   0.46162   0.49128   0.50061   0.51018
 Alpha virt. eigenvalues --    0.52103   0.52749   0.53135   0.55046   0.55556
 Alpha virt. eigenvalues --    0.56429   0.57440   0.57957   0.59060   0.59393
 Alpha virt. eigenvalues --    0.59876   0.60186   0.60614   0.61510   0.61858
 Alpha virt. eigenvalues --    0.62673   0.62824   0.63399   0.63886   0.64418
 Alpha virt. eigenvalues --    0.65088   0.65422   0.65840   0.66402   0.67498
 Alpha virt. eigenvalues --    0.68382   0.68699   0.69676   0.70582   0.71167
 Alpha virt. eigenvalues --    0.71463   0.71680   0.72115   0.72995   0.73382
 Alpha virt. eigenvalues --    0.73900   0.74501   0.74827   0.75033   0.75411
 Alpha virt. eigenvalues --    0.76704   0.76998   0.77961   0.78359   0.79297
 Alpha virt. eigenvalues --    0.79763   0.81999   0.82603   0.84904   0.85852
 Alpha virt. eigenvalues --    0.86182   0.86980   0.88175   0.88418   0.89196
 Alpha virt. eigenvalues --    0.90681   0.91409   0.93120   0.93762   0.95764
 Alpha virt. eigenvalues --    0.96985   0.97960   0.99286   1.00547   1.01416
 Alpha virt. eigenvalues --    1.02936   1.04296   1.04899   1.05604   1.05845
 Alpha virt. eigenvalues --    1.07846   1.08545   1.09729   1.10893   1.12553
 Alpha virt. eigenvalues --    1.13520   1.14198   1.15755   1.16759   1.17301
 Alpha virt. eigenvalues --    1.18040   1.19117   1.19791   1.20579   1.20839
 Alpha virt. eigenvalues --    1.20960   1.21633   1.23095   1.23531   1.24670
 Alpha virt. eigenvalues --    1.25980   1.26102   1.26543   1.27317   1.27567
 Alpha virt. eigenvalues --    1.28146   1.29236   1.29615   1.31200   1.31397
 Alpha virt. eigenvalues --    1.32443   1.33452   1.34141   1.34459   1.34569
 Alpha virt. eigenvalues --    1.35125   1.36368   1.37177   1.37882   1.38230
 Alpha virt. eigenvalues --    1.39413   1.40193   1.40780   1.41540   1.42266
 Alpha virt. eigenvalues --    1.43360   1.43611   1.44209   1.44560   1.45780
 Alpha virt. eigenvalues --    1.46440   1.46965   1.47326   1.47582   1.48227
 Alpha virt. eigenvalues --    1.49358   1.49953   1.50776   1.51435   1.52415
 Alpha virt. eigenvalues --    1.53113   1.54298   1.54462   1.55071   1.55991
 Alpha virt. eigenvalues --    1.56654   1.57514   1.58260   1.58722   1.59179
 Alpha virt. eigenvalues --    1.59829   1.60589   1.61066   1.61947   1.62159
 Alpha virt. eigenvalues --    1.63457   1.63580   1.65443   1.66144   1.67802
 Alpha virt. eigenvalues --    1.68267   1.69071   1.71063   1.71843   1.73807
 Alpha virt. eigenvalues --    1.74132   1.74373   1.75439   1.77576   1.78324
 Alpha virt. eigenvalues --    1.78556   1.79556   1.81768   1.82782   1.84276
 Alpha virt. eigenvalues --    1.85472   1.87711   1.88759   1.95535   1.97227
 Alpha virt. eigenvalues --    2.04003   2.05526   2.14833   2.16795   2.22040
 Alpha virt. eigenvalues --    2.25936   2.26156   2.30138   2.34527   2.39425
 Alpha virt. eigenvalues --    2.41374   2.43617   2.45271   2.47247   2.55842
 Alpha virt. eigenvalues --    2.59503   2.75806   2.77208   2.81193   2.82128
 Alpha virt. eigenvalues --    2.84191   2.90609   2.92817   2.93065   2.94362
 Alpha virt. eigenvalues --    2.95832   2.98029   3.01434   3.03803   3.04375
 Alpha virt. eigenvalues --    3.07574   3.08110   3.09203   3.10345   3.12191
 Alpha virt. eigenvalues --    3.13370   3.15031   3.18409   3.18973   3.20983
 Alpha virt. eigenvalues --    3.22979   3.27239   3.30689   3.32970   3.34626
 Alpha virt. eigenvalues --    3.35913   3.37406   3.38441   3.40212   3.41618
 Alpha virt. eigenvalues --    3.42821   3.43237   3.44250   3.45589   3.47581
 Alpha virt. eigenvalues --    3.48527   3.49214   3.50922   3.51110   3.52191
 Alpha virt. eigenvalues --    3.53251   3.54342   3.54856   3.55768   3.56609
 Alpha virt. eigenvalues --    3.57209   3.58127   3.58773   3.59567   3.59960
 Alpha virt. eigenvalues --    3.60783   3.61877   3.64211   3.64457   3.66266
 Alpha virt. eigenvalues --    3.66384   3.67576   3.68066   3.68304   3.69187
 Alpha virt. eigenvalues --    3.70844   3.71549   3.71728   3.72656   3.73484
 Alpha virt. eigenvalues --    3.74843   3.75894   3.76445   3.76944   3.78311
 Alpha virt. eigenvalues --    3.78395   3.78853   3.80009   3.82899   3.84629
 Alpha virt. eigenvalues --    3.87324   3.88450   3.89849   3.90540   3.92401
 Alpha virt. eigenvalues --    3.93414   3.94034   3.95314   3.96345   3.98151
 Alpha virt. eigenvalues --    4.01009   4.01647   4.02604   4.03286   4.04392
 Alpha virt. eigenvalues --    4.05467   4.06206   4.06607   4.07045   4.07588
 Alpha virt. eigenvalues --    4.08149   4.09340   4.10228   4.11212   4.11926
 Alpha virt. eigenvalues --    4.12189   4.13456   4.14116   4.14713   4.15734
 Alpha virt. eigenvalues --    4.17229   4.18030   4.19079   4.20331   4.21845
 Alpha virt. eigenvalues --    4.23650   4.24755   4.26547   4.27405   4.27885
 Alpha virt. eigenvalues --    4.29537   4.31096   4.31989   4.32124   4.33075
 Alpha virt. eigenvalues --    4.33907   4.34034   4.36607   4.37241   4.39291
 Alpha virt. eigenvalues --    4.40232   4.41592   4.46255   4.48277   4.48964
 Alpha virt. eigenvalues --    4.57854   4.60515   4.75586   4.76253   4.83357
 Alpha virt. eigenvalues --    4.85504   4.92826   4.95377   4.99449   5.01473
 Alpha virt. eigenvalues --    5.06957   5.07181   5.08120   5.08551   5.12107
 Alpha virt. eigenvalues --    5.12667   5.14192   5.15753   5.30880   5.39951
 Alpha virt. eigenvalues --    5.40532   5.58019   5.59496   5.66275   5.84269
 Alpha virt. eigenvalues --    5.90458   6.01653   7.01956   7.04916   7.05944
 Alpha virt. eigenvalues --    7.07746   7.12006   7.13599   7.15580   7.21027
 Alpha virt. eigenvalues --    7.27266   7.36659   7.40225   7.46199   7.54033
 Alpha virt. eigenvalues --    7.54431   7.65358  23.95954  23.97610  24.06913
 Alpha virt. eigenvalues --   24.08676  24.11254  24.11743  24.14218  24.15644
 Alpha virt. eigenvalues --   24.16362  24.20627  50.16938  50.18595  50.26040
          Condensed to atoms (all electrons):
               1          2          3          4          5          6
     1  C    5.957117   0.285490  -0.057035  -0.062647   0.000025   0.006339
     2  C    0.285490   7.584575  -1.173235  -0.291720  -0.004258   0.036803
     3  C   -0.057035  -1.173235   8.106892   0.156099   0.007510   0.022628
     4  C   -0.062647  -0.291720   0.156099   5.798618   0.000817   0.000371
     5  O    0.000025  -0.004258   0.007510   0.000817   8.349494   0.089121
     6  C    0.006339   0.036803   0.022628   0.000371   0.089121   5.407380
     7  C   -0.223521  -0.480369   0.166339   0.009782   0.001549  -0.017877
     8  C    0.036068   0.367785  -1.381348  -0.027542  -0.030421  -0.027219
     9  C    0.005787   0.266537  -0.895586  -0.041090   0.190328  -0.201954
    10  C    0.015124  -0.079341   0.110794  -0.008157  -0.034887   0.088484
    11  O   -0.069860   0.251820   0.103413   0.010273   0.000725   0.005621
    12  O   -0.010722   0.353049  -0.148393  -0.034809  -0.002509  -0.005533
    13  C   -0.185503  -1.225890   0.373264  -0.046940   0.000326   0.011049
    14  H    0.476848   0.007694  -0.003982  -0.013880  -0.000022   0.000252
    15  H    0.445686   0.007284  -0.001774  -0.054341   0.000018  -0.000135
    16  H   -0.004022  -0.045046   0.603414   0.008875  -0.003287   0.004160
    17  H   -0.032881   0.008331   0.009622   0.429863   0.000021   0.000022
    18  H   -0.071798  -0.005173  -0.005087   0.524187   0.000006   0.000192
    19  H    0.000225  -0.000558   0.003752  -0.000008  -0.073803   0.424164
    20  H   -0.000289  -0.002281   0.059543   0.000191  -0.038136   0.458876
    21  H   -0.083921  -0.009721  -0.020511   0.005016  -0.000504   0.001329
    22  H   -0.003054  -0.001163  -0.008037   0.004034   0.000085  -0.001201
    23  H   -0.026674  -0.017800   0.016427  -0.000500  -0.003600  -0.012271
    24  H    0.010363   0.011507  -0.050328  -0.006289   0.000004   0.006038
    25  H   -0.001215  -0.006641  -0.006977   0.000927  -0.006473  -0.087651
    26  H    0.001324  -0.003804   0.012855   0.000085   0.007596  -0.029546
    27  H   -0.010637  -0.147433   0.017062  -0.000094   0.000084   0.000081
    28  H   -0.004948  -0.013189  -0.020200  -0.038995   0.000159  -0.000301
    29  H    0.021427   0.572305  -0.172332  -0.039119   0.000776  -0.004246
    30  H    0.003271  -0.084924   0.215689   0.001845  -0.038122  -0.015810
    31  H   -0.000172   0.006494  -0.065978   0.004107  -0.065046   0.006933
               7          8          9         10         11         12
     1  C   -0.223521   0.036068   0.005787   0.015124  -0.069860  -0.010722
     2  C   -0.480369   0.367785   0.266537  -0.079341   0.251820   0.353049
     3  C    0.166339  -1.381348  -0.895586   0.110794   0.103413  -0.148393
     4  C    0.009782  -0.027542  -0.041090  -0.008157   0.010273  -0.034809
     5  O    0.001549  -0.030421   0.190328  -0.034887   0.000725  -0.002509
     6  C   -0.017877  -0.027219  -0.201954   0.088484   0.005621  -0.005533
     7  C    5.589764  -0.052249  -0.003871  -0.013674   0.111243   0.000797
     8  C   -0.052249   6.666222   0.512253  -0.295525  -0.027996  -0.002736
     9  C   -0.003871   0.512253   6.038108  -0.043231  -0.061232   0.078354
    10  C   -0.013674  -0.295525  -0.043231   5.880787  -0.011082  -0.009790
    11  O    0.111243  -0.027996  -0.061232  -0.011082   8.204634  -0.051327
    12  O    0.000797  -0.002736   0.078354  -0.009790  -0.051327   8.360284
    13  C    0.208151  -0.090365  -0.208884  -0.001419  -0.042105  -0.123289
    14  H   -0.085088  -0.000046  -0.001550  -0.000328   0.001915  -0.000653
    15  H   -0.034484   0.001589   0.001916   0.000514   0.009313   0.000809
    16  H    0.006667  -0.081898  -0.117092   0.000855   0.002323  -0.085045
    17  H    0.013648  -0.002234  -0.001902   0.000144  -0.005624  -0.000606
    18  H    0.003043   0.000121  -0.001819  -0.000623   0.002181  -0.002424
    19  H   -0.000587  -0.004767   0.014409  -0.026676  -0.000057   0.000464
    20  H    0.001757  -0.017882  -0.036243  -0.052718   0.000618  -0.002258
    21  H    0.473087   0.030386  -0.005760  -0.020755  -0.028305   0.006730
    22  H    0.417551   0.009631   0.003657   0.003384  -0.068694   0.000853
    23  H    0.027094   0.451824  -0.024636  -0.048374   0.004367  -0.000584
    24  H   -0.011695   0.414909   0.006097   0.002873   0.000683  -0.001241
    25  H    0.002439  -0.011828   0.010819   0.469600  -0.000362  -0.000307
    26  H   -0.000072  -0.059886  -0.001325   0.446662   0.000267  -0.002688
    27  H    0.012481  -0.002219  -0.004911   0.000942  -0.006029   0.008610
    28  H    0.006680   0.005783   0.008004  -0.000613   0.010062  -0.002803
    29  H   -0.033647   0.051795   0.072370  -0.011904  -0.076182  -0.017852
    30  H    0.008719  -0.151363   0.344153   0.039046  -0.003002  -0.013248
    31  H   -0.000637   0.003654   0.456859   0.011954   0.000191   0.008337
              13         14         15         16         17         18
     1  C   -0.185503   0.476848   0.445686  -0.004022  -0.032881  -0.071798
     2  C   -1.225890   0.007694   0.007284  -0.045046   0.008331  -0.005173
     3  C    0.373264  -0.003982  -0.001774   0.603414   0.009622  -0.005087
     4  C   -0.046940  -0.013880  -0.054341   0.008875   0.429863   0.524187
     5  O    0.000326  -0.000022   0.000018  -0.003287   0.000021   0.000006
     6  C    0.011049   0.000252  -0.000135   0.004160   0.000022   0.000192
     7  C    0.208151  -0.085088  -0.034484   0.006667   0.013648   0.003043
     8  C   -0.090365  -0.000046   0.001589  -0.081898  -0.002234   0.000121
     9  C   -0.208884  -0.001550   0.001916  -0.117092  -0.001902  -0.001819
    10  C   -0.001419  -0.000328   0.000514   0.000855   0.000144  -0.000623
    11  O   -0.042105   0.001915   0.009313   0.002323  -0.005624   0.002181
    12  O   -0.123289  -0.000653   0.000809  -0.085045  -0.000606  -0.002424
    13  C    7.002935  -0.012915  -0.005524   0.006012  -0.043508  -0.060520
    14  H   -0.012915   0.484707  -0.012911  -0.000105  -0.002391   0.001925
    15  H   -0.005524  -0.012911   0.489184  -0.000122  -0.006503  -0.004202
    16  H    0.006012  -0.000105  -0.000122   0.444254   0.000434  -0.000034
    17  H   -0.043508  -0.002391  -0.006503   0.000434   0.462466  -0.007163
    18  H   -0.060520   0.001925  -0.004202  -0.000034  -0.007163   0.457059
    19  H   -0.000304   0.000008   0.000004  -0.001595  -0.000001   0.000018
    20  H    0.002415  -0.000022  -0.000033   0.001701   0.000007  -0.000029
    21  H    0.021372   0.004846  -0.001771   0.000705  -0.002284   0.000506
    22  H   -0.005941  -0.006399  -0.009420  -0.000113   0.001814  -0.002578
    23  H   -0.001748   0.000388  -0.000122   0.005005  -0.000041   0.000855
    24  H    0.000513   0.000031  -0.000021  -0.006726  -0.000023  -0.000737
    25  H   -0.000360  -0.000026   0.000041   0.000026   0.000004  -0.000059
    26  H    0.000505  -0.000032   0.000005  -0.001507   0.000021  -0.000066
    27  H    0.513975  -0.003259  -0.002356   0.000094  -0.002837   0.002250
    28  H    0.413205  -0.001172   0.001259  -0.000714  -0.008685  -0.001311
    29  H   -0.062843   0.000448   0.001329  -0.008715   0.001933  -0.004936
    30  H   -0.005422  -0.000474   0.000211   0.011180   0.000158  -0.000088
    31  H   -0.003678   0.000080  -0.000022  -0.002756  -0.000092   0.000329
              19         20         21         22         23         24
     1  C    0.000225  -0.000289  -0.083921  -0.003054  -0.026674   0.010363
     2  C   -0.000558  -0.002281  -0.009721  -0.001163  -0.017800   0.011507
     3  C    0.003752   0.059543  -0.020511  -0.008037   0.016427  -0.050328
     4  C   -0.000008   0.000191   0.005016   0.004034  -0.000500  -0.006289
     5  O   -0.073803  -0.038136  -0.000504   0.000085  -0.003600   0.000004
     6  C    0.424164   0.458876   0.001329  -0.001201  -0.012271   0.006038
     7  C   -0.000587   0.001757   0.473087   0.417551   0.027094  -0.011695
     8  C   -0.004767  -0.017882   0.030386   0.009631   0.451824   0.414909
     9  C    0.014409  -0.036243  -0.005760   0.003657  -0.024636   0.006097
    10  C   -0.026676  -0.052718  -0.020755   0.003384  -0.048374   0.002873
    11  O   -0.000057   0.000618  -0.028305  -0.068694   0.004367   0.000683
    12  O    0.000464  -0.002258   0.006730   0.000853  -0.000584  -0.001241
    13  C   -0.000304   0.002415   0.021372  -0.005941  -0.001748   0.000513
    14  H    0.000008  -0.000022   0.004846  -0.006399   0.000388   0.000031
    15  H    0.000004  -0.000033  -0.001771  -0.009420  -0.000122  -0.000021
    16  H   -0.001595   0.001701   0.000705  -0.000113   0.005005  -0.006726
    17  H   -0.000001   0.000007  -0.002284   0.001814  -0.000041  -0.000023
    18  H    0.000018  -0.000029   0.000506  -0.002578   0.000855  -0.000737
    19  H    0.467051  -0.007800  -0.000335  -0.000048  -0.000245   0.001140
    20  H   -0.007800   0.499887   0.000896  -0.000047  -0.013036   0.000029
    21  H   -0.000335   0.000896   0.520366  -0.019117  -0.001316  -0.006016
    22  H   -0.000048  -0.000047  -0.019117   0.476412  -0.003949   0.000999
    23  H   -0.000245  -0.013036  -0.001316  -0.003949   0.473834  -0.022922
    24  H    0.001140   0.000029  -0.006016   0.000999  -0.022922   0.472009
    25  H   -0.004010   0.002519   0.000518  -0.000036   0.001529  -0.006934
    26  H   -0.008894   0.005093  -0.000521   0.000292  -0.008829  -0.008957
    27  H    0.000015  -0.000046  -0.001639   0.000700  -0.000462   0.000255
    28  H   -0.000042   0.000084  -0.000007   0.000888  -0.000061  -0.000288
    29  H   -0.000404  -0.000439   0.000939  -0.000623  -0.002674   0.002502
    30  H   -0.000522   0.004512  -0.002499   0.000501  -0.002340  -0.001557
    31  H    0.003376  -0.003627  -0.000699   0.000147   0.000269  -0.001144
              25         26         27         28         29         30
     1  C   -0.001215   0.001324  -0.010637  -0.004948   0.021427   0.003271
     2  C   -0.006641  -0.003804  -0.147433  -0.013189   0.572305  -0.084924
     3  C   -0.006977   0.012855   0.017062  -0.020200  -0.172332   0.215689
     4  C    0.000927   0.000085  -0.000094  -0.038995  -0.039119   0.001845
     5  O   -0.006473   0.007596   0.000084   0.000159   0.000776  -0.038122
     6  C   -0.087651  -0.029546   0.000081  -0.000301  -0.004246  -0.015810
     7  C    0.002439  -0.000072   0.012481   0.006680  -0.033647   0.008719
     8  C   -0.011828  -0.059886  -0.002219   0.005783   0.051795  -0.151363
     9  C    0.010819  -0.001325  -0.004911   0.008004   0.072370   0.344153
    10  C    0.469600   0.446662   0.000942  -0.000613  -0.011904   0.039046
    11  O   -0.000362   0.000267  -0.006029   0.010062  -0.076182  -0.003002
    12  O   -0.000307  -0.002688   0.008610  -0.002803  -0.017852  -0.013248
    13  C   -0.000360   0.000505   0.513975   0.413205  -0.062843  -0.005422
    14  H   -0.000026  -0.000032  -0.003259  -0.001172   0.000448  -0.000474
    15  H    0.000041   0.000005  -0.002356   0.001259   0.001329   0.000211
    16  H    0.000026  -0.001507   0.000094  -0.000714  -0.008715   0.011180
    17  H    0.000004   0.000021  -0.002837  -0.008685   0.001933   0.000158
    18  H   -0.000059  -0.000066   0.002250  -0.001311  -0.004936  -0.000088
    19  H   -0.004010  -0.008894   0.000015  -0.000042  -0.000404  -0.000522
    20  H    0.002519   0.005093  -0.000046   0.000084  -0.000439   0.004512
    21  H    0.000518  -0.000521  -0.001639  -0.000007   0.000939  -0.002499
    22  H   -0.000036   0.000292   0.000700   0.000888  -0.000623   0.000501
    23  H    0.001529  -0.008829  -0.000462  -0.000061  -0.002674  -0.002340
    24  H   -0.006934  -0.008957   0.000255  -0.000288   0.002502  -0.001557
    25  H    0.479409  -0.010484  -0.000078   0.000095  -0.000172   0.000130
    26  H   -0.010484   0.495930   0.000078  -0.000064  -0.000859  -0.000830
    27  H   -0.000078   0.000078   0.452396  -0.002902  -0.021408   0.001312
    28  H    0.000095  -0.000064  -0.002902   0.472251  -0.010140  -0.000053
    29  H   -0.000172  -0.000859  -0.021408  -0.010140   0.514537  -0.019957
    30  H    0.000130  -0.000830   0.001312  -0.000053  -0.019957   0.494247
    31  H   -0.001318   0.001908   0.001006  -0.001028  -0.012988  -0.026722
              31
     1  C   -0.000172
     2  C    0.006494
     3  C   -0.065978
     4  C    0.004107
     5  O   -0.065046
     6  C    0.006933
     7  C   -0.000637
     8  C    0.003654
     9  C    0.456859
    10  C    0.011954
    11  O    0.000191
    12  O    0.008337
    13  C   -0.003678
    14  H    0.000080
    15  H   -0.000022
    16  H   -0.002756
    17  H   -0.000092
    18  H    0.000329
    19  H    0.003376
    20  H   -0.003627
    21  H   -0.000699
    22  H    0.000147
    23  H    0.000269
    24  H   -0.001144
    25  H   -0.001318
    26  H    0.001908
    27  H    0.001006
    28  H   -0.001028
    29  H   -0.012988
    30  H   -0.026722
    31  H    0.472287
 Mulliken charges:
               1
     1  C   -0.416195
     2  C   -0.167128
     3  C    0.025500
     4  C   -0.288958
     5  O   -0.347577
     6  C   -0.166101
     7  C   -0.103020
     8  C   -0.284496
     9  C   -0.358566
    10  C   -0.412065
    11  O   -0.267793
    12  O   -0.299473
    13  C   -0.426566
    14  H    0.166116
    15  H    0.174580
    16  H    0.263068
    17  H    0.188285
    18  H    0.175977
    19  H    0.216029
    20  H    0.136759
    21  H    0.138985
    22  H    0.209475
    23  H    0.210592
    24  H    0.194924
    25  H    0.176875
    26  H    0.165742
    27  H    0.194966
    28  H    0.189047
    29  H    0.261080
    30  H    0.241959
    31  H    0.207977
 Sum of Mulliken charges =  -0.00000
 Mulliken charges with hydrogens summed into heavy atoms:
               1
     1  C   -0.075500
     2  C    0.093953
     3  C    0.288568
     4  C    0.075304
     5  O   -0.347577
     6  C    0.186687
     7  C    0.245440
     8  C    0.121021
     9  C    0.091371
    10  C   -0.069447
    11  O   -0.267793
    12  O   -0.299473
    13  C   -0.042553
 Electronic spatial extent (au):  <R**2>=           2928.0840
 Charge=             -0.0000 electrons
 Dipole moment (field-independent basis, Debye):
    X=              1.2764    Y=              1.5918    Z=              0.2183  Tot=              2.0520
 Quadrupole moment (field-independent basis, Debye-Ang):
   XX=            -77.0781   YY=            -76.8832   ZZ=            -83.0632
   XY=             -6.1118   XZ=             -0.1854   YZ=              0.7789
 Traceless Quadrupole moment (field-independent basis, Debye-Ang):
   XX=              1.9300   YY=              2.1250   ZZ=             -4.0550
   XY=             -6.1118   XZ=             -0.1854   YZ=              0.7789
 Octapole moment (field-independent basis, Debye-Ang**2):
  XXX=             19.5856  YYY=             -2.2166  ZZZ=              1.2330  XYY=              8.7844
  XXY=             26.8034  XXZ=              1.1717  XZZ=             -6.7918  YZZ=              0.1273
  YYZ=             -3.2498  XYZ=              1.9196
 Hexadecapole moment (field-independent basis, Debye-Ang**3):
 XXXX=          -2918.4312 YYYY=           -580.1226 ZZZZ=           -341.4122 XXXY=            -85.7538
 XXXZ=             -1.7686 YYYX=              6.5741 YYYZ=             -4.0072 ZZZX=             -1.7940
 ZZZY=             -1.5592 XXYY=           -604.9072 XXZZ=           -554.1779 YYZZ=           -151.2786
 XXYZ=            -10.6925 YYXZ=             -5.5032 ZZXY=              3.2006
 N-N= 9.016443840063D+02 E-N=-3.245079524931D+03  KE= 6.153316620367D+02
 D1PCM: PCM CHGder 1st derivatives, ID1Alg=3 FixD1E=F DoIter=F DoCFld=F I1PDM=0.
 Calling FoFJK, ICntrl=      2127 FMM=F ISym2X=0 I1Cent= 0 IOpClX= 0 NMat=1 NMatS=1 NMatT=0.
 ***** Axes restored to original set *****
 -------------------------------------------------------------------
 Center     Atomic                   Forces (Hartrees/Bohr)
 Number     Number              X              Y              Z
 -------------------------------------------------------------------
      1        6           0.001973798   -0.000306051   -0.002019408
      2        6          -0.002181087    0.006158559   -0.004446816
      3        6          -0.003560850    0.003096261    0.007126046
      4        6           0.002047755    0.000317161    0.003327620
      5        8           0.005956048   -0.007297132   -0.001173459
      6        6          -0.005411539   -0.000134393   -0.004528978
      7        6          -0.003276975   -0.005703294   -0.001809610
      8        6           0.003851721   -0.003093064    0.000711928
      9        6           0.002315229    0.005863670   -0.004961536
     10        6          -0.001647298    0.000127979    0.002271326
     11        8           0.004747625    0.000377576    0.010640229
     12        8          -0.005479107   -0.001178022   -0.010327187
     13        6           0.000427300    0.002046495   -0.001773766
     14        1          -0.001134414   -0.001263108    0.002883024
     15        1          -0.001562345    0.002011937   -0.001265439
     16        1           0.003562331   -0.002171404   -0.004469479
     17        1          -0.002389595   -0.000897620   -0.000416188
     18        1           0.002442183    0.001016963   -0.002453723
     19        1           0.004347605   -0.000140899   -0.000303516
     20        1          -0.002126199    0.002988986    0.005011524
     21        1           0.003185772    0.002029531   -0.006009917
     22        1          -0.000176419    0.002992332    0.003260817
     23        1          -0.002797241    0.000505631    0.004464811
     24        1          -0.001733114    0.001074855   -0.002562664
     25        1           0.001136048   -0.001577426   -0.002611881
     26        1           0.000692311    0.002943454    0.000138986
     27        1          -0.001535485   -0.000749957    0.003007119
     28        1           0.000706657   -0.002092250   -0.002263886
     29        1           0.003480367   -0.005325746    0.005636657
     30        1          -0.004287088    0.003407595    0.005559292
     31        1          -0.001573992   -0.005028619   -0.000641924
 -------------------------------------------------------------------
 Cartesian Forces:  Max     0.010640229 RMS     0.003546589

 GradGradGradGradGradGradGradGradGradGradGradGradGradGradGradGradGradGrad
 Berny optimization.
 FormGI is forming the generalized inverse of G from B-inverse, IUseBI=4.
 Internal  Forces:  Max     0.018948400 RMS     0.002403562
 Search for a local minimum.
 Step number   1 out of a maximum of  186
 All quantities printed in internal units (Hartrees-Bohrs-Radians)
 Mixed Optimization -- RFO/linear search
 Second derivative matrix not updated -- first step.
 ITU=  0
     Eigenvalues ---    0.00630   0.00636   0.00724   0.00725   0.01401
     Eigenvalues ---    0.01447   0.01698   0.02651   0.02698   0.03079
     Eigenvalues ---    0.03121   0.03840   0.04089   0.04611   0.04751
     Eigenvalues ---    0.04854   0.04892   0.05144   0.05151   0.05231
     Eigenvalues ---    0.05308   0.05696   0.05702   0.06101   0.06186
     Eigenvalues ---    0.06286   0.06551   0.06989   0.07581   0.07811
     Eigenvalues ---    0.07834   0.07940   0.07973   0.08037   0.08278
     Eigenvalues ---    0.08848   0.09172   0.09457   0.10691   0.11561
     Eigenvalues ---    0.11615   0.11697   0.11766   0.12406   0.12508
     Eigenvalues ---    0.14751   0.14873   0.16520   0.16554   0.17885
     Eigenvalues ---    0.19152   0.21479   0.21973   0.25000   0.28295
     Eigenvalues ---    0.28637   0.28657   0.28892   0.28973   0.29076
     Eigenvalues ---    0.30066   0.30303   0.35097   0.35098   0.35144
     Eigenvalues ---    0.35191   0.35203   0.35240   0.35288   0.35314
     Eigenvalues ---    0.35317   0.35326   0.35348   0.35459   0.35514
     Eigenvalues ---    0.35554   0.35833   0.35838   0.35842   0.36256
     Eigenvalues ---    0.40773   0.41324   0.42078   0.42149   0.43521
     Eigenvalues ---    0.457011000.000001000.000001000.000001000.00000
     Eigenvalues --- 1000.000001000.000001000.000001000.000001000.00000
     Eigenvalues --- 1000.000001000.000001000.000001000.000001000.00000
     Eigenvalues --- 1000.000001000.000001000.000001000.000001000.00000
     Eigenvalues --- 1000.000001000.000001000.000001000.000001000.00000
     Eigenvalues --- 1000.000001000.000001000.000001000.000001000.00000
     Eigenvalues --- 1000.000001000.000001000.000001000.000001000.00000
     Eigenvalues --- 1000.000001000.000001000.000001000.000001000.00000
     Eigenvalues --- 1000.000001000.000001000.000001000.000001000.00000
     Eigenvalues --- 1000.000001000.000001000.000001000.000001000.00000
     Eigenvalues --- 1000.000001000.000001000.000001000.000001000.00000
     Eigenvalues --- 1000.000001000.000001000.000001000.000001000.00000
     Eigenvalues --- 1000.000001000.000001000.000001000.000001000.00000
     Eigenvalues --- 1000.000001000.000001000.000001000.000001000.00000
     Eigenvalues --- 1000.000001000.000001000.000001000.000001000.00000
     Eigenvalues --- 1000.000001000.000001000.000001000.000001000.00000
     Eigenvalues --- 1000.000001000.000001000.000001000.000001000.00000
     Eigenvalues --- 1000.000001000.000001000.000001000.000001000.00000
     Eigenvalues --- 1000.000001000.000001000.000001000.000001000.00000
     Eigenvalues --- 1000.000001000.000001000.000001000.000001000.00000
 RFO step:  Lambda=-5.21226193D-03 EMin= 6.30063904D-03
 Linear search not attempted -- first point.
 Iteration  1 RMS(Cart)=  0.12254600 RMS(Int)=  0.00255799
 Iteration  2 RMS(Cart)=  0.00792920 RMS(Int)=  0.00007891
 Iteration  3 RMS(Cart)=  0.00001594 RMS(Int)=  0.00007849
 Iteration  4 RMS(Cart)=  0.00000000 RMS(Int)=  0.00007849
 Iteration  1 RMS(Cart)=  0.00004041 RMS(Int)=  0.00000934
 Iteration  2 RMS(Cart)=  0.00002240 RMS(Int)=  0.00001043
 Iteration  3 RMS(Cart)=  0.00001241 RMS(Int)=  0.00001180
 Iteration  4 RMS(Cart)=  0.00000688 RMS(Int)=  0.00001273
 Iteration  5 RMS(Cart)=  0.00000381 RMS(Int)=  0.00001328
 Iteration  6 RMS(Cart)=  0.00000211 RMS(Int)=  0.00001359
 Iteration  7 RMS(Cart)=  0.00000117 RMS(Int)=  0.00001377
 Iteration  8 RMS(Cart)=  0.00000065 RMS(Int)=  0.00001387
 Variable       Old X    -DE/DX   Delta X   Delta X   Delta X     New X
                                 (Linear)    (Quad)   (Total)
    R1        2.88807  -0.00067   0.00000  -0.00132  -0.00133   2.88675
    R2        2.87096   0.00036   0.00000   0.00130   0.00131   2.87227
    R3        2.05517   0.00327   0.00000   0.00917   0.00917   2.06434
    R4        2.05288   0.00282   0.00000   0.00789   0.00789   2.06077
    R5        2.65240   0.00378   0.00000   0.00768   0.00769   2.66008
    R6        2.64470   0.00109   0.00000   0.00236   0.00236   2.64706
    R7        2.87657  -0.00087   0.00000  -0.00303  -0.00304   2.87353
    R8        2.03683   0.00845   0.00000   0.02297   0.02297   2.05980
    R9        2.88250  -0.00189   0.00000  -0.00626  -0.00623   2.87628
   R10        2.88796  -0.00120   0.00000  -0.00380  -0.00376   2.88421
   R11        2.68824  -0.00090   0.00000  -0.00211  -0.00211   2.68613
   R12        2.04785   0.00591   0.00000   0.01638   0.01638   2.06423
   R13        2.88882  -0.00132   0.00000  -0.00391  -0.00391   2.88492
   R14        2.05163   0.00258   0.00000   0.00721   0.00721   2.05884
   R15        2.05366   0.00341   0.00000   0.00955   0.00955   2.06322
   R16        2.67797   0.00352   0.00000   0.00814   0.00811   2.68608
   R17        2.66812   0.00331   0.00000   0.00752   0.00756   2.67568
   R18        2.87237   0.00041   0.00000   0.00117   0.00113   2.87349
   R19        2.04344   0.00436   0.00000   0.01199   0.01199   2.05543
   R20        2.05518   0.00610   0.00000   0.01712   0.01712   2.07230
   R21        2.68757   0.00250   0.00000   0.00551   0.00550   2.69307
   R22        2.04848   0.00704   0.00000   0.01952   0.01952   2.06801
   R23        2.04329   0.00443   0.00000   0.01217   0.01217   2.05546
   R24        2.89388  -0.00069   0.00000  -0.00239  -0.00243   2.89145
   R25        2.05169   0.00497   0.00000   0.01386   0.01386   2.06555
   R26        2.05113   0.00320   0.00000   0.00893   0.00893   2.06006
   R27        2.05149   0.00739   0.00000   0.02062   0.02062   2.07211
   R28        2.04335   0.00526   0.00000   0.01447   0.01447   2.05783
   R29        2.05442   0.00318   0.00000   0.00891   0.00891   2.06333
   R30        2.05209   0.00301   0.00000   0.00840   0.00840   2.06049
   R31        2.05346   0.00340   0.00000   0.00953   0.00953   2.06299
   R32        2.04937   0.00313   0.00000   0.00871   0.00871   2.05808
    A1        1.92059  -0.00098   0.00000  -0.00318  -0.00341   1.91718
    A2        1.91691   0.00093   0.00000   0.00123   0.00134   1.91824
    A3        1.93971  -0.00052   0.00000  -0.00195  -0.00192   1.93778
    A4        1.90810   0.00004   0.00000  -0.00246  -0.00239   1.90571
    A5        1.90174   0.00056   0.00000   0.00336   0.00343   1.90517
    A6        1.87604   0.00000   0.00000   0.00312   0.00309   1.87912
    A7        1.95448  -0.00088   0.00000  -0.01186  -0.01168   1.94280
    A8        1.94525   0.00388   0.00000   0.01441   0.01413   1.95938
    A9        1.83113  -0.00257   0.00000  -0.01405  -0.01409   1.81704
   A10        1.88804  -0.00266   0.00000  -0.01328  -0.01318   1.87486
   A11        1.92551   0.00197   0.00000   0.01544   0.01541   1.94092
   A12        1.91942   0.00040   0.00000   0.01049   0.01055   1.92997
   A13        1.92574  -0.00037   0.00000  -0.00913  -0.00937   1.91637
   A14        1.95721  -0.00130   0.00000  -0.01534  -0.01572   1.94149
   A15        1.88896   0.00112   0.00000   0.00931   0.00944   1.89840
   A16        2.00325  -0.00044   0.00000  -0.01273  -0.01312   1.99013
   A17        1.86399  -0.00019   0.00000   0.00729   0.00733   1.87132
   A18        1.81568   0.00148   0.00000   0.02559   0.02575   1.84143
   A19        1.91128   0.00216   0.00000   0.00102   0.00107   1.91235
   A20        1.93155  -0.00020   0.00000   0.00185   0.00190   1.93345
   A21        1.91431  -0.00106   0.00000  -0.00277  -0.00288   1.91143
   A22        1.91571  -0.00065   0.00000   0.00157   0.00154   1.91725
   A23        1.92351  -0.00101   0.00000  -0.00714  -0.00716   1.91635
   A24        1.86718   0.00069   0.00000   0.00546   0.00547   1.87265
   A25        1.97986  -0.00488   0.00000  -0.02676  -0.02671   1.95315
   A26        1.93372   0.00231   0.00000   0.01017   0.01023   1.94395
   A27        1.85460  -0.00131   0.00000  -0.00384  -0.00384   1.85076
   A28        1.90194   0.00048   0.00000   0.00574   0.00574   1.90768
   A29        1.94664  -0.00026   0.00000  -0.00245  -0.00246   1.94417
   A30        1.93248  -0.00182   0.00000  -0.01047  -0.01052   1.92196
   A31        1.89209   0.00062   0.00000   0.00123   0.00121   1.89330
   A32        1.94706   0.00218   0.00000   0.00454   0.00445   1.95151
   A33        1.92807  -0.00129   0.00000  -0.00415  -0.00420   1.92387
   A34        1.94672  -0.00022   0.00000  -0.00180  -0.00171   1.94501
   A35        1.91036  -0.00004   0.00000  -0.00014  -0.00006   1.91030
   A36        1.84112  -0.00127   0.00000  -0.00212  -0.00213   1.83898
   A37        1.88769   0.00063   0.00000   0.00383   0.00382   1.89151
   A38        1.91163   0.00137   0.00000  -0.00045  -0.00040   1.91123
   A39        1.91431  -0.00159   0.00000  -0.01373  -0.01370   1.90061
   A40        1.91335  -0.00066   0.00000  -0.00380  -0.00385   1.90950
   A41        1.91383   0.00022   0.00000   0.00714   0.00708   1.92091
   A42        1.93143   0.00018   0.00000   0.00706   0.00705   1.93848
   A43        1.87902   0.00042   0.00000   0.00362   0.00353   1.88255
   A44        1.90022   0.00191   0.00000   0.01114   0.01128   1.91150
   A45        1.95097  -0.00278   0.00000  -0.02046  -0.02053   1.93045
   A46        1.94243  -0.00058   0.00000  -0.00587  -0.00603   1.93640
   A47        1.90454   0.00141   0.00000   0.01297   0.01303   1.91757
   A48        1.86259  -0.00069   0.00000   0.00301   0.00299   1.86558
   A49        1.90069   0.00087   0.00000   0.00073   0.00054   1.90124
   A50        1.92691  -0.00132   0.00000  -0.00739  -0.00746   1.91945
   A51        1.90300   0.00005   0.00000  -0.00171  -0.00167   1.90133
   A52        1.90961   0.00073   0.00000   0.00437   0.00436   1.91397
   A53        1.91961   0.00080   0.00000   0.00123   0.00121   1.92083
   A54        1.92907  -0.00013   0.00000   0.00071   0.00075   1.92982
   A55        1.87474  -0.00009   0.00000   0.00308   0.00307   1.87781
   A56        2.02838  -0.00582   0.00000  -0.03772  -0.03762   1.99076
   A57        2.12940  -0.01895   0.00000  -0.07425  -0.07425   2.05515
   A58        1.95853  -0.00218   0.00000  -0.01681  -0.01693   1.94161
   A59        1.87011   0.00009   0.00000   0.00430   0.00429   1.87441
   A60        1.89999   0.00105   0.00000  -0.00021  -0.00021   1.89979
   A61        1.90811   0.00144   0.00000   0.00855   0.00865   1.91676
   A62        1.94847  -0.00024   0.00000  -0.00181  -0.00194   1.94654
   A63        1.87514  -0.00006   0.00000   0.00725   0.00722   1.88237
    D1        0.93122  -0.00010   0.00000   0.00313   0.00312   0.93434
    D2        3.04540   0.00038   0.00000   0.00694   0.00698   3.05238
    D3       -1.18169   0.00045   0.00000   0.01304   0.01307  -1.16862
    D4       -1.17016  -0.00012   0.00000   0.00740   0.00739  -1.16278
    D5        0.94403   0.00036   0.00000   0.01121   0.01124   0.95527
    D6        3.00012   0.00043   0.00000   0.01732   0.01734   3.01745
[...]
 64,0.00340623,-0.00299802,-0.00000949,0.00000717,-0.00000566,0.0000051
 3,-0.00000045,-0.00000410,-0.00076687,-0.00026143,0.00107861,0.0004995
 4,0.00021201,0.00059967,-0.09964500,0.07485656,0.26161658,0.00000702,0
 .00000998,-0.00002360,0.00051345,-0.00024793,-0.00137395,-0.00479296,0
 .00376479,-0.00011287,-0.00000240,-0.00003872,0.00001027,0.00076668,0.
 00346985,-0.00279588,0.00255133,0.01063419,0.00450927,0.00013969,-0.00
 012982,0.00004400,-0.00863071,-0.03464898,-0.00381627,-0.00104670,0.00
 029248,-0.00050937,-0.06024720,-0.05989038,-0.00895225,-0.00016872,0.0
 0032064,0.00028961,-0.00268390,-0.00272829,0.00072441,-0.00008850,-0.0
 0000963,0.00023541,-0.00000467,-0.00000428,0.00000640,-0.00001618,0.00
 001122,-0.00000217,0.00015415,0.00000110,-0.00021161,-0.00002643,0.000
 01237,-0.00000867,0.00000941,-0.00000098,0.00001038,-0.00003689,-0.000
 56758,0.00064247,0.00039398,-0.00037159,0.00011432,0.00003154,-0.00001
 568,-0.00002521,-0.00001936,0.00002342,0.00000888,0.00148578,0.0004365
 2,0.00041414,0.00144488,0.00060003,-0.00030820,0.00269153,0.01294118,0
 .00074051,0.06732741,0.00000054,0.00000357,0.00000659,0.00024135,-0.00
 005087,-0.00037587,0.00018704,0.00192701,0.00019517,-0.00000951,-0.000
 01637,0.00000289,0.00085186,-0.00370915,0.00428851,-0.00531238,-0.0150
 4350,-0.00597574,0.00005633,-0.00005920,-0.00001742,-0.00036117,-0.000
 75734,-0.00025911,0.00139687,0.00061478,-0.00037584,-0.06042479,-0.296
 39137,-0.03354476,-0.00013593,0.00010841,0.00009257,-0.00039790,-0.000
 27463,0.00026244,-0.00001176,0.00001516,0.00005855,-0.00001045,-0.0000
 0502,0.00000154,-0.00000934,0.00000550,-0.00000295,0.00007763,0.000138
 23,-0.00000302,-0.00001375,0.00000478,-0.00000495,0.00000347,-0.000000
 12,0.00000554,0.00040497,0.00030209,-0.00005838,-0.00015764,0.00065874
 ,0.00026642,0.00001470,-0.00001828,0.00001654,-0.00000955,0.00001166,0
 .00000918,-0.00029344,0.00035993,0.00016438,-0.00039794,0.00026464,-0.
 00015776,-0.00155139,-0.00851990,-0.00119788,0.06621735,0.32054167,0.0
 0000235,-0.00000480,0.00000597,-0.00005491,0.00000161,-0.00019560,-0.0
 0044151,0.00003251,0.00050425,0.00000120,-0.00000307,0.00000383,-0.001
 37543,0.00645095,-0.00369476,0.00839651,0.02218075,0.00570506,0.000014
 26,-0.00000501,-0.00001638,0.00067687,-0.00123308,-0.00124645,-0.00147
 964,-0.00038370,-0.00012695,-0.00927975,-0.03566072,-0.05427660,-0.000
 00474,0.00000020,0.00003734,-0.00024095,-0.00030236,0.00051112,-0.0000
 1437,-0.00001609,0.00005422,-0.00000405,-0.00000201,-0.00000041,-0.000
 00096,0.00000143,-0.00000036,-0.00005385,0.00052995,0.00007580,-0.0000
 0207,0.00000022,-0.00000199,0.00000167,0.00000110,0.00000053,-0.000260
 78,-0.00065536,0.00070508,0.00065655,-0.00098748,0.00059654,0.00000517
 ,-0.00000580,0.00001077,0.00000104,0.00000197,-0.00000061,-0.00015059,
 0.00039869,0.00029098,0.00019009,-0.00028223,-0.00009286,-0.00701636,-
 0.02653331,-0.00292978,0.01007461,0.03655607,0.05401615,0.00050321,-0.
 00078708,-0.00030511,-0.01238756,-0.00906943,0.02669986,0.00127406,-0.
 00052792,0.00109490,0.00863564,0.00768069,-0.01579281,-0.00028325,0.00
 001566,-0.00019745,0.00004520,0.00009616,0.00008509,-0.00025886,0.0000
 3891,-0.00001294,-0.00058246,0.00016316,-0.00000404,0.00008998,-0.0001
 9594,0.00030954,0.00006778,-0.00026938,-0.00004623,0.00166969,0.001026
 41,-0.00067092,-0.00960832,-0.00241044,-0.00095500,-0.10937797,-0.0462
 0614,0.09967631,-0.00013885,-0.00020826,0.00029048,-0.00012584,-0.0002
 5081,-0.00003061,-0.00046718,-0.00006625,0.00003291,0.00089948,-0.0008
 6056,0.00016271,-0.00117886,0.00358025,-0.00131140,-0.00002554,-0.0000
 0394,-0.00001539,0.00000867,-0.00001293,-0.00001715,-0.00003566,0.0000
 6681,0.00001207,0.00005643,-0.00002016,-0.00000253,0.00001641,-0.00002
 988,-0.00002084,0.00002632,-0.00000407,0.00000983,0.00000176,0.0000135
 3,0.00000647,-0.00011213,-0.00003265,-0.00001988,0.12208895,-0.0010288
 6,0.00102525,0.00079841,-0.00378968,-0.00526120,0.00816125,0.00016314,
 0.00040528,0.00039826,-0.01184979,-0.01063523,0.02128427,-0.00006039,-
 0.00000031,-0.00004829,0.00000803,0.00002166,0.00001195,0.00002857,-0.
 00026315,0.00008737,0.00003862,0.00002611,0.00001213,0.00001121,-0.000
 05218,0.00007369,0.00001035,-0.00000968,-0.00000179,0.00035275,0.00054
 365,-0.00030950,-0.00165505,0.00048062,-0.00071267,-0.04556503,-0.0808
 6633,0.07159713,0.00025421,-0.00026129,-0.00050622,0.00026814,0.000288
 10,-0.00019611,-0.00017173,-0.00002950,-0.00000308,-0.00008804,0.00116
 475,-0.00067727,0.00276857,-0.00340102,0.00174020,-0.00000411,-0.00000
 182,-0.00000225,0.00000022,-0.00000296,-0.00000251,0.00009516,0.000079
 63,-0.00001426,-0.00005875,-0.00001230,-0.00003283,0.00000540,-0.00000
 729,-0.00000365,0.00000348,-0.00001047,-0.00000133,0.00000218,0.000001
 44,-0.00000023,-0.00000630,-0.00000291,-0.00000267,0.04771602,0.086721
 05,0.00006935,-0.00093784,0.00068712,-0.00539569,-0.00448058,0.0061156
 7,-0.00045183,-0.00008164,0.00054525,0.00531737,0.00542899,-0.01203052
 ,0.00002518,0.00000058,-0.00000291,0.00000038,-0.00000855,-0.00000093,
 -0.00020588,0.00011318,0.00006027,0.00001469,0.00002196,0.00000373,0.0
 0004990,0.00002257,0.00001522,-0.00000859,-0.00000937,-0.00001301,-0.0
 0007701,0.00055254,0.00055685,-0.00189329,-0.00080436,0.00062167,0.104
 24836,0.07323877,-0.21761893,0.00009739,0.00037293,0.00051962,-0.00021
 719,-0.00004814,0.00016269,-0.00009998,-0.00001273,-0.00001160,-0.0001
 1634,-0.00035186,0.00032950,-0.00183838,0.00217412,0.00025387,0.000000
 76,0.00000116,-0.00000012,-0.00000128,0.00000096,0.00000052,-0.0000193
 0,-0.00000838,-0.00006265,0.00006378,0.00001739,0.00003345,-0.00000019
 ,-0.00000601,-0.00001196,-0.00000503,0.00000428,0.00000129,0.00000709,
 -0.00000044,-0.00000234,-0.00000366,-0.00000248,-0.00000416,-0.1099947
 3,-0.08307548,0.23526088,-0.00151177,0.00294569,-0.00250381,0.00506153
 ,-0.02215666,-0.01865884,0.00014502,0.00019554,-0.00000473,-0.00141870
 ,0.01187911,0.01299798,-0.00000091,-0.00001145,0.00004323,-0.00000304,
 -0.00000121,-0.00000633,-0.00128508,0.00154484,-0.00071361,0.00010603,
 -0.00004268,-0.00004212,0.00003758,0.00003993,-0.00009322,0.00000567,0
 .00004108,0.00001334,-0.00584622,-0.00585507,-0.00395550,0.00126195,0.
 00030709,-0.00020284,-0.05129509,0.01986053,0.01832188,0.00000140,-0.0
 0033272,-0.00029965,0.00032255,0.00119899,0.00064342,-0.00001088,0.000
 01110,0.00001679,0.00024875,-0.00070267,0.00047598,0.00066050,-0.00060
 356,-0.00026593,-0.00000197,0.00000002,-0.00000044,0.00000193,0.000000
 03,0.00000113,0.00011019,-0.00015216,0.00013018,0.00023762,-0.00015544
 ,0.00011224,0.00003013,0.00004126,0.00001563,-0.00001084,0.00001140,0.
 00000777,-0.00001074,0.00000127,0.00000152,0.00001052,0.00000164,0.000
 00209,-0.00153951,0.01222838,0.00989867,0.05392712,0.00309853,-0.00263
 358,0.00382249,0.00196175,-0.00848588,-0.00611869,-0.00020619,0.000231
 63,0.00018324,0.00138187,-0.01788783,-0.01659969,-0.00000339,-0.000016
 14,0.00004556,-0.00000465,0.00000062,-0.00000353,0.00045170,0.00095179
 ,0.00004529,0.00012663,-0.00002815,-0.00003082,0.00004889,0.00002390,-
 0.00008023,-0.00000184,0.00005614,0.00001951,-0.00216999,-0.00006448,-
 0.00119284,0.00086042,0.00093862,0.00035034,0.01716628,-0.19491962,-0.
 13240647,0.00008018,0.00011610,-0.00014891,-0.00014978,-0.00116725,-0.
 00111679,-0.00003386,-0.00001092,-0.00001054,0.00003109,0.00095235,0.0
 0003547,-0.00070643,0.00079522,-0.00001667,-0.00000137,-0.00000064,0.0
 0000018,0.00000181,0.00000048,0.00000158,-0.00005179,-0.00005095,0.000
 05893,-0.00006985,-0.00000371,-0.00006763,0.00002023,0.00002444,0.0000
 3189,-0.00000381,-0.00000427,-0.00000409,-0.00001051,-0.00000016,0.000
 00011,0.00001469,0.00000080,0.00000067,-0.00012470,0.00961726,0.007752
 79,-0.02120552,0.21144379,-0.00162962,0.00221204,-0.00074774,0.0043129
 6,-0.00602393,-0.00789274,-0.00020991,0.00028758,0.00016185,-0.0006042
 6,0.01189561,0.01075829,-0.00004135,-0.00000866,0.00001764,0.00000235,
 0.00001453,-0.00000068,-0.00050173,0.00093630,-0.00047165,0.00010131,-
 0.00003048,-0.00001896,0.00003148,0.00000190,-0.00004420,-0.00000469,0
 .00003446,0.00001755,-0.00283893,-0.00211004,-0.00031580,0.00116845,0.
 00090162,0.00083736,0.01481905,-0.13469762,-0.16850667,-0.00008559,0.0
 0016302,0.00023882,-0.00014743,0.00064386,0.00053001,-0.00005161,-0.00
 002386,-0.00000861,0.00042452,-0.00081124,0.00035763,0.00057835,-0.000
 63540,0.00067707,-0.00000307,-0.00000224,-0.00000080,0.00000217,-0.000
 00135,-0.00000040,0.00005426,-0.00012555,0.00009171,0.00008856,-0.0001
 2687,0.00003985,0.00001859,0.00002885,0.00001987,-0.00000728,0.0000009
 2,0.00000452,-0.00000874,-0.00000031,-0.00000017,0.00000878,-0.0000030
 4,-0.00000084,0.00097676,-0.01813917,-0.01609104,-0.01636130,0.1453354
 4,0.18020312,0.00036558,-0.00050547,-0.00010561,-0.10729462,0.08727101
 ,-0.06703955,0.00348958,-0.00073973,0.00027708,-0.00397717,-0.00388170
 ,-0.00121776,0.00028553,-0.00010580,0.00066038,-0.00004074,-0.00010318
 ,0.00009291,0.00137406,-0.00081465,0.00012151,-0.00051609,-0.00007043,
 -0.00022863,-0.00351094,-0.00087726,-0.00061551,0.00000299,-0.00015643
 ,-0.00001952,0.00219835,0.00241308,0.00063273,0.00589163,-0.01625632,0
 .02081748,-0.01404260,0.02094902,-0.01570291,-0.00003340,0.00002326,0.
 00013214,0.00006002,0.00011575,0.00007686,0.00015622,0.00006598,-0.000
 06255,-0.00096745,0.00139094,-0.00063125,0.00008299,0.00006737,-0.0001
 7891,0.00001351,0.00002394,-0.00003001,0.00001033,0.00001544,-0.000014
 56,-0.00014029,0.00018207,-0.00005222,0.00004685,0.00005373,0.00001239
 ,-0.00001301,-0.00001677,-0.00001160,-0.00001683,0.00017640,-0.0000439
 0,0.00000617,0.00000196,-0.00000059,-0.00004328,-0.00000587,0.00000065
 ,0.00074691,0.00032331,0.00054721,0.00075735,-0.00050990,-0.00010027,0
 .11885459,-0.00010782,-0.00048837,-0.00001317,0.07784235,-0.18092419,0
 .09873306,0.00207708,0.00008848,0.00046111,-0.00205315,-0.00051505,-0.
 00077901,0.00050915,0.00049987,-0.00058976,0.00002197,-0.00031331,-0.0
 0006139,-0.00249229,0.00007210,-0.00537269,-0.00024720,-0.00005378,-0.
 00012918,-0.00014072,-0.00025152,0.00052298,0.00001003,-0.00002332,0.0
 0003715,0.01804419,-0.03722021,0.00650373,-0.00200733,-0.00080952,0.01
 022971,-0.00473119,0.00977821,-0.00445508,0.00006478,0.00006944,0.0000
 1377,0.00022363,0.00015590,0.00017138,-0.00016203,0.00007371,-0.000126
 41,-0.00044574,0.00051475,-0.00022197,0.00001236,0.00001814,-0.0000905
 1,0.00002215,0.00007367,0.00000089,-0.00002889,0.00001267,0.00001137,-
 0.00001022,-0.00019076,0.00026176,0.00080998,-0.00133863,0.00054887,0.
 00007798,0.00002677,0.00003910,-0.00000535,0.00006056,-0.00002994,-0.0
 0002453,-0.00000107,-0.00000321,-0.00003782,0.00000795,-0.00002453,0.0
 0063071,0.00043314,0.00011647,0.00092050,0.00012372,0.00028879,-0.0892
 0798,0.21022587,-0.00002843,-0.00028443,-0.00010220,-0.06548117,0.1063
 8024,-0.12151683,-0.00498730,-0.00096178,-0.00039014,-0.00132260,-0.00
 135518,0.00051156,-0.00018249,-0.00059720,0.00048811,-0.00009187,0.000
 17831,-0.00003393,-0.00117705,-0.00270589,-0.00171326,0.00068264,-0.00
 012520,0.00023509,-0.00001592,0.00050335,-0.00003992,-0.00008131,0.000
 25813,0.00007528,0.01084427,-0.02466946,0.00924456,0.00258429,0.024074
 63,-0.03076970,-0.00502018,0.00698228,-0.00275905,0.00004124,0.0000749
 6,0.00000267,0.00014662,0.00014096,0.00005244,0.00029204,0.00001515,-0
 .00008113,-0.00025923,0.00054405,-0.00020339,0.00019770,-0.00013496,0.
 00006744,0.00000361,-0.00007199,0.00001854,0.00001585,-0.00000647,0.00
 000164,0.00017147,-0.00047022,0.00014670,0.00043221,-0.00084240,0.0002
 8430,0.00001621,0.00005720,0.00004538,-0.00002618,-0.00017069,0.000033
 15,0.00000818,-0.00001262,-0.00000564,0.00013484,0.00002201,0.00002499
 ,0.00012157,-0.00042470,0.00070725,0.00038257,0.00007582,0.00011384,0.
 06308905,-0.10567400,0.14505854,-0.00001026,-0.00009439,0.00002821,-0.
 00152475,-0.00149463,-0.00079476,0.00761331,-0.00553148,-0.01210411,-0
 .00001829,0.00000658,-0.00002670,-0.03469473,0.00781988,0.03178980,0.0
 0183109,0.00568553,0.00229770,-0.00008877,0.00035945,-0.00001779,0.000
 10112,-0.00073085,0.00047121,-0.07058618,0.02666990,0.06655818,-0.0002
 3287,-0.00063786,-0.00030211,-0.00077169,0.00010685,-0.00000289,0.0004
 9946,0.00045091,0.00156981,0.00000820,0.00011560,0.00010523,-0.0000025
 6,0.00000309,-0.00000130,0.00004071,0.00000614,0.00001208,-0.00118298,
 0.00176244,-0.00241496,0.00000780,0.00000808,0.00000174,-0.00000314,0.
 00000771,-0.00000621,0.00015273,-0.00006781,-0.00045785,0.00058406,-0.
 00085693,-0.00107197,0.00001107,-0.00006201,0.00005254,0.00000653,-0.0
 0002280,-0.00000721,0.00003082,0.00015655,0.00031585,-0.00008900,-0.00
 005362,0.00011349,-0.00005984,0.00006747,-0.00007834,0.00017803,-0.000
 18709,0.00014024,-0.00001442,-0.00000245,-0.00000330,0.00002650,0.0000
 1609,0.00002179,-0.00187558,-0.00049756,-0.00084322,0.09699035,0.00001
 396,0.00000808,0.00001529,0.00017933,0.00106769,-0.00061217,-0.0048824
 0,0.00556838,0.01480868,0.00005153,0.00003521,0.00001510,-0.00191914,0
 .00338515,0.00343780,-0.00157347,0.00200676,0.00295136,0.00002272,-0.0
 0002098,-0.00004200,-0.00044367,0.00143118,0.00051942,0.02906711,-0.09
 005552,-0.08108938,0.00008901,-0.00030562,0.00002241,0.00042624,-0.000
 43074,0.00012856,-0.00024093,-0.00005716,-0.00063790,0.00002216,-0.000
 20803,-0.00002534,0.00000039,0.00000199,-0.00000585,0.00000347,-0.0000
 0886,-0.00000034,0.00096968,-0.00076477,0.00264937,0.00001623,-0.00002
 096,0.00001386,-0.00000024,-0.00001092,0.00000674,0.00008100,0.0000993
 3,0.00007274,0.00045298,0.00056957,-0.00037367,0.00002406,0.00000431,0
 .00000281,0.00001002,-0.00002103,0.00000385,0.00024617,0.00001347,-0.0
 0026555,0.00004240,0.00005630,-0.00024278,0.00001319,-0.00007710,-0.00
 020317,0.00003415,-0.00003379,-0.00002752,0.00001668,0.00000225,-0.000
 00244,-0.00000632,0.00000519,-0.00000152,-0.00020818,-0.00056235,-0.00
 020057,-0.03205452,0.08767985,0.00006976,-0.00016170,0.00010295,-0.000
 14414,-0.00015882,-0.00172707,0.01001331,-0.01068353,-0.02468099,0.000
 13596,0.00005843,-0.00003709,0.00636539,0.00061396,0.00405601,-0.00084
 105,0.00028763,0.00114578,0.00001074,0.00067809,-0.00020255,0.00026846
 ,-0.00155895,0.00107322,0.06812438,-0.07875342,-0.24136307,0.00009971,
 0.00011548,-0.00002055,0.00113057,-0.00015376,0.00083258,-0.00158965,0
 .00002978,0.00135247,-0.00006322,-0.00036586,0.00029224,0.00000145,0.0
 0000925,-0.00000874,0.00007543,-0.00000174,0.00003004,-0.00206234,0.00
 293260,-0.00312903,0.00003787,-0.00003305,0.00003254,-0.00000554,-0.00
 001155,0.00002209,-0.00003750,0.00025890,0.00028321,0.00062075,0.00095
 686,-0.00028876,-0.00000885,-0.00004750,0.00005309,0.00001333,-0.00006
 121,-0.00000193,0.00008244,0.00101791,0.00037405,-0.00033486,0.0000275
 0,0.00038871,-0.00011741,-0.00013594,-0.00007401,0.00008805,0.00004110
 ,0.00000809,-0.00005940,-0.00001083,-0.00001960,0.00003576,0.00003810,
 0.00003008,-0.00026062,-0.00048783,0.00039449,-0.08108828,0.08572628,0
 .26065955,-0.00000646,0.00003183,0.00001285,-0.00041414,0.00048575,0.0
 0059159,0.00411460,0.01373948,0.00290906,0.00004623,0.00001305,0.00000
 225,-0.01779387,-0.04345325,-0.00286548,-0.00564214,0.00277702,0.00115
 959,-0.00004606,-0.00004970,0.00000110,-0.00144193,0.00136358,-0.00311
 792,-0.05060565,-0.02699714,-0.00088325,-0.00059678,-0.00065782,-0.000
 22543,-0.00030832,0.00018440,-0.00004181,0.00117158,-0.00127936,0.0007
 0626,-0.00001815,-0.00013983,-0.00000128,-0.00000372,-0.00000314,-0.00
 000129,-0.00001001,-0.00000615,-0.00000668,0.00046993,-0.00070254,0.00
 027775,0.00001434,-0.00001448,0.00000271,-0.00000201,0.00000225,-0.000
 00463,-0.00063869,-0.00181683,-0.00001746,0.00015168,-0.00011208,-0.00
 030692,0.00002317,-0.00000294,0.00000111,-0.00000283,0.00000182,-0.000
 00278,-0.00003088,-0.00034976,-0.00005776,0.00039306,0.00109331,-0.000
 20284,0.00007907,0.00002208,0.00004661,0.00021464,-0.00013119,0.000236
 54,0.00000592,0.00000242,-0.00000846,-0.00001758,-0.00000660,-0.000013
 61,-0.00187066,0.00093296,0.00035261,0.00307329,0.00954639,-0.00056048
 ,0.06969233,0.00001977,-0.00000843,-0.00002145,-0.00034941,-0.00095684
 ,0.00088277,-0.00255329,-0.01491566,-0.00181173,-0.00009301,-0.0000901
 6,-0.00002409,-0.00588248,-0.00247520,-0.00060193,-0.00019754,0.002962
 40,0.00050978,-0.00000803,0.00007005,0.00013858,0.00158333,0.00035161,
 0.00333825,-0.03831875,-0.31361332,-0.01402893,0.00033752,0.00015649,-
 0.00021751,0.00010966,0.00047982,-0.00008169,0.00103664,0.00069459,-0.
 00024400,0.00000764,0.00029792,-0.00020631,0.00000822,0.00000286,0.000
 00441,0.00000149,0.00000506,0.00000515,-0.00010925,0.00089561,0.000142
 52,-0.00002345,0.00003765,-0.00001528,0.00000037,0.00000787,-0.0000115
 3,-0.00011308,-0.00031887,0.00010274,0.00009630,0.00010086,0.00004473,
 -0.00003632,0.00002701,-0.00002379,-0.00001711,0.00003378,-0.00001906,
 0.00002625,0.00032826,-0.00002232,-0.00037624,-0.00101732,0.00003564,-
 0.00006052,0.00001057,0.00003892,-0.00008597,-0.00008248,-0.00002639,0
 .00003557,0.00000746,0.00001163,-0.00000292,-0.00000846,-0.00000363,0.
 00038644,0.00045714,-0.00059934,-0.00094827,-0.00935691,-0.00016623,0.
 04552644,0.33591665,0.00001489,-0.00006054,0.00002659,-0.00052110,-0.0
 0081832,0.00038678,0.00471803,0.02828239,0.00172494,-0.00001341,-0.000
 01851,-0.00001704,0.00079755,0.00086968,0.00120015,-0.00046190,-0.0001
 2703,0.00010728,0.00009006,0.00015477,-0.00005537,-0.00275798,0.001132
 62,-0.00410480,-0.00143854,-0.01536982,-0.05439182,-0.00031120,-0.0001
 9114,0.00003068,0.00041917,-0.00017038,0.00007702,0.00104902,-0.001595
 00,0.00073873,-0.00003268,0.00008403,0.00005416,-0.00000743,-0.0000022
 3,-0.00000058,0.00001753,0.00000629,0.00000742,0.00066194,-0.00062205,
 0.00126807,-0.00000369,0.00000912,-0.00000767,0.00000074,0.00000863,-0
 .00000312,-0.00016351,-0.00013405,0.00033983,-0.00000267,0.00044024,0.
 00030132,0.00002830,-0.00002069,0.00001039,0.00000021,-0.00000053,-0.0
 0000243,-0.00009059,0.00024233,0.00014851,0.00022272,0.00160202,0.0000
 9069,0.00009429,-0.00003576,0.00000672,0.00008737,-0.00001032,0.000037
 06,-0.00002204,0.00000018,-0.00000508,0.00000816,-0.00000051,0.0000010
 7,-0.00014442,0.00011856,0.00010923,-0.00425685,-0.02664406,0.00042219
 ,0.00201805,0.01287011,0.05149909\\-0.00000234,-0.00000763,0.00000420,
 0.00030605,-0.00171346,-0.00023587,-0.00008702,-0.00080473,0.00199709,
 -0.00000726,-0.00000017,-0.00000043,-0.00000102,-0.00000791,-0.0000081
 0,-0.00000022,0.00000659,0.00000109,0.00000429,-0.00001642,-0.00000086
 ,0.00017010,0.00002444,-0.00150137,0.00002937,-0.00000508,0.00000103,-
 0.00000661,-0.00000338,-0.00000231,0.00000931,0.00004477,0.00002059,-0
 .00039820,0.00246082,-0.00029221,-0.00000711,-0.00000458,-0.00000287,0
 .00000178,0.00000054,-0.00000683,-0.00000086,0.00000602,-0.00000078,-0
 .00000405,-0.00000050,0.00000759,-0.00000027,-0.00000138,0.00000197,-0
 .00000136,-0.00000628,0.00000710,-0.00000515,-0.00000329,-0.00000287,0
 .00000414,0.00000560,-0.00000397,-0.00000569,-0.00000113,0.00000177,-0
 .00000018,-0.00000433,0.00000106,-0.00000257,-0.00000468,0.00000013,-0
 .00000109,0.00000332,0.00000356,-0.00000334,0.00000357,0.00000225,0.00
 000051,0.00000537,-0.00000242,0.00000893,0.00000512,0.00000066,0.00000
 328,-0.00000226,0.00000462,-0.00000102,0.00001267,0.00000382,-0.000014
 09,0.00000143,-0.00000683,0.00001169,0.00000697,0.00000921\\\@


 BUT 'GLORY' DOESN'T MEAN 'A NICE KNOCK DOWN ARGUMENT', ALICE OBJECTED.
 WHEN I USE A WORD, HUMPTY DUMPTY SAID, IN A RATHER SCORNFUL TONE,
 IT MEANS JUST WHAT I CHOOSE IT TO MEAN....
 NEITHER MORE NOR LESS....
 THE QUESTION IS, SAID ALICE,
 WHETHER YOU CAN MAKE WORDS MEAN SO MANY DIFFERENT THINGS...
 THE QUESTION IS, SAID HUMPTY DUMPTY,
 WHICH IS TO BE MASTER....
 THAT IS ALL.....

 ALICE THROUGH THE LOOKING GLASS
 Job cpu time:       0 days 14 hours 53 minutes 45.7 seconds.
 Elapsed time:       0 days  0 hours 55 minutes 53.1 seconds.
 File lengths (MBytes):  RWF=    686 Int=      0 D2E=      0 Chk=     33 Scr=      1
 Normal termination of Gaussian 16 at Sun Nov  4 22:58:56 2018.
