 Entering Gaussian System, Link 0=g16
 Initial command:
 /apps/gaussian/g16a03/g16/l1.exe "/jobfs/local/2011959.r-man2/Gau-3831.inp" -scrdir="/jobfs/local/2011959.r-man2/"
 Entering Link 1 = /apps/gaussian/g16a03/g16/l1.exe PID=      3832.
  
 Copyright (c) 1988,1990,1992,1993,1995,1998,2003,2009,2016,
            Gaussian, Inc.  All Rights Reserved.
  
 This is part of the Gaussian(R) 16 program.  It is based on
 the Gaussian(R) 09 system (copyright 2009, Gaussian, Inc.),
 the Gaussian(R) 03 system (copyright 2003, Gaussian, Inc.),
 the Gaussian(R) 98 system (copyright 1998, Gaussian, Inc.),
 the Gaussian(R) 94 system (copyright 1995, Gaussian, Inc.),
 the Gaussian 92(TM) system (copyright 1992, Gaussian, Inc.),
 the Gaussian 90(TM) system (copyright 1990, Gaussian, Inc.),
 the Gaussian 88(TM) system (copyright 1988, Gaussian, Inc.),
 the Gaussian 86(TM) system (copyright 1986, Carnegie Mellon
 University), and the Gaussian 82(TM) system (copyright 1983,
 Carnegie Mellon University). Gaussian is a federally registered
 trademark of Gaussian, Inc.
  
 This software contains proprietary and confidential information,
 including trade secrets, belonging to Gaussian, Inc.
  
 This software is provided under written license and may be
 used, copied, transmitted, or stored only in accord with that
 written license.
  
 The following legend is applicable only to US Government
 contracts under FAR:
  
                    RESTRICTED RIGHTS LEGEND
  
 Use, reproduction and disclosure by the US Government is
 subject to restrictions as set forth in subparagraphs (a)
 and (c) of the Commercial Computer Software - Restricted
 Rights clause in FAR 52.227-19.
  
 Gaussian, Inc.
 340 Quinnipiac St., Bldg. 40, Wallingford CT 06492
  
  
 ---------------------------------------------------------------
 Warning -- This program may not be used in any manner that
 competes with the business of Gaussian, Inc. or will provide
 assistance to any competitor of Gaussian, Inc.  The licensee
 of this program is prohibited from giving any competitor of
 Gaussian, Inc. access to this program.  By using this program,
 the user acknowledges that Gaussian, Inc. is engaged in the
 business of creating and licensing software in the field of
 computational chemistry and represents and warrants to the
 licensee that it is not a competitor of Gaussian, Inc. and that
 it will not use this program in any manner prohibited above.
 ---------------------------------------------------------------
  

 Cite this work as:
 Gaussian 16, Revision A.03,
 M. J. Frisch, G. W. Trucks, H. B. Schlegel, G. E. Scuseria, 
 M. A. Robb, J. R. Cheeseman, G. Scalmani, V. Barone, 
 G. A. Petersson, H. Nakatsuji, X. Li, M. Caricato, A. V. Marenich, 
 J. Bloino, B. G. Janesko, R. Gomperts, B. Mennucci, H. P. Hratchian, 
 J. V. Ortiz, A. F. Izmaylov, J. L. Sonnenberg, D. Williams-Young, 
 F. Ding, F. Lipparini, F. Egidi, J. Goings, B. Peng, A. Petrone, 
 T. Henderson, D. Ranasinghe, V. G. Zakrzewski, J. Gao, N. Rega, 
 G. Zheng, W. Liang, M. Hada, M. Ehara, K. Toyota, R. Fukuda, 
 J. Hasegawa, M. Ishida, T. Nakajima, Y. Honda, O. Kitao, H. Nakai, 
 T. Vreven, K. Throssell, J. A. Montgomery, Jr., J. E. Peralta, 
 F. Ogliaro, M. J. Bearpark, J. J. Heyd, E. N. Brothers, K. N. Kudin, 
 V. N. Staroverov, T. A. Keith, R. Kobayashi, J. Normand, 
 K. Raghavachari, A. P. Rendell, J. C. Burant, S. S. Iyengar, 
 J. Tomasi, M. Cossi, J. M. Millam, M. Klene, C. Adamo, R. Cammi, 
 J. W. Ochterski, R. L. Martin, K. Morokuma, O. Farkas, 
 J. B. Foresman, and D. J. Fox, Gaussian, Inc., Wallingford CT, 2016.
 
 ******************************************
 Gaussian 16:  ES64L-G16RevA.03 25-Dec-2016
                 4-Nov-2018 
 ******************************************
 %mem=6000mb
 %nproc=24
 Will use up to   24 processors via shared memory.
 %chk=D_1a_4e_D_PSI.inp_extract_15.chk
 ----------------------------------------------------------------------
 #M062X/6-311++G(2d,2p) opt=ModRedundant freq=noraman SCRF=(Solvent=Wat
 er)
 ----------------------------------------------------------------------
 1/18=120,19=15,26=3,38=1/1,3;
 2/9=110,12=2,17=6,18=5,40=1/2;
 3/5=4,6=6,7=1212,11=2,25=1,30=1,70=2201,71=1,72=1,74=-55/1,2,3;
 4//1;
 5/5=2,38=5,53=1/2;
 6/7=2,8=2,9=2,10=2,28=1/1;
 7//1,2,3,16;
 1/18=20,19=15,26=3/3(2);
 2/9=110/2;
 99//99;
 2/9=110/2;
 3/5=4,6=6,7=1212,11=2,25=1,30=1,70=2205,71=1,72=1,74=-55/1,2,3;
 4/5=5,16=3,69=1/1;
 5/5=2,38=5,53=1/2;
 7//1,2,3,16;
 1/18=20,19=15,26=3/3(-5);
 2/9=110/2;
 6/7=2,8=2,9=2,10=2,19=2,28=1/1;
 99/9=1/99;
 ----------------------------
 D_1a_4e_D_PSI.inp_extract_15
 ----------------------------
 Symbolic Z-matrix:
 Charge =  0 Multiplicity = 1
 C                    -3.51655  -0.46596   0.78237 
 C                    -1.23866   0.14683  -0.89773 
 C                     1.09994   0.45298  -0.38038 
 C                    -3.2076    0.99248   0.44475 
 O                     2.87136  -1.17659  -0.52606 
 C                     3.69396  -0.50008   0.40655 
 C                    -2.24459  -1.29553   0.72977 
 C                     1.94087   1.27489   0.58637 
 C                     1.48921  -1.02214  -0.28266 
 C                     3.42913   0.99541   0.37083 
 O                    -1.58633  -1.16061  -0.5231 
 O                    -0.25888   0.67513  -0.04992 
 C                    -2.45431   1.06219  -0.88436 
 H                    -4.23411  -0.86492   0.06912 
 H                    -3.95622  -0.55437   1.77179 
 H                     1.27033   0.79119  -1.39897 
 H                    -4.12307   1.57241   0.37974 
 H                    -2.60872   1.43291   1.23758 
 H                     4.71503  -0.72946   0.13409 
 H                     3.50548  -0.89954   1.40056 
 H                    -1.56652  -1.00678   1.52564 
 H                    -2.45511  -2.35093   0.83383 
 H                     1.66037   1.00619   1.60215 
 H                     1.72345   2.33023   0.4556 
 H                     3.74719   1.39057  -0.59056 
 H                     4.02135   1.48676   1.13688 
 H                    -3.11072   0.741    -1.6886 
 H                    -2.13382   2.07374  -1.10902 
 H                    -0.83802   0.05818  -1.89776 
 H                     1.24188  -1.40799   0.70352 
 H                     0.98366  -1.61906  -1.02602 
 
 The following ModRedundant input section has been read:
 D       8       3      12       2 F                                           
 

 GradGradGradGradGradGradGradGradGradGradGradGradGradGradGradGradGradGrad
 Berny optimization.
 Initialization pass.
                           ----------------------------
                           !    Initial Parameters    !
                           ! (Angstroms and Degrees)  !
 --------------------------                            --------------------------
 ! Name  Definition              Value          Derivative Info.                !
 --------------------------------------------------------------------------------
 ! R1    R(1,4)                  1.5286         estimate D2E/DX2                !
 ! R2    R(1,7)                  1.5195         estimate D2E/DX2                !
 ! R3    R(1,14)                 1.0876         estimate D2E/DX2                !
 ! R4    R(1,15)                 1.0863         estimate D2E/DX2                !
 ! R5    R(2,11)                 1.4038         estimate D2E/DX2                !
 ! R6    R(2,12)                 1.3992         estimate D2E/DX2                !
 ! R7    R(2,13)                 1.5218         estimate D2E/DX2                !
 ! R8    R(2,29)                 1.0809         estimate D2E/DX2                !
 ! R9    R(3,8)                  1.5223         estimate D2E/DX2                !
 ! R10   R(3,9)                  1.5287         estimate D2E/DX2                !
 ! R11   R(3,12)                 1.416          estimate D2E/DX2                !
 ! R12   R(3,16)                 1.0867         estimate D2E/DX2                !
 ! R13   R(4,13)                 1.5293         estimate D2E/DX2                !
 ! R14   R(4,17)                 1.0856         estimate D2E/DX2                !
 ! R15   R(4,18)                 1.0868         estimate D2E/DX2                !
 ! R16   R(5,6)                  1.4157         estimate D2E/DX2                !
 ! R17   R(5,9)                  1.4119         estimate D2E/DX2                !
 ! R18   R(6,10)                 1.5192         estimate D2E/DX2                !
 ! R19   R(6,19)                 1.0814         estimate D2E/DX2                !
 ! R20   R(6,20)                 1.0877         estimate D2E/DX2                !
 ! R21   R(7,11)                 1.4217         estimate D2E/DX2                !
 ! R22   R(7,21)                 1.0847         estimate D2E/DX2                !
 ! R23   R(7,22)                 1.0812         estimate D2E/DX2                !
 ! R24   R(8,10)                 1.5295         estimate D2E/DX2                !
 ! R25   R(8,23)                 1.0875         estimate D2E/DX2                !
 ! R26   R(8,24)                 1.0854         estimate D2E/DX2                !
 ! R27   R(9,30)                 1.0875         estimate D2E/DX2                !
 ! R28   R(9,31)                 1.0791         estimate D2E/DX2                !
 ! R29   R(10,25)                1.087          estimate D2E/DX2                !
 ! R30   R(10,26)                1.0858         estimate D2E/DX2                !
 ! R31   R(13,27)                1.0867         estimate D2E/DX2                !
 ! R32   R(13,28)                1.0846         estimate D2E/DX2                !
 ! A1    A(4,1,7)              110.1258         estimate D2E/DX2                !
 ! A2    A(4,1,14)             109.7863         estimate D2E/DX2                !
 ! A3    A(4,1,15)             111.1391         estimate D2E/DX2                !
 ! A4    A(7,1,14)             109.2275         estimate D2E/DX2                !
 ! A5    A(7,1,15)             109.0203         estimate D2E/DX2                !
 ! A6    A(14,1,15)            107.4831         estimate D2E/DX2                !
 ! A7    A(11,2,12)            111.3079         estimate D2E/DX2                !
 ! A8    A(11,2,13)            111.1018         estimate D2E/DX2                !
 ! A9    A(11,2,29)            105.2071         estimate D2E/DX2                !
 ! A10   A(12,2,13)            109.0825         estimate D2E/DX2                !
 ! A11   A(12,2,29)            109.3897         estimate D2E/DX2                !
 ! A12   A(13,2,29)            110.7033         estimate D2E/DX2                !
 ! A13   A(8,3,9)              109.86           estimate D2E/DX2                !
 ! A14   A(8,3,12)             107.2897         estimate D2E/DX2                !
 ! A15   A(8,3,16)             109.9139         estimate D2E/DX2                !
 ! A16   A(9,3,12)             112.3847         estimate D2E/DX2                !
 ! A17   A(9,3,16)             108.6808         estimate D2E/DX2                !
 ! A18   A(12,3,16)            108.6869         estimate D2E/DX2                !
 ! A19   A(1,4,13)             109.5728         estimate D2E/DX2                !
 ! A20   A(1,4,17)             110.6387         estimate D2E/DX2                !
 ! A21   A(1,4,18)             109.6876         estimate D2E/DX2                !
 ! A22   A(13,4,17)            109.8138         estimate D2E/DX2                !
 ! A23   A(13,4,18)            110.1265         estimate D2E/DX2                !
 ! A24   A(17,4,18)            106.9696         estimate D2E/DX2                !
 ! A25   A(6,5,9)              113.7655         estimate D2E/DX2                !
 ! A26   A(5,6,10)             110.7099         estimate D2E/DX2                !
 ! A27   A(5,6,19)             106.338          estimate D2E/DX2                !
 ! A28   A(5,6,20)             109.0161         estimate D2E/DX2                !
 ! A29   A(10,6,19)            111.5604         estimate D2E/DX2                !
 ! A30   A(10,6,20)            110.6587         estimate D2E/DX2                !
 ! A31   A(19,6,20)            108.4189         estimate D2E/DX2                !
 ! A32   A(1,7,11)             111.4864         estimate D2E/DX2                !
 ! A33   A(1,7,21)             110.6435         estimate D2E/DX2                !
 ! A34   A(1,7,22)             111.5068         estimate D2E/DX2                !
 ! A35   A(11,7,21)            109.3837         estimate D2E/DX2                !
 ! A36   A(11,7,22)            105.5218         estimate D2E/DX2                !
 ! A37   A(21,7,22)            108.1163         estimate D2E/DX2                !
 ! A38   A(3,8,10)             110.4482         estimate D2E/DX2                !
 ! A39   A(3,8,23)             108.4992         estimate D2E/DX2                !
 ! A40   A(3,8,24)             109.742          estimate D2E/DX2                !
 ! A41   A(10,8,23)            109.7215         estimate D2E/DX2                !
 ! A42   A(10,8,24)            110.8299         estimate D2E/DX2                !
 ! A43   A(23,8,24)            107.5238         estimate D2E/DX2                !
 ! A44   A(3,9,5)              110.1087         estimate D2E/DX2                !
 ! A45   A(3,9,30)             110.0244         estimate D2E/DX2                !
 ! A46   A(3,9,31)             111.7423         estimate D2E/DX2                !
 ! A47   A(5,9,30)             109.8869         estimate D2E/DX2                !
 ! A48   A(5,9,31)             106.2221         estimate D2E/DX2                !
 ! A49   A(30,9,31)            108.7763         estimate D2E/DX2                !
 ! A50   A(6,10,8)             110.2538         estimate D2E/DX2                !
 ! A51   A(6,10,25)            109.1266         estimate D2E/DX2                !
 ! A52   A(6,10,26)            109.4991         estimate D2E/DX2                !
 ! A53   A(8,10,25)            110.0547         estimate D2E/DX2                !
 ! A54   A(8,10,26)            110.4014         estimate D2E/DX2                !
 ! A55   A(25,10,26)           107.4503         estimate D2E/DX2                !
 ! A56   A(2,11,7)             115.9916         estimate D2E/DX2                !
 ! A57   A(2,12,3)             118.1201         estimate D2E/DX2                !
 ! A58   A(2,13,4)             111.9436         estimate D2E/DX2                !
 ! A59   A(2,13,27)            107.3523         estimate D2E/DX2                !
 ! A60   A(2,13,28)            108.8508         estimate D2E/DX2                !
 ! A61   A(4,13,27)            109.4025         estimate D2E/DX2                !
 ! A62   A(4,13,28)            111.5966         estimate D2E/DX2                !
 ! A63   A(27,13,28)           107.5086         estimate D2E/DX2                !
 ! D1    D(7,1,4,13)            52.9695         estimate D2E/DX2                !
 ! D2    D(7,1,4,17)           174.1905         estimate D2E/DX2                !
 ! D3    D(7,1,4,18)           -68.0339         estimate D2E/DX2                !
 ! D4    D(14,1,4,13)          -67.3337         estimate D2E/DX2                !
 ! D5    D(14,1,4,17)           53.8873         estimate D2E/DX2                !
 ! D6    D(14,1,4,18)          171.6629         estimate D2E/DX2                !
 ! D7    D(15,1,4,13)          173.8888         estimate D2E/DX2                !
 ! D8    D(15,1,4,17)          -64.8901         estimate D2E/DX2                !
 ! D9    D(15,1,4,18)           52.8855         estimate D2E/DX2                !
 ! D10   D(4,1,7,11)           -54.7045         estimate D2E/DX2                !
 ! D11   D(4,1,7,21)            67.264          estimate D2E/DX2                !
 ! D12   D(4,1,7,22)          -172.3646         estimate D2E/DX2                !
 ! D13   D(14,1,7,11)           65.9351         estimate D2E/DX2                !
 ! D14   D(14,1,7,21)         -172.0963         estimate D2E/DX2                !
 ! D15   D(14,1,7,22)          -51.7249         estimate D2E/DX2                !
 ! D16   D(15,1,7,11)         -176.8854         estimate D2E/DX2                !
 ! D17   D(15,1,7,21)          -54.9169         estimate D2E/DX2                !
 ! D18   D(15,1,7,22)           65.4545         estimate D2E/DX2                !
 ! D19   D(12,2,11,7)           66.5563         estimate D2E/DX2                !
 ! D20   D(13,2,11,7)          -55.2237         estimate D2E/DX2                !
 ! D21   D(29,2,11,7)         -175.0644         estimate D2E/DX2                !
 ! D22   D(11,2,12,3)           88.7843         estimate D2E/DX2                !
 ! D23   D(13,2,12,3)         -148.27           estimate D2E/DX2                !
 ! D24   D(29,2,12,3)          -27.0495         estimate D2E/DX2                !
 ! D25   D(11,2,13,4)           52.1555         estimate D2E/DX2                !
 ! D26   D(11,2,13,27)         -67.9182         estimate D2E/DX2                !
 ! D27   D(11,2,13,28)         175.9944         estimate D2E/DX2                !
 ! D28   D(12,2,13,4)          -70.9133         estimate D2E/DX2                !
 ! D29   D(12,2,13,27)         169.013          estimate D2E/DX2                !
 ! D30   D(12,2,13,28)          52.9256         estimate D2E/DX2                !
 ! D31   D(29,2,13,4)          168.6696         estimate D2E/DX2                !
 ! D32   D(29,2,13,27)          48.5959         estimate D2E/DX2                !
 ! D33   D(29,2,13,28)         -67.4914         estimate D2E/DX2                !
 ! D34   D(9,3,8,10)            52.723          estimate D2E/DX2                !
 ! D35   D(9,3,8,23)           -67.5761         estimate D2E/DX2                !
 ! D36   D(9,3,8,24)           175.2038         estimate D2E/DX2                !
 ! D37   D(12,3,8,10)          175.1686         estimate D2E/DX2                !
 ! D38   D(12,3,8,23)           54.8695         estimate D2E/DX2                !
 ! D39   D(12,3,8,24)          -62.3506         estimate D2E/DX2                !
 ! D40   D(16,3,8,10)          -66.8189         estimate D2E/DX2                !
 ! D41   D(16,3,8,23)          172.8819         estimate D2E/DX2                !
 ! D42   D(16,3,8,24)           55.6619         estimate D2E/DX2                !
 ! D43   D(8,3,9,5)            -56.3775         estimate D2E/DX2                !
 ! D44   D(8,3,9,30)            64.8869         estimate D2E/DX2                !
 ! D45   D(8,3,9,31)          -174.1713         estimate D2E/DX2                !
 ! D46   D(12,3,9,5)          -175.7518         estimate D2E/DX2                !
 ! D47   D(12,3,9,30)          -54.4875         estimate D2E/DX2                !
 ! D48   D(12,3,9,31)           66.4543         estimate D2E/DX2                !
 ! D49   D(16,3,9,5)            63.9148         estimate D2E/DX2                !
 ! D50   D(16,3,9,30)         -174.8208         estimate D2E/DX2                !
 ! D51   D(16,3,9,31)          -53.879          estimate D2E/DX2                !
 ! D52   D(8,3,12,2)           172.7593         Frozen                          !
 ! D53   D(9,3,12,2)           -66.3772         estimate D2E/DX2                !
 ! D54   D(16,3,12,2)           53.9525         estimate D2E/DX2                !
 ! D55   D(1,4,13,2)           -52.1961         estimate D2E/DX2                !
 ! D56   D(1,4,13,27)           66.6723         estimate D2E/DX2                !
 ! D57   D(1,4,13,28)         -174.4809         estimate D2E/DX2                !
 ! D58   D(17,4,13,2)         -173.9137         estimate D2E/DX2                !
 ! D59   D(17,4,13,27)         -55.0453         estimate D2E/DX2                !
 ! D60   D(17,4,13,28)          63.8016         estimate D2E/DX2                !
 ! D61   D(18,4,13,2)           68.5414         estimate D2E/DX2                !
 ! D62   D(18,4,13,27)        -172.5902         estimate D2E/DX2                !
 ! D63   D(18,4,13,28)         -53.7434         estimate D2E/DX2                !
 ! D64   D(9,5,6,10)           -60.8647         estimate D2E/DX2                !
 ! D65   D(9,5,6,19)           177.7878         estimate D2E/DX2                !
 ! D66   D(9,5,6,20)            61.0895         estimate D2E/DX2                !
 ! D67   D(6,5,9,3)             61.5367         estimate D2E/DX2                !
 ! D68   D(6,5,9,30)           -59.8097         estimate D2E/DX2                !
 ! D69   D(6,5,9,31)          -177.308          estimate D2E/DX2                !
 ! D70   D(5,6,10,8)            54.655          estimate D2E/DX2                !
 ! D71   D(5,6,10,25)          -66.3319         estimate D2E/DX2                !
 ! D72   D(5,6,10,26)          176.3124         estimate D2E/DX2                !
 ! D73   D(19,6,10,8)          172.8678         estimate D2E/DX2                !
 ! D74   D(19,6,10,25)          51.8809         estimate D2E/DX2                !
 ! D75   D(19,6,10,26)         -65.4748         estimate D2E/DX2                !
 ! D76   D(20,6,10,8)          -66.331          estimate D2E/DX2                !
 ! D77   D(20,6,10,25)         172.6821         estimate D2E/DX2                !
 ! D78   D(20,6,10,26)          55.3264         estimate D2E/DX2                !
 ! D79   D(1,7,11,2)            57.2515         estimate D2E/DX2                !
 ! D80   D(21,7,11,2)          -65.442          estimate D2E/DX2                !
 ! D81   D(22,7,11,2)          178.4652         estimate D2E/DX2                !
 ! D82   D(3,8,10,6)           -51.9992         estimate D2E/DX2                !
 ! D83   D(3,8,10,25)           68.4316         estimate D2E/DX2                !
 ! D84   D(3,8,10,26)         -173.1197         estimate D2E/DX2                !
 ! D85   D(23,8,10,6)           67.5644         estimate D2E/DX2                !
 ! D86   D(23,8,10,25)        -172.0048         estimate D2E/DX2                !
 ! D87   D(23,8,10,26)         -53.5562         estimate D2E/DX2                !
 ! D88   D(24,8,10,6)         -173.8404         estimate D2E/DX2                !
 ! D89   D(24,8,10,25)         -53.4096         estimate D2E/DX2                !
 ! D90   D(24,8,10,26)          65.0391         estimate D2E/DX2                !
 --------------------------------------------------------------------------------
 Trust Radius=3.00D-01 FncErr=1.00D-07 GrdErr=1.00D-06 EigMax=2.50D+02 EigMin=1.00D-04
 Number of steps in this run=    186 maximum allowed number of steps=    186.
 GradGradGradGradGradGradGradGradGradGradGradGradGradGradGradGradGradGrad

                          Input orientation:                          
 ---------------------------------------------------------------------
 Center     Atomic      Atomic             Coordinates (Angstroms)
 Number     Number       Type             X           Y           Z
 ---------------------------------------------------------------------
      1          6           0       -3.516545   -0.465955    0.782368
      2          6           0       -1.238657    0.146826   -0.897726
      3          6           0        1.099940    0.452982   -0.380383
      4          6           0       -3.207603    0.992480    0.444745
      5          8           0        2.871355   -1.176586   -0.526056
      6          6           0        3.693960   -0.500076    0.406554
      7          6           0       -2.244593   -1.295532    0.729770
      8          6           0        1.940874    1.274890    0.586373
      9          6           0        1.489209   -1.022140   -0.282664
     10          6           0        3.429132    0.995409    0.370829
     11          8           0       -1.586329   -1.160611   -0.523104
     12          8           0       -0.258882    0.675129   -0.049919
     13          6           0       -2.454314    1.062186   -0.884355
     14          1           0       -4.234107   -0.864924    0.069115
     15          1           0       -3.956224   -0.554367    1.771785
     16          1           0        1.270334    0.791193   -1.398970
     17          1           0       -4.123070    1.572414    0.379736
     18          1           0       -2.608723    1.432908    1.237580
     19          1           0        4.715026   -0.729460    0.134088
     20          1           0        3.505478   -0.899537    1.400562
     21          1           0       -1.566518   -1.006776    1.525643
     22          1           0       -2.455106   -2.350930    0.833833
     23          1           0        1.660369    1.006187    1.602153
     24          1           0        1.723445    2.330227    0.455598
     25          1           0        3.747194    1.390573   -0.590556
     26          1           0        4.021354    1.486756    1.136875
     27          1           0       -3.110717    0.740999   -1.688598
     28          1           0       -2.133818    2.073738   -1.109016
     29          1           0       -0.838022    0.058183   -1.897756
     30          1           0        1.241876   -1.407990    0.703519
     31          1           0        0.983657   -1.619062   -1.026018
 ---------------------------------------------------------------------
                    Distance matrix (angstroms):
                    1          2          3          4          5
     1  C    0.000000
     2  C    2.896030   0.000000
     3  C    4.848543   2.414624   0.000000
     4  C    1.528551   2.528657   4.418916   0.000000
     5  O    6.559134   4.333792   2.411353   6.526947   0.000000
     6  C    7.220373   5.142989   2.873418   7.061215   1.415665
     7  C    1.519482   2.396048   3.933909   2.498725   5.269172
     8  C    5.731699   3.685715   1.522275   5.158161   2.848338
     9  C    5.147932   3.030847   1.528746   5.162157   1.411886
    10  C    7.109668   4.910965   2.506727   6.637147   2.415177
    11  O    2.431571   1.403784   3.136892   2.863750   4.457714
    12  O    3.550654   1.399228   1.415964   3.006719   3.667961
    13  C    2.498302   1.521803   3.641132   1.529317   5.788197
    14  H    1.087567   3.306228   5.512802   2.155170   7.137153
    15  H    1.086315   3.873388   5.586714   2.171222   7.230703
    16  H    5.408592   2.638464   1.086711   4.846826   2.682797
    17  H    2.164471   3.461798   5.395437   1.085647   7.569639
    18  H    2.153379   2.844401   4.163201   1.086840   6.320690
    19  H    8.261263   6.105642   3.838189   8.113546   2.008690
    20  H    7.062504   5.374367   3.284461   7.039799   2.047126
    21  H    2.155818   2.703888   3.588012   2.803306   4.892139
    22  H    2.163893   3.273657   4.687707   3.449062   5.621349
    23  H    5.444234   3.923296   2.133205   5.003692   3.280283
    24  H    5.948353   3.920813   2.147480   5.109297   3.818256
    25  H    7.621911   5.147812   2.816239   7.042693   2.713219
    26  H    7.794785   5.796786   3.450423   7.278817   3.343834
    27  H    2.779767   2.117340   4.418598   2.150298   6.388570
    28  H    3.455330   2.135169   3.689844   2.176306   5.996349
    29  H    3.825215   1.080938   2.492786   3.460511   4.143150
    30  H    4.851414   3.336837   2.158288   5.062320   2.054411
    31  H    4.985151   2.841390   2.173415   5.152665   2.002286
                    6          7          8          9         10
     6  C    0.000000
     7  C    6.000303   0.000000
     8  C    2.501230   4.913834   0.000000
     9  C    2.368227   3.878278   2.497113   0.000000
    10  C    1.519173   6.129307   1.529536   2.874171   0.000000
    11  O    5.402039   1.421692   4.427614   3.088028   5.531942
    12  O    4.149028   2.904216   2.367173   2.447594   3.725729
    13  C    6.473668   2.864999   4.639608   4.500869   6.016218
    14  H    7.943628   2.140106   6.555665   5.736272   7.891584
    15  H    7.771237   2.136540   6.287062   5.838862   7.675153
    16  H    3.286526   4.608760   2.150622   2.140613   2.798982
    17  H    8.087144   3.446203   6.074754   6.218373   7.574217
    18  H    6.644610   2.799080   4.598682   5.013128   6.115420
    19  H    1.081402   7.007965   3.452231   3.265768   2.164427
    20  H    1.087725   5.802593   2.799825   2.629377   2.158008
    21  H    5.402012   1.084703   4.288359   3.550729   5.504440
    22  H    6.435778   1.081208   5.703722   4.309277   6.785029
    23  H    2.798889   4.616025   1.087517   2.774156   2.155179
    24  H    3.449051   5.382065   1.085409   3.440678   2.167555
    25  H    2.138134   6.697756   2.159013   3.318807   1.087005
    26  H    2.141975   6.867966   2.162484   3.836849   1.085806
    27  H    7.227279   3.278130   5.565888   5.122951   6.861165
    28  H    6.548623   3.839972   4.485044   4.836698   5.856547
    29  H    5.114720   3.273359   3.920910   3.031769   4.922751
    30  H    2.631580   3.488381   2.774917   1.087479   3.266665
    31  H    3.263454   3.689046   3.448337   1.079108   3.842784
                   11         12         13         14         15
    11  O    0.000000
    12  O    2.314295   0.000000
    13  C    2.413447   2.380340   0.000000
    14  H    2.729264   4.264780   2.791151   0.000000
    15  H    3.354169   4.301233   3.453123   1.752926   0.000000
    16  H    3.568922   2.042526   3.769784   5.932695   6.259483
    17  H    3.836613   3.990197   2.154763   2.459559   2.547319
    18  H    3.297217   2.784535   2.159603   3.047493   2.459755
    19  H    6.350186   5.171701   7.459669   8.950394   8.826284
    20  H    5.449326   4.330574   6.677449   7.853351   7.478900
    21  H    2.054610   2.649738   3.298011   3.042635   2.444577
    22  H    2.003225   3.842063   3.821195   2.440871   2.522052
    23  H    4.444410   2.553912   4.807959   6.371508   5.831828
    24  H    4.909013   2.631448   4.566954   6.771321   6.504758
    25  H    5.912661   4.105215   6.217142   8.320072   8.288914
    26  H    6.419516   4.515267   6.797051   8.650037   8.258998
    27  H    2.701528   3.289768   1.086661   2.632594   3.790397
    28  H    3.332274   2.567719   1.084633   3.799334   4.304313
    29  H    1.983706   2.032370   2.155784   4.031638   4.854269
    30  H    3.092660   2.675692   4.720692   5.539294   5.374952
    31  H    2.658557   2.785675   4.362202   5.384524   5.776132
                   16         17         18         19         20
    16  H    0.000000
    17  H    5.732618   0.000000
    18  H    4.733949   1.746026   0.000000
    19  H    4.065533   9.136241   7.715622   0.000000
    20  H    3.961290   8.083772   6.546015   1.759514   0.000000
    21  H    4.453514   3.808055   2.668563   6.439808   5.074671
    22  H    5.360714   4.287299   3.808417   7.384416   6.160867
    23  H    3.033989   5.938273   4.305828   3.807705   2.660235
    24  H    2.452215   5.895912   4.492700   4.291225   3.807883
    25  H    2.673504   7.931935   6.613740   2.440563   3.044270
    26  H    3.805579   8.179990   6.631060   2.529501   2.455617
    27  H    4.390901   2.448288   3.048484   8.168640   7.483870
    28  H    3.649280   2.534725   2.478449   7.503992   6.851278
    29  H    2.287194   4.274506   3.854294   5.965326   5.537339
    30  H    3.042643   6.145754   4.814876   3.584331   2.422455
    31  H    2.455729   6.183876   5.229110   4.007537   3.572896
                   21         22         23         24         25
    21  H    0.000000
    22  H    1.753551   0.000000
    23  H    3.804034   5.366347   0.000000
    24  H    4.806708   6.286222   1.752612   0.000000
    25  H    6.201703   7.382158   3.051322   2.464335   0.000000
    26  H    6.131326   7.534202   2.453911   2.540860   1.751694
    27  H    3.971223   4.043824   5.801950   5.521987   6.975571
    28  H    4.093021   4.843096   4.783927   4.170405   5.943216
    29  H    3.658484   3.985018   4.403411   4.154705   4.950580
    30  H    2.953631   3.817564   2.609776   3.777253   3.972808
    31  H    3.659134   3.977407   3.775865   4.282447   4.109096
                   26         27         28         29         30
    26  H    0.000000
    27  H    7.707522   0.000000
    28  H    6.578352   1.751125   0.000000
    29  H    5.904519   2.382253   2.522630   0.000000
    30  H    4.036440   5.411603   5.177164   3.638993   0.000000
    31  H    4.853021   4.772085   4.833457   2.625184   1.761399
                   31
    31  H    0.000000
 Stoichiometry    C10H18O3
 Framework group  C1[X(C10H18O3)]
 Deg. of freedom    87
 Full point group                 C1      NOp   1
 Largest Abelian subgroup         C1      NOp   1
 Largest concise Abelian subgroup C1      NOp   1
                         Standard orientation:                         
 ---------------------------------------------------------------------
 Center     Atomic      Atomic             Coordinates (Angstroms)
 Number     Number       Type             X           Y           Z
 ---------------------------------------------------------------------
      1          6           0        3.516545   -0.465955   -0.782368
      2          6           0        1.238657    0.146826    0.897726
      3          6           0       -1.099940    0.452982    0.380383
      4          6           0        3.207603    0.992480   -0.444745
      5          8           0       -2.871355   -1.176586    0.526056
      6          6           0       -3.693960   -0.500076   -0.406554
      7          6           0        2.244593   -1.295532   -0.729770
      8          6           0       -1.940874    1.274890   -0.586373
      9          6           0       -1.489209   -1.022140    0.282664
     10          6           0       -3.429132    0.995409   -0.370829
     11          8           0        1.586329   -1.160611    0.523104
     12          8           0        0.258882    0.675129    0.049919
     13          6           0        2.454314    1.062186    0.884355
     14          1           0        4.234107   -0.864924   -0.069115
     15          1           0        3.956224   -0.554367   -1.771785
     16          1           0       -1.270334    0.791193    1.398970
     17          1           0        4.123070    1.572414   -0.379736
     18          1           0        2.608723    1.432908   -1.237580
     19          1           0       -4.715026   -0.729460   -0.134088
     20          1           0       -3.505478   -0.899537   -1.400562
     21          1           0        1.566518   -1.006776   -1.525643
     22          1           0        2.455106   -2.350930   -0.833833
     23          1           0       -1.660369    1.006187   -1.602153
     24          1           0       -1.723445    2.330227   -0.455598
     25          1           0       -3.747194    1.390573    0.590556
     26          1           0       -4.021354    1.486756   -1.136875
     27          1           0        3.110717    0.740999    1.688598
     28          1           0        2.133818    2.073738    1.109016
     29          1           0        0.838022    0.058183    1.897756
     30          1           0       -1.241876   -1.407990   -0.703519
     31          1           0       -0.983657   -1.619062    1.026018
 ---------------------------------------------------------------------
 Rotational constants (GHZ):           1.9210532           0.4129413           0.3807870
 Standard basis: 6-311++G(2d,2p) (5D, 7F)
 There are   557 symmetry adapted cartesian basis functions of A   symmetry.
 There are   531 symmetry adapted basis functions of A   symmetry.
   531 basis functions,   762 primitive gaussians,   557 cartesian basis functions
    51 alpha electrons       51 beta electrons
       nuclear repulsion energy       894.0766536193 Hartrees.
 NAtoms=   31 NActive=   31 NUniq=   31 SFac= 1.00D+00 NAtFMM=   60 NAOKFM=F Big=F
 Integral buffers will be    131072 words long.
 Raffenetti 2 integral format.
 Two-electron integral symmetry is turned on.
 ------------------------------------------------------------------------------
 Polarizable Continuum Model (PCM)
 =================================
 Model                : PCM.
 Atomic radii         : UFF (Universal Force Field).
 Polarization charges : Total charges.
 Charge compensation  : None.
 Solution method      : On-the-fly selection.
 Cavity type          : Scaled VdW (van der Waals Surface) (Alpha=1.100).
 Cavity algorithm     : GePol (No added spheres)
                        Default sphere list used, NSphG=   31.
                        Lebedev-Laikov grids with approx.  5.0 points / Ang**2.
                        Smoothing algorithm: York/Karplus (Gamma=1.0000).
                        Polarization charges: spherical gaussians, with
                                              point-specific exponents (IZeta= 3).
                        Self-potential: point-specific (ISelfS= 7).
                        Self-field    : sphere-specific E.n sum rule (ISelfD= 2).
 1st derivatives      : Analytical E(r).r(x)/FMM algorithm (CHGder, D1EAlg=3).
                        Cavity 1st derivative terms included.
 Solvent              : Water, Eps=  78.355300 Eps(inf)=   1.777849
 ------------------------------------------------------------------------------
 One-electron integrals computed using PRISM.
 NBasis=   531 RedAO= T EigKep=  5.23D-06  NBF=   531
 NBsUse=   531 1.00D-06 EigRej= -1.00D+00 NBFU=   531
 ExpMin= 3.60D-02 ExpMax= 8.59D+03 ExpMxC= 1.30D+03 IAcc=3 IRadAn=         5 AccDes= 0.00D+00
 Harris functional with IExCor= 1009 and IRadAn=       5 diagonalized for initial guess.
 HarFok:  IExCor= 1009 AccDes= 0.00D+00 IRadAn=         5 IDoV= 1 UseB2=F ITyADJ=14
 ICtDFT=  3500011 ScaDFX=  1.000000  1.000000  1.000000  1.000000
 FoFCou: FMM=F IPFlag=           0 FMFlag=      100000 FMFlg1=           0
         NFxFlg=           0 DoJE=T BraDBF=F KetDBF=T FulRan=T
         wScrn=  0.000000 ICntrl=       500 IOpCl=  0 I1Cent=   200000004 NGrid=           0
         NMat0=    1 NMatS0=      1 NMatT0=    0 NMatD0=    1 NMtDS0=    0 NMtDT0=    0
 Petite list used in FoFCou.
 Requested convergence on RMS density matrix=1.00D-08 within 128 cycles.
 Requested convergence on MAX density matrix=1.00D-06.
 Requested convergence on             energy=1.00D-06.
 No special actions if energy rises.
 Inv3:  Mode=1 IEnd=    12941787.
 Iteration    1 A*A^-1 deviation from unit magnitude is 5.66D-15 for   2075.
 Iteration    1 A*A^-1 deviation from orthogonality  is 2.35D-15 for   2048    909.
 Iteration    1 A^-1*A deviation from unit magnitude is 5.66D-15 for   2075.
 Iteration    1 A^-1*A deviation from orthogonality  is 2.56D-15 for   2061   1986.
 Error on total polarization charges =  0.01490
 SCF Done:  E(RM062X) =  -617.501961829     A.U. after   12 cycles
            NFock= 12  Conv=0.50D-08     -V/T= 2.0035

 **********************************************************************

            Population analysis using the SCF density.

 **********************************************************************

 Orbital symmetries:
       Occupied  (A) (A) (A) (A) (A) (A) (A) (A) (A) (A) (A) (A)
                 (A) (A) (A) (A) (A) (A) (A) (A) (A) (A) (A) (A)
                 (A) (A) (A) (A) (A) (A) (A) (A) (A) (A) (A) (A)
                 (A) (A) (A) (A) (A) (A) (A) (A) (A) (A) (A) (A)
                 (A) (A) (A)
       Virtual   (A) (A) (A) (A) (A) (A) (A) (A) (A) (A) (A) (A)
                 (A) (A) (A) (A) (A) (A) (A) (A) (A) (A) (A) (A)
                 (A) (A) (A) (A) (A) (A) (A) (A) (A) (A) (A) (A)
                 (A) (A) (A) (A) (A) (A) (A) (A) (A) (A) (A) (A)
                 (A) (A) (A) (A) (A) (A) (A) (A) (A) (A) (A) (A)
                 (A) (A) (A) (A) (A) (A) (A) (A) (A) (A) (A) (A)
                 (A) (A) (A) (A) (A) (A) (A) (A) (A) (A) (A) (A)
                 (A) (A) (A) (A) (A) (A) (A) (A) (A) (A) (A) (A)
                 (A) (A) (A) (A) (A) (A) (A) (A) (A) (A) (A) (A)
                 (A) (A) (A) (A) (A) (A) (A) (A) (A) (A) (A) (A)
                 (A) (A) (A) (A) (A) (A) (A) (A) (A) (A) (A) (A)
                 (A) (A) (A) (A) (A) (A) (A) (A) (A) (A) (A) (A)
                 (A) (A) (A) (A) (A) (A) (A) (A) (A) (A) (A) (A)
                 (A) (A) (A) (A) (A) (A) (A) (A) (A) (A) (A) (A)
                 (A) (A) (A) (A) (A) (A) (A) (A) (A) (A) (A) (A)
                 (A) (A) (A) (A) (A) (A) (A) (A) (A) (A) (A) (A)
                 (A) (A) (A) (A) (A) (A) (A) (A) (A) (A) (A) (A)
                 (A) (A) (A) (A) (A) (A) (A) (A) (A) (A) (A) (A)
                 (A) (A) (A) (A) (A) (A) (A) (A) (A) (A) (A) (A)
                 (A) (A) (A) (A) (A) (A) (A) (A) (A) (A) (A) (A)
                 (A) (A) (A) (A) (A) (A) (A) (A) (A) (A) (A) (A)
                 (A) (A) (A) (A) (A) (A) (A) (A) (A) (A) (A) (A)
                 (A) (A) (A) (A) (A) (A) (A) (A) (A) (A) (A) (A)
                 (A) (A) (A) (A) (A) (A) (A) (A) (A) (A) (A) (A)
                 (A) (A) (A) (A) (A) (A) (A) (A) (A) (A) (A) (A)
                 (A) (A) (A) (A) (A) (A) (A) (A) (A) (A) (A) (A)
                 (A) (A) (A) (A) (A) (A) (A) (A) (A) (A) (A) (A)
                 (A) (A) (A) (A) (A) (A) (A) (A) (A) (A) (A) (A)
                 (A) (A) (A) (A) (A) (A) (A) (A) (A) (A) (A) (A)
                 (A) (A) (A) (A) (A) (A) (A) (A) (A) (A) (A) (A)
                 (A) (A) (A) (A) (A) (A) (A) (A) (A) (A) (A) (A)
                 (A) (A) (A) (A) (A) (A) (A) (A) (A) (A) (A) (A)
                 (A) (A) (A) (A) (A) (A) (A) (A) (A) (A) (A) (A)
                 (A) (A) (A) (A) (A) (A) (A) (A) (A) (A) (A) (A)
                 (A) (A) (A) (A) (A) (A) (A) (A) (A) (A) (A) (A)
                 (A) (A) (A) (A) (A) (A) (A) (A) (A) (A) (A) (A)
                 (A) (A) (A) (A) (A) (A) (A) (A) (A) (A) (A) (A)
                 (A) (A) (A) (A) (A) (A) (A) (A) (A) (A) (A) (A)
                 (A) (A) (A) (A) (A) (A) (A) (A) (A) (A) (A) (A)
                 (A) (A) (A) (A) (A) (A) (A) (A) (A) (A) (A) (A)
 The electronic state is 1-A.
 Alpha  occ. eigenvalues --  -19.63120 -19.62850 -19.62646 -10.63426 -10.58819
 Alpha  occ. eigenvalues --  -10.57815 -10.57695 -10.57583 -10.53193 -10.53114
 Alpha  occ. eigenvalues --  -10.52965 -10.52912 -10.52732  -1.20178  -1.16681
 Alpha  occ. eigenvalues --   -1.13690  -0.90996  -0.89792  -0.87342  -0.84749
 Alpha  occ. eigenvalues --   -0.74895  -0.74176  -0.73061  -0.71251  -0.66033
 Alpha  occ. eigenvalues --   -0.63944  -0.60265  -0.58633  -0.57384  -0.56183
 Alpha  occ. eigenvalues --   -0.54011  -0.53341  -0.52758  -0.51239  -0.49921
 Alpha  occ. eigenvalues --   -0.48271  -0.46882  -0.45793  -0.45227  -0.45007
 Alpha  occ. eigenvalues --   -0.43914  -0.43108  -0.40793  -0.40301  -0.39580
 Alpha  occ. eigenvalues --   -0.38468  -0.37529  -0.36292  -0.35503  -0.33134
 Alpha  occ. eigenvalues --   -0.31754
 Alpha virt. eigenvalues --   -0.00053   0.00748   0.00791   0.01092   0.02170
 Alpha virt. eigenvalues --    0.02460   0.02644   0.03376   0.03510   0.04394
 Alpha virt. eigenvalues --    0.04627   0.04653   0.05551   0.06060   0.07130
 Alpha virt. eigenvalues --    0.07257   0.07732   0.07796   0.08716   0.09697
 Alpha virt. eigenvalues --    0.09923   0.10684   0.11316   0.11521   0.11970
 Alpha virt. eigenvalues --    0.12097   0.12521   0.12972   0.13261   0.13409
 Alpha virt. eigenvalues --    0.13714   0.14206   0.14407   0.14457   0.14713
 Alpha virt. eigenvalues --    0.15031   0.15117   0.15329   0.15630   0.16068
 Alpha virt. eigenvalues --    0.16591   0.16963   0.17381   0.17691   0.17906
 Alpha virt. eigenvalues --    0.18033   0.18277   0.18888   0.19020   0.19208
 Alpha virt. eigenvalues --    0.19474   0.19734   0.20611   0.21095   0.21735
 Alpha virt. eigenvalues --    0.22129   0.22764   0.23003   0.23689   0.24046
 Alpha virt. eigenvalues --    0.24476   0.25427   0.25850   0.26609   0.26991
 Alpha virt. eigenvalues --    0.27384   0.28620   0.28731   0.28976   0.29732
 Alpha virt. eigenvalues --    0.30212   0.30437   0.30987   0.31513   0.31882
 Alpha virt. eigenvalues --    0.32510   0.32560   0.33508   0.33895   0.34390
 Alpha virt. eigenvalues --    0.34670   0.35181   0.35410   0.35724   0.36082
 Alpha virt. eigenvalues --    0.36405   0.36846   0.37139   0.37469   0.37777
 Alpha virt. eigenvalues --    0.38121   0.38741   0.39432   0.39983   0.40759
 Alpha virt. eigenvalues --    0.41118   0.41983   0.42812   0.44760   0.45462
 Alpha virt. eigenvalues --    0.46338   0.46626   0.49250   0.49521   0.50638
 Alpha virt. eigenvalues --    0.51909   0.52047   0.53648   0.53921   0.54469
 Alpha virt. eigenvalues --    0.55362   0.56684   0.57941   0.58829   0.59646
 Alpha virt. eigenvalues --    0.60379   0.60803   0.61485   0.61780   0.61892
 Alpha virt. eigenvalues --    0.62245   0.62680   0.63244   0.63965   0.64302
 Alpha virt. eigenvalues --    0.64584   0.65262   0.65392   0.66011   0.67637
 Alpha virt. eigenvalues --    0.67715   0.68692   0.69688   0.69893   0.70093
 Alpha virt. eigenvalues --    0.70645   0.71259   0.71848   0.72170   0.73405
 Alpha virt. eigenvalues --    0.73742   0.74358   0.74556   0.75056   0.75545
 Alpha virt. eigenvalues --    0.76313   0.76903   0.76958   0.77697   0.79367
 Alpha virt. eigenvalues --    0.80515   0.81375   0.82599   0.84682   0.85962
 Alpha virt. eigenvalues --    0.86643   0.87105   0.87479   0.88513   0.89849
 Alpha virt. eigenvalues --    0.90980   0.91262   0.93752   0.94282   0.95232
 Alpha virt. eigenvalues --    0.96490   0.99401   0.99768   1.00740   1.01315
 Alpha virt. eigenvalues --    1.03546   1.03824   1.05427   1.05739   1.07575
 Alpha virt. eigenvalues --    1.08499   1.08996   1.09689   1.10413   1.11275
 Alpha virt. eigenvalues --    1.13064   1.13810   1.14696   1.16321   1.17042
 Alpha virt. eigenvalues --    1.17927   1.18245   1.18974   1.19573   1.19889
 Alpha virt. eigenvalues --    1.21015   1.21850   1.22530   1.23371   1.24564
 Alpha virt. eigenvalues --    1.24815   1.25490   1.26439   1.26745   1.27297
 Alpha virt. eigenvalues --    1.27811   1.28367   1.29312   1.29613   1.31443
 Alpha virt. eigenvalues --    1.31852   1.32332   1.33692   1.34145   1.34211
 Alpha virt. eigenvalues --    1.35103   1.36257   1.37123   1.37309   1.38149
 Alpha virt. eigenvalues --    1.38319   1.39520   1.40051   1.40336   1.40882
 Alpha virt. eigenvalues --    1.42266   1.42922   1.43892   1.45193   1.45551
 Alpha virt. eigenvalues --    1.46193   1.46594   1.46946   1.47211   1.48038
 Alpha virt. eigenvalues --    1.48591   1.50047   1.50816   1.51168   1.52538
 Alpha virt. eigenvalues --    1.53206   1.53637   1.53927   1.55037   1.55372
 Alpha virt. eigenvalues --    1.56239   1.56767   1.57864   1.58159   1.59407
 Alpha virt. eigenvalues --    1.59960   1.60144   1.61018   1.61343   1.61903
 Alpha virt. eigenvalues --    1.63486   1.64544   1.64884   1.65520   1.66371
 Alpha virt. eigenvalues --    1.67685   1.68005   1.70375   1.71975   1.73181
 Alpha virt. eigenvalues --    1.74219   1.74684   1.76364   1.76621   1.77455
 Alpha virt. eigenvalues --    1.79375   1.80145   1.80490   1.81504   1.83607
 Alpha virt. eigenvalues --    1.87437   1.89370   1.91502   1.94630   1.99719
 Alpha virt. eigenvalues --    2.02557   2.07890   2.10681   2.15846   2.21019
 Alpha virt. eigenvalues --    2.22699   2.27708   2.31580   2.34320   2.39613
 Alpha virt. eigenvalues --    2.41380   2.44147   2.46792   2.48541   2.52325
 Alpha virt. eigenvalues --    2.58407   2.75572   2.76748   2.78132   2.81408
 Alpha virt. eigenvalues --    2.84112   2.89589   2.92618   2.93824   2.94273
 Alpha virt. eigenvalues --    2.95939   2.97662   3.00802   3.02031   3.03697
 Alpha virt. eigenvalues --    3.06198   3.07557   3.09064   3.09661   3.11207
 Alpha virt. eigenvalues --    3.13072   3.16207   3.17500   3.18288   3.22571
 Alpha virt. eigenvalues --    3.23484   3.29401   3.31567   3.33806   3.34492
 Alpha virt. eigenvalues --    3.34823   3.37464   3.38292   3.40437   3.41322
 Alpha virt. eigenvalues --    3.42005   3.43400   3.44175   3.45947   3.46388
 Alpha virt. eigenvalues --    3.47696   3.49048   3.49569   3.50653   3.51457
 Alpha virt. eigenvalues --    3.53230   3.54141   3.54690   3.55518   3.56745
 Alpha virt. eigenvalues --    3.57126   3.58125   3.58542   3.59306   3.60434
 Alpha virt. eigenvalues --    3.60845   3.62581   3.62811   3.64146   3.64913
 Alpha virt. eigenvalues --    3.65546   3.66865   3.68020   3.68831   3.69425
 Alpha virt. eigenvalues --    3.71600   3.71751   3.72131   3.73157   3.73609
 Alpha virt. eigenvalues --    3.74564   3.75214   3.75996   3.76965   3.77833
 Alpha virt. eigenvalues --    3.78298   3.79653   3.79999   3.82240   3.84242
 Alpha virt. eigenvalues --    3.87178   3.87676   3.88493   3.89967   3.91188
 Alpha virt. eigenvalues --    3.92538   3.94059   3.94581   3.96562   3.97994
 Alpha virt. eigenvalues --    4.00720   4.00975   4.02611   4.02822   4.04208
 Alpha virt. eigenvalues --    4.04606   4.05876   4.06958   4.07357   4.07780
 Alpha virt. eigenvalues --    4.08384   4.09470   4.09990   4.10262   4.11392
 Alpha virt. eigenvalues --    4.11808   4.12486   4.13442   4.15440   4.16676
 Alpha virt. eigenvalues --    4.17280   4.17597   4.18267   4.18596   4.20834
 Alpha virt. eigenvalues --    4.21467   4.23605   4.25578   4.26333   4.27312
 Alpha virt. eigenvalues --    4.28642   4.29901   4.30538   4.31847   4.32417
 Alpha virt. eigenvalues --    4.32546   4.33814   4.34298   4.36549   4.39232
 Alpha virt. eigenvalues --    4.41774   4.42190   4.45881   4.46666   4.48413
 Alpha virt. eigenvalues --    4.58394   4.61327   4.75117   4.77093   4.82713
 Alpha virt. eigenvalues --    4.85456   4.92496   4.95608   4.98469   5.00801
 Alpha virt. eigenvalues --    5.06404   5.07157   5.08006   5.08848   5.12073
 Alpha virt. eigenvalues --    5.12283   5.13985   5.14713   5.31062   5.38664
 Alpha virt. eigenvalues --    5.41291   5.58425   5.59300   5.65936   5.85783
 Alpha virt. eigenvalues --    5.89827   6.07026   7.02201   7.04584   7.05718
 Alpha virt. eigenvalues --    7.09443   7.10547   7.12732   7.14676   7.20055
 Alpha virt. eigenvalues --    7.25927   7.37343   7.41232   7.44932   7.53264
 Alpha virt. eigenvalues --    7.55707   7.65282  23.95696  23.97347  24.05909
 Alpha virt. eigenvalues --   24.08520  24.11532  24.11986  24.14283  24.15203
 Alpha virt. eigenvalues --   24.15996  24.20456  50.17089  50.18832  50.26440
          Condensed to atoms (all electrons):
               1          2          3          4          5          6
     1  C    5.704981   0.208349  -0.007936   0.089097   0.000466  -0.001722
     2  C    0.208349   6.935674  -0.721118  -0.161891   0.006286   0.006584
     3  C   -0.007936  -0.721118   7.325637   0.040578  -0.004939   0.182161
     4  C    0.089097  -0.161891   0.040578   5.516147  -0.000004  -0.002935
     5  O    0.000466   0.006286  -0.004939  -0.000004   8.359549   0.084007
     6  C   -0.001722   0.006584   0.182161  -0.002935   0.084007   5.376691
     7  C   -0.123027  -0.354477   0.054813  -0.037730   0.000012   0.006408
     8  C    0.015473   0.158327  -1.031264  -0.007682  -0.024250  -0.202148
     9  C    0.012013   0.144487  -0.485965  -0.006480   0.189296  -0.211604
    10  C    0.003190  -0.070590   0.067192  -0.002222  -0.047710   0.094298
    11  O   -0.055547   0.303595  -0.029234   0.001393   0.000432   0.006325
    12  O   -0.007868   0.234830   0.108829  -0.026438   0.010404   0.016065
    13  C   -0.158874  -0.913544   0.135123   0.063820  -0.000541   0.012690
    14  H    0.487989   0.009312  -0.005413  -0.020243   0.000016   0.000014
    15  H    0.435271  -0.000650   0.004258  -0.047969  -0.000011  -0.000085
    16  H   -0.001651  -0.035052   0.517385   0.006167  -0.004861   0.014986
    17  H   -0.012026   0.011968   0.006790   0.408387  -0.000016  -0.000013
    18  H   -0.067520  -0.030465   0.002898   0.527653   0.000071   0.000056
    19  H   -0.000009  -0.000807   0.002379  -0.000075  -0.073318   0.439095
    20  H   -0.000002   0.001991   0.033837   0.000192  -0.037933   0.474495
    21  H   -0.063441  -0.022631  -0.019008   0.006595   0.000332  -0.001628
    22  H   -0.026930  -0.000057   0.004857   0.008749   0.000213  -0.000315
    23  H    0.000644  -0.022368   0.000079   0.001556   0.000991  -0.014508
    24  H   -0.000199   0.004814  -0.022482   0.000630  -0.000987   0.005146
    25  H    0.000155  -0.004758  -0.033806   0.000179  -0.003884  -0.080375
    26  H   -0.000134  -0.000746  -0.001174  -0.000194   0.006712  -0.041560
    27  H   -0.012254  -0.153427   0.003735  -0.008366   0.000015   0.000309
    28  H   -0.008448  -0.002197   0.001706  -0.043200  -0.000112  -0.000183
    29  H    0.019656   0.483849   0.024215  -0.014346  -0.000352  -0.003870
    30  H   -0.008688   0.003016   0.080607  -0.006522  -0.044281   0.022335
    31  H   -0.002099  -0.008825  -0.071852   0.001383  -0.070466  -0.006929
               7          8          9         10         11         12
     1  C   -0.123027   0.015473   0.012013   0.003190  -0.055547  -0.007868
     2  C   -0.354477   0.158327   0.144487  -0.070590   0.303595   0.234830
     3  C    0.054813  -1.031264  -0.485965   0.067192  -0.029234   0.108829
     4  C   -0.037730  -0.007682  -0.006480  -0.002222   0.001393  -0.026438
     5  O    0.000012  -0.024250   0.189296  -0.047710   0.000432   0.010404
     6  C    0.006408  -0.202148  -0.211604   0.094298   0.006325   0.016065
     7  C    5.561859  -0.039745   0.012934  -0.005311   0.088668   0.010941
     8  C   -0.039745   6.603961   0.305441  -0.031156  -0.012495  -0.180593
     9  C    0.012934   0.305441   5.863348   0.038015  -0.005699  -0.100461
    10  C   -0.005311  -0.031156   0.038015   5.562258   0.001512  -0.008053
    11  O    0.088668  -0.012495  -0.005699   0.001512   8.238924  -0.057023
    12  O    0.010941  -0.180593  -0.100461  -0.008053  -0.057023   8.350933
    13  C    0.139100  -0.105774  -0.069112  -0.008914  -0.033259  -0.026052
    14  H   -0.088778  -0.000334   0.000479   0.000079  -0.003038   0.000057
    15  H   -0.028502  -0.000539  -0.000196   0.000001   0.010131  -0.000011
    16  H    0.001113  -0.015410  -0.120804  -0.020283   0.000870  -0.036732
    17  H    0.005418  -0.001189  -0.001429  -0.000100  -0.003170   0.000921
    18  H   -0.002061  -0.001076  -0.000249  -0.001101   0.001833  -0.002034
    19  H   -0.000065   0.008214   0.008922  -0.047086   0.000311   0.000881
    20  H    0.000444  -0.011514  -0.033746  -0.054160  -0.000368  -0.000194
    21  H    0.463308   0.007671  -0.003562  -0.000138  -0.031096   0.006540
    22  H    0.440475  -0.001531   0.001008  -0.000317  -0.070535  -0.000323
    23  H    0.001613   0.489838  -0.036314  -0.050182   0.000235  -0.002924
    24  H    0.000668   0.405858   0.012220  -0.012485   0.000132  -0.003093
    25  H   -0.000001  -0.002761   0.005191   0.493562  -0.000321   0.000186
    26  H   -0.000153  -0.039036   0.003318   0.437220  -0.000021  -0.003034
    27  H    0.008708  -0.000764  -0.000024   0.000081  -0.007060   0.010930
    28  H    0.012116  -0.001907  -0.001599  -0.001693   0.008701  -0.008712
    29  H   -0.028354   0.004394  -0.002754   0.003244  -0.059475  -0.023221
    30  H    0.010749  -0.112144   0.349786   0.010395  -0.003173   0.014770
    31  H   -0.001091   0.041717   0.461644   0.013323  -0.013271  -0.007130
              13         14         15         16         17         18
     1  C   -0.158874   0.487989   0.435271  -0.001651  -0.012026  -0.067520
     2  C   -0.913544   0.009312  -0.000650  -0.035052   0.011968  -0.030465
     3  C    0.135123  -0.005413   0.004258   0.517385   0.006790   0.002898
     4  C    0.063820  -0.020243  -0.047969   0.006167   0.408387   0.527653
     5  O   -0.000541   0.000016  -0.000011  -0.004861  -0.000016   0.000071
     6  C    0.012690   0.000014  -0.000085   0.014986  -0.000013   0.000056
     7  C    0.139100  -0.088778  -0.028502   0.001113   0.005418  -0.002061
     8  C   -0.105774  -0.000334  -0.000539  -0.015410  -0.001189  -0.001076
     9  C   -0.069112   0.000479  -0.000196  -0.120804  -0.001429  -0.000249
    10  C   -0.008914   0.000079   0.000001  -0.020283  -0.000100  -0.001101
    11  O   -0.033259  -0.003038   0.010131   0.000870  -0.003170   0.001833
    12  O   -0.026052   0.000057  -0.000011  -0.036732   0.000921  -0.002034
    13  C    6.636168  -0.012196  -0.000981   0.028491  -0.043137  -0.042546
    14  H   -0.012196   0.483043  -0.011713   0.000133  -0.001457   0.001513
    15  H   -0.000981  -0.011713   0.488272  -0.000153  -0.007398  -0.004763
    16  H    0.028491   0.000133  -0.000153   0.446235  -0.000091   0.000491
    17  H   -0.043137  -0.001457  -0.007398  -0.000091   0.469771  -0.003446
    18  H   -0.042546   0.001513  -0.004763   0.000491  -0.003446   0.457148
    19  H    0.000847   0.000004  -0.000010  -0.000755   0.000003  -0.000004
    20  H   -0.001525  -0.000010   0.000030   0.000599  -0.000019   0.000071
    21  H    0.030097   0.003665  -0.000449   0.002043  -0.000810  -0.002431
    22  H   -0.008799  -0.006952  -0.008191  -0.000262   0.000912  -0.002675
    23  H    0.004684  -0.000065   0.000125   0.003867   0.000237  -0.000133
    24  H   -0.004594  -0.000031   0.000042  -0.006074  -0.000026  -0.000084
    25  H    0.000405  -0.000001   0.000004  -0.004766   0.000021   0.000025
    26  H   -0.001233  -0.000001  -0.000002  -0.003028  -0.000009  -0.000022
    27  H    0.534485  -0.001842  -0.002798   0.001510  -0.001774   0.002370
    28  H    0.408922  -0.002236   0.001876  -0.001590  -0.010020  -0.003136
    29  H   -0.078911   0.000504   0.001152  -0.011918   0.002264  -0.002969
    30  H   -0.006668   0.000662   0.000105   0.001056  -0.000160   0.000761
    31  H   -0.011418  -0.000277   0.000273  -0.009192   0.000042  -0.000396
              19         20         21         22         23         24
     1  C   -0.000009  -0.000002  -0.063441  -0.026930   0.000644  -0.000199
     2  C   -0.000807   0.001991  -0.022631  -0.000057  -0.022368   0.004814
     3  C    0.002379   0.033837  -0.019008   0.004857   0.000079  -0.022482
     4  C   -0.000075   0.000192   0.006595   0.008749   0.001556   0.000630
     5  O   -0.073318  -0.037933   0.000332   0.000213   0.000991  -0.000987
     6  C    0.439095   0.474495  -0.001628  -0.000315  -0.014508   0.005146
     7  C   -0.000065   0.000444   0.463308   0.440475   0.001613   0.000668
     8  C    0.008214  -0.011514   0.007671  -0.001531   0.489838   0.405858
     9  C    0.008922  -0.033746  -0.003562   0.001008  -0.036314   0.012220
    10  C   -0.047086  -0.054160  -0.000138  -0.000317  -0.050182  -0.012485
    11  O    0.000311  -0.000368  -0.031096  -0.070535   0.000235   0.000132
    12  O    0.000881  -0.000194   0.006540  -0.000323  -0.002924  -0.003093
    13  C    0.000847  -0.001525   0.030097  -0.008799   0.004684  -0.004594
    14  H    0.000004  -0.000010   0.003665  -0.006952  -0.000065  -0.000031
    15  H   -0.000010   0.000030  -0.000449  -0.008191   0.000125   0.000042
    16  H   -0.000755   0.000599   0.002043  -0.000262   0.003867  -0.006074
    17  H    0.000003  -0.000019  -0.000810   0.000912   0.000237  -0.000026
    18  H   -0.000004   0.000071  -0.002431  -0.002675  -0.000133  -0.000084
    19  H    0.470513  -0.004445   0.000098  -0.000028  -0.001569   0.000957
    20  H   -0.004445   0.493472  -0.000172   0.000021  -0.004003  -0.000308
    21  H    0.000098  -0.000172   0.499722  -0.013449  -0.001365  -0.000299
    22  H   -0.000028   0.000021  -0.013449   0.482741   0.000318   0.000092
    23  H   -0.001569  -0.004003  -0.001365   0.000318   0.444783  -0.013070
    24  H    0.000957  -0.000308  -0.000299   0.000092  -0.013070   0.475138
    25  H   -0.002086   0.001695  -0.000045  -0.000002   0.002610  -0.004712
    26  H   -0.009501   0.004147   0.000102  -0.000037  -0.004559  -0.010348
    27  H    0.000025  -0.000006  -0.000784   0.000055   0.000189  -0.000195
    28  H   -0.000045   0.000031  -0.000420   0.001368   0.000025  -0.000243
    29  H   -0.000293   0.000003  -0.000920  -0.000192  -0.000159  -0.000558
    30  H   -0.001079   0.003786  -0.008106  -0.002074  -0.000966  -0.002378
    31  H    0.002267  -0.004216   0.002728  -0.000447  -0.001063  -0.000516
              25         26         27         28         29         30
     1  C    0.000155  -0.000134  -0.012254  -0.008448   0.019656  -0.008688
     2  C   -0.004758  -0.000746  -0.153427  -0.002197   0.483849   0.003016
     3  C   -0.033806  -0.001174   0.003735   0.001706   0.024215   0.080607
     4  C    0.000179  -0.000194  -0.008366  -0.043200  -0.014346  -0.006522
     5  O   -0.003884   0.006712   0.000015  -0.000112  -0.000352  -0.044281
     6  C   -0.080375  -0.041560   0.000309  -0.000183  -0.003870   0.022335
     7  C   -0.000001  -0.000153   0.008708   0.012116  -0.028354   0.010749
     8  C   -0.002761  -0.039036  -0.000764  -0.001907   0.004394  -0.112144
     9  C    0.005191   0.003318  -0.000024  -0.001599  -0.002754   0.349786
    10  C    0.493562   0.437220   0.000081  -0.001693   0.003244   0.010395
    11  O   -0.000321  -0.000021  -0.007060   0.008701  -0.059475  -0.003173
    12  O    0.000186  -0.003034   0.010930  -0.008712  -0.023221   0.014770
    13  C    0.000405  -0.001233   0.534485   0.408922  -0.078911  -0.006668
    14  H   -0.000001  -0.000001  -0.001842  -0.002236   0.000504   0.000662
    15  H    0.000004  -0.000002  -0.002798   0.001876   0.001152   0.000105
    16  H   -0.004766  -0.003028   0.001510  -0.001590  -0.011918   0.001056
    17  H    0.000021  -0.000009  -0.001774  -0.010020   0.002264  -0.000160
    18  H    0.000025  -0.000022   0.002370  -0.003136  -0.002969   0.000761
    19  H   -0.002086  -0.009501   0.000025  -0.000045  -0.000293  -0.001079
    20  H    0.001695   0.004147  -0.000006   0.000031   0.000003   0.003786
    21  H   -0.000045   0.000102  -0.000784  -0.000420  -0.000920  -0.008106
    22  H   -0.000002  -0.000037   0.000055   0.001368  -0.000192  -0.002074
    23  H    0.002610  -0.004559   0.000189   0.000025  -0.000159  -0.000966
    24  H   -0.004712  -0.010348  -0.000195  -0.000243  -0.000558  -0.002378
    25  H    0.471612  -0.006080   0.000009  -0.000054   0.000733  -0.000481
    26  H   -0.006080   0.487362  -0.000035   0.000059   0.000283  -0.001588
    27  H    0.000009  -0.000035   0.455778  -0.006945  -0.012230  -0.000302
    28  H   -0.000054   0.000059  -0.006945   0.479659  -0.009267  -0.000095
    29  H    0.000733   0.000283  -0.012230  -0.009267   0.459897   0.002344
    30  H   -0.000481  -0.001588  -0.000302  -0.000095   0.002344   0.506161
    31  H   -0.000995   0.002756  -0.001073   0.000943  -0.002523  -0.028080
              31
     1  C   -0.002099
     2  C   -0.008825
     3  C   -0.071852
     4  C    0.001383
     5  O   -0.070466
     6  C   -0.006929
     7  C   -0.001091
     8  C    0.041717
     9  C    0.461644
    10  C    0.013323
    11  O   -0.013271
    12  O   -0.007130
    13  C   -0.011418
    14  H   -0.000277
    15  H    0.000273
    16  H   -0.009192
    17  H    0.000042
    18  H   -0.000396
    19  H    0.002267
    20  H   -0.004216
    21  H    0.002728
    22  H   -0.000447
    23  H   -0.001063
    24  H   -0.000516
    25  H   -0.000995
    26  H    0.002756
    27  H   -0.001073
    28  H    0.000943
    29  H   -0.002523
    30  H   -0.028080
    31  H    0.492526
 Mulliken charges:
               1
     1  C   -0.418908
     2  C   -0.009478
     3  C   -0.162887
     4  C   -0.286230
     5  O   -0.345137
     6  C   -0.173788
     7  C   -0.110052
     8  C   -0.217582
     9  C   -0.328102
    10  C   -0.362868
    11  O   -0.278276
    12  O   -0.272392
    13  C   -0.466754
    14  H    0.167117
    15  H    0.172882
    16  H    0.247677
    17  H    0.179556
    18  H    0.172220
    19  H    0.206658
    20  H    0.137804
    21  H    0.147855
    22  H    0.202308
    23  H    0.201452
    24  H    0.176984
    25  H    0.168739
    26  H    0.180536
    27  H    0.191682
    28  H    0.186699
    29  H    0.249775
    30  H    0.220252
    31  H    0.222256
 Sum of Mulliken charges =  -0.00000
 Mulliken charges with hydrogens summed into heavy atoms:
               1
     1  C   -0.078909
     2  C    0.240298
     3  C    0.084789
     4  C    0.065546
     5  O   -0.345137
     6  C    0.170675
     7  C    0.240111
     8  C    0.160854
     9  C    0.114406
    10  C   -0.013593
    11  O   -0.278276
    12  O   -0.272392
    13  C   -0.088373
 Electronic spatial extent (au):  <R**2>=           3068.0658
 Charge=             -0.0000 electrons
 Dipole moment (field-independent basis, Debye):
    X=              0.6841    Y=              1.9655    Z=             -1.3193  Tot=              2.4641
 Quadrupole moment (field-independent basis, Debye-Ang):
   XX=            -73.1232   YY=            -83.3109   ZZ=            -78.3148
   XY=             -4.1762   XZ=              3.2672   YZ=              4.7152
 Traceless Quadrupole moment (field-independent basis, Debye-Ang):
   XX=              5.1264   YY=             -5.0613   ZZ=             -0.0652
   XY=             -4.1762   XZ=              3.2672   YZ=              4.7152
 Octapole moment (field-independent basis, Debye-Ang**2):
  XXX=             -1.5010  YYY=             -0.0735  ZZZ=              3.7107  XYY=              4.9465
  XXY=             15.5246  XXZ=            -19.2670  XZZ=              2.2172  YZZ=              0.1132
  YYZ=             -3.7938  XYZ=              0.6990
 Hexadecapole moment (field-independent basis, Debye-Ang**3):
 XXXX=          -3025.7444 YYYY=           -589.5726 ZZZZ=           -323.3492 XXXY=            -30.7412
 XXXZ=             42.2983 YYYX=            -15.7880 YYYZ=              8.0934 ZZZX=              2.7941
 ZZZY=              0.3566 XXYY=           -645.0418 XXZZ=           -584.8465 YYZZ=           -155.4166
 XXYZ=             24.3858 YYXZ=              0.6846 ZZXY=             -3.7002
 N-N= 8.940766536193D+02 E-N=-3.230017587732D+03  KE= 6.153459316752D+02
 D1PCM: PCM CHGder 1st derivatives, ID1Alg=3 FixD1E=F DoIter=F DoCFld=F I1PDM=0.
 Calling FoFJK, ICntrl=      2127 FMM=F ISym2X=0 I1Cent= 0 IOpClX= 0 NMat=1 NMatS=1 NMatT=0.
 ***** Axes restored to original set *****
 -------------------------------------------------------------------
 Center     Atomic                   Forces (Hartrees/Bohr)
 Number     Number              X              Y              Z
 -------------------------------------------------------------------
      1        6           0.002287611    0.001334550    0.000721511
      2        6          -0.003083979    0.001541834    0.006075739
      3        6          -0.002119314   -0.003660916    0.004942608
      4        6           0.001347410   -0.003147192   -0.001987417
      5        8           0.004084843   -0.004954859   -0.007225814
      6        6          -0.005188631    0.003984813   -0.002167580
      7        6          -0.002526273    0.005639697   -0.002586875
      8        6           0.002361121   -0.001897470   -0.004058043
      9        6           0.004634104    0.005951029   -0.000047808
     10        6          -0.001811019   -0.001314087    0.001845777
     11        8           0.002660592   -0.009056984   -0.006996968
     12        8          -0.002572890    0.006822126    0.009530374
     13        6           0.000573380   -0.000020104    0.002563641
     14        1          -0.001660310   -0.001205975   -0.002635836
     15        1          -0.001371409    0.000041632    0.002505633
     16        1           0.002594448    0.001429795   -0.005977651
     17        1          -0.002197372    0.001331712   -0.000237691
     18        1           0.002854131    0.000861717    0.002121790
     19        1           0.004129736   -0.000819245   -0.001187579
     20        1          -0.001169767   -0.001107559    0.006000267
     21        1           0.003619382    0.002687691    0.004522878
     22        1          -0.000995385   -0.004307588    0.000331732
     23        1          -0.001578982   -0.001844497    0.003151804
     24        1          -0.001099782    0.002730414   -0.000518536
     25        1           0.000691679    0.000591935   -0.003102055
     26        1           0.001471620    0.001707011    0.001999844
     27        1          -0.002082525   -0.001567638   -0.002268737
     28        1           0.001126322    0.002889085   -0.000369239
     29        1           0.002617915   -0.001343852   -0.007515709
     30        1          -0.003307778   -0.000736241    0.006158855
     31        1          -0.004288878   -0.002560832   -0.003588917
 -------------------------------------------------------------------
 Cartesian Forces:  Max     0.009530374 RMS     0.003439945

 GradGradGradGradGradGradGradGradGradGradGradGradGradGradGradGradGradGrad
 Berny optimization.
 FormGI is forming the generalized inverse of G from B-inverse, IUseBI=4.
 Internal  Forces:  Max     0.014098155 RMS     0.002150100
 Search for a local minimum.
 Step number   1 out of a maximum of  186
 All quantities printed in internal units (Hartrees-Bohrs-Radians)
 Mixed Optimization -- RFO/linear search
 Second derivative matrix not updated -- first step.
 ITU=  0
     Eigenvalues ---    0.00627   0.00657   0.00723   0.00725   0.01411
     Eigenvalues ---    0.01442   0.01702   0.02702   0.02800   0.03080
     Eigenvalues ---    0.03131   0.04097   0.04227   0.04652   0.04747
     Eigenvalues ---    0.04864   0.04890   0.05105   0.05139   0.05162
     Eigenvalues ---    0.05259   0.05691   0.05703   0.06105   0.06172
     Eigenvalues ---    0.06283   0.06537   0.06989   0.07590   0.07842
     Eigenvalues ---    0.07952   0.07954   0.07970   0.08088   0.08233
     Eigenvalues ---    0.08821   0.09265   0.09307   0.10823   0.11606
     Eigenvalues ---    0.11607   0.11693   0.11765   0.12404   0.12494
     Eigenvalues ---    0.14587   0.14719   0.16364   0.16486   0.17381
     Eigenvalues ---    0.19169   0.21181   0.21960   0.25000   0.28272
     Eigenvalues ---    0.28646   0.28793   0.28854   0.28946   0.29332
     Eigenvalues ---    0.30106   0.30309   0.35077   0.35095   0.35101
     Eigenvalues ---    0.35106   0.35161   0.35180   0.35196   0.35201
     Eigenvalues ---    0.35242   0.35302   0.35321   0.35349   0.35432
     Eigenvalues ---    0.35440   0.35825   0.35849   0.35881   0.36102
     Eigenvalues ---    0.40835   0.41519   0.42178   0.43074   0.43467
     Eigenvalues ---    0.457491000.000001000.000001000.000001000.00000
     Eigenvalues --- 1000.000001000.000001000.000001000.000001000.00000
     Eigenvalues --- 1000.000001000.000001000.000001000.000001000.00000
     Eigenvalues --- 1000.000001000.000001000.000001000.000001000.00000
     Eigenvalues --- 1000.000001000.000001000.000001000.000001000.00000
     Eigenvalues --- 1000.000001000.000001000.000001000.000001000.00000
     Eigenvalues --- 1000.000001000.000001000.000001000.000001000.00000
     Eigenvalues --- 1000.000001000.000001000.000001000.000001000.00000
     Eigenvalues --- 1000.000001000.000001000.000001000.000001000.00000
     Eigenvalues --- 1000.000001000.000001000.000001000.000001000.00000
     Eigenvalues --- 1000.000001000.000001000.000001000.000001000.00000
     Eigenvalues --- 1000.000001000.000001000.000001000.000001000.00000
     Eigenvalues --- 1000.000001000.000001000.000001000.000001000.00000
     Eigenvalues --- 1000.000001000.000001000.000001000.000001000.00000
     Eigenvalues --- 1000.000001000.000001000.000001000.000001000.00000
     Eigenvalues --- 1000.000001000.000001000.000001000.000001000.00000
     Eigenvalues --- 1000.000001000.000001000.000001000.000001000.00000
     Eigenvalues --- 1000.000001000.000001000.000001000.000001000.00000
     Eigenvalues --- 1000.000001000.000001000.000001000.000001000.00000
     Eigenvalues --- 1000.000001000.000001000.000001000.000001000.00000
 RFO step:  Lambda=-3.97924749D-03 EMin= 6.27050779D-03
 Linear search not attempted -- first point.
 Iteration  1 RMS(Cart)=  0.08278844 RMS(Int)=  0.00151255
 Iteration  2 RMS(Cart)=  0.00421154 RMS(Int)=  0.00005668
 Iteration  3 RMS(Cart)=  0.00000489 RMS(Int)=  0.00005661
 Iteration  4 RMS(Cart)=  0.00000000 RMS(Int)=  0.00005661
 Iteration  1 RMS(Cart)=  0.00001656 RMS(Int)=  0.00000393
 Iteration  2 RMS(Cart)=  0.00000917 RMS(Int)=  0.00000439
 Iteration  3 RMS(Cart)=  0.00000508 RMS(Int)=  0.00000496
 Iteration  4 RMS(Cart)=  0.00000281 RMS(Int)=  0.00000535
 Iteration  5 RMS(Cart)=  0.00000156 RMS(Int)=  0.00000558
 Iteration  6 RMS(Cart)=  0.00000086 RMS(Int)=  0.00000571
 Variable       Old X    -DE/DX   Delta X   Delta X   Delta X     New X
                                 (Linear)    (Quad)   (Total)
    R1        2.88854  -0.00074   0.00000  -0.00183  -0.00184   2.88670
    R2        2.87141   0.00026   0.00000   0.00118   0.00120   2.87261
    R3        2.05520   0.00327   0.00000   0.00920   0.00920   2.06441
    R4        2.05284   0.00283   0.00000   0.00795   0.00795   2.06079
    R5        2.65277   0.00367   0.00000   0.00765   0.00767   2.66043
    R6        2.64416   0.00290   0.00000   0.00629   0.00629   2.65045
    R7        2.87579  -0.00056   0.00000  -0.00222  -0.00224   2.87355
    R8        2.04268   0.00803   0.00000   0.02215   0.02215   2.06482
    R9        2.87668  -0.00240   0.00000  -0.00808  -0.00811   2.86857
   R10        2.88891  -0.00090   0.00000  -0.00268  -0.00268   2.88623
   R11        2.67578   0.00070   0.00000   0.00161   0.00161   2.67739
   R12        2.05359   0.00645   0.00000   0.01813   0.01813   2.07172
   R13        2.88999  -0.00140   0.00000  -0.00457  -0.00458   2.88541
   R14        2.05158   0.00258   0.00000   0.00722   0.00722   2.05880
   R15        2.05383   0.00347   0.00000   0.00975   0.00975   2.06358
   R16        2.67522   0.00340   0.00000   0.00798   0.00801   2.68323
   R17        2.66808   0.00380   0.00000   0.00837   0.00839   2.67647
   R18        2.87082   0.00089   0.00000   0.00257   0.00257   2.87339
   R19        2.04355   0.00437   0.00000   0.01207   0.01207   2.05562
   R20        2.05550   0.00609   0.00000   0.01718   0.01718   2.07268
   R21        2.68661   0.00283   0.00000   0.00654   0.00655   2.69315
   R22        2.04979   0.00630   0.00000   0.01758   0.01758   2.06737
   R23        2.04319   0.00443   0.00000   0.01222   0.01222   2.05541
   R24        2.89040  -0.00076   0.00000  -0.00224  -0.00226   2.88814
   R25        2.05511   0.00381   0.00000   0.01072   0.01072   2.06583
   R26        2.05113   0.00294   0.00000   0.00822   0.00822   2.05934
   R27        2.05504   0.00660   0.00000   0.01859   0.01859   2.07363
   R28        2.03922   0.00590   0.00000   0.01616   0.01616   2.05538
   R29        2.05414   0.00316   0.00000   0.00889   0.00889   2.06303
   R30        2.05188   0.00299   0.00000   0.00836   0.00836   2.06024
   R31        2.05349   0.00340   0.00000   0.00955   0.00955   2.06305
   R32        2.04966   0.00310   0.00000   0.00866   0.00866   2.05832
    A1        1.92206  -0.00098   0.00000  -0.00463  -0.00484   1.91722
    A2        1.91613   0.00089   0.00000   0.00138   0.00147   1.91760
    A3        1.93974  -0.00052   0.00000  -0.00193  -0.00189   1.93785
    A4        1.90638   0.00006   0.00000  -0.00143  -0.00136   1.90502
    A5        1.90276   0.00058   0.00000   0.00346   0.00351   1.90627
    A6        1.87593  -0.00000   0.00000   0.00334   0.00331   1.87925
    A7        1.94269  -0.00014   0.00000  -0.00458  -0.00443   1.93826
    A8        1.93909   0.00347   0.00000   0.01353   0.01333   1.95243
    A9        1.83621  -0.00245   0.00000  -0.01366  -0.01367   1.82254
   A10        1.90385  -0.00262   0.00000  -0.01169  -0.01160   1.89225
   A11        1.90921   0.00160   0.00000   0.01082   0.01080   1.92001
   A12        1.93214   0.00021   0.00000   0.00600   0.00607   1.93821
   A13        1.91742   0.00083   0.00000   0.00166   0.00164   1.91906
   A14        1.87256   0.00045   0.00000   0.00610   0.00608   1.87864
   A15        1.91836  -0.00013   0.00000  -0.00219  -0.00224   1.91612
   A16        1.96148  -0.00189   0.00000  -0.01539  -0.01536   1.94612
   A17        1.89684  -0.00030   0.00000  -0.00394  -0.00390   1.89294
   A18        1.89695   0.00108   0.00000   0.01409   0.01404   1.91099
   A19        1.91241   0.00197   0.00000  -0.00112  -0.00112   1.91129
   A20        1.93101  -0.00024   0.00000   0.00205   0.00212   1.93313
   A21        1.91441  -0.00089   0.00000  -0.00180  -0.00190   1.91251
   A22        1.91661  -0.00058   0.00000   0.00152   0.00151   1.91812
   A23        1.92207  -0.00097   0.00000  -0.00629  -0.00630   1.91577
   A24        1.86697   0.00064   0.00000   0.00570   0.00571   1.87268
   A25        1.98558  -0.00442   0.00000  -0.02861  -0.02851   1.95707
   A26        1.93225   0.00187   0.00000   0.01015   0.01017   1.94242
   A27        1.85595  -0.00124   0.00000  -0.00412  -0.00412   1.85183
   A28        1.90269   0.00077   0.00000   0.00679   0.00683   1.90952
   A29        1.94710  -0.00037   0.00000  -0.00351  -0.00353   1.94357
   A30        1.93136  -0.00157   0.00000  -0.01003  -0.01007   1.92129
   A31        1.89227   0.00058   0.00000   0.00112   0.00108   1.89334
   A32        1.94580   0.00226   0.00000   0.00588   0.00584   1.95164
   A33        1.93109  -0.00148   0.00000  -0.00648  -0.00653   1.92456
   A34        1.94616  -0.00027   0.00000  -0.00183  -0.00176   1.94440
   A35        1.90911   0.00006   0.00000   0.00044   0.00050   1.90961
   A36        1.84170  -0.00129   0.00000  -0.00204  -0.00205   1.83965
   A37        1.88699   0.00072   0.00000   0.00431   0.00430   1.89128
   A38        1.92768   0.00093   0.00000  -0.00465  -0.00471   1.92297
   A39        1.89367  -0.00109   0.00000  -0.00848  -0.00848   1.88518
   A40        1.91536  -0.00040   0.00000  -0.00110  -0.00106   1.91430
   A41        1.91500  -0.00021   0.00000   0.00307   0.00304   1.91804
   A42        1.93435   0.00037   0.00000   0.00693   0.00694   1.94128
   A43        1.87664   0.00034   0.00000   0.00415   0.00411   1.88075
   A44        1.92176   0.00124   0.00000   0.00913   0.00918   1.93094
   A45        1.92029  -0.00269   0.00000  -0.01967  -0.01980   1.90049
   A46        1.95027  -0.00086   0.00000  -0.01031  -0.01045   1.93982
   A47        1.91789   0.00192   0.00000   0.01489   0.01496   1.93285
   A48        1.85392  -0.00004   0.00000   0.01090   0.01092   1.86485
   A49        1.89850   0.00058   0.00000  -0.00351  -0.00383   1.89467
   A50        1.92429  -0.00096   0.00000  -0.00503  -0.00507   1.91922
   A51        1.90462  -0.00023   0.00000  -0.00295  -0.00296   1.90166
   A52        1.91112   0.00081   0.00000   0.00479   0.00482   1.91594
   A53        1.92082   0.00090   0.00000   0.00155   0.00155   1.92237
   A54        1.92687  -0.00046   0.00000  -0.00091  -0.00091   1.92596
   A55        1.87536  -0.00003   0.00000   0.00276   0.00276   1.87812
   A56        2.02443  -0.00572   0.00000  -0.03675  -0.03664   1.98779
   A57        2.06159  -0.01410   0.00000  -0.05551  -0.05551   2.00608
   A58        1.95379  -0.00187   0.00000  -0.01592  -0.01605   1.93774
   A59        1.87365   0.00016   0.00000   0.00437   0.00435   1.87801
   A60        1.89981   0.00085   0.00000   0.00000   0.00002   1.89983
   A61        1.90943   0.00122   0.00000   0.00692   0.00700   1.91644
   A62        1.94773  -0.00025   0.00000  -0.00117  -0.00127   1.94646
   A63        1.87638  -0.00004   0.00000   0.00692   0.00689   1.88327
    D1        0.92449  -0.00009   0.00000   0.00786   0.00787   0.93236
    D2        3.04020   0.00033   0.00000   0.01035   0.01038   3.05058
    D3       -1.18742   0.00042   0.00000   0.01748   0.01751  -1.16991
    D4       -1.17519  -0.00011   0.00000   0.01167   0.01167  -1.16353
    D5        0.94051   0.00031   0.00000   0.01416   0.01419   0.95470
    D6        2.99608   0.00041   0.00000   0.02129   0.02131   3.01739
    D7        3.03493  -0.00036   0.00000   0.00784   0.00781   3.04274
[...]
 0000503,0.00000449,0.00000476,-0.00000331,0.00068676,-0.00035610,0.001
 15451,0.00024003,-0.00024903,0.00033940,-0.08003256,-0.07591422,0.2854
 8116,0.00000920,0.00000907,0.00002139,0.00024933,0.00074131,0.00084019
 ,-0.00289759,0.00398959,0.00372792,-0.00000064,0.00001857,-0.00003894,
 0.00161224,0.00162710,0.00022886,0.00159681,0.00106548,0.00396894,0.00
 010627,0.00003150,-0.00015761,-0.01920558,-0.01658472,-0.02252830,-0.0
 0021814,0.00083231,0.00004466,-0.12857815,-0.07030068,-0.10216258,-0.0
 0029280,-0.00044616,0.00006152,-0.00285403,-0.00145306,-0.00182810,-0.
 00011517,-0.00016885,-0.00015745,-0.00000734,-0.00000080,-0.00000733,-
 0.00001578,-0.00000208,0.00001283,0.00009888,0.00009094,-0.00021334,-0
 .00002623,0.00000278,0.00001994,0.00000796,-0.00001178,-0.00000742,-0.
 00004335,-0.00069212,0.00010554,0.00022185,-0.00027289,0.00000436,0.00
 000034,0.00001463,-0.00000312,-0.00001889,-0.00001991,0.00001557,0.001
 38667,-0.00035975,0.00033561,0.00138390,0.00033624,-0.00009902,0.00556
 769,0.00566428,0.00638578,0.14189658,-0.00000383,-0.00000477,0.0000012
 3,0.00011804,-0.00015691,-0.00012104,0.00173584,-0.00026198,-0.0005356
 6,-0.00000545,-0.00000308,0.00000312,-0.00177359,-0.00991444,-0.001199
 85,-0.01923113,-0.00925101,-0.02320454,0.00000764,0.00001146,-0.000012
 70,0.00514482,0.00472381,0.00743014,0.00234408,-0.00023594,-0.00018015
 ,-0.07027570,-0.10841905,-0.08463914,-0.00006162,0.00008540,0.00000971
 ,0.00074944,0.00060381,0.00031865,0.00002929,0.00003015,0.00003864,-0.
 00000142,0.00000142,0.00000005,-0.00000172,0.00000228,0.00000069,-0.00
 011075,-0.00015452,-0.00016693,0.00000100,0.00000093,-0.00000139,-0.00
 000011,0.00000171,0.00000017,0.00073683,0.00096435,-0.00007635,-0.0001
 7604,0.00117296,0.00078472,0.00000769,-0.00000602,-0.00000584,0.000000
 55,-0.00000052,0.00000002,-0.00050809,0.00016923,-0.00014423,-0.000669
 95,0.00032268,0.00035789,0.00637634,0.00465207,0.00646813,0.07608596,0
 .11546233,0.00000050,0.00000010,0.00000175,0.00020023,0.00003764,0.000
 11862,0.00121687,-0.00028095,0.00059815,-0.00000041,0.00000101,-0.0000
 0272,-0.00016757,0.00030688,0.00165030,0.00293195,0.00231873,0.0010804
 8,0.00001624,0.00000536,-0.00001813,0.00432720,0.00376045,0.00376404,0
 .00022483,0.00016644,-0.00018574,-0.10363842,-0.08657011,-0.17434955,-
 0.00004604,-0.00003432,-0.00000040,-0.00003237,-0.00006925,0.00018608,
 0.00001057,-0.00000280,0.00000369,-0.00000132,0.00000006,-0.00000076,-
 0.00000187,0.00000020,0.00000144,0.00013679,0.00020913,0.00033242,-0.0
 0000332,0.00000036,0.00000044,0.00000103,-0.00000111,-0.00000279,0.000
 03195,-0.00034556,0.00010713,0.00015729,-0.00060206,0.00022167,0.00000
 284,0.00000060,-0.00000315,-0.00000240,-0.00000266,0.00000100,-0.00043
 464,0.00030511,0.00061611,-0.00048173,0.00009886,-0.00005053,-0.015829
 19,-0.01399302,-0.01900243,0.11145816,0.09474371,0.18498528,0.00062436
 ,0.00061692,-0.00026252,-0.01530084,-0.01232022,-0.02004834,0.00127185
 ,0.00005224,-0.00185917,0.01019144,0.00501035,0.01258227,-0.00034680,0
 .00030191,-0.00002417,0.00008552,0.00000242,0.00012355,-0.00018518,0.0
 0007541,0.00004251,-0.00050599,0.00025345,0.00026963,-0.00019311,-0.00
 038679,0.00009154,-0.00000633,-0.00017564,-0.00018932,0.00176633,-0.00
 032642,0.00106084,-0.00861580,0.00324263,-0.00000861,-0.15149756,-0.04
 991908,-0.11738762,-0.00022024,0.00002568,-0.00031377,-0.00006644,0.00
 020597,-0.00014753,-0.00010075,-0.00001471,0.00019349,0.00087586,0.000
 24708,-0.00082554,-0.00064539,-0.00071372,0.00342513,-0.00002498,0.000
 01366,-0.00000934,0.00000528,-0.00000145,-0.00002427,-0.00003351,-0.00
 004951,0.00006061,0.00005102,0.00001349,-0.00001521,0.00002252,0.00001
 429,-0.00000132,0.00001636,-0.00003010,-0.00000222,-0.00001263,0.00000
 466,0.00001786,-0.00010566,0.00001646,-0.00000229,0.16706428,0.0006905
 8,0.00052062,0.00072084,0.01079903,0.00444306,0.01442585,0.00007273,0.
 00036372,0.00074282,0.00174909,-0.00014611,0.00111307,0.00007008,-0.00
 006591,0.00000119,-0.00002387,0.00001224,-0.00002876,0.00020427,-0.000
 01079,0.00005060,0.00026321,-0.00011482,-0.00014040,-0.00003440,0.0001
 0914,0.00000234,0.00002065,0.00008306,0.00008301,-0.00021586,0.0007045
 3,-0.00056724,0.00421597,-0.00084449,-0.00008045,-0.05419370,-0.076983
 02,-0.05961092,-0.00020076,0.00019081,0.00001473,0.00002431,0.00004891
 ,-0.00007735,0.00004239,-0.00000604,-0.00004163,-0.00004248,0.00007239
 ,-0.00029678,0.00014164,0.00094819,0.00045761,0.00000580,-0.00000590,0
 .00000059,-0.00000233,-0.00000067,0.00000626,-0.00003395,0.00000969,-0
 .00006311,-0.00002239,0.00000750,0.00000338,-0.00000854,-0.00000932,0.
 00000073,-0.00000281,0.00001558,-0.00000274,0.00000268,-0.00000092,-0.
 00000623,0.00004554,-0.00000959,0.00000053,0.05597920,0.07812251,-0.00
 094144,-0.00089605,0.00108869,0.00144941,0.00003237,-0.00048912,0.0002
 1748,-0.00012261,0.00017873,-0.01823095,-0.00970997,-0.02376568,-0.000
 00735,-0.00000096,-0.00000701,0.00000203,0.00000132,0.00000471,0.00018
 619,0.00012819,-0.00030267,0.00001776,0.00001391,0.00000229,0.00002969
 ,0.00000114,0.00000176,0.00000649,0.00000093,-0.00001183,0.00026997,0.
 00034181,0.00037551,0.00087627,-0.00040870,0.00154798,-0.11918125,-0.0
 5787133,-0.17960741,0.00033206,0.00077495,0.00012586,0.00038928,-0.000
 04830,0.00032691,-0.00005376,0.00001990,-0.00003426,0.00003446,-0.0001
 6335,0.00144947,0.00320365,0.00099507,-0.00466535,-0.00000178,0.000000
 48,-0.00000054,0.00000024,-0.00000037,-0.00000059,0.00007942,-0.000064
 80,0.00002340,-0.00007968,0.00006438,0.00002640,0.00000163,-0.00000361
 ,-0.00000796,0.00000086,-0.00000146,-0.00000060,0.00000179,-0.00000058
 ,0.00000080,-0.00000172,0.00000141,0.00000105,0.12682448,0.06525993,0.
 19846151,-0.00073153,0.00054501,0.00355560,0.00772395,0.02418047,-0.00
 651735,0.00009738,-0.00015776,0.00017533,-0.00385376,-0.01414692,0.001
 18431,-0.00002390,-0.00005524,-0.00001833,-0.00000256,0.00000967,0.000
 00997,-0.00109372,-0.00006805,0.00150592,0.00002347,-0.00003533,-0.000
 01853,0.00009293,0.00005195,0.00004180,0.00000125,0.00000889,0.0000082
 1,-0.00380316,0.00725403,-0.00139901,0.00109709,0.00020123,0.00018710,
 -0.06599705,-0.06628759,0.01292035,0.00009766,0.00047578,-0.00009098,0
 .00018889,-0.00114838,0.00047309,-0.00001217,-0.00000960,0.00002362,0.
 00009077,0.00000073,-0.00068349,0.00061018,0.00050482,-0.00020178,-0.0
 0000327,-0.00000311,-0.00000193,0.00000104,-0.00000077,-0.00000059,0.0
 0008060,-0.00002876,-0.00016964,0.00019787,-0.00004114,-0.00020366,-0.
 00000216,-0.00000069,0.00000335,-0.00000366,-0.00000474,-0.00000351,-0
 .00000013,0.00000076,-0.00000068,0.00000490,-0.00000279,-0.00000167,-0
 .00472223,-0.01891153,0.00467411,0.06921125,-0.00008241,0.00147187,0.0
 0034290,-0.00860702,-0.01735466,0.00346803,0.00027567,0.00034411,-0.00
 014000,-0.00002321,0.00053008,0.00002964,0.00004779,0.00009703,0.00003
 390,0.00000514,-0.00001558,-0.00001714,0.00031131,0.00055814,-0.001616
 86,0.00004700,-0.00001464,-0.00001109,-0.00020243,-0.00007612,-0.00001
 328,0.00000653,0.00000939,0.00001393,0.00405284,-0.00410467,0.00077784
 ,-0.00120847,0.00179555,-0.00058086,-0.06146952,-0.29178068,0.04931235
 ,0.00002432,0.00010743,-0.00008421,0.00010580,-0.00015728,-0.00011119,
 0.00000919,-0.00004360,0.00003390,-0.00030816,0.00027112,0.00040469,-0
 .00004458,0.00030822,0.00038744,0.00000617,0.00000317,0.00000384,-0.00
 000200,0.00000050,0.00000210,-0.00000445,0.00000606,0.00021288,-0.0000
 6906,-0.00006021,0.00012466,0.00000370,0.00000020,-0.00000109,0.000006
 89,0.00000830,0.00000036,-0.00000017,0.00000034,-0.00000162,0.00000609
 ,0.00000046,0.00000047,-0.00174300,-0.00803286,0.00114135,0.06859687,0
 .31566512,0.00278821,-0.00125991,-0.00557743,-0.00187832,-0.00074236,-
 0.00155676,-0.00010334,-0.00003255,0.00005648,0.00657550,0.02966192,-0
 .00539440,0.00001581,-0.00001773,0.00000670,0.00000020,0.00000142,-0.0
 0000364,0.00070593,-0.00047133,-0.00031922,0.00000491,0.00000210,-0.00
 000854,0.00002639,0.00000839,-0.00004053,0.00000181,0.00000234,0.00000
 495,0.00062431,-0.00106863,0.00168382,-0.00019024,0.00006999,0.0001540
 5,0.01258075,0.04757041,-0.05712999,0.00016042,0.00014378,0.00014437,0
 .00025880,0.00184753,-0.00035707,-0.00000236,0.00000469,-0.00003754,-0
 .00025110,-0.00056832,0.00124764,-0.00087925,-0.00017499,0.00116790,0.
 00000109,-0.00000164,0.00000040,-0.00000004,-0.00000028,0.00000155,-0.
 00008730,0.00000669,0.00006832,-0.00011514,0.00003907,0.00014893,-0.00
 000060,0.00000151,-0.00000274,-0.00000118,-0.00000203,0.00000222,0.000
 00176,0.00000025,-0.00000145,0.00000369,-0.00000043,-0.00000049,-0.004
 03773,-0.02178719,0.00476252,-0.01581735,-0.05344211,0.06101973,0.0003
 8706,0.00026247,-0.00030913,-0.09208853,0.00727681,0.09475334,0.003699
 50,-0.00024484,-0.00499392,-0.00313007,0.00377077,-0.00180620,0.000051
 93,0.00008703,0.00008923,-0.00002728,-0.00001901,-0.00003551,0.0015440
 2,-0.00082002,-0.00104287,-0.00014294,-0.00006479,-0.00022872,-0.00040
 535,-0.00009840,0.00010023,0.00000436,-0.00001046,0.00009970,-0.001045
 38,-0.00450600,0.00824843,-0.00048175,-0.00657452,-0.03010099,-0.00970
 111,0.00131756,0.02442665,-0.00007376,-0.00009449,-0.00006684,-0.00000
 170,-0.00010358,0.00003128,0.00022060,-0.00039298,0.00086294,-0.000781
 05,-0.00016904,0.00145189,0.00008065,0.00007023,0.00017126,0.00001001,
 0.00000945,0.00000223,-0.00000009,-0.00000138,0.00000255,-0.00014882,-
 0.00006427,0.00030286,-0.00008829,-0.00011014,0.00031974,-0.00018794,-
 0.00006462,0.00020193,0.00002566,0.00002418,0.00000932,-0.00004963,0.0
 0001166,0.00001240,0.00001115,-0.00000305,0.00000224,0.00061900,-0.000
 64189,-0.00010572,0.00068724,0.00031125,-0.00038974,0.10084833,-0.0000
 3190,-0.00049080,0.00047071,0.01071252,-0.04814973,-0.01510055,0.00255
 732,-0.00030248,-0.00078258,0.00291059,-0.00198848,0.00118676,-0.00019
 852,0.00015022,-0.00006374,0.00002900,0.00001782,0.00005755,0.00060115
 ,-0.00518496,-0.00164367,-0.00010890,-0.00003137,0.00008646,-0.0000804
 0,-0.00005942,0.00031646,0.00000042,-0.00005305,-0.00001601,-0.0192759
 2,-0.01299256,0.04064196,-0.00346658,0.00062328,-0.01823131,0.00784625
 ,0.00195906,-0.01735344,-0.00004700,0.00009653,-0.00005092,-0.00022754
 ,0.00032474,-0.00004733,-0.00028682,-0.00009673,0.00067580,0.00059451,
 0.00018078,-0.00111367,-0.00020021,-0.00004541,0.00007075,-0.00001406,
 0.00000406,-0.00000484,0.00000116,-0.00000273,-0.00001131,0.00000346,-
 0.00002866,0.00044700,-0.00073982,-0.00032654,0.00154833,-0.00000240,0
 .00001448,0.00008344,0.00001036,-0.00001524,-0.00000120,-0.00002437,0.
 00000640,0.00000597,-0.00003078,0.00000302,-0.00000410,-0.00043639,0.0
 0060576,0.00051730,-0.00089552,0.00041900,0.00020829,0.00080577,0.0655
 9439,-0.00009155,0.00004622,-0.00014080,0.08812521,-0.00691907,-0.2656
 6366,0.00433645,-0.00057104,0.00062845,-0.00043693,0.00020527,0.001091
 71,-0.00020593,0.00028070,0.00009299,0.00006486,-0.00001423,0.00004756
 ,-0.00069249,0.00144600,0.00335600,-0.00038833,-0.00000760,0.00074464,
 -0.00033206,-0.00015610,-0.00011293,-0.00006654,-0.00012630,-0.0000804
 4,0.00739124,0.00758503,-0.01046625,-0.00555163,-0.00900112,-0.0298042
 9,0.00040379,-0.00068682,0.00196182,0.00002715,-0.00000770,0.00001245,
 0.00004853,-0.00009050,-0.00004740,-0.00143559,-0.00005122,0.00068182,
 -0.00011934,0.00004541,-0.00000993,-0.00007720,0.00005088,0.00009913,-
 0.00000483,0.00001604,0.00000181,0.00000313,0.00000036,-0.00001121,-0.
 00009578,-0.00013435,0.00004075,0.00029462,0.00006564,-0.00057677,0.00
 021110,0.00013466,0.00020930,0.00003246,0.00002486,-0.00000449,-0.0000
 2990,0.00000214,-0.00000328,-0.00005557,0.00001546,-0.00001453,0.00047
 890,-0.00018672,0.00051302,0.00040129,-0.00030470,-0.00004759,-0.09215
 185,0.00804525,0.29762434,-0.00002813,0.00005361,0.00008887,0.00001369
 ,0.00029147,-0.00031697,0.00256570,0.00192885,-0.00577536,0.00000103,0
 .00001756,-0.00000635,-0.02977876,-0.00733303,0.03397326,0.00340782,0.
 00155275,0.00605357,-0.00041808,-0.00010635,-0.00032610,-0.00012793,-0
 .00039294,0.00023793,-0.05840988,-0.01784819,0.04372221,-0.00041519,-0
 .00019885,-0.00064094,0.00047390,-0.00024412,0.00043806,0.00145504,-0.
 00095676,-0.00018520,-0.00001292,-0.00006683,0.00004504,0.00002902,-0.
 00002235,0.00000858,0.00000314,-0.00000528,-0.00000806,-0.00011153,0.0
 0173521,0.00014263,-0.00000237,-0.00001422,0.00000719,-0.00000392,0.00
 000271,0.00000291,0.00012553,0.00019964,-0.00037861,0.00051228,0.00017
 035,-0.00134863,-0.00019764,0.00012761,0.00019406,0.00005968,-0.000030
 21,0.00003649,0.00000143,-0.00017797,0.00014464,-0.00004782,-0.0000145
 1,0.00000530,-0.00000895,0.00013399,-0.00004453,0.00009916,-0.00027473
 ,-0.00008139,-0.00000820,0.00000388,0.00000051,0.00001287,-0.00000630,
 0.00000048,0.00008501,-0.00002937,0.00009215,0.07560023,-0.00005179,-0
 .00005866,-0.00005923,0.00008146,-0.00021407,0.00000154,-0.00737970,-0
 .01238952,0.03331978,-0.00000281,-0.00002202,0.00000966,0.00385586,0.0
 0530569,-0.00795636,-0.00102023,-0.00045136,0.00015444,0.00004823,0.00
 019033,0.00027877,0.00017711,0.00182926,0.00124479,-0.01760562,-0.0736
 3339,0.06581918,0.00002034,-0.00018689,0.00002453,0.00044186,-0.000013
 96,0.00005912,-0.00057236,0.00268534,-0.00177356,-0.00000205,0.0000101
 6,0.00002851,-0.00003335,0.00001730,-0.00000117,0.00000027,0.00000104,
 0.00000168,0.00120564,-0.00586771,0.00052033,0.00000331,0.00000673,-0.
 00000651,-0.00000096,-0.00000006,0.00000294,0.00001084,-0.00004387,-0.
 00008324,-0.00029431,-0.00012098,0.00022417,0.00006862,0.00001477,-0.0
 0016388,0.00000011,-0.00003740,-0.00001269,-0.00003839,-0.00019575,-0.
 00082403,0.00028810,0.00027579,-0.00041415,0.00008625,0.00003058,-0.00
 004584,-0.00007887,0.00007306,-0.00001106,0.00000903,-0.00000923,0.000
 00431,-0.00000276,-0.00000866,0.00000149,-0.00011171,-0.00007686,-0.00
 005846,0.01667433,0.07647590,0.00006827,0.00008770,0.00015998,0.000357
 68,0.00062545,-0.00029363,0.00205669,0.00070973,-0.00652403,-0.0000002
 8,0.00004240,-0.00001879,0.01149983,-0.00102543,-0.00270422,-0.0020565
 5,-0.00115959,0.00198912,-0.00017118,-0.00015532,-0.00015446,-0.000146
 73,-0.00068495,0.00071393,0.04687323,0.06675965,-0.26216151,0.00016311
 ,-0.00011788,0.00006971,0.00017728,-0.00032132,0.00027540,-0.00176154,
 -0.00019009,0.00089844,-0.00003311,-0.00008582,0.00001857,0.00006983,-
 0.00004800,0.00000110,-0.00000798,-0.00000336,-0.00000883,-0.00002836,
 0.00110634,0.00089428,-0.00000530,-0.00001905,0.00001617,-0.00000473,-
 0.00000053,-0.00000423,0.00014633,-0.00002381,0.00043014,0.00112495,0.
 00084943,0.00060236,-0.00001203,0.00007200,0.00032737,-0.00002894,0.00
 005834,0.00001496,0.00041688,0.00022716,0.00047443,-0.00012055,0.00007
 175,0.00017232,-0.00010562,0.00003945,-0.00022227,0.00007632,0.0000807
 2,0.00000365,-0.00002714,0.00000758,0.00000058,0.00000662,-0.00001899,
 0.00000448,0.00004394,-0.00003438,0.00008553,-0.06278380,-0.07383814,0
 .28306520,-0.00004995,0.00001721,-0.00004070,-0.00002376,0.00116664,0.
 00003752,0.00563119,0.00303532,0.00578329,0.00004456,-0.00002976,0.000
 05012,-0.03123243,-0.01890153,-0.02522902,-0.00378823,0.00280460,0.004
 04856,-0.00026878,-0.00026619,0.00037382,-0.00026629,0.00250331,-0.000
 25887,-0.10476350,-0.07105475,-0.08447505,-0.00056011,-0.00002671,-0.0
 0038253,-0.00388205,0.00017417,0.00009101,0.00059888,-0.00156874,-0.00
 011815,-0.00006995,-0.00008451,-0.00018530,0.00002168,-0.00000958,0.00
 000778,0.00003672,-0.00000573,-0.00001282,0.00018470,-0.00040433,-0.00
 017326,0.00002460,-0.00001269,-0.00002319,-0.00000468,-0.00000009,-0.0
 0000403,-0.00112692,-0.00094512,-0.00102777,0.00011284,0.00008733,-0.0
 0028728,0.00005756,0.00001401,-0.00007314,-0.00000449,0.00001818,-0.00
 001851,-0.00009488,-0.00011166,-0.00019668,0.00053467,0.00056121,0.000
 28475,0.00005743,-0.00003340,0.00002935,0.00012642,-0.00025401,0.00000
 593,-0.00000217,0.00000345,0.00000586,0.00002996,-0.00004576,0.0000036
 5,0.00007918,0.00002400,-0.00017538,0.00512578,0.00422358,0.00421286,0
 .13347204,-0.00005529,-0.00002948,0.00017892,0.00067059,-0.00165319,-0
 .00080188,-0.01735716,-0.01751824,-0.02371175,-0.00006739,0.00001303,-
 0.00004843,0.00468482,0.00670997,0.00684243,0.00215788,0.00029835,0.00
 020249,0.00009386,0.00023715,-0.00058272,0.00273319,-0.00544414,0.0024
 8790,-0.07651558,-0.13999738,-0.10557017,0.00067594,0.00020295,0.00011
 043,-0.00101045,0.00093845,0.00068440,0.00085413,0.00181348,0.00126410
 ,0.00011650,0.00005299,0.00025586,-0.00000226,-0.00000354,-0.00001355,
 -0.00006618,0.00003502,0.00002808,-0.00004624,0.00162134,0.00035709,-0
 .00002402,0.00001137,0.00003223,0.00000480,0.00000381,0.00001317,0.000
 40447,0.00034709,0.00013481,-0.00005931,-0.00008369,-0.00019397,0.0000
 2903,-0.00000483,0.00005663,-0.00002605,-0.00004642,0.00004159,0.00012
 457,0.00012733,-0.00003873,-0.00117562,-0.00118973,-0.00122075,-0.0001
 0753,0.00004415,0.00004856,-0.00013893,0.00013669,-0.00003865,0.000032
 19,-0.00001807,-0.00000665,-0.00002954,0.00005288,-0.00000036,0.000147
 99,-0.00015452,0.00035201,0.00483006,0.00641445,0.00698900,0.07912154,
 0.14708271,-0.00003414,-0.00000367,0.00016269,-0.00015736,-0.00136020,
 0.00037093,0.00286657,0.00500862,0.00403300,-0.00000288,-0.00005594,-0
 .00000903,0.00410109,0.00479567,0.00664354,0.00122376,0.00038595,0.000
 83077,0.00027013,0.00015304,-0.00080918,-0.00029706,0.00062256,0.00069
 020,-0.09188734,-0.10567380,-0.18100181,0.00017508,0.00008448,-0.00001
 268,-0.00233820,0.00095520,0.00045264,0.00091421,-0.00059272,0.0001578
 2,0.00009423,0.00013349,-0.00007382,0.00000341,0.00000161,-0.00000602,
 -0.00005622,0.00004084,0.00002847,0.00041831,-0.00061407,0.00073641,-0
 .00000340,0.00001771,-0.00000344,0.00000313,0.00000447,0.00001011,0.00
 000907,-0.00012546,0.00030867,0.00019325,0.00005365,0.00049314,0.00003
 552,-0.00000948,0.00008163,0.00000383,-0.00002293,0.00002897,0.0001084
 4,0.00023782,0.00039442,-0.00011507,0.00010657,0.00027475,0.00000069,-
 0.00002654,-0.00000733,-0.00005078,0.00003379,-0.00004205,0.00001529,-
 0.00000153,0.00000185,-0.00004216,0.00005287,0.00000333,0.00009930,0.0
 0009698,-0.00020773,-0.01329791,-0.01644690,-0.01812573,0.09774721,0.1
 1214793,0.18459546\\0.00000373,-0.00000152,0.00000414,-0.00003059,-0.0
 0026136,0.00016559,0.00000314,0.00014646,-0.00017128,-0.00000363,0.000
 00100,0.00000593,-0.00001268,-0.00000299,-0.00000197,0.00000469,0.0000
 0597,0.00000453,-0.00000354,-0.00000344,0.00002876,-0.00000776,-0.0001
 9217,0.00017698,0.00001116,-0.00000063,0.00000508,-0.00000409,-0.00000
 072,0.00000010,-0.00000148,-0.00000050,-0.00001464,0.00002850,0.000304
 77,-0.00018445,0.00001353,0.00000213,0.00000325,-0.00000031,-0.0000006
 4,0.00000290,-0.00000078,-0.00000114,0.00000103,-0.00000149,0.00000312
 ,0.00000186,0.00000154,-0.00000118,0.00000205,-0.00000037,-0.00000164,
 0.00000051,-0.00000318,-0.00000052,-0.00000587,0.00000075,-0.00000068,
 -0.00000635,0.00000037,-0.00000103,-0.00000430,0.00000343,0.00000229,-
 0.00000230,0.00000280,0.00000117,-0.00000213,-0.00000132,-0.00000066,-
 0.00000199,-0.00000073,0.00000137,-0.00000543,0.00000035,0.00000142,-0
 .00000770,-0.00000208,-0.00000200,0.00000225,-0.00000553,0.00000022,0.
 00000081,0.00000052,0.00000236,0.00000781,0.00000129,-0.00000163,-0.00
 000336,0.00000377,0.00000215,-0.00000182\\\@


 SATCHEL PAIGE'S GUIDE TO LONGEVITY

    1.  AVOID FRIED MEATS, WHICH ANGRY UP THE BLOOD.

    2.  IF YOUR STOMACH DISPUTES YOU, LIE DOWN AND PACIFY IT WITH COOL
        THOUGHTS.

    3.  KEEP THE JUICES FLOWING BY JANGLING AROUND GENTLY AS YOU MOVE.

    4.  GO VERY LIGHT ON THE VICES, SUCH AS CARRYING ON IN SOCIETY.
        THE SOCIAL RUMBLE AIN'T RESTFUL.

    5.  AVOID RUNNING AT ALL TIMES.

    6.  DON'T LOOK BACK.  SOMETHING MAY BE GAINING ON YOU.
 Job cpu time:       0 days 14 hours 32 minutes 57.2 seconds.
 Elapsed time:       0 days  0 hours 54 minutes 34.9 seconds.
 File lengths (MBytes):  RWF=    688 Int=      0 D2E=      0 Chk=     33 Scr=      1
 Normal termination of Gaussian 16 at Sun Nov  4 22:53:52 2018.
