 Entering Gaussian System, Link 0=g16
 Initial command:
 /apps/gaussian/g16a03/g16/l1.exe "/jobfs/local/2011973.r-man2/Gau-18210.inp" -scrdir="/jobfs/local/2011973.r-man2/"
 Entering Link 1 = /apps/gaussian/g16a03/g16/l1.exe PID=     18211.
  
 Copyright (c) 1988,1990,1992,1993,1995,1998,2003,2009,2016,
            Gaussian, Inc.  All Rights Reserved.
  
 This is part of the Gaussian(R) 16 program.  It is based on
 the Gaussian(R) 09 system (copyright 2009, Gaussian, Inc.),
 the Gaussian(R) 03 system (copyright 2003, Gaussian, Inc.),
 the Gaussian(R) 98 system (copyright 1998, Gaussian, Inc.),
 the Gaussian(R) 94 system (copyright 1995, Gaussian, Inc.),
 the Gaussian 92(TM) system (copyright 1992, Gaussian, Inc.),
 the Gaussian 90(TM) system (copyright 1990, Gaussian, Inc.),
 the Gaussian 88(TM) system (copyright 1988, Gaussian, Inc.),
 the Gaussian 86(TM) system (copyright 1986, Carnegie Mellon
 University), and the Gaussian 82(TM) system (copyright 1983,
 Carnegie Mellon University). Gaussian is a federally registered
 trademark of Gaussian, Inc.
  
 This software contains proprietary and confidential information,
 including trade secrets, belonging to Gaussian, Inc.
  
 This software is provided under written license and may be
 used, copied, transmitted, or stored only in accord with that
 written license.
  
 The following legend is applicable only to US Government
 contracts under FAR:
  
                    RESTRICTED RIGHTS LEGEND
  
 Use, reproduction and disclosure by the US Government is
 subject to restrictions as set forth in subparagraphs (a)
 and (c) of the Commercial Computer Software - Restricted
 Rights clause in FAR 52.227-19.
  
 Gaussian, Inc.
 340 Quinnipiac St., Bldg. 40, Wallingford CT 06492
  
  
 ---------------------------------------------------------------
 Warning -- This program may not be used in any manner that
 competes with the business of Gaussian, Inc. or will provide
 assistance to any competitor of Gaussian, Inc.  The licensee
 of this program is prohibited from giving any competitor of
 Gaussian, Inc. access to this program.  By using this program,
 the user acknowledges that Gaussian, Inc. is engaged in the
 business of creating and licensing software in the field of
 computational chemistry and represents and warrants to the
 licensee that it is not a competitor of Gaussian, Inc. and that
 it will not use this program in any manner prohibited above.
 ---------------------------------------------------------------
  

 Cite this work as:
 Gaussian 16, Revision A.03,
 M. J. Frisch, G. W. Trucks, H. B. Schlegel, G. E. Scuseria, 
 M. A. Robb, J. R. Cheeseman, G. Scalmani, V. Barone, 
 G. A. Petersson, H. Nakatsuji, X. Li, M. Caricato, A. V. Marenich, 
 J. Bloino, B. G. Janesko, R. Gomperts, B. Mennucci, H. P. Hratchian, 
 J. V. Ortiz, A. F. Izmaylov, J. L. Sonnenberg, D. Williams-Young, 
 F. Ding, F. Lipparini, F. Egidi, J. Goings, B. Peng, A. Petrone, 
 T. Henderson, D. Ranasinghe, V. G. Zakrzewski, J. Gao, N. Rega, 
 G. Zheng, W. Liang, M. Hada, M. Ehara, K. Toyota, R. Fukuda, 
 J. Hasegawa, M. Ishida, T. Nakajima, Y. Honda, O. Kitao, H. Nakai, 
 T. Vreven, K. Throssell, J. A. Montgomery, Jr., J. E. Peralta, 
 F. Ogliaro, M. J. Bearpark, J. J. Heyd, E. N. Brothers, K. N. Kudin, 
 V. N. Staroverov, T. A. Keith, R. Kobayashi, J. Normand, 
 K. Raghavachari, A. P. Rendell, J. C. Burant, S. S. Iyengar, 
 J. Tomasi, M. Cossi, J. M. Millam, M. Klene, C. Adamo, R. Cammi, 
 J. W. Ochterski, R. L. Martin, K. Morokuma, O. Farkas, 
 J. B. Foresman, and D. J. Fox, Gaussian, Inc., Wallingford CT, 2016.
 
 ******************************************
 Gaussian 16:  ES64L-G16RevA.03 25-Dec-2016
                 4-Nov-2018 
 ******************************************
 %mem=6000mb
 %nproc=24
 Will use up to   24 processors via shared memory.
 %chk=D_1a_4e_D_PSI.inp_extract_25.chk
 ----------------------------------------------------------------------
 #M062X/6-311++G(2d,2p) opt=ModRedundant freq=noraman SCRF=(Solvent=Wat
 er)
 ----------------------------------------------------------------------
 1/18=120,19=15,26=3,38=1/1,3;
 2/9=110,12=2,17=6,18=5,40=1/2;
 3/5=4,6=6,7=1212,11=2,25=1,30=1,70=2201,71=1,72=1,74=-55/1,2,3;
 4//1;
 5/5=2,38=5,53=1/2;
 6/7=2,8=2,9=2,10=2,28=1/1;
 7//1,2,3,16;
 1/18=20,19=15,26=3/3(2);
 2/9=110/2;
 99//99;
 2/9=110/2;
 3/5=4,6=6,7=1212,11=2,25=1,30=1,70=2205,71=1,72=1,74=-55/1,2,3;
 4/5=5,16=3,69=1/1;
 5/5=2,38=5,53=1/2;
 7//1,2,3,16;
 1/18=20,19=15,26=3/3(-5);
 2/9=110/2;
 6/7=2,8=2,9=2,10=2,19=2,28=1/1;
 99/9=1/99;
 ----------------------------
 D_1a_4e_D_PSI.inp_extract_25
 ----------------------------
 Symbolic Z-matrix:
 Charge =  0 Multiplicity = 1
 C                    -3.71389   0.44773  -0.17624 
 C                    -1.016    -0.2873    0.58044 
 C                     1.09394  -0.13883  -0.65282 
 C                    -3.23527  -0.98461  -0.41245 
 O                     3.25561  -1.09818  -0.18849 
 C                     3.72393   0.07935   0.44464 
 C                    -2.53219   1.40304  -0.18624 
 C                     1.5264    1.18952  -0.0392 
 C                     1.8672   -1.30257  -0.03582 
 C                     3.05049   1.31189  -0.13648 
 O                    -1.53519   1.0073    0.74634 
 O                    -0.30327  -0.38851  -0.6214 
 C                    -2.12816  -1.32651   0.58564 
 H                    -4.21886   0.51331   0.78479 
 H                    -4.42371   0.75423  -0.93935 
 H                     1.32779  -0.11833  -1.7101 
 H                    -4.05736  -1.6854   -0.30408 
 H                    -2.86575  -1.08408  -1.42964 
 H                     4.79367   0.10274   0.28831 
 H                     3.53467   0.00651   1.51331 
 H                    -2.09533   1.46144  -1.17745 
 H                    -2.82667   2.40028   0.11027 
 H                     1.23211   1.23534   1.00484 
 H                     1.0411    2.01218  -0.55388 
 H                     3.34982   1.42336  -1.17556 
 H                     3.3927    2.19362   0.39691 
 H                    -2.54305  -1.3519    1.5897 
 H                    -1.69798  -2.30188   0.38561 
 H                    -0.3594   -0.43311   1.42269 
 H                     1.63359  -1.41801   1.01905 
 H                     1.62683  -2.22533  -0.54584 
 
 The following ModRedundant input section has been read:
 D       8       3      12       2 F                                           
 

 GradGradGradGradGradGradGradGradGradGradGradGradGradGradGradGradGradGrad
 Berny optimization.
 Initialization pass.
                           ----------------------------
                           !    Initial Parameters    !
                           ! (Angstroms and Degrees)  !
 --------------------------                            --------------------------
 ! Name  Definition              Value          Derivative Info.                !
 --------------------------------------------------------------------------------
 ! R1    R(1,4)                  1.5286         estimate D2E/DX2                !
 ! R2    R(1,7)                  1.5196         estimate D2E/DX2                !
 ! R3    R(1,14)                 1.0876         estimate D2E/DX2                !
 ! R4    R(1,15)                 1.0863         estimate D2E/DX2                !
 ! R5    R(2,11)                 1.4047         estimate D2E/DX2                !
 ! R6    R(2,12)                 1.401          estimate D2E/DX2                !
 ! R7    R(2,13)                 1.5221         estimate D2E/DX2                !
 ! R8    R(2,29)                 1.0779         estimate D2E/DX2                !
 ! R9    R(3,8)                  1.5258         estimate D2E/DX2                !
 ! R10   R(3,9)                  1.5274         estimate D2E/DX2                !
 ! R11   R(3,12)                 1.4197         estimate D2E/DX2                !
 ! R12   R(3,16)                 1.083          estimate D2E/DX2                !
 ! R13   R(4,13)                 1.5293         estimate D2E/DX2                !
 ! R14   R(4,17)                 1.0857         estimate D2E/DX2                !
 ! R15   R(4,18)                 1.0868         estimate D2E/DX2                !
 ! R16   R(5,6)                  1.4166         estimate D2E/DX2                !
 ! R17   R(5,9)                  1.4117         estimate D2E/DX2                !
 ! R18   R(6,10)                 1.52           estimate D2E/DX2                !
 ! R19   R(6,19)                 1.0814         estimate D2E/DX2                !
 ! R20   R(6,20)                 1.0877         estimate D2E/DX2                !
 ! R21   R(7,11)                 1.4214         estimate D2E/DX2                !
 ! R22   R(7,21)                 1.0848         estimate D2E/DX2                !
 ! R23   R(7,22)                 1.0813         estimate D2E/DX2                !
 ! R24   R(8,10)                 1.5321         estimate D2E/DX2                !
 ! R25   R(8,23)                 1.0857         estimate D2E/DX2                !
 ! R26   R(8,24)                 1.085          estimate D2E/DX2                !
 ! R27   R(9,30)                 1.0866         estimate D2E/DX2                !
 ! R28   R(9,31)                 1.0814         estimate D2E/DX2                !
 ! R29   R(10,25)                1.0871         estimate D2E/DX2                !
 ! R30   R(10,26)                1.0858         estimate D2E/DX2                !
 ! R31   R(13,27)                1.0867         estimate D2E/DX2                !
 ! R32   R(13,28)                1.0846         estimate D2E/DX2                !
 ! A1    A(4,1,7)              110.1565         estimate D2E/DX2                !
 ! A2    A(4,1,14)             109.7818         estimate D2E/DX2                !
 ! A3    A(4,1,15)             111.1267         estimate D2E/DX2                !
 ! A4    A(7,1,14)             109.2055         estimate D2E/DX2                !
 ! A5    A(7,1,15)             109.0334         estimate D2E/DX2                !
 ! A6    A(14,1,15)            107.477          estimate D2E/DX2                !
 ! A7    A(11,2,12)            110.8512         estimate D2E/DX2                !
 ! A8    A(11,2,13)            111.0246         estimate D2E/DX2                !
 ! A9    A(11,2,29)            104.9252         estimate D2E/DX2                !
 ! A10   A(12,2,13)            108.9856         estimate D2E/DX2                !
 ! A11   A(12,2,29)            110.5276         estimate D2E/DX2                !
 ! A12   A(13,2,29)            110.4921         estimate D2E/DX2                !
 ! A13   A(8,3,9)              110.9383         estimate D2E/DX2                !
 ! A14   A(8,3,12)             115.0342         estimate D2E/DX2                !
 ! A15   A(8,3,16)             108.3561         estimate D2E/DX2                !
 ! A16   A(9,3,12)             110.8124         estimate D2E/DX2                !
 ! A17   A(9,3,16)             107.4254         estimate D2E/DX2                !
 ! A18   A(12,3,16)            103.7356         estimate D2E/DX2                !
 ! A19   A(1,4,13)             109.5917         estimate D2E/DX2                !
 ! A20   A(1,4,17)             110.6298         estimate D2E/DX2                !
 ! A21   A(1,4,18)             109.6862         estimate D2E/DX2                !
 ! A22   A(13,4,17)            109.7989         estimate D2E/DX2                !
 ! A23   A(13,4,18)            110.1356         estimate D2E/DX2                !
 ! A24   A(17,4,18)            106.9663         estimate D2E/DX2                !
 ! A25   A(6,5,9)              113.4015         estimate D2E/DX2                !
 ! A26   A(5,6,10)             110.8973         estimate D2E/DX2                !
 ! A27   A(5,6,19)             106.285          estimate D2E/DX2                !
 ! A28   A(5,6,20)             109.0212         estimate D2E/DX2                !
 ! A29   A(10,6,19)            111.4371         estimate D2E/DX2                !
 ! A30   A(10,6,20)            110.6603         estimate D2E/DX2                !
 ! A31   A(19,6,20)            108.3974         estimate D2E/DX2                !
 ! A32   A(1,7,11)             111.4761         estimate D2E/DX2                !
 ! A33   A(1,7,21)             110.6723         estimate D2E/DX2                !
 ! A34   A(1,7,22)             111.483          estimate D2E/DX2                !
 ! A35   A(11,7,21)            109.3914         estimate D2E/DX2                !
 ! A36   A(11,7,22)            105.5397         estimate D2E/DX2                !
 ! A37   A(21,7,22)            108.0951         estimate D2E/DX2                !
 ! A38   A(3,8,10)             109.0238         estimate D2E/DX2                !
 ! A39   A(3,8,23)             110.2827         estimate D2E/DX2                !
 ! A40   A(3,8,24)             110.0326         estimate D2E/DX2                !
 ! A41   A(10,8,23)            109.1074         estimate D2E/DX2                !
 ! A42   A(10,8,24)            110.7486         estimate D2E/DX2                !
 ! A43   A(23,8,24)            107.6329         estimate D2E/DX2                !
 ! A44   A(3,9,5)              110.1162         estimate D2E/DX2                !
 ! A45   A(3,9,30)             111.3635         estimate D2E/DX2                !
 ! A46   A(3,9,31)             110.3101         estimate D2E/DX2                !
 ! A47   A(5,9,30)             109.3796         estimate D2E/DX2                !
 ! A48   A(5,9,31)             106.9275         estimate D2E/DX2                !
 ! A49   A(30,9,31)            108.6279         estimate D2E/DX2                !
 ! A50   A(6,10,8)             110.591          estimate D2E/DX2                !
 ! A51   A(6,10,25)            109.0622         estimate D2E/DX2                !
 ! A52   A(6,10,26)            109.3309         estimate D2E/DX2                !
 ! A53   A(8,10,25)            110.0477         estimate D2E/DX2                !
 ! A54   A(8,10,26)            110.3149         estimate D2E/DX2                !
 ! A55   A(25,10,26)           107.4271         estimate D2E/DX2                !
 ! A56   A(2,11,7)             116.0009         estimate D2E/DX2                !
 ! A57   A(2,12,3)             120.4627         estimate D2E/DX2                !
 ! A58   A(2,13,4)             111.9677         estimate D2E/DX2                !
 ! A59   A(2,13,27)            107.3407         estimate D2E/DX2                !
 ! A60   A(2,13,28)            108.8768         estimate D2E/DX2                !
 ! A61   A(4,13,27)            109.3815         estimate D2E/DX2                !
 ! A62   A(4,13,28)            111.5806         estimate D2E/DX2                !
 ! A63   A(27,13,28)           107.5065         estimate D2E/DX2                !
 ! D1    D(7,1,4,13)            52.8852         estimate D2E/DX2                !
 ! D2    D(7,1,4,17)           174.0943         estimate D2E/DX2                !
 ! D3    D(7,1,4,18)           -68.1404         estimate D2E/DX2                !
 ! D4    D(14,1,4,13)          -67.4073         estimate D2E/DX2                !
 ! D5    D(14,1,4,17)           53.8018         estimate D2E/DX2                !
 ! D6    D(14,1,4,18)          171.5671         estimate D2E/DX2                !
 ! D7    D(15,1,4,13)          173.8335         estimate D2E/DX2                !
 ! D8    D(15,1,4,17)          -64.9574         estimate D2E/DX2                !
 ! D9    D(15,1,4,18)           52.8079         estimate D2E/DX2                !
 ! D10   D(4,1,7,11)           -54.6601         estimate D2E/DX2                !
 ! D11   D(4,1,7,21)            67.3313         estimate D2E/DX2                !
 ! D12   D(4,1,7,22)          -172.3204         estimate D2E/DX2                !
 ! D13   D(14,1,7,11)           65.9792         estimate D2E/DX2                !
 ! D14   D(14,1,7,21)         -172.0294         estimate D2E/DX2                !
 ! D15   D(14,1,7,22)          -51.6812         estimate D2E/DX2                !
 ! D16   D(15,1,7,11)         -176.8537         estimate D2E/DX2                !
 ! D17   D(15,1,7,21)          -54.8623         estimate D2E/DX2                !
 ! D18   D(15,1,7,22)           65.4859         estimate D2E/DX2                !
 ! D19   D(12,2,11,7)           65.9776         estimate D2E/DX2                !
 ! D20   D(13,2,11,7)          -55.3114         estimate D2E/DX2                !
 ! D21   D(29,2,11,7)         -174.6909         estimate D2E/DX2                !
 ! D22   D(11,2,12,3)           91.6957         estimate D2E/DX2                !
 ! D23   D(13,2,12,3)         -145.8219         estimate D2E/DX2                !
 ! D24   D(29,2,12,3)          -24.2114         estimate D2E/DX2                !
 ! D25   D(11,2,13,4)           52.1839         estimate D2E/DX2                !
 ! D26   D(11,2,13,27)         -67.8707         estimate D2E/DX2                !
 ! D27   D(11,2,13,28)         176.0373         estimate D2E/DX2                !
 ! D28   D(12,2,13,4)          -70.1941         estimate D2E/DX2                !
 ! D29   D(12,2,13,27)         169.7513         estimate D2E/DX2                !
 ! D30   D(12,2,13,28)          53.6593         estimate D2E/DX2                !
 ! D31   D(29,2,13,4)          168.1738         estimate D2E/DX2                !
 ! D32   D(29,2,13,27)          48.1192         estimate D2E/DX2                !
 ! D33   D(29,2,13,28)         -67.9728         estimate D2E/DX2                !
 ! D34   D(9,3,8,10)            52.8191         estimate D2E/DX2                !
 ! D35   D(9,3,8,23)           -66.9539         estimate D2E/DX2                !
 ! D36   D(9,3,8,24)           174.4594         estimate D2E/DX2                !
 ! D37   D(12,3,8,10)          179.5871         estimate D2E/DX2                !
 ! D38   D(12,3,8,23)           59.8141         estimate D2E/DX2                !
 ! D39   D(12,3,8,24)          -58.7726         estimate D2E/DX2                !
 ! D40   D(16,3,8,10)          -64.8771         estimate D2E/DX2                !
 ! D41   D(16,3,8,23)          175.3499         estimate D2E/DX2                !
 ! D42   D(16,3,8,24)           56.7632         estimate D2E/DX2                !
 ! D43   D(8,3,9,5)            -56.485          estimate D2E/DX2                !
 ! D44   D(8,3,9,30)            65.0302         estimate D2E/DX2                !
 ! D45   D(8,3,9,31)          -174.2726         estimate D2E/DX2                !
 ! D46   D(12,3,9,5)           174.454          estimate D2E/DX2                !
 ! D47   D(12,3,9,30)          -64.0307         estimate D2E/DX2                !
 ! D48   D(12,3,9,31)           56.6665         estimate D2E/DX2                !
 ! D49   D(16,3,9,5)            61.7768         estimate D2E/DX2                !
 ! D50   D(16,3,9,30)         -176.7079         estimate D2E/DX2                !
 ! D51   D(16,3,9,31)          -56.0107         estimate D2E/DX2                !
 ! D52   D(8,3,12,2)           -52.2406         Frozen                          !
 ! D53   D(9,3,12,2)            74.5916         estimate D2E/DX2                !
 ! D54   D(16,3,12,2)         -170.4026         estimate D2E/DX2                !
 ! D55   D(1,4,13,2)           -52.1682         estimate D2E/DX2                !
 ! D56   D(1,4,13,27)           66.6869         estimate D2E/DX2                !
 ! D57   D(1,4,13,28)         -174.4924         estimate D2E/DX2                !
 ! D58   D(17,4,13,2)         -173.8773         estimate D2E/DX2                !
 ! D59   D(17,4,13,27)         -55.0222         estimate D2E/DX2                !
 ! D60   D(17,4,13,28)          63.7985         estimate D2E/DX2                !
 ! D61   D(18,4,13,2)           68.5853         estimate D2E/DX2                !
 ! D62   D(18,4,13,27)        -172.5596         estimate D2E/DX2                !
 ! D63   D(18,4,13,28)         -53.7389         estimate D2E/DX2                !
 ! D64   D(9,5,6,10)           -60.7698         estimate D2E/DX2                !
 ! D65   D(9,5,6,19)           177.9579         estimate D2E/DX2                !
 ! D66   D(9,5,6,20)            61.3105         estimate D2E/DX2                !
 ! D67   D(6,5,9,3)             60.6784         estimate D2E/DX2                !
 ! D68   D(6,5,9,30)           -62.0113         estimate D2E/DX2                !
 ! D69   D(6,5,9,31)          -179.4628         estimate D2E/DX2                !
 ! D70   D(5,6,10,8)            55.7388         estimate D2E/DX2                !
 ! D71   D(5,6,10,25)          -65.4099         estimate D2E/DX2                !
 ! D72   D(5,6,10,26)          177.3953         estimate D2E/DX2                !
 ! D73   D(19,6,10,8)          173.9278         estimate D2E/DX2                !
 ! D74   D(19,6,10,25)          52.7791         estimate D2E/DX2                !
 ! D75   D(19,6,10,26)         -64.4156         estimate D2E/DX2                !
 ! D76   D(20,6,10,8)          -65.3801         estimate D2E/DX2                !
 ! D77   D(20,6,10,25)         173.4712         estimate D2E/DX2                !
 ! D78   D(20,6,10,26)          56.2765         estimate D2E/DX2                !
 ! D79   D(1,7,11,2)            57.3121         estimate D2E/DX2                !
 ! D80   D(21,7,11,2)          -65.4164         estimate D2E/DX2                !
 ! D81   D(22,7,11,2)          178.5023         estimate D2E/DX2                !
 ! D82   D(3,8,10,6)           -52.2949         estimate D2E/DX2                !
 ! D83   D(3,8,10,25)           68.268          estimate D2E/DX2                !
 ! D84   D(3,8,10,26)         -173.3695         estimate D2E/DX2                !
 ! D85   D(23,8,10,6)           68.2029         estimate D2E/DX2                !
 ! D86   D(23,8,10,25)        -171.2343         estimate D2E/DX2                !
 ! D87   D(23,8,10,26)         -52.8717         estimate D2E/DX2                !
 ! D88   D(24,8,10,6)         -173.4995         estimate D2E/DX2                !
 ! D89   D(24,8,10,25)         -52.9367         estimate D2E/DX2                !
 ! D90   D(24,8,10,26)          65.4259         estimate D2E/DX2                !
 --------------------------------------------------------------------------------
 Trust Radius=3.00D-01 FncErr=1.00D-07 GrdErr=1.00D-06 EigMax=2.50D+02 EigMin=1.00D-04
 Number of steps in this run=    186 maximum allowed number of steps=    186.
 GradGradGradGradGradGradGradGradGradGradGradGradGradGradGradGradGradGrad

                          Input orientation:                          
 ---------------------------------------------------------------------
 Center     Atomic      Atomic             Coordinates (Angstroms)
 Number     Number       Type             X           Y           Z
 ---------------------------------------------------------------------
      1          6           0       -3.713890    0.447725   -0.176241
      2          6           0       -1.016003   -0.287304    0.580444
      3          6           0        1.093935   -0.138831   -0.652821
      4          6           0       -3.235268   -0.984613   -0.412454
      5          8           0        3.255609   -1.098175   -0.188486
      6          6           0        3.723930    0.079346    0.444640
      7          6           0       -2.532193    1.403041   -0.186235
      8          6           0        1.526404    1.189515   -0.039200
      9          6           0        1.867195   -1.302566   -0.035819
     10          6           0        3.050491    1.311891   -0.136482
     11          8           0       -1.535193    1.007295    0.746336
     12          8           0       -0.303267   -0.388511   -0.621399
     13          6           0       -2.128163   -1.326512    0.585637
     14          1           0       -4.218860    0.513311    0.784793
     15          1           0       -4.423707    0.754234   -0.939347
     16          1           0        1.327788   -0.118331   -1.710101
     17          1           0       -4.057359   -1.685395   -0.304084
     18          1           0       -2.865751   -1.084084   -1.429640
     19          1           0        4.793665    0.102739    0.288309
     20          1           0        3.534673    0.006508    1.513307
     21          1           0       -2.095334    1.461440   -1.177446
     22          1           0       -2.826673    2.400283    0.110271
     23          1           0        1.232110    1.235343    1.004839
     24          1           0        1.041103    2.012182   -0.553880
     25          1           0        3.349819    1.423360   -1.175556
     26          1           0        3.392700    2.193618    0.396908
     27          1           0       -2.543046   -1.351896    1.589704
     28          1           0       -1.697975   -2.301884    0.385609
     29          1           0       -0.359399   -0.433114    1.422686
     30          1           0        1.633594   -1.418014    1.019046
     31          1           0        1.626828   -2.225329   -0.545838
 ---------------------------------------------------------------------
                    Distance matrix (angstroms):
                    1          2          3          4          5
     1  C    0.000000
     2  C    2.896797   0.000000
     3  C    4.866863   2.448433   0.000000
     4  C    1.528551   2.529273   4.417592   0.000000
     5  O    7.138899   4.415363   2.410142   6.495733   0.000000
     6  C    7.472775   4.756032   2.858128   7.092042   1.416591
     7  C    1.519584   2.396642   3.967855   2.499276   6.305136
     8  C    5.294310   3.004794   1.525799   5.247825   2.871578
     9  C    5.850790   3.118232   1.527384   5.126215   1.411657
    10  C    6.819473   4.428067   2.489842   6.697825   2.419338
    11  O    2.431252   1.404658   3.191169   2.863695   5.315889
    12  O    3.539747   1.400950   1.419683   2.999271   3.654673
    13  C    2.498581   1.522130   3.650518   1.529301   5.443933
    14  H    1.087604   3.307724   5.542365   2.155140   7.707908
    15  H    1.086333   3.873889   5.596788   2.171081   7.935182
    16  H    5.300157   3.281540   1.083027   4.822428   2.644220
    17  H    2.164374   3.462209   5.389741   1.085667   7.337417
    18  H    2.153320   2.845499   4.144402   1.086786   6.245935
    19  H    8.527210   5.830070   3.825191   8.132476   2.008767
    20  H    7.455931   4.654590   3.266563   7.107952   2.047999
    21  H    2.156329   2.704300   3.606596   2.804967   6.013507
    22  H    2.163730   3.274555   4.732925   3.449306   7.023006
    23  H    5.145698   2.748195   2.157611   5.185980   3.311175
    24  H    5.019970   3.287250   2.153935   5.223804   3.835606
    25  H    7.200450   5.007026   2.793332   7.052945   2.709487
    26  H    7.340318   5.062146   3.438978   7.395010   3.346249
    27  H    2.779941   2.117504   4.441630   2.150048   6.070481
    28  H    3.455422   2.135785   3.681290   2.176092   5.129961
    29  H    3.819038   1.077850   2.550786   3.455794   4.013286
    30  H    5.788374   2.913973   2.173173   5.093412   2.047282
    31  H    5.983735   3.465402   2.156129   5.019676   2.012735
                    6          7          8          9         10
     6  C    0.000000
     7  C    6.425671   0.000000
     8  C    2.509123   4.066869   0.000000
     9  C    2.363892   5.166967   2.515277   0.000000
    10  C    1.519997   5.583650   1.532084   2.871534   0.000000
    11  O    5.348877   1.421377   3.166014   4.186104   4.679812
    12  O    4.192093   2.892600   2.485320   2.426789   3.791333
    13  C    6.020242   2.865220   4.480700   4.043472   5.856713
    14  H    7.961906   2.139944   5.843310   6.403974   7.370885
    15  H    8.291856   2.136809   6.033536   6.679988   7.537852
    16  H    3.228542   4.419977   2.131155   2.120517   2.736698
    17  H    8.013948   3.446514   6.285991   5.942968   7.715785
    18  H    6.949129   2.800555   5.137470   4.938750   6.512670
    19  H    1.081351   7.455479   3.458806   3.262540   2.163597
    20  H    1.087737   6.453341   2.800523   2.625633   2.158764
    21  H    6.197191   1.084784   3.806118   4.964341   5.252189
    22  H    6.957654   1.081261   4.520794   5.980370   5.982185
    23  H    2.803448   3.951804   1.085692   2.815543   2.148251
    24  H    3.454049   3.643441   1.084986   3.455195   2.168472
    25  H    2.138076   5.964665   2.161210   3.305729   1.087059
    26  H    2.140593   6.005783   2.163671   3.838974   1.085843
    27  H    6.529519   3.277767   5.066806   4.700530   6.431418
    28  H    5.922060   3.840494   4.771472   3.726483   5.989981
    29  H    4.229984   3.268199   2.885531   2.800162   4.135625
    30  H    2.634679   5.173474   2.816129   1.086572   3.285609
    31  H    3.269619   5.530989   3.453683   1.081382   3.834881
                   11         12         13         14         15
    11  O    0.000000
    12  O    2.310111   0.000000
    13  C    2.413316   2.380552   0.000000
    14  H    2.729023   4.257056   2.792065   0.000000
    15  H    3.353965   4.287771   3.453202   1.752902   0.000000
    16  H    3.936722   1.979548   4.321309   6.114636   5.868145
    17  H    3.836050   3.984445   2.154576   2.458870   2.547461
    18  H    3.298351   2.775500   2.159664   3.047341   2.459070
    19  H    6.409560   5.200732   7.074098   9.035523   9.321563
    20  H    5.224305   4.409398   5.891114   7.804156   8.361245
    21  H    2.054493   2.634959   3.298820   3.042810   2.445026
    22  H    2.003226   3.831487   3.821373   2.440047   2.522240
    23  H    2.788691   2.763862   4.246206   5.502983   5.999966
    24  H    3.055759   2.752311   4.742323   5.630797   5.620958
    25  H    5.265940   4.115216   6.377451   7.871217   7.805846
    26  H    5.080708   4.622176   6.550333   7.804469   8.059381
    27  H    2.700522   3.291458   1.086703   2.633483   3.790616
    28  H    3.332760   2.572989   1.084631   3.799938   4.304066
    29  H    1.978565   2.045342   2.151125   4.024682   4.848463
    30  H    3.999713   2.739045   3.787748   6.167342   6.726430
    31  H    4.702972   2.665497   4.023439   6.591115   6.755858
                   16         17         18         19         20
    16  H    0.000000
    17  H    5.782074   0.000000
    18  H    4.312436   1.745961   0.000000
    19  H    4.006846   9.049253   7.938926   0.000000
    20  H    3.908489   7.987765   7.128517   1.759245   0.000000
    21  H    3.807514   3.809839   2.671486   7.173062   6.407336
    22  H    5.188132   4.287079   3.809681   7.961153   6.940129
    23  H    3.035208   6.182433   5.300839   3.805375   2.659017
    24  H    2.440926   6.303078   5.061356   4.293830   3.809709
    25  H    2.598299   8.080229   6.707097   2.443692   3.044934
    26  H    3.748127   8.428613   7.297110   2.519181   2.459665
    27  H    5.233904   2.447611   3.048327   7.591898   6.228143
    28  H    4.279620   2.534251   2.478279   6.923371   5.829321
    29  H    3.572120   4.269057   3.852444   5.303585   3.919857
    30  H    3.038246   5.848856   5.133389   3.582278   2.426450
    31  H    2.425773   5.714889   4.718772   4.018029   3.586230
                   21         22         23         24         25
    21  H    0.000000
    22  H    1.753425   0.000000
    23  H    3.985646   4.316371   0.000000
    24  H    3.244902   3.943528   1.752018   0.000000
    25  H    5.445286   6.384104   3.045351   2.462389   0.000000
    26  H    5.756144   6.229404   2.440496   2.543015   1.751508
    27  H    3.971451   4.043268   4.613857   5.362658   7.076339
    28  H    4.094343   4.843567   4.634740   5.195802   6.464898
    29  H    3.655611   3.979700   2.343341   3.442048   4.894451
    30  H    5.198147   5.941317   2.683597   3.819867   3.979336
    31  H    5.276901   6.454490   3.812696   4.277808   4.083892
                   26         27         28         29         30
    26  H    0.000000
    27  H    7.016161   0.000000
    28  H    6.791512   1.751133   0.000000
    29  H    4.693633   2.374946   2.521828   0.000000
    30  H    4.065144   4.215963   3.504543   2.259419   0.000000
    31  H    4.851203   4.765635   3.453660   3.321478   1.760871
                   31
    31  H    0.000000
 Stoichiometry    C10H18O3
 Framework group  C1[X(C10H18O3)]
 Deg. of freedom    87
 Full point group                 C1      NOp   1
 Largest Abelian subgroup         C1      NOp   1
 Largest concise Abelian subgroup C1      NOp   1
                         Standard orientation:                         
 ---------------------------------------------------------------------
 Center     Atomic      Atomic             Coordinates (Angstroms)
 Number     Number       Type             X           Y           Z
 ---------------------------------------------------------------------
      1          6           0       -3.713890    0.447725   -0.176241
      2          6           0       -1.016003   -0.287304    0.580444
      3          6           0        1.093935   -0.138831   -0.652821
      4          6           0       -3.235268   -0.984613   -0.412454
      5          8           0        3.255609   -1.098175   -0.188486
      6          6           0        3.723930    0.079346    0.444640
      7          6           0       -2.532193    1.403041   -0.186235
      8          6           0        1.526404    1.189515   -0.039200
      9          6           0        1.867195   -1.302566   -0.035819
     10          6           0        3.050491    1.311891   -0.136482
     11          8           0       -1.535193    1.007295    0.746336
     12          8           0       -0.303267   -0.388511   -0.621399
     13          6           0       -2.128163   -1.326512    0.585637
     14          1           0       -4.218860    0.513311    0.784793
     15          1           0       -4.423707    0.754234   -0.939347
     16          1           0        1.327788   -0.118331   -1.710101
     17          1           0       -4.057359   -1.685395   -0.304084
     18          1           0       -2.865751   -1.084084   -1.429640
     19          1           0        4.793665    0.102739    0.288309
     20          1           0        3.534673    0.006508    1.513307
     21          1           0       -2.095334    1.461440   -1.177446
     22          1           0       -2.826673    2.400283    0.110271
     23          1           0        1.232110    1.235343    1.004839
     24          1           0        1.041103    2.012182   -0.553880
     25          1           0        3.349819    1.423360   -1.175556
     26          1           0        3.392700    2.193618    0.396908
     27          1           0       -2.543046   -1.351896    1.589704
     28          1           0       -1.697975   -2.301884    0.385609
     29          1           0       -0.359399   -0.433114    1.422686
     30          1           0        1.633594   -1.418014    1.019046
     31          1           0        1.626828   -2.225329   -0.545838
 ---------------------------------------------------------------------
 Rotational constants (GHZ):           2.0270103           0.4168212           0.3730961
 Standard basis: 6-311++G(2d,2p) (5D, 7F)
 There are   557 symmetry adapted cartesian basis functions of A   symmetry.
 There are   531 symmetry adapted basis functions of A   symmetry.
   531 basis functions,   762 primitive gaussians,   557 cartesian basis functions
    51 alpha electrons       51 beta electrons
       nuclear repulsion energy       895.2961072634 Hartrees.
 NAtoms=   31 NActive=   31 NUniq=   31 SFac= 1.00D+00 NAtFMM=   60 NAOKFM=F Big=F
 Integral buffers will be    131072 words long.
 Raffenetti 2 integral format.
 Two-electron integral symmetry is turned on.
 ------------------------------------------------------------------------------
 Polarizable Continuum Model (PCM)
 =================================
 Model                : PCM.
 Atomic radii         : UFF (Universal Force Field).
 Polarization charges : Total charges.
 Charge compensation  : None.
 Solution method      : On-the-fly selection.
 Cavity type          : Scaled VdW (van der Waals Surface) (Alpha=1.100).
 Cavity algorithm     : GePol (No added spheres)
                        Default sphere list used, NSphG=   31.
                        Lebedev-Laikov grids with approx.  5.0 points / Ang**2.
                        Smoothing algorithm: York/Karplus (Gamma=1.0000).
                        Polarization charges: spherical gaussians, with
                                              point-specific exponents (IZeta= 3).
                        Self-potential: point-specific (ISelfS= 7).
                        Self-field    : sphere-specific E.n sum rule (ISelfD= 2).
 1st derivatives      : Analytical E(r).r(x)/FMM algorithm (CHGder, D1EAlg=3).
                        Cavity 1st derivative terms included.
 Solvent              : Water, Eps=  78.355300 Eps(inf)=   1.777849
 ------------------------------------------------------------------------------
 One-electron integrals computed using PRISM.
 NBasis=   531 RedAO= T EigKep=  5.18D-06  NBF=   531
 NBsUse=   531 1.00D-06 EigRej= -1.00D+00 NBFU=   531
 ExpMin= 3.60D-02 ExpMax= 8.59D+03 ExpMxC= 1.30D+03 IAcc=3 IRadAn=         5 AccDes= 0.00D+00
 Harris functional with IExCor= 1009 and IRadAn=       5 diagonalized for initial guess.
 HarFok:  IExCor= 1009 AccDes= 0.00D+00 IRadAn=         5 IDoV= 1 UseB2=F ITyADJ=14
 ICtDFT=  3500011 ScaDFX=  1.000000  1.000000  1.000000  1.000000
 FoFCou: FMM=F IPFlag=           0 FMFlag=      100000 FMFlg1=           0
         NFxFlg=           0 DoJE=T BraDBF=F KetDBF=T FulRan=T
         wScrn=  0.000000 ICntrl=       500 IOpCl=  0 I1Cent=   200000004 NGrid=           0
         NMat0=    1 NMatS0=      1 NMatT0=    0 NMatD0=    1 NMtDS0=    0 NMtDT0=    0
 Petite list used in FoFCou.
 Requested convergence on RMS density matrix=1.00D-08 within 128 cycles.
 Requested convergence on MAX density matrix=1.00D-06.
 Requested convergence on             energy=1.00D-06.
 No special actions if energy rises.
 Inv3:  Mode=1 IEnd=    12472563.
 Iteration    1 A*A^-1 deviation from unit magnitude is 5.33D-15 for   2013.
 Iteration    1 A*A^-1 deviation from orthogonality  is 2.48D-15 for   2004    851.
 Iteration    1 A^-1*A deviation from unit magnitude is 4.88D-15 for   2012.
 Iteration    1 A^-1*A deviation from orthogonality  is 3.09D-15 for   2026   1979.
 Error on total polarization charges =  0.01472
 SCF Done:  E(RM062X) =  -617.498289377     A.U. after   12 cycles
            NFock= 12  Conv=0.59D-08     -V/T= 2.0035

 **********************************************************************

            Population analysis using the SCF density.

 **********************************************************************

 Orbital symmetries:
       Occupied  (A) (A) (A) (A) (A) (A) (A) (A) (A) (A) (A) (A)
                 (A) (A) (A) (A) (A) (A) (A) (A) (A) (A) (A) (A)
                 (A) (A) (A) (A) (A) (A) (A) (A) (A) (A) (A) (A)
                 (A) (A) (A) (A) (A) (A) (A) (A) (A) (A) (A) (A)
                 (A) (A) (A)
       Virtual   (A) (A) (A) (A) (A) (A) (A) (A) (A) (A) (A) (A)
                 (A) (A) (A) (A) (A) (A) (A) (A) (A) (A) (A) (A)
                 (A) (A) (A) (A) (A) (A) (A) (A) (A) (A) (A) (A)
                 (A) (A) (A) (A) (A) (A) (A) (A) (A) (A) (A) (A)
                 (A) (A) (A) (A) (A) (A) (A) (A) (A) (A) (A) (A)
                 (A) (A) (A) (A) (A) (A) (A) (A) (A) (A) (A) (A)
                 (A) (A) (A) (A) (A) (A) (A) (A) (A) (A) (A) (A)
                 (A) (A) (A) (A) (A) (A) (A) (A) (A) (A) (A) (A)
                 (A) (A) (A) (A) (A) (A) (A) (A) (A) (A) (A) (A)
                 (A) (A) (A) (A) (A) (A) (A) (A) (A) (A) (A) (A)
                 (A) (A) (A) (A) (A) (A) (A) (A) (A) (A) (A) (A)
                 (A) (A) (A) (A) (A) (A) (A) (A) (A) (A) (A) (A)
                 (A) (A) (A) (A) (A) (A) (A) (A) (A) (A) (A) (A)
                 (A) (A) (A) (A) (A) (A) (A) (A) (A) (A) (A) (A)
                 (A) (A) (A) (A) (A) (A) (A) (A) (A) (A) (A) (A)
                 (A) (A) (A) (A) (A) (A) (A) (A) (A) (A) (A) (A)
                 (A) (A) (A) (A) (A) (A) (A) (A) (A) (A) (A) (A)
                 (A) (A) (A) (A) (A) (A) (A) (A) (A) (A) (A) (A)
                 (A) (A) (A) (A) (A) (A) (A) (A) (A) (A) (A) (A)
                 (A) (A) (A) (A) (A) (A) (A) (A) (A) (A) (A) (A)
                 (A) (A) (A) (A) (A) (A) (A) (A) (A) (A) (A) (A)
                 (A) (A) (A) (A) (A) (A) (A) (A) (A) (A) (A) (A)
                 (A) (A) (A) (A) (A) (A) (A) (A) (A) (A) (A) (A)
                 (A) (A) (A) (A) (A) (A) (A) (A) (A) (A) (A) (A)
                 (A) (A) (A) (A) (A) (A) (A) (A) (A) (A) (A) (A)
                 (A) (A) (A) (A) (A) (A) (A) (A) (A) (A) (A) (A)
                 (A) (A) (A) (A) (A) (A) (A) (A) (A) (A) (A) (A)
                 (A) (A) (A) (A) (A) (A) (A) (A) (A) (A) (A) (A)
                 (A) (A) (A) (A) (A) (A) (A) (A) (A) (A) (A) (A)
                 (A) (A) (A) (A) (A) (A) (A) (A) (A) (A) (A) (A)
                 (A) (A) (A) (A) (A) (A) (A) (A) (A) (A) (A) (A)
                 (A) (A) (A) (A) (A) (A) (A) (A) (A) (A) (A) (A)
                 (A) (A) (A) (A) (A) (A) (A) (A) (A) (A) (A) (A)
                 (A) (A) (A) (A) (A) (A) (A) (A) (A) (A) (A) (A)
                 (A) (A) (A) (A) (A) (A) (A) (A) (A) (A) (A) (A)
                 (A) (A) (A) (A) (A) (A) (A) (A) (A) (A) (A) (A)
                 (A) (A) (A) (A) (A) (A) (A) (A) (A) (A) (A) (A)
                 (A) (A) (A) (A) (A) (A) (A) (A) (A) (A) (A) (A)
                 (A) (A) (A) (A) (A) (A) (A) (A) (A) (A) (A) (A)
                 (A) (A) (A) (A) (A) (A) (A) (A) (A) (A) (A) (A)
 The electronic state is 1-A.
 Alpha  occ. eigenvalues --  -19.62980 -19.62964 -19.62520 -10.63406 -10.58875
 Alpha  occ. eigenvalues --  -10.57933 -10.57895 -10.57517 -10.53176 -10.53135
 Alpha  occ. eigenvalues --  -10.52938 -10.52892 -10.52699  -1.19929  -1.16794
 Alpha  occ. eigenvalues --   -1.13454  -0.90826  -0.89652  -0.87524  -0.84883
 Alpha  occ. eigenvalues --   -0.75071  -0.74355  -0.73231  -0.71162  -0.66804
 Alpha  occ. eigenvalues --   -0.62639  -0.60551  -0.58889  -0.56731  -0.55464
 Alpha  occ. eigenvalues --   -0.54560  -0.53327  -0.52731  -0.50981  -0.50043
 Alpha  occ. eigenvalues --   -0.48940  -0.46595  -0.46157  -0.45296  -0.44977
 Alpha  occ. eigenvalues --   -0.43912  -0.43405  -0.40898  -0.40319  -0.39375
 Alpha  occ. eigenvalues --   -0.38366  -0.37720  -0.36860  -0.34571  -0.33119
 Alpha  occ. eigenvalues --   -0.31582
 Alpha virt. eigenvalues --   -0.00079   0.00706   0.00811   0.01113   0.02167
 Alpha virt. eigenvalues --    0.02500   0.02624   0.03336   0.03560   0.04348
 Alpha virt. eigenvalues --    0.04528   0.04879   0.05574   0.05912   0.06875
 Alpha virt. eigenvalues --    0.07329   0.07546   0.07748   0.09093   0.09624
 Alpha virt. eigenvalues --    0.10365   0.10653   0.11158   0.11629   0.11950
 Alpha virt. eigenvalues --    0.12067   0.12558   0.12801   0.13020   0.13677
 Alpha virt. eigenvalues --    0.13857   0.13983   0.14524   0.14570   0.14920
 Alpha virt. eigenvalues --    0.15092   0.15266   0.15509   0.15716   0.15864
 Alpha virt. eigenvalues --    0.16488   0.17037   0.17197   0.17439   0.17876
 Alpha virt. eigenvalues --    0.18062   0.18327   0.18598   0.18912   0.19571
 Alpha virt. eigenvalues --    0.19765   0.20060   0.20409   0.20811   0.20910
 Alpha virt. eigenvalues --    0.21461   0.22560   0.23116   0.23812   0.24687
 Alpha virt. eigenvalues --    0.24760   0.25709   0.25965   0.26638   0.27560
 Alpha virt. eigenvalues --    0.27683   0.28051   0.28928   0.29077   0.29595
 Alpha virt. eigenvalues --    0.29748   0.30107   0.31037   0.31141   0.31362
 Alpha virt. eigenvalues --    0.32383   0.32827   0.33414   0.33851   0.34617
 Alpha virt. eigenvalues --    0.34889   0.35034   0.35417   0.35766   0.36411
 Alpha virt. eigenvalues --    0.36846   0.37059   0.37559   0.37851   0.38019
 Alpha virt. eigenvalues --    0.38556   0.39206   0.39863   0.40331   0.40793
 Alpha virt. eigenvalues --    0.41164   0.42146   0.42943   0.44211   0.44724
 Alpha virt. eigenvalues --    0.45923   0.46238   0.49060   0.49200   0.50288
 Alpha virt. eigenvalues --    0.51446   0.52509   0.53449   0.54215   0.54378
 Alpha virt. eigenvalues --    0.55489   0.56806   0.57906   0.58857   0.59478
 Alpha virt. eigenvalues --    0.60247   0.60753   0.61327   0.61560   0.61816
 Alpha virt. eigenvalues --    0.62086   0.63008   0.63534   0.63974   0.64377
 Alpha virt. eigenvalues --    0.64860   0.65635   0.65896   0.66187   0.67454
 Alpha virt. eigenvalues --    0.68056   0.68748   0.69268   0.69579   0.70000
 Alpha virt. eigenvalues --    0.70904   0.71321   0.71938   0.72185   0.73147
 Alpha virt. eigenvalues --    0.73653   0.73954   0.74297   0.74963   0.75630
 Alpha virt. eigenvalues --    0.76191   0.77446   0.77513   0.77941   0.78778
 Alpha virt. eigenvalues --    0.80717   0.81313   0.83550   0.84485   0.85899
 Alpha virt. eigenvalues --    0.86430   0.87314   0.87976   0.88667   0.89933
 Alpha virt. eigenvalues --    0.90487   0.91629   0.92671   0.93887   0.95888
 Alpha virt. eigenvalues --    0.97388   0.97927   0.99891   1.01921   1.02403
 Alpha virt. eigenvalues --    1.03044   1.03324   1.06196   1.06880   1.07297
 Alpha virt. eigenvalues --    1.08053   1.08286   1.09677   1.11010   1.11424
 Alpha virt. eigenvalues --    1.13004   1.14606   1.14885   1.15454   1.16284
 Alpha virt. eigenvalues --    1.17771   1.18574   1.18725   1.19031   1.19324
 Alpha virt. eigenvalues --    1.20776   1.21344   1.22452   1.23331   1.23852
 Alpha virt. eigenvalues --    1.24924   1.25241   1.25814   1.27025   1.27623
 Alpha virt. eigenvalues --    1.28303   1.29131   1.30062   1.30510   1.30826
 Alpha virt. eigenvalues --    1.31675   1.32415   1.34125   1.34704   1.34995
 Alpha virt. eigenvalues --    1.36284   1.36673   1.37018   1.37265   1.37690
 Alpha virt. eigenvalues --    1.38247   1.39134   1.40725   1.41483   1.42351
 Alpha virt. eigenvalues --    1.42595   1.43517   1.44188   1.44615   1.44885
 Alpha virt. eigenvalues --    1.46498   1.46837   1.47517   1.47941   1.48275
 Alpha virt. eigenvalues --    1.49513   1.50016   1.50941   1.51451   1.52659
 Alpha virt. eigenvalues --    1.53088   1.53984   1.55065   1.55726   1.56395
 Alpha virt. eigenvalues --    1.56852   1.57097   1.57717   1.58109   1.59426
 Alpha virt. eigenvalues --    1.59550   1.59924   1.60635   1.60975   1.61600
 Alpha virt. eigenvalues --    1.62674   1.65005   1.65588   1.67011   1.67369
 Alpha virt. eigenvalues --    1.67673   1.68740   1.70161   1.70648   1.72381
 Alpha virt. eigenvalues --    1.73168   1.73791   1.75778   1.76304   1.78763
 Alpha virt. eigenvalues --    1.79284   1.80808   1.81515   1.84487   1.85598
 Alpha virt. eigenvalues --    1.86183   1.87871   1.90801   1.95444   1.96911
 Alpha virt. eigenvalues --    2.00613   2.06059   2.13049   2.16011   2.21819
 Alpha virt. eigenvalues --    2.23908   2.26461   2.31199   2.34117   2.39133
 Alpha virt. eigenvalues --    2.40954   2.44496   2.45941   2.46976   2.55475
 Alpha virt. eigenvalues --    2.58126   2.75664   2.77014   2.79231   2.80691
 Alpha virt. eigenvalues --    2.84527   2.90023   2.92699   2.93514   2.94451
 Alpha virt. eigenvalues --    2.96411   2.97923   3.00944   3.02089   3.04205
 Alpha virt. eigenvalues --    3.06864   3.07793   3.08363   3.10123   3.11898
 Alpha virt. eigenvalues --    3.14245   3.15177   3.17301   3.19401   3.23384
 Alpha virt. eigenvalues --    3.26095   3.28532   3.30776   3.33376   3.34272
 Alpha virt. eigenvalues --    3.35492   3.36548   3.38058   3.39989   3.41475
 Alpha virt. eigenvalues --    3.43131   3.43584   3.44016   3.45225   3.46629
 Alpha virt. eigenvalues --    3.48037   3.49992   3.50738   3.51444   3.52545
 Alpha virt. eigenvalues --    3.52743   3.53877   3.55179   3.55642   3.56016
 Alpha virt. eigenvalues --    3.56253   3.57531   3.58273   3.59350   3.60397
 Alpha virt. eigenvalues --    3.60877   3.62392   3.63303   3.63972   3.64869
 Alpha virt. eigenvalues --    3.66859   3.67887   3.68473   3.68982   3.70003
 Alpha virt. eigenvalues --    3.70428   3.70644   3.72866   3.73173   3.74677
 Alpha virt. eigenvalues --    3.75148   3.75332   3.75917   3.76770   3.78195
 Alpha virt. eigenvalues --    3.79534   3.80339   3.81257   3.82801   3.85965
 Alpha virt. eigenvalues --    3.86579   3.87957   3.89235   3.90025   3.91099
 Alpha virt. eigenvalues --    3.93250   3.93995   3.94505   3.96127   3.97777
 Alpha virt. eigenvalues --    3.99789   4.00905   4.02299   4.03184   4.04057
 Alpha virt. eigenvalues --    4.04890   4.05813   4.05984   4.06549   4.07469
 Alpha virt. eigenvalues --    4.08260   4.09799   4.10092   4.11034   4.11945
 Alpha virt. eigenvalues --    4.12367   4.14109   4.14396   4.15071   4.16107
 Alpha virt. eigenvalues --    4.17519   4.17910   4.18940   4.19880   4.20375
 Alpha virt. eigenvalues --    4.21650   4.23369   4.25748   4.26552   4.27304
 Alpha virt. eigenvalues --    4.28366   4.29778   4.30555   4.31508   4.32744
 Alpha virt. eigenvalues --    4.33570   4.33914   4.35697   4.37313   4.40084
 Alpha virt. eigenvalues --    4.40409   4.41375   4.44388   4.46265   4.47610
 Alpha virt. eigenvalues --    4.57544   4.60866   4.75073   4.75872   4.83293
 Alpha virt. eigenvalues --    4.85472   4.92687   4.95366   4.98913   5.01875
 Alpha virt. eigenvalues --    5.06405   5.07010   5.07663   5.08461   5.11673
 Alpha virt. eigenvalues --    5.12142   5.13838   5.16561   5.30320   5.39571
 Alpha virt. eigenvalues --    5.41869   5.58446   5.59109   5.67696   5.85318
 Alpha virt. eigenvalues --    5.88431   6.00503   7.02030   7.04571   7.05378
 Alpha virt. eigenvalues --    7.09140   7.09628   7.12973   7.14302   7.19269
 Alpha virt. eigenvalues --    7.28310   7.36548   7.41837   7.46250   7.53723
 Alpha virt. eigenvalues --    7.55371   7.63618  23.96043  23.97009  24.06684
 Alpha virt. eigenvalues --   24.07191  24.11270  24.11587  24.13030  24.15756
 Alpha virt. eigenvalues --   24.17420  24.22157  50.17375  50.18168  50.28286
          Condensed to atoms (all electrons):
               1          2          3          4          5          6
     1  C    5.615202   0.437518  -0.059625   0.068152  -0.000133  -0.001096
     2  C    0.437518   7.188926  -0.897660  -0.243009  -0.006846  -0.009570
     3  C   -0.059625  -0.897660   8.321892   0.137204   0.004114   0.121762
     4  C    0.068152  -0.243009   0.137204   5.641497   0.000076  -0.000251
     5  O   -0.000133  -0.006846   0.004114   0.000076   8.358034   0.095363
     6  C   -0.001096  -0.009570   0.121762  -0.000251   0.095363   5.377237
     7  C   -0.063527  -0.555794   0.139800  -0.030483   0.000744   0.003758
     8  C    0.032038   0.245644  -1.315682  -0.023263  -0.047751  -0.099449
     9  C    0.005512   0.168313  -0.868568  -0.023212   0.153487  -0.193463
    10  C   -0.005004  -0.115643   0.195353   0.004624   0.000414   0.135635
    11  O   -0.056232   0.230079  -0.087263  -0.009124   0.000149  -0.000847
    12  O   -0.001541   0.346627  -0.116957  -0.040865   0.000224  -0.002931
    13  C   -0.288566  -0.934941  -0.048710  -0.005614   0.003623  -0.000900
    14  H    0.491718  -0.005726  -0.009491  -0.020736   0.000000  -0.000073
    15  H    0.440647   0.007195   0.007895  -0.047574  -0.000001   0.000030
    16  H   -0.003761  -0.045757   0.630158   0.007832   0.005430   0.012495
    17  H   -0.015437   0.016915   0.007346   0.412607  -0.000008   0.000113
    18  H   -0.067804  -0.035964  -0.011657   0.516171   0.000093  -0.000322
    19  H   -0.000058   0.000433  -0.006306  -0.000085  -0.073132   0.426778
    20  H   -0.000041  -0.004853   0.036142   0.000546  -0.040628   0.453345
    21  H   -0.066315  -0.023950  -0.027469  -0.011099  -0.000115   0.000153
    22  H   -0.031968  -0.001567   0.008206   0.010657   0.000051  -0.000002
    23  H    0.001005  -0.072694   0.153108   0.001883   0.000926  -0.003115
    24  H   -0.001796   0.044156  -0.060150  -0.004475  -0.002261   0.000272
    25  H    0.000167  -0.008486  -0.012717   0.000533  -0.009034  -0.082613
    26  H    0.000301   0.001594   0.001695   0.000022   0.008379  -0.033627
    27  H   -0.024261  -0.133916   0.006423  -0.010455   0.000030   0.000252
    28  H   -0.000425  -0.032329  -0.005863  -0.042382   0.000709  -0.000408
    29  H    0.027850   0.498959   0.025452  -0.025176  -0.000537  -0.008592
    30  H   -0.005018  -0.038575   0.154238   0.010893  -0.039255  -0.004577
    31  H    0.002754   0.023028  -0.119846  -0.001494  -0.071385  -0.000116
               7          8          9         10         11         12
     1  C   -0.063527   0.032038   0.005512  -0.005004  -0.056232  -0.001541
     2  C   -0.555794   0.245644   0.168313  -0.115643   0.230079   0.346627
     3  C    0.139800  -1.315682  -0.868568   0.195353  -0.087263  -0.116957
     4  C   -0.030483  -0.023263  -0.023212   0.004624  -0.009124  -0.040865
     5  O    0.000744  -0.047751   0.153487   0.000414   0.000149   0.000224
     6  C    0.003758  -0.099449  -0.193463   0.135635  -0.000847  -0.002931
     7  C    5.570390  -0.021046  -0.027341   0.011834   0.103790  -0.012113
     8  C   -0.021046   6.647107   0.495868  -0.431355   0.039033   0.014990
     9  C   -0.027341   0.495868   5.974353  -0.138986   0.003749   0.001612
    10  C    0.011834  -0.431355  -0.138986   5.983041   0.014434  -0.007150
    11  O    0.103790   0.039033   0.003749   0.014434   8.254651  -0.045462
    12  O   -0.012113   0.014990   0.001612  -0.007150  -0.045462   8.305181
    13  C    0.190437  -0.030291   0.002511   0.016469  -0.009753  -0.029107
    14  H   -0.091864   0.003351   0.000746  -0.000001  -0.002830   0.000866
    15  H   -0.036193  -0.002627  -0.000373  -0.000150   0.009765  -0.000454
    16  H    0.011159  -0.081001  -0.130459  -0.001562   0.001897  -0.092162
    17  H    0.009969  -0.001905  -0.002223   0.000367  -0.003665  -0.000218
    18  H    0.000405   0.000691   0.006817  -0.000945   0.001923  -0.002526
    19  H    0.000017   0.003911   0.016936  -0.032744   0.000170   0.000409
    20  H    0.000258  -0.030354  -0.026654  -0.026603   0.000047  -0.000062
    21  H    0.474019   0.010190   0.002163  -0.001365  -0.032895   0.003937
    22  H    0.441418  -0.000965   0.000214   0.002327  -0.071706  -0.000154
    23  H    0.009063   0.402962  -0.077350  -0.056229  -0.001569  -0.020978
    24  H   -0.005870   0.418003   0.022649  -0.005105  -0.014965   0.010380
    25  H    0.000510  -0.020696   0.003110   0.489486   0.000457  -0.000161
    26  H   -0.000733  -0.054086   0.000010   0.447469   0.000483  -0.000982
    27  H    0.021629   0.001435  -0.003548   0.001511  -0.004464   0.008557
    28  H    0.004463   0.000842   0.010314  -0.001984   0.009895   0.003157
    29  H   -0.043222   0.015275  -0.007879  -0.008847  -0.080258  -0.030136
    30  H    0.005535  -0.117897   0.350002   0.030000  -0.001510  -0.015113
    31  H   -0.003254   0.024809   0.498363   0.001181  -0.000368   0.011985
              13         14         15         16         17         18
     1  C   -0.288566   0.491718   0.440647  -0.003761  -0.015437  -0.067804
     2  C   -0.934941  -0.005726   0.007195  -0.045757   0.016915  -0.035964
     3  C   -0.048710  -0.009491   0.007895   0.630158   0.007346  -0.011657
     4  C   -0.005614  -0.020736  -0.047574   0.007832   0.412607   0.516171
     5  O    0.003623   0.000000  -0.000001   0.005430  -0.000008   0.000093
     6  C   -0.000900  -0.000073   0.000030   0.012495   0.000113  -0.000322
     7  C    0.190437  -0.091864  -0.036193   0.011159   0.009969   0.000405
     8  C   -0.030291   0.003351  -0.002627  -0.081001  -0.001905   0.000691
     9  C    0.002511   0.000746  -0.000373  -0.130459  -0.002223   0.006817
    10  C    0.016469  -0.000001  -0.000150  -0.001562   0.000367  -0.000945
    11  O   -0.009753  -0.002830   0.009765   0.001897  -0.003665   0.001923
    12  O   -0.029107   0.000866  -0.000454  -0.092162  -0.000218  -0.002526
    13  C    6.855539  -0.000666  -0.006870  -0.013273  -0.046481  -0.027444
    14  H   -0.000666   0.484185  -0.011543  -0.000547  -0.001197   0.001885
    15  H   -0.006870  -0.011543   0.487483   0.000498  -0.008032  -0.005050
    16  H   -0.013273  -0.000547   0.000498   0.444004   0.000243  -0.001037
    17  H   -0.046481  -0.001197  -0.008032   0.000243   0.464737  -0.004583
    18  H   -0.027444   0.001885  -0.005050  -0.001037  -0.004583   0.459228
    19  H    0.000456  -0.000000  -0.000001  -0.002590   0.000004  -0.000026
    20  H    0.000556   0.000008  -0.000006   0.001880   0.000006   0.000050
    21  H    0.040840   0.004739   0.000254  -0.004208  -0.000830  -0.001380
    22  H   -0.013025  -0.005796  -0.008484   0.000726   0.000719  -0.002220
    23  H   -0.016906  -0.000613   0.000304   0.016934   0.000017  -0.000326
    24  H   -0.007675   0.000183   0.000065  -0.010354  -0.000059   0.000252
    25  H    0.001793   0.000010   0.000000   0.000476   0.000005   0.000004
    26  H   -0.000280   0.000006  -0.000015  -0.000994   0.000004  -0.000029
    27  H    0.516406  -0.001561  -0.002884   0.000242  -0.003271   0.002712
    28  H    0.417991  -0.001649   0.001579   0.001202  -0.010352  -0.002653
    29  H   -0.098076   0.001621   0.001753  -0.007724   0.001026  -0.003916
    30  H    0.002526  -0.000300   0.000039   0.011897   0.000396   0.000191
    31  H   -0.005202   0.000021   0.000015  -0.010908  -0.000140  -0.000377
              19         20         21         22         23         24
     1  C   -0.000058  -0.000041  -0.066315  -0.031968   0.001005  -0.001796
     2  C    0.000433  -0.004853  -0.023950  -0.001567  -0.072694   0.044156
     3  C   -0.006306   0.036142  -0.027469   0.008206   0.153108  -0.060150
     4  C   -0.000085   0.000546  -0.011099   0.010657   0.001883  -0.004475
     5  O   -0.073132  -0.040628  -0.000115   0.000051   0.000926  -0.002261
     6  C    0.426778   0.453345   0.000153  -0.000002  -0.003115   0.000272
     7  C    0.000017   0.000258   0.474019   0.441418   0.009063  -0.005870
     8  C    0.003911  -0.030354   0.010190  -0.000965   0.402962   0.418003
     9  C    0.016936  -0.026654   0.002163   0.000214  -0.077350   0.022649
    10  C   -0.032744  -0.026603  -0.001365   0.002327  -0.056229  -0.005105
    11  O    0.000170   0.000047  -0.032895  -0.071706  -0.001569  -0.014965
    12  O    0.000409  -0.000062   0.003937  -0.000154  -0.020978   0.010380
    13  C    0.000456   0.000556   0.040840  -0.013025  -0.016906  -0.007675
    14  H   -0.000000   0.000008   0.004739  -0.005796  -0.000613   0.000183
    15  H   -0.000001  -0.000006   0.000254  -0.008484   0.000304   0.000065
    16  H   -0.002590   0.001880  -0.004208   0.000726   0.016934  -0.010354
    17  H    0.000004   0.000006  -0.000830   0.000719   0.000017  -0.000059
    18  H   -0.000026   0.000050  -0.001380  -0.002220  -0.000326   0.000252
    19  H    0.469291  -0.007467  -0.000008   0.000005  -0.001892   0.000986
    20  H   -0.007467   0.498550  -0.000010   0.000011  -0.005343  -0.000148
    21  H   -0.000008  -0.000010   0.493230  -0.011126  -0.001365  -0.001715
    22  H    0.000005   0.000011  -0.011126   0.480735   0.000459  -0.000784
    23  H   -0.001892  -0.005343  -0.001365   0.000459   0.497585  -0.031449
    24  H    0.000986  -0.000148  -0.001715  -0.000784  -0.031449   0.484295
    25  H   -0.003271   0.001403   0.000057   0.000029   0.004457  -0.007188
    26  H   -0.009102   0.005411   0.000015  -0.000022  -0.005899  -0.011420
    27  H    0.000033  -0.000022  -0.000668   0.000050   0.000750  -0.000607
    28  H   -0.000027  -0.000030  -0.001178   0.001390   0.000482  -0.000045
    29  H   -0.000136  -0.002059   0.002438  -0.000115  -0.011957   0.005424
    30  H   -0.004767   0.008406  -0.000733   0.000059   0.001929  -0.000151
    31  H    0.003603  -0.003086   0.000433  -0.000003  -0.003853  -0.000609
              25         26         27         28         29         30
     1  C    0.000167   0.000301  -0.024261  -0.000425   0.027850  -0.005018
     2  C   -0.008486   0.001594  -0.133916  -0.032329   0.498959  -0.038575
     3  C   -0.012717   0.001695   0.006423  -0.005863   0.025452   0.154238
     4  C    0.000533   0.000022  -0.010455  -0.042382  -0.025176   0.010893
     5  O   -0.009034   0.008379   0.000030   0.000709  -0.000537  -0.039255
     6  C   -0.082613  -0.033627   0.000252  -0.000408  -0.008592  -0.004577
     7  C    0.000510  -0.000733   0.021629   0.004463  -0.043222   0.005535
     8  C   -0.020696  -0.054086   0.001435   0.000842   0.015275  -0.117897
     9  C    0.003110   0.000010  -0.003548   0.010314  -0.007879   0.350002
    10  C    0.489486   0.447469   0.001511  -0.001984  -0.008847   0.030000
    11  O    0.000457   0.000483  -0.004464   0.009895  -0.080258  -0.001510
    12  O   -0.000161  -0.000982   0.008557   0.003157  -0.030136  -0.015113
    13  C    0.001793  -0.000280   0.516406   0.417991  -0.098076   0.002526
    14  H    0.000010   0.000006  -0.001561  -0.001649   0.001621  -0.000300
    15  H    0.000000  -0.000015  -0.002884   0.001579   0.001753   0.000039
    16  H    0.000476  -0.000994   0.000242   0.001202  -0.007724   0.011897
    17  H    0.000005   0.000004  -0.003271  -0.010352   0.001026   0.000396
    18  H    0.000004  -0.000029   0.002712  -0.002653  -0.003916   0.000191
    19  H   -0.003271  -0.009102   0.000033  -0.000027  -0.000136  -0.004767
    20  H    0.001403   0.005411  -0.000022  -0.000030  -0.002059   0.008406
    21  H    0.000057   0.000015  -0.000668  -0.001178   0.002438  -0.000733
    22  H    0.000029  -0.000022   0.000050   0.001390  -0.000115   0.000059
    23  H    0.004457  -0.005899   0.000750   0.000482  -0.011957   0.001929
    24  H   -0.007188  -0.011420  -0.000607  -0.000045   0.005424  -0.000151
    25  H    0.476256  -0.011117  -0.000019   0.000076   0.000569  -0.001238
    26  H   -0.011117   0.493834   0.000027  -0.000054  -0.000055  -0.001664
    27  H   -0.000019   0.000027   0.455644  -0.004752  -0.017814   0.000076
    28  H    0.000076  -0.000054  -0.004752   0.492209  -0.006095  -0.001578
    29  H    0.000569  -0.000055  -0.017814  -0.006095   0.490762  -0.030903
    30  H   -0.001238  -0.001664   0.000076  -0.001578  -0.030903   0.535200
    31  H   -0.000964   0.001714   0.000070  -0.005119   0.005549  -0.032986
              31
     1  C    0.002754
     2  C    0.023028
     3  C   -0.119846
     4  C   -0.001494
     5  O   -0.071385
     6  C   -0.000116
     7  C   -0.003254
     8  C    0.024809
     9  C    0.498363
    10  C    0.001181
    11  O   -0.000368
    12  O    0.011985
    13  C   -0.005202
    14  H    0.000021
    15  H    0.000015
    16  H   -0.010908
    17  H   -0.000140
    18  H   -0.000377
    19  H    0.003603
    20  H   -0.003086
    21  H    0.000433
    22  H   -0.000003
    23  H   -0.003853
    24  H   -0.000609
    25  H   -0.000964
    26  H    0.001714
    27  H    0.000070
    28  H   -0.005119
    29  H    0.005549
    30  H   -0.032986
    31  H    0.484027
 Mulliken charges:
               1
     1  C   -0.430254
     2  C   -0.042111
     3  C   -0.302824
     4  C   -0.273399
     5  O   -0.340761
     6  C   -0.185242
     7  C   -0.107757
     8  C   -0.077780
     9  C   -0.216673
    10  C   -0.500470
    11  O   -0.247611
    12  O   -0.288853
    13  C   -0.465368
    14  H    0.165255
    15  H    0.172733
    16  H    0.259265
    17  H    0.183927
    18  H    0.177836
    19  H    0.218580
    20  H    0.140747
    21  H    0.153960
    22  H    0.200881
    23  H    0.219675
    24  H    0.180159
    25  H    0.178105
    26  H    0.169115
    27  H    0.192395
    28  H    0.172613
    29  H    0.306820
    30  H    0.184880
    31  H    0.202156
 Sum of Mulliken charges =  -0.00000
 Mulliken charges with hydrogens summed into heavy atoms:
               1
     1  C   -0.092265
     2  C    0.264709
     3  C   -0.043559
     4  C    0.088364
     5  O   -0.340761
     6  C    0.174085
     7  C    0.247084
     8  C    0.322054
     9  C    0.170363
    10  C   -0.153250
    11  O   -0.247611
    12  O   -0.288853
    13  C   -0.100359
 Electronic spatial extent (au):  <R**2>=           3064.1297
 Charge=             -0.0000 electrons
 Dipole moment (field-independent basis, Debye):
    X=             -0.9525    Y=              0.7323    Z=              0.7408  Tot=              1.4115
 Quadrupole moment (field-independent basis, Debye-Ang):
   XX=            -76.7694   YY=            -80.3559   ZZ=            -80.5032
   XY=              7.0656   XZ=              3.8024   YZ=             -3.6952
 Traceless Quadrupole moment (field-independent basis, Debye-Ang):
   XX=              2.4401   YY=             -1.1464   ZZ=             -1.2937
   XY=              7.0656   XZ=              3.8024   YZ=             -3.6952
 Octapole moment (field-independent basis, Debye-Ang**2):
  XXX=            -22.7446  YYY=              1.0107  ZZZ=             -0.6183  XYY=             -7.4531
  XXY=             28.6701  XXZ=              7.4098  XZZ=              4.9916  YZZ=             -1.8758
  YYZ=             -1.7696  XYZ=              2.6903
 Hexadecapole moment (field-independent basis, Debye-Ang**3):
 XXXX=          -3129.5839 YYYY=           -623.0815 ZZZZ=           -244.8486 XXXY=             75.9488
 XXXZ=             40.9554 YYYX=            -11.4297 YYYZ=              4.6492 ZZZX=             -2.6637
 ZZZY=             -2.8133 XXYY=           -653.5087 XXZZ=           -574.9039 YYZZ=           -150.8574
 XXYZ=            -13.2922 YYXZ=              2.3889 ZZXY=             -1.0521
 N-N= 8.952961072634D+02 E-N=-3.232372849909D+03  KE= 6.153340575816D+02
 D1PCM: PCM CHGder 1st derivatives, ID1Alg=3 FixD1E=F DoIter=F DoCFld=F I1PDM=0.
 Calling FoFJK, ICntrl=      2127 FMM=F ISym2X=0 I1Cent= 0 IOpClX= 0 NMat=1 NMatS=1 NMatT=0.
 ***** Axes restored to original set *****
 -------------------------------------------------------------------
 Center     Atomic                   Forces (Hartrees/Bohr)
 Number     Number              X              Y              Z
 -------------------------------------------------------------------
      1        6           0.002065037   -0.000672560   -0.001655981
      2        6          -0.004315844    0.001811981   -0.005824246
      3        6          -0.002635349    0.002136322    0.007889850
      4        6           0.001758576    0.002594395    0.002393589
      5        8           0.005576504   -0.005837764   -0.004495900
      6        6          -0.005753831    0.001493133   -0.003575043
      7        6          -0.001125261   -0.006528158    0.001172533
      8        6           0.003369713   -0.003536551   -0.002089644
      9        6           0.002760559    0.007046414   -0.002435218
     10        6          -0.001313397   -0.001046032    0.002552099
     11        8           0.003783999    0.006435991    0.008710476
     12        8          -0.004919976   -0.005159626   -0.009023091
     13        6          -0.000043981    0.000740109   -0.002348695
     14        1          -0.000909730    0.000116262    0.003209190
     15        1          -0.002051333    0.000475824   -0.001948237
     16        1           0.002473112    0.000082384   -0.005373182
     17        1          -0.001936927   -0.001653071    0.000362598
     18        1           0.002188159    0.000204058   -0.002925284
     19        1           0.004308513    0.000122474   -0.000723089
     20        1          -0.001514784    0.000718108    0.005990873
     21        1           0.002179829   -0.000757341   -0.005844705
     22        1          -0.001320326    0.004015119    0.001363163
     23        1          -0.002174230   -0.000672866    0.004428508
     24        1          -0.002261952    0.002042079   -0.001340901
     25        1           0.000752917   -0.000382185   -0.003166101
     26        1           0.000831071    0.002674708    0.001240761
     27        1          -0.001452886    0.000508993    0.003126020
     28        1           0.001508360   -0.002820318   -0.000932712
     29        1           0.005146216   -0.000746424    0.007038924
     30        1          -0.003146332    0.000357897    0.006607353
     31        1          -0.001826426   -0.003763354   -0.002383905
 -------------------------------------------------------------------
 Cartesian Forces:  Max     0.009023091 RMS     0.003479778

 GradGradGradGradGradGradGradGradGradGradGradGradGradGradGradGradGradGrad
 Berny optimization.
 FormGI is forming the generalized inverse of G from B-inverse, IUseBI=4.
 Internal  Forces:  Max     0.016883517 RMS     0.002258773
 Search for a local minimum.
 Step number   1 out of a maximum of  186
 All quantities printed in internal units (Hartrees-Bohrs-Radians)
 Mixed Optimization -- RFO/linear search
 Second derivative matrix not updated -- first step.
 ITU=  0
     Eigenvalues ---    0.00626   0.00632   0.00716   0.00722   0.01410
     Eigenvalues ---    0.01433   0.01679   0.02622   0.02703   0.03077
     Eigenvalues ---    0.03135   0.03847   0.04093   0.04568   0.04746
     Eigenvalues ---    0.04850   0.04892   0.05138   0.05152   0.05203
     Eigenvalues ---    0.05262   0.05689   0.05729   0.06123   0.06169
     Eigenvalues ---    0.06367   0.06557   0.07008   0.07607   0.07726
     Eigenvalues ---    0.07845   0.07956   0.08003   0.08041   0.08236
     Eigenvalues ---    0.08832   0.09247   0.09506   0.10798   0.11602
     Eigenvalues ---    0.11610   0.11704   0.11766   0.12400   0.12517
     Eigenvalues ---    0.14696   0.14909   0.16471   0.16502   0.17987
     Eigenvalues ---    0.19123   0.21467   0.21949   0.25000   0.28340
     Eigenvalues ---    0.28584   0.28636   0.28850   0.28943   0.29059
     Eigenvalues ---    0.30082   0.30290   0.35075   0.35091   0.35155
     Eigenvalues ---    0.35187   0.35196   0.35212   0.35240   0.35298
     Eigenvalues ---    0.35315   0.35318   0.35399   0.35422   0.35441
     Eigenvalues ---    0.35631   0.35828   0.35832   0.35842   0.36255
     Eigenvalues ---    0.40877   0.41407   0.42236   0.42508   0.43334
     Eigenvalues ---    0.454631000.000001000.000001000.000001000.00000
     Eigenvalues --- 1000.000001000.000001000.000001000.000001000.00000
     Eigenvalues --- 1000.000001000.000001000.000001000.000001000.00000
     Eigenvalues --- 1000.000001000.000001000.000001000.000001000.00000
     Eigenvalues --- 1000.000001000.000001000.000001000.000001000.00000
     Eigenvalues --- 1000.000001000.000001000.000001000.000001000.00000
     Eigenvalues --- 1000.000001000.000001000.000001000.000001000.00000
     Eigenvalues --- 1000.000001000.000001000.000001000.000001000.00000
     Eigenvalues --- 1000.000001000.000001000.000001000.000001000.00000
     Eigenvalues --- 1000.000001000.000001000.000001000.000001000.00000
     Eigenvalues --- 1000.000001000.000001000.000001000.000001000.00000
     Eigenvalues --- 1000.000001000.000001000.000001000.000001000.00000
     Eigenvalues --- 1000.000001000.000001000.000001000.000001000.00000
     Eigenvalues --- 1000.000001000.000001000.000001000.000001000.00000
     Eigenvalues --- 1000.000001000.000001000.000001000.000001000.00000
     Eigenvalues --- 1000.000001000.000001000.000001000.000001000.00000
     Eigenvalues --- 1000.000001000.000001000.000001000.000001000.00000
     Eigenvalues --- 1000.000001000.000001000.000001000.000001000.00000
     Eigenvalues --- 1000.000001000.000001000.000001000.000001000.00000
     Eigenvalues --- 1000.000001000.000001000.000001000.000001000.00000
 RFO step:  Lambda=-4.06939410D-03 EMin= 6.25999900D-03
 Linear search not attempted -- first point.
 Iteration  1 RMS(Cart)=  0.07474504 RMS(Int)=  0.00108015
 Iteration  2 RMS(Cart)=  0.00333353 RMS(Int)=  0.00005951
 Iteration  3 RMS(Cart)=  0.00000325 RMS(Int)=  0.00005948
 Iteration  4 RMS(Cart)=  0.00000000 RMS(Int)=  0.00005948
 Iteration  1 RMS(Cart)=  0.00002521 RMS(Int)=  0.00000598
 Iteration  2 RMS(Cart)=  0.00001395 RMS(Int)=  0.00000668
 Iteration  3 RMS(Cart)=  0.00000772 RMS(Int)=  0.00000756
 Iteration  4 RMS(Cart)=  0.00000427 RMS(Int)=  0.00000815
 Iteration  5 RMS(Cart)=  0.00000236 RMS(Int)=  0.00000850
 Iteration  6 RMS(Cart)=  0.00000131 RMS(Int)=  0.00000870
 Iteration  7 RMS(Cart)=  0.00000072 RMS(Int)=  0.00000881
 Variable       Old X    -DE/DX   Delta X   Delta X   Delta X     New X
                                 (Linear)    (Quad)   (Total)
    R1        2.88854  -0.00076   0.00000  -0.00180  -0.00182   2.88672
    R2        2.87160   0.00022   0.00000   0.00121   0.00124   2.87283
    R3        2.05527   0.00327   0.00000   0.00920   0.00920   2.06447
    R4        2.05287   0.00284   0.00000   0.00798   0.00798   2.06085
    R5        2.65442   0.00323   0.00000   0.00666   0.00668   2.66110
    R6        2.64741   0.00254   0.00000   0.00554   0.00554   2.65295
    R7        2.87641  -0.00062   0.00000  -0.00257  -0.00259   2.87382
    R8        2.03684   0.00874   0.00000   0.02383   0.02383   2.06067
    R9        2.88334  -0.00216   0.00000  -0.00691  -0.00690   2.87644
   R10        2.88634  -0.00056   0.00000  -0.00156  -0.00153   2.88481
   R11        2.68281  -0.00036   0.00000  -0.00085  -0.00085   2.68197
   R12        2.04663   0.00578   0.00000   0.01604   0.01604   2.06267
   R13        2.88996  -0.00149   0.00000  -0.00490  -0.00491   2.88505
   R14        2.05161   0.00257   0.00000   0.00719   0.00719   2.05881
   R15        2.05373   0.00346   0.00000   0.00973   0.00973   2.06346
   R16        2.67697   0.00353   0.00000   0.00797   0.00797   2.68494
   R17        2.66765   0.00319   0.00000   0.00736   0.00738   2.67503
   R18        2.87238   0.00039   0.00000   0.00097   0.00093   2.87331
   R19        2.04346   0.00437   0.00000   0.01206   0.01206   2.05551
   R20        2.05553   0.00610   0.00000   0.01720   0.01720   2.07272
   R21        2.68601   0.00276   0.00000   0.00639   0.00640   2.69241
   R22        2.04994   0.00618   0.00000   0.01724   0.01724   2.06718
   R23        2.04329   0.00444   0.00000   0.01224   0.01224   2.05553
   R24        2.89522  -0.00046   0.00000  -0.00176  -0.00178   2.89344
   R25        2.05166   0.00482   0.00000   0.01349   0.01349   2.06515
   R26        2.05033   0.00320   0.00000   0.00892   0.00892   2.05925
   R27        2.05332   0.00705   0.00000   0.01980   0.01980   2.07312
   R28        2.04352   0.00474   0.00000   0.01309   0.01309   2.05660
   R29        2.05424   0.00319   0.00000   0.00898   0.00898   2.06322
   R30        2.05195   0.00304   0.00000   0.00852   0.00852   2.06047
   R31        2.05357   0.00343   0.00000   0.00964   0.00964   2.06321
   R32        2.04965   0.00331   0.00000   0.00922   0.00922   2.05888
    A1        1.92259  -0.00105   0.00000  -0.00486  -0.00507   1.91752
    A2        1.91605   0.00090   0.00000   0.00137   0.00146   1.91751
    A3        1.93953  -0.00050   0.00000  -0.00197  -0.00193   1.93760
    A4        1.90600   0.00009   0.00000  -0.00113  -0.00106   1.90494
    A5        1.90299   0.00061   0.00000   0.00353   0.00357   1.90656
    A6        1.87583  -0.00002   0.00000   0.00328   0.00324   1.87907
    A7        1.93472   0.00048   0.00000   0.00045   0.00062   1.93534
    A8        1.93774   0.00353   0.00000   0.01443   0.01424   1.95199
    A9        1.83129  -0.00235   0.00000  -0.01104  -0.01106   1.82023
   A10        1.90216  -0.00314   0.00000  -0.01431  -0.01424   1.88792
   A11        1.92907   0.00150   0.00000   0.00767   0.00765   1.93672
   A12        1.92845   0.00012   0.00000   0.00349   0.00354   1.93199
   A13        1.93624  -0.00029   0.00000  -0.00716  -0.00731   1.92893
   A14        2.00773  -0.00236   0.00000  -0.01926  -0.01937   1.98836
   A15        1.89117   0.00106   0.00000   0.00745   0.00757   1.89874
   A16        1.93404   0.00105   0.00000  -0.00198  -0.00230   1.93174
   A17        1.87493  -0.00039   0.00000   0.00467   0.00465   1.87958
   A18        1.81053   0.00113   0.00000   0.02009   0.02016   1.83069
   A19        1.91274   0.00187   0.00000  -0.00171  -0.00171   1.91103
   A20        1.93085  -0.00022   0.00000   0.00214   0.00221   1.93306
   A21        1.91438  -0.00082   0.00000  -0.00141  -0.00151   1.91287
   A22        1.91635  -0.00056   0.00000   0.00140   0.00138   1.91774
   A23        1.92223  -0.00095   0.00000  -0.00618  -0.00618   1.91605
   A24        1.86691   0.00063   0.00000   0.00585   0.00586   1.87277
   A25        1.97923  -0.00486   0.00000  -0.02707  -0.02702   1.95221
   A26        1.93552   0.00202   0.00000   0.00867   0.00870   1.94423
   A27        1.85502  -0.00124   0.00000  -0.00357  -0.00357   1.85146
   A28        1.90278   0.00065   0.00000   0.00680   0.00682   1.90960
   A29        1.94494  -0.00025   0.00000  -0.00256  -0.00257   1.94238
   A30        1.93139  -0.00172   0.00000  -0.01000  -0.01004   1.92134
   A31        1.89189   0.00057   0.00000   0.00105   0.00102   1.89291
   A32        1.94563   0.00236   0.00000   0.00629   0.00626   1.95189
   A33        1.93160  -0.00163   0.00000  -0.00747  -0.00752   1.92407
   A34        1.94574  -0.00028   0.00000  -0.00190  -0.00183   1.94391
   A35        1.90924   0.00011   0.00000   0.00104   0.00110   1.91034
   A36        1.84201  -0.00133   0.00000  -0.00223  -0.00224   1.83977
   A37        1.88662   0.00077   0.00000   0.00460   0.00458   1.89120
   A38        1.90282   0.00119   0.00000  -0.00000   0.00001   1.90284
   A39        1.92480  -0.00122   0.00000  -0.00986  -0.00986   1.91494
   A40        1.92043  -0.00061   0.00000  -0.00388  -0.00391   1.91652
   A41        1.90428   0.00012   0.00000   0.00597   0.00596   1.91024
   A42        1.93293   0.00035   0.00000   0.00869   0.00868   1.94160
   A43        1.87855   0.00014   0.00000  -0.00093  -0.00100   1.87754
   A44        1.92189   0.00203   0.00000   0.01121   0.01131   1.93320
   A45        1.94366  -0.00235   0.00000  -0.01709  -0.01715   1.92651
   A46        1.92528  -0.00086   0.00000  -0.00721  -0.00734   1.91794
   A47        1.90903   0.00094   0.00000   0.00924   0.00928   1.91831
   A48        1.86624  -0.00047   0.00000   0.00432   0.00433   1.87056
   A49        1.89592   0.00078   0.00000   0.00040   0.00024   1.89616
   A50        1.93018  -0.00090   0.00000  -0.00623  -0.00628   1.92390
   A51        1.90349  -0.00017   0.00000  -0.00267  -0.00266   1.90083
   A52        1.90818   0.00069   0.00000   0.00475   0.00476   1.91295
   A53        1.92070   0.00070   0.00000   0.00036   0.00035   1.92105
   A54        1.92536  -0.00028   0.00000   0.00098   0.00100   1.92636
   A55        1.87496  -0.00001   0.00000   0.00308   0.00307   1.87803
   A56        2.02460  -0.00577   0.00000  -0.03721  -0.03710   1.98750
   A57        2.10247  -0.01688   0.00000  -0.06645  -0.06645   2.03602
   A58        1.95421  -0.00185   0.00000  -0.01651  -0.01663   1.93758
   A59        1.87345   0.00021   0.00000   0.00496   0.00495   1.87840
   A60        1.90026   0.00076   0.00000  -0.00076  -0.00074   1.89952
   A61        1.90907   0.00120   0.00000   0.00719   0.00728   1.91635
   A62        1.94745  -0.00021   0.00000  -0.00095  -0.00107   1.94638
   A63        1.87634  -0.00002   0.00000   0.00724   0.00721   1.88355
    D1        0.92302  -0.00007   0.00000   0.00898   0.00899   0.93201
    D2        3.03852   0.00031   0.00000   0.01098   0.01102   3.04954
    D3       -1.18927   0.00045   0.00000   0.01858   0.01862  -1.17066
    D4       -1.17648  -0.00010   0.00000   0.01257   0.01257  -1.16391
    D5        0.93902   0.00029   0.00000   0.01457   0.01460   0.95362
    D6        2.99441   0.00042   0.00000   0.02217   0.02220   3.01661
    D7        3.03397  -0.00034   0.00000   0.00886   0.00882   3.04279
[...]
 5,-0.00001092,0.00025263,0.00022110,0.00024634,-0.00000793,0.00000078,
 0.00001495,0.00000235,0.00000171,-0.00000253,0.00000878,0.00000233,0.0
 0000351,0.00005710,0.00048664,0.00019221,0.00000665,0.00000159,0.00000
 223,-0.00000237,-0.00000075,-0.00000131,-0.00028191,-0.00009170,0.0006
 6190,-0.00160973,0.00241097,0.00003334,-0.00000114,0.00000075,-0.00000
 076,0.00000763,-0.00000761,0.00000124,0.00026007,-0.00010177,0.0012215
 9,0.00043342,-0.00000773,0.00049052,-0.07070014,-0.02024249,0.31589890
 ,0.00000159,-0.00000280,-0.00001805,0.00072966,-0.00030439,-0.00113139
 ,-0.00518093,0.00306935,0.00228699,0.00001153,-0.00003046,0.00002618,-
 0.00000926,0.00547158,-0.00137546,0.00490064,0.01101253,0.00965712,0.0
 0014217,-0.00005399,0.00007308,-0.00992120,-0.03034803,-0.01545543,-0.
 00130412,0.00034587,-0.00015573,-0.06558149,-0.06065782,-0.03430222,-0
 .00020523,0.00034167,0.00011846,-0.00239700,-0.00288742,-0.00026054,-0
 .00006135,0.00008510,0.00015678,-0.00000642,-0.00000053,0.00000831,-0.
 00001739,0.00000445,-0.00000647,0.00006581,0.00019389,-0.00013674,-0.0
 0003083,0.00000015,-0.00000666,0.00001505,0.00000676,0.00001899,0.0000
 8290,-0.00089759,0.00045755,0.00050619,-0.00055500,-0.00009516,0.00000
 158,-0.00001865,0.00000644,-0.00002440,0.00002062,0.00000106,0.0014992
 7,0.00032187,0.00033767,0.00138751,0.00070552,-0.00032646,0.00162296,0
 .00746164,0.00314690,0.07339188,-0.00000125,0.00000192,-0.00001042,0.0
 0026620,-0.00006358,-0.00032713,0.00012163,0.00177393,0.00071855,-0.00
 000122,-0.00001393,0.00001154,0.00210193,-0.00733785,0.00227479,-0.009
 51810,-0.01772940,-0.01412376,0.00007596,-0.00003259,0.00005007,-0.001
 01977,-0.00180423,-0.00057554,0.00184659,0.00095867,-0.00027717,-0.060
 74518,-0.23924901,-0.10262758,-0.00017843,0.00010041,0.00004034,-0.000
 35495,-0.00022595,0.00004364,-0.00000959,0.00002874,0.00002685,-0.0000
 0343,-0.00000144,0.00000386,-0.00000926,0.00000015,-0.00000371,0.00007
 119,-0.00003959,-0.00008887,-0.00001332,-0.00000070,-0.00000431,0.0000
 0512,0.00000265,0.00000564,0.00041206,0.00064744,-0.00016594,-0.000370
 90,0.00088402,0.00046318,0.00000421,-0.00000420,0.00000229,-0.00001141
 ,0.00000996,-0.00000128,-0.00012425,0.00014228,0.00017111,-0.00036701,
 0.00038734,0.00010272,0.00147161,0.00297982,0.00107288,0.06680146,0.25
 869092,-0.00000294,0.00000164,-0.00000679,-0.00001069,-0.00007781,-0.0
 0006562,0.00061730,-0.00003000,0.00042422,0.00000072,-0.00000373,0.000
 00564,-0.00116447,0.00393303,0.00057778,0.00561000,0.01092173,0.005964
 82,0.00002624,-0.00002048,0.00002335,0.00185772,0.00408640,0.00081379,
 -0.00063236,-0.00008586,-0.00015711,-0.03474672,-0.10478732,-0.1058905
 2,-0.00008145,0.00000248,-0.00000115,0.00005756,0.00003635,0.00044382,
 -0.00001371,0.00001801,0.00003137,-0.00000099,-0.00000068,0.00000106,-
 0.00000417,-0.00000057,-0.00000161,-0.00003720,0.00040712,0.00032220,-
 0.00000355,-0.00000053,-0.00000284,0.00000081,0.00000072,-0.00000098,0
 .00003002,-0.00058171,0.00035537,0.00055967,-0.00078932,0.00025372,-0.
 00000024,-0.00000098,-0.00000160,-0.00000348,0.00000391,-0.00000021,-0
 .00039658,0.00028652,0.00050415,-0.00024458,-0.00020068,-0.00014800,-0
 .00836777,-0.02619567,-0.01322396,0.03682009,0.11314796,0.10981053,0.0
 0106538,-0.00086641,0.00000337,-0.00914563,0.00333518,0.02404629,0.001
 53992,-0.00043185,0.00120333,0.00928339,0.00059500,-0.02354311,-0.0002
 8830,0.00003520,-0.00009900,0.00005045,0.00006068,0.00010128,-0.000233
 00,-0.00002648,-0.00006341,-0.00039166,0.00009476,0.00012086,0.0001813
 7,-0.00019116,0.00007546,0.00004863,-0.00016777,-0.00012727,0.00134549
 ,0.00091404,-0.00106587,-0.00768880,-0.00408273,0.00168862,-0.09161519
 ,-0.00210309,0.09772425,-0.00019653,0.00002419,0.00044177,-0.00008650,
 -0.00030206,0.00018920,-0.00056740,-0.00009491,0.00008531,0.00114365,-
 0.00052740,0.00079689,-0.00286487,0.00207855,-0.00352896,-0.00002565,-
 0.00000175,-0.00001202,0.00000697,-0.00000568,-0.00002064,-0.00006348,
 0.00003477,-0.00002003,0.00007423,0.00000792,0.00000244,0.00000436,-0.
 00000860,-0.00003405,0.00001852,-0.00001062,0.00001089,0.00000312,0.00
 000776,0.00000546,-0.00009155,-0.00002570,-0.00001297,0.10273581,-0.00
 073291,0.00042287,0.00075821,-0.00681696,-0.00114634,0.01969804,0.0003
 9906,0.00005998,0.00091229,-0.00378501,-0.00075909,0.00814234,-0.00013
 769,0.00004801,-0.00006198,0.00002732,0.00002873,0.00004328,-0.0001040
 7,-0.00011621,0.00014365,-0.00005312,0.00006333,0.00003418,0.00003483,
 -0.00015222,0.00008930,0.00001985,-0.00005586,-0.00004293,0.00026773,0
 .00088121,-0.00061724,-0.00484366,-0.00132805,0.00049798,0.00076624,-0
 .05090281,-0.00146854,0.00024043,-0.00004995,-0.00005122,0.00003711,0.
 00009175,-0.00014677,-0.00035494,-0.00004673,0.00004628,-0.00002075,0.
 00029053,-0.00056977,0.00108369,0.00032727,0.00130337,-0.00001052,-0.0
 0000155,-0.00000466,0.00000210,-0.00000322,-0.00000863,0.00002778,0.00
 006345,-0.00006538,0.00000491,-0.00001315,-0.00000689,0.00000612,-0.00
 001191,-0.00002116,0.00000996,-0.00001072,-0.00000275,0.00000359,0.000
 00324,0.00000034,-0.00003296,-0.00000944,-0.00000739,0.00150202,0.0498
 9294,0.00081355,-0.00074777,0.00080116,-0.00105185,-0.00150399,-0.0010
 6274,-0.00060839,-0.00002502,0.00012471,0.00799679,0.00009483,-0.02225
 058,0.00007863,-0.00001296,0.00002105,-0.00001080,-0.00001352,-0.00002
 204,-0.00027546,0.00018440,-0.00014393,0.00011415,-0.00000495,-0.00000
 583,-0.00001098,0.00006038,-0.00003893,-0.00001873,0.00003948,0.000025
 86,-0.00054839,0.00019034,0.00073026,0.00050739,-0.00025777,0.00127797
 ,0.10053057,0.00155268,-0.26582305,-0.00019522,0.00071110,0.00032095,-
 0.00026044,-0.00009563,0.00030637,0.00002319,0.00001496,-0.00001476,0.
 00005924,-0.00039999,0.00095832,-0.00364578,0.00157425,-0.00187436,0.0
 0000631,0.00000007,0.00000284,-0.00000187,0.00000120,0.00000517,-0.000
 04261,-0.00007588,0.00000772,0.00006850,0.00006207,0.00002285,-0.00000
 520,-0.00000997,-0.00000344,-0.00000211,0.00000256,-0.00000425,0.00000
 375,-0.00000142,-0.00000403,0.00002090,0.00000492,0.00000027,-0.105884
 66,-0.00142685,0.29102094,-0.00285279,0.00041301,-0.00451594,0.0097529
 4,-0.02191607,-0.00413596,-0.00001702,0.00022237,-0.00016807,-0.007101
 65,0.02087569,0.00626393,0.00000109,0.00003188,0.00000964,-0.00000022,
 -0.00002129,-0.00000782,-0.00159737,0.00017366,-0.00103834,0.00002790,
 -0.00000143,-0.00001085,0.00001285,-0.00003216,-0.00000784,0.00000496,
 0.00002244,0.00001847,-0.00259741,-0.00762300,0.00019572,0.00117294,-0
 .00013029,-0.00063828,-0.07938128,0.08480842,0.01967941,0.00010030,-0.
 00042718,-0.00002982,-0.00012403,0.00173249,0.00001983,0.00003870,0.00
 000631,-0.00000677,0.00043592,-0.00045505,0.00081595,0.00099314,-0.000
 56834,0.00008369,-0.00000061,0.00000614,0.00000157,-0.00000062,0.00000
 034,0.,0.00014375,-0.00000613,0.00014188,0.00027407,0.00000549,0.00016
 865,0.00002529,-0.00000750,0.00002504,0.00000651,0.00001067,-0.0000187
 8,-0.00000825,0.00000018,0.00000378,0.00000425,0.00000032,0.00000043,-
 0.00469034,0.01195756,0.00204250,0.08467007,0.00116306,0.00125361,0.00
 176518,0.01044010,-0.01853408,-0.00446609,-0.00027583,0.00032953,0.000
 04125,0.00215626,-0.00651173,-0.00119319,-0.00000122,0.00002416,0.0000
 0891,-0.00000730,-0.00001877,-0.00000158,-0.00073177,0.00112813,-0.001
 22085,0.00010987,-0.00002823,-0.00006190,-0.00012454,-0.00005582,-0.00
 000826,0.00000758,0.00006296,0.00004992,-0.00361941,-0.00502323,-0.000
 05871,0.00093287,0.00199637,-0.00040139,0.08091187,-0.27563374,-0.0496
 6780,0.00001120,0.00003033,-0.00011377,0.00001411,-0.00051138,-0.00024
 300,-0.00002485,0.00000561,0.00000065,0.00022908,0.00041178,0.00017221
 ,-0.00013186,0.00023258,0.00015974,-0.00000302,0.00000563,-0.00000123,
 0.00000126,0.00000004,-0.00000012,0.00004812,-0.00005740,0.00019496,0.
 00008870,-0.00008564,0.00005734,0.00004936,0.00001295,0.00005726,-0.00
 000003,0.00002049,-0.00002454,-0.00001931,-0.00000136,0.00000502,0.000
 01363,0.00000021,-0.00000114,-0.00055380,0.00177418,-0.00031569,-0.090
 23907,0.29874317,-0.00336689,0.00042575,-0.00325587,0.00183084,0.00074
 353,-0.00250800,-0.00002119,-0.00000089,0.00005295,-0.00713786,0.02283
 163,0.00484540,-0.00000627,-0.00000224,-0.00001015,-0.00000069,-0.0000
 0115,0.00000435,-0.00055934,-0.00018737,-0.00036019,-0.00002243,-0.000
 00350,-0.00000652,-0.00000181,-0.00000377,0.00000106,-0.00000068,-0.00
 000138,0.00000354,-0.00046353,-0.00100185,0.00136909,0.00018561,0.0007
 8067,0.00025487,0.01877481,-0.05273773,-0.05917376,-0.00015707,0.00022
 573,0.00021511,-0.00043233,0.00128642,0.00030340,-0.00003212,0.0000024
 9,0.00000343,0.00062552,-0.00069717,0.00077439,0.00096838,-0.00019473,
 0.00091286,-0.00000185,0.00000105,-0.00000085,0.00000036,0.00000004,-0
 .00000141,0.00008309,-0.00001679,0.00006635,0.00010692,-0.00002395,0.0
 0009304,0.00000849,0.00000168,0.00000799,-0.00000126,0.00000360,-0.000
 00402,-0.00000205,-0.00000162,0.00000046,-0.00000243,-0.00000170,-0.00
 000146,0.00820662,-0.02677839,-0.00502813,-0.01863701,0.05525651,0.061
 46772,0.00046182,-0.00018967,0.00003271,-0.15782163,0.03008052,-0.1273
 4046,0.00194027,-0.00070335,0.00054465,-0.00197786,-0.00425062,0.00140
 881,0.00020913,-0.00028609,0.00018211,-0.00003398,-0.00009135,0.000025
 15,0.00191720,0.00084067,0.00193032,-0.00043850,-0.00052040,-0.0000524
 5,-0.00087210,0.00098017,-0.00044680,0.00000767,-0.00001414,0.00002389
 ,-0.00789396,0.01022672,-0.00811515,0.01061769,-0.00281974,0.02143919,
 -0.01523039,0.00406421,-0.01841003,-0.00005985,0.00005421,0.00010176,-
 0.00003937,0.00005478,-0.00001088,-0.00004878,0.00006931,-0.00030239,-
 0.00105686,0.00047959,-0.00100706,0.00006407,-0.00000870,-0.00016828,0
 .00001017,0.00001330,-0.00001072,0.00001280,0.00001157,-0.00003869,-0.
 00016217,0.00009949,-0.00022545,-0.00034095,0.00026421,-0.00037137,-0.
 00028706,-0.00056597,0.00029964,0.00002793,0.00002210,0.00011095,-0.00
 001137,0.00001461,0.00002367,-0.00000510,0.00000501,-0.00000346,0.0004
 7859,0.00051038,0.00030421,0.00066094,-0.00038424,0.00007973,0.1726092
 0,0.00021387,-0.00062711,0.00028142,0.02268863,-0.05668996,0.03425078,
 -0.00010867,-0.00025521,0.00079621,-0.00274579,-0.00307947,0.00096895,
 0.00007264,0.00001742,0.00004051,-0.00002793,0.00005315,0.00000467,-0.
 00089594,-0.00429321,-0.00377028,0.00003941,-0.00020280,0.00034176,0.0
 0025557,0.00000246,-0.00008587,-0.00006886,0.00006553,-0.00013449,0.03
 162155,-0.02291082,0.02676589,-0.00073640,0.00500176,-0.00310406,-0.01
 423215,0.00676623,-0.01563616,0.00002627,0.00011742,-0.00000908,0.0001
 8597,0.00036515,0.00002499,-0.00001271,-0.00010129,-0.00005941,-0.0010
 3380,0.00045043,-0.00089846,0.00017147,-0.00003830,-0.00005990,0.00001
 009,-0.00001622,-0.00000878,-0.00000060,0.00000009,-0.00000624,0.00003
 987,-0.00009310,0.00034814,0.00120408,-0.00067635,0.00114491,-0.000468
 69,-0.00074180,0.00019930,0.00001715,0.00002028,-0.00008645,0.00007304
 ,0.00000065,-0.00000978,0.00003005,0.00000779,0.00000503,0.00065417,0.
 00064568,0.00039393,0.00107314,0.00048078,0.00010343,-0.03931385,0.075
 91103,-0.00002028,-0.00001791,-0.00007890,-0.12257389,0.04130369,-0.19
 719290,-0.00468256,-0.00128322,0.00027283,0.00045536,0.00023317,0.0009
 6776,-0.00032257,-0.00038619,0.00072080,0.00006765,0.00016359,-0.00001
 563,0.00062988,-0.00134322,0.00186905,0.00042614,-0.00013699,-0.000288
 45,0.00068849,0.00041866,-0.00117336,0.00000287,0.00016887,0.00032040,
 0.00164941,-0.00053612,0.00616444,-0.00596982,0.00375279,-0.03981815,0
 .00019411,-0.00035910,0.00238184,0.00000377,0.00001109,-0.00002735,0.0
 0001461,0.00001424,-0.00005755,0.00039404,-0.00000411,0.00020610,0.000
 10629,0.00007144,-0.00001301,0.00017353,0.00000628,0.00014470,-0.00001
 634,-0.00002132,0.00000442,0.00004540,-0.00000578,-0.00001634,0.000219
 11,-0.00022521,0.00015275,0.00002846,-0.00009785,0.00005046,0.00006819
 ,0.00047296,0.00039031,-0.00009579,-0.00011704,0.00013673,-0.00011271,
 -0.00001448,0.00001529,0.00009004,0.00000009,0.00000232,-0.00024504,-0
 .00036515,0.00065584,-0.00024859,-0.00004389,-0.00002252,0.12890889,-0
 .04137368,0.22283739,0.00000389,0.00000350,0.00001769,-0.00105371,0.00
 058094,0.00023481,0.00586836,0.00130255,-0.01841601,0.00004329,0.00003
 868,-0.00004621,-0.02860603,-0.00862757,0.03768619,0.00219874,0.004576
 43,0.00436482,-0.00003397,0.00004467,-0.00003962,0.00029678,-0.0012062
 2,0.00023362,-0.05280275,-0.00331472,0.03566992,-0.00031773,-0.0004670
 4,-0.00050504,-0.00002896,-0.00001564,-0.00006741,0.00152097,-0.001407
 30,0.00190311,0.00008757,-0.00013748,0.00023423,-0.00000048,-0.0000005
 6,-0.00000164,0.00000481,-0.00000680,0.00000097,-0.00199975,0.00313692
 ,-0.00141289,0.00002332,-0.00000675,0.00001701,-0.00000059,-0.00000037
 ,-0.00000042,0.00005284,0.00012015,-0.00041942,0.00045947,-0.00012092,
 -0.00141508,0.00000913,-0.00000089,-0.00000365,0.00000056,-0.00000647,
 -0.00000557,0.00006863,0.00011262,0.00046170,-0.00012686,-0.00011605,0
 .00018329,-0.00008721,0.00007542,-0.00005438,0.00022902,-0.00023666,0.
 00002047,-0.00002507,-0.00000200,-0.00000871,-0.00000351,-0.00002937,-
 0.00001693,-0.00287435,0.00130000,0.00017819,0.07431719,0.00000266,-0.
 00000013,-0.00001017,0.00024168,0.00010886,0.00012618,-0.00481051,-0.0
 0159767,0.02593867,-0.00006344,-0.00007213,0.00003187,-0.00542986,0.00
 132230,0.00460609,-0.00054428,0.00077208,0.00302545,0.00002388,-0.0000
 1292,0.00006719,-0.00054167,0.00182932,0.00082559,-0.00169278,-0.05627
 713,0.01199150,0.00004372,-0.00031409,-0.00013183,-0.00006884,0.000018
 96,-0.00008161,0.00002364,0.00070059,-0.00147987,-0.00006637,0.0001484
 1,-0.00026067,-0.00000017,0.00000074,0.00000158,-0.00000575,-0.0000001
 4,-0.00000173,0.00240067,-0.00293877,0.00214364,-0.00002571,0.00000916
 ,-0.00002041,0.00000413,-0.00000257,-0.00000019,0.00009394,0.00003143,
 -0.00010737,0.00015993,0.00026512,-0.00023097,-0.00000833,0.00000533,-
 0.00000200,-0.00001072,0.00001164,-0.00000367,0.00016527,-0.00018020,-
 0.00047772,0.00013646,0.00019492,-0.00040230,0.00002617,0.00005548,-0.
 00016369,0.00000246,-0.00003472,-0.00003712,0.00003708,0.00000756,0.00
 000858,0.00002427,-0.00002959,0.00000382,0.00135537,-0.00008781,-0.000
 35799,0.00309297,0.05266653,-0.00000931,-0.00001109,0.00002943,0.00012
 201,-0.00014893,-0.00232171,0.00364120,0.00015727,-0.01611972,0.000074
 90,0.00011839,-0.00003240,0.01116125,0.00149750,-0.00122177,-0.0014856
 4,-0.00095545,0.00188558,-0.00002215,-0.00007444,-0.00016448,0.0000114
 2,-0.00088566,0.00063235,0.03917963,0.01328988,-0.28934928,0.00017941,
 0.00002494,0.00006406,0.00040241,-0.00026992,0.00063897,-0.00151037,0.
 00011370,0.00124878,-0.00004485,-0.00011295,0.00037739,0.00000012,-0.0
 0000049,-0.00000588,0.00001671,0.00000260,0.00000302,-0.00144626,0.002
 35368,-0.00014504,0.00003712,-0.00001147,0.00003764,0.00000216,-0.0000
 0214,0.00002306,0.00007939,0.00016380,0.00044200,0.00065971,0.00135382
 ,0.00016870,0.00000958,-0.00001296,0.00003557,0.00004213,-0.00003044,0
 .00004364,0.00021014,0.00078691,0.00044588,-0.00019501,0.00001903,0.00
 023813,-0.00011483,-0.00009821,-0.00018573,0.00005499,0.00009271,-0.00
 001040,-0.00004140,-0.00003324,-0.00000335,-0.00001370,0.00003606,-0.0
 0000027,0.00112692,-0.00042257,0.00124271,-0.05370408,-0.01799866,0.31
 423288,-0.00000524,0.00000583,-0.00000321,-0.00007848,-0.00003268,0.00
 024437,0.00349181,0.01536141,0.00868402,-0.00000807,-0.00001452,0.0000
 0916,-0.01775000,-0.03813895,-0.01771869,-0.00543989,0.00187995,0.0027
 8109,0.00002684,-0.00002138,0.00001441,-0.00236144,0.00272070,-0.00223
 232,-0.05345448,-0.03279647,-0.01576862,-0.00064333,-0.00054045,-0.000
 33252,-0.00007043,-0.00007728,-0.00007423,0.00216773,-0.00035037,0.000
 23382,-0.00003716,0.00004194,-0.00000669,-0.00000028,-0.00000105,0.000
 00054,-0.00000436,-0.00000309,-0.00000181,0.00062268,-0.00082318,0.000
 00877,-0.00000465,0.00000129,-0.00000354,0.00000246,0.00000084,-0.0000
 0409,-0.00064812,-0.00173214,-0.00061207,0.00007870,0.00003577,-0.0002
 8079,0.00000466,0.00000089,-0.00000083,-0.00000099,0.00000494,-0.00000
 330,-0.00004969,-0.00026896,-0.00013524,0.00046823,0.00124593,0.000285
 71,0.00009942,0.00000231,0.00003505,0.00024426,-0.00019286,0.00012630,
 -0.00000591,-0.00000612,0.00000154,0.00004949,-0.00003145,-0.00000662,
 0.00013677,-0.00003159,-0.00005685,0.00277638,0.00543413,0.00157641,0.
 07039307,-0.00000071,-0.00000264,0.00000675,0.00006487,-0.00009853,-0.
 00002826,-0.00450201,-0.02264690,-0.01167754,0.00001375,0.00002235,-0.
 00001390,-0.00638963,-0.00401904,-0.00177993,-0.00012742,0.00245827,0.
 00161267,-0.00005270,0.00004248,-0.00003526,0.00326633,-0.00177037,0.0
 0348988,-0.04122456,-0.25799579,-0.10523428,0.00038694,0.00031245,-0.0
 0017946,0.00003811,0.00004719,0.00007922,-0.00026110,0.00247887,-0.000
 12124,0.00005668,-0.00003778,-0.00001856,0.00000271,0.00000148,-0.0000
 0259,0.00000780,0.00000156,0.00000290,-0.00042552,0.00106133,0.0001007
 1,0.00001239,-0.00000065,0.00000758,-0.00000403,-0.00000123,-0.0000012
 1,-0.00007368,-0.00027375,-0.00017317,0.00007437,-0.00005499,-0.000138
 90,-0.00000583,-0.00000316,-0.00000446,0.00000594,-0.00000796,0.000001
 05,0.00004135,0.00020058,-0.00002749,-0.00044373,-0.00141775,-0.000531
 24,-0.00008964,0.00000553,0.00005873,-0.00009896,-0.00006959,-0.000029
 91,0.00001871,0.00000653,-0.00000432,0.00006309,-0.00002155,-0.0000121
 3,0.00000191,-0.00009241,0.00007237,0.00131798,0.00339946,0.00105832,0
 .04832660,0.27847604,-0.00000281,-0.00000140,0.00001020,-0.00010792,0.
 00007048,-0.00028613,0.00173790,0.01570950,0.00668434,0.00002534,0.000
 04700,-0.00000803,0.00122302,0.00520771,0.00345509,0.00040744,0.000686
 68,0.00047734,-0.00003208,0.00000072,-0.00005614,-0.00191536,0.0014696
 9,-0.00082640,-0.02205868,-0.10922609,-0.10826927,-0.00004611,-0.00006
 059,-0.00003303,0.00016195,-0.00016334,0.00004208,0.00160868,-0.000873
 35,0.00008138,0.00003673,-0.00010860,0.00011241,0.00000088,-0.00000029
 ,-0.00000337,0.00000694,0.00000099,0.00000204,0.00067768,-0.00045463,0
 .00096649,0.00001728,-0.00000379,0.00001153,0.00000100,-0.00000395,-0.
 00000248,-0.00002829,-0.00012071,0.00033923,0.00011949,0.00030983,0.00
 045619,0.00000677,0.00000388,0.00000805,0.00001194,-0.00001018,0.00000
 634,-0.00003275,0.00032690,0.00026319,0.00002728,0.00070438,0.00042082
 ,0.00004693,-0.00002976,-0.00000941,-0.00000880,-0.00002570,-0.0000221
 6,-0.00000360,0.00000968,-0.00000286,0.00000727,0.00001818,-0.00000285
 ,-0.00003941,-0.00000469,0.00016803,-0.00508897,-0.02700219,-0.0122297
 6,0.02324026,0.11352366,0.10824716\\0.00000268,0.00000519,-0.00000487,
 0.00025372,-0.00109794,0.00026839,0.00030510,-0.00114032,0.00148190,-0
 .00000065,-0.00000251,-0.00000261,-0.00000538,-0.00000422,-0.00000317,
 0.00001184,0.00000911,0.00001112,-0.00001275,0.00002023,-0.00000951,-0
 .00011551,0.00044579,-0.00094115,-0.00001448,-0.00000479,0.00000759,-0
 .00000595,0.00000601,0.00000117,-0.00000698,-0.00001016,0.00000603,-0.
 00042621,0.00178950,-0.00079459,0.00001377,0.00000441,-0.00001358,0.00
 000025,-0.00000116,0.00000023,-0.00000089,0.00000121,0.00000512,-0.000
 00075,0.00000222,0.00000300,0.00000367,-0.00000166,0.00000023,-0.00000
 236,0.00000200,0.00000163,-0.00000214,-0.00000201,0.00000191,-0.000000
 58,-0.00000513,-0.00000755,0.00000022,0.00000067,0.00000889,-0.0000007
 4,-0.00000097,0.00000178,0.00000410,0.00000225,-0.00000241,0.00000036,
 -0.00000210,0.00000429,0.00000187,0.00000199,0.00000297,0.00000100,-0.
 00000038,-0.00000068,-0.00000126,-0.00000403,-0.00000066,-0.00000420,-
 0.00000193,-0.00000134,0.00000002,-0.00000921,-0.00000969,0.00000278,-
 0.00000409,-0.00000925,-0.00000054,0.00000203,-0.00000518\\\@


 ART, GLORY, FREEDOM FAIL, BUT NATURE STILL IS FAIR.

                                           -- BYRON
 Job cpu time:       0 days 14 hours 40 minutes 23.2 seconds.
 Elapsed time:       0 days  0 hours 55 minutes  3.3 seconds.
 File lengths (MBytes):  RWF=    683 Int=      0 D2E=      0 Chk=     33 Scr=      1
 Normal termination of Gaussian 16 at Sun Nov  4 22:55:17 2018.
