 Entering Gaussian System, Link 0=g16
 Initial command:
 /apps/gaussian/g16a03/g16/l1.exe "/jobfs/local/2011953.r-man2/Gau-8818.inp" -scrdir="/jobfs/local/2011953.r-man2/"
 Entering Link 1 = /apps/gaussian/g16a03/g16/l1.exe PID=      8819.
  
 Copyright (c) 1988,1990,1992,1993,1995,1998,2003,2009,2016,
            Gaussian, Inc.  All Rights Reserved.
  
 This is part of the Gaussian(R) 16 program.  It is based on
 the Gaussian(R) 09 system (copyright 2009, Gaussian, Inc.),
 the Gaussian(R) 03 system (copyright 2003, Gaussian, Inc.),
 the Gaussian(R) 98 system (copyright 1998, Gaussian, Inc.),
 the Gaussian(R) 94 system (copyright 1995, Gaussian, Inc.),
 the Gaussian 92(TM) system (copyright 1992, Gaussian, Inc.),
 the Gaussian 90(TM) system (copyright 1990, Gaussian, Inc.),
 the Gaussian 88(TM) system (copyright 1988, Gaussian, Inc.),
 the Gaussian 86(TM) system (copyright 1986, Carnegie Mellon
 University), and the Gaussian 82(TM) system (copyright 1983,
 Carnegie Mellon University). Gaussian is a federally registered
 trademark of Gaussian, Inc.
  
 This software contains proprietary and confidential information,
 including trade secrets, belonging to Gaussian, Inc.
  
 This software is provided under written license and may be
 used, copied, transmitted, or stored only in accord with that
 written license.
  
 The following legend is applicable only to US Government
 contracts under FAR:
  
                    RESTRICTED RIGHTS LEGEND
  
 Use, reproduction and disclosure by the US Government is
 subject to restrictions as set forth in subparagraphs (a)
 and (c) of the Commercial Computer Software - Restricted
 Rights clause in FAR 52.227-19.
  
 Gaussian, Inc.
 340 Quinnipiac St., Bldg. 40, Wallingford CT 06492
  
  
 ---------------------------------------------------------------
 Warning -- This program may not be used in any manner that
 competes with the business of Gaussian, Inc. or will provide
 assistance to any competitor of Gaussian, Inc.  The licensee
 of this program is prohibited from giving any competitor of
 Gaussian, Inc. access to this program.  By using this program,
 the user acknowledges that Gaussian, Inc. is engaged in the
 business of creating and licensing software in the field of
 computational chemistry and represents and warrants to the
 licensee that it is not a competitor of Gaussian, Inc. and that
 it will not use this program in any manner prohibited above.
 ---------------------------------------------------------------
  

 Cite this work as:
 Gaussian 16, Revision A.03,
 M. J. Frisch, G. W. Trucks, H. B. Schlegel, G. E. Scuseria, 
 M. A. Robb, J. R. Cheeseman, G. Scalmani, V. Barone, 
 G. A. Petersson, H. Nakatsuji, X. Li, M. Caricato, A. V. Marenich, 
 J. Bloino, B. G. Janesko, R. Gomperts, B. Mennucci, H. P. Hratchian, 
 J. V. Ortiz, A. F. Izmaylov, J. L. Sonnenberg, D. Williams-Young, 
 F. Ding, F. Lipparini, F. Egidi, J. Goings, B. Peng, A. Petrone, 
 T. Henderson, D. Ranasinghe, V. G. Zakrzewski, J. Gao, N. Rega, 
 G. Zheng, W. Liang, M. Hada, M. Ehara, K. Toyota, R. Fukuda, 
 J. Hasegawa, M. Ishida, T. Nakajima, Y. Honda, O. Kitao, H. Nakai, 
 T. Vreven, K. Throssell, J. A. Montgomery, Jr., J. E. Peralta, 
 F. Ogliaro, M. J. Bearpark, J. J. Heyd, E. N. Brothers, K. N. Kudin, 
 V. N. Staroverov, T. A. Keith, R. Kobayashi, J. Normand, 
 K. Raghavachari, A. P. Rendell, J. C. Burant, S. S. Iyengar, 
 J. Tomasi, M. Cossi, J. M. Millam, M. Klene, C. Adamo, R. Cammi, 
 J. W. Ochterski, R. L. Martin, K. Morokuma, O. Farkas, 
 J. B. Foresman, and D. J. Fox, Gaussian, Inc., Wallingford CT, 2016.
 
 ******************************************
 Gaussian 16:  ES64L-G16RevA.03 25-Dec-2016
                 4-Nov-2018 
 ******************************************
 %mem=6000mb
 %nproc=24
 Will use up to   24 processors via shared memory.
 %chk=D_1a_4e_D_PSI.inp_extract_0.chk
 ----------------------------------------------------------------------
 #M062X/6-311++G(2d,2p) opt=ModRedundant freq=noraman SCRF=(Solvent=Wat
 er)
 ----------------------------------------------------------------------
 1/18=120,19=15,26=3,38=1/1,3;
 2/9=110,12=2,17=6,18=5,40=1/2;
 3/5=4,6=6,7=1212,11=2,25=1,30=1,70=2201,71=1,72=1,74=-55/1,2,3;
 4//1;
 5/5=2,38=5,53=1/2;
 6/7=2,8=2,9=2,10=2,28=1/1;
 7//1,2,3,16;
 1/18=20,19=15,26=3/3(2);
 2/9=110/2;
 99//99;
 2/9=110/2;
 3/5=4,6=6,7=1212,11=2,25=1,30=1,70=2205,71=1,72=1,74=-55/1,2,3;
 4/5=5,16=3,69=1/1;
 5/5=2,38=5,53=1/2;
 7//1,2,3,16;
 1/18=20,19=15,26=3/3(-5);
 2/9=110/2;
 6/7=2,8=2,9=2,10=2,19=2,28=1/1;
 99/9=1/99;
 ---------------------------
 D_1a_4e_D_PSI.inp_extract_0
 ---------------------------
 Symbolic Z-matrix:
 Charge =  0 Multiplicity = 1
 C                    -3.71333   0.44852  -0.1763 
 C                    -1.01596  -0.28801   0.58049 
 C                     1.09376  -0.13917  -0.65298 
 C                    -3.23544  -0.98404  -0.41274 
 O                     3.25556  -1.09797  -0.18836 
 C                     3.72367   0.07969   0.44462 
 C                    -2.53117   1.40325  -0.18581 
 C                     1.5259    1.18932  -0.03951 
 C                     1.86719  -1.30258  -0.03561 
 C                     3.04995   1.31205  -0.13659 
 O                    -1.53443   1.0068    0.74668 
 O                    -0.3034   -0.38919  -0.62147 
 C                    -2.12866  -1.32663   0.58545 
 H                    -4.21849   0.51419   0.78463 
 H                    -4.42276   0.7557   -0.9395 
 H                     1.32763  -0.11894  -1.71025 
 H                    -4.05792  -1.68439  -0.30462 
 H                    -2.86588  -1.08355  -1.42993 
 H                     4.79339   0.10329   0.28828 
 H                     3.53447   0.00693   1.5133 
 H                    -2.09418   1.46182  -1.17695 
 H                    -2.8253    2.40052   0.11097 
 H                     1.23146   1.23513   1.00449 
 H                     1.04047   2.0119   -0.55423 
 H                     3.34935   1.42361  -1.17563 
 H                     3.39175   2.1939    0.39686 
 H                    -2.54358  -1.35186   1.5895 
 H                    -1.69887  -2.30217   0.3854 
 H                    -0.35937  -0.43437   1.42262 
 H                     1.63366  -1.41768   1.01932 
 H                     1.62694  -2.22564  -0.5452 
 
 The following ModRedundant input section has been read:
 D       8       3      12       2 F                                           
 

 GradGradGradGradGradGradGradGradGradGradGradGradGradGradGradGradGradGrad
 Berny optimization.
 Initialization pass.
                           ----------------------------
                           !    Initial Parameters    !
                           ! (Angstroms and Degrees)  !
 --------------------------                            --------------------------
 ! Name  Definition              Value          Derivative Info.                !
 --------------------------------------------------------------------------------
 ! R1    R(1,4)                  1.5286         estimate D2E/DX2                !
 ! R2    R(1,7)                  1.5196         estimate D2E/DX2                !
 ! R3    R(1,14)                 1.0876         estimate D2E/DX2                !
 ! R4    R(1,15)                 1.0863         estimate D2E/DX2                !
 ! R5    R(2,11)                 1.4046         estimate D2E/DX2                !
 ! R6    R(2,12)                 1.401          estimate D2E/DX2                !
 ! R7    R(2,13)                 1.5221         estimate D2E/DX2                !
 ! R8    R(2,29)                 1.0778         estimate D2E/DX2                !
 ! R9    R(3,8)                  1.5258         estimate D2E/DX2                !
 ! R10   R(3,9)                  1.5274         estimate D2E/DX2                !
 ! R11   R(3,12)                 1.4197         estimate D2E/DX2                !
 ! R12   R(3,16)                 1.083          estimate D2E/DX2                !
 ! R13   R(4,13)                 1.5293         estimate D2E/DX2                !
 ! R14   R(4,17)                 1.0857         estimate D2E/DX2                !
 ! R15   R(4,18)                 1.0868         estimate D2E/DX2                !
 ! R16   R(5,6)                  1.4166         estimate D2E/DX2                !
 ! R17   R(5,9)                  1.4117         estimate D2E/DX2                !
 ! R18   R(6,10)                 1.52           estimate D2E/DX2                !
 ! R19   R(6,19)                 1.0813         estimate D2E/DX2                !
 ! R20   R(6,20)                 1.0877         estimate D2E/DX2                !
 ! R21   R(7,11)                 1.4213         estimate D2E/DX2                !
 ! R22   R(7,21)                 1.0848         estimate D2E/DX2                !
 ! R23   R(7,22)                 1.0813         estimate D2E/DX2                !
 ! R24   R(8,10)                 1.5321         estimate D2E/DX2                !
 ! R25   R(8,23)                 1.0857         estimate D2E/DX2                !
 ! R26   R(8,24)                 1.085          estimate D2E/DX2                !
 ! R27   R(9,30)                 1.0866         estimate D2E/DX2                !
 ! R28   R(9,31)                 1.0814         estimate D2E/DX2                !
 ! R29   R(10,25)                1.087          estimate D2E/DX2                !
 ! R30   R(10,26)                1.0858         estimate D2E/DX2                !
 ! R31   R(13,27)                1.0867         estimate D2E/DX2                !
 ! R32   R(13,28)                1.0846         estimate D2E/DX2                !
 ! A1    A(4,1,7)              110.1597         estimate D2E/DX2                !
 ! A2    A(4,1,14)             109.7831         estimate D2E/DX2                !
 ! A3    A(4,1,15)             111.131          estimate D2E/DX2                !
 ! A4    A(7,1,14)             109.2036         estimate D2E/DX2                !
 ! A5    A(7,1,15)             109.0258         estimate D2E/DX2                !
 ! A6    A(14,1,15)            107.4774         estimate D2E/DX2                !
 ! A7    A(11,2,12)            110.8443         estimate D2E/DX2                !
 ! A8    A(11,2,13)            111.0258         estimate D2E/DX2                !
 ! A9    A(11,2,29)            104.927          estimate D2E/DX2                !
 ! A10   A(12,2,13)            108.9855         estimate D2E/DX2                !
 ! A11   A(12,2,29)            110.5288         estimate D2E/DX2                !
 ! A12   A(13,2,29)            110.4949         estimate D2E/DX2                !
 ! A13   A(8,3,9)              110.9331         estimate D2E/DX2                !
 ! A14   A(8,3,12)             115.0335         estimate D2E/DX2                !
 ! A15   A(8,3,16)             108.366          estimate D2E/DX2                !
 ! A16   A(9,3,12)             110.807          estimate D2E/DX2                !
 ! A17   A(9,3,16)             107.4257         estimate D2E/DX2                !
 ! A18   A(12,3,16)            103.7379         estimate D2E/DX2                !
 ! A19   A(1,4,13)             109.588          estimate D2E/DX2                !
 ! A20   A(1,4,17)             110.6298         estimate D2E/DX2                !
 ! A21   A(1,4,18)             109.688          estimate D2E/DX2                !
 ! A22   A(13,4,17)            109.8015         estimate D2E/DX2                !
 ! A23   A(13,4,18)            110.1382         estimate D2E/DX2                !
 ! A24   A(17,4,18)            106.963          estimate D2E/DX2                !
 ! A25   A(6,5,9)              113.4001         estimate D2E/DX2                !
 ! A26   A(5,6,10)             110.8971         estimate D2E/DX2                !
 ! A27   A(5,6,19)             106.2861         estimate D2E/DX2                !
 ! A28   A(5,6,20)             109.0218         estimate D2E/DX2                !
 ! A29   A(10,6,19)            111.4377         estimate D2E/DX2                !
 ! A30   A(10,6,20)            110.6597         estimate D2E/DX2                !
 ! A31   A(19,6,20)            108.396          estimate D2E/DX2                !
 ! A32   A(1,7,11)             111.4818         estimate D2E/DX2                !
 ! A33   A(1,7,21)             110.6722         estimate D2E/DX2                !
 ! A34   A(1,7,22)             111.4775         estimate D2E/DX2                !
 ! A35   A(11,7,21)            109.3903         estimate D2E/DX2                !
 ! A36   A(11,7,22)            105.5424         estimate D2E/DX2                !
 ! A37   A(21,7,22)            108.0935         estimate D2E/DX2                !
 ! A38   A(3,8,10)             109.0275         estimate D2E/DX2                !
 ! A39   A(3,8,23)             110.277          estimate D2E/DX2                !
 ! A40   A(3,8,24)             110.0382         estimate D2E/DX2                !
 ! A41   A(10,8,23)            109.1074         estimate D2E/DX2                !
 ! A42   A(10,8,24)            110.7488         estimate D2E/DX2                !
 ! A43   A(23,8,24)            107.629          estimate D2E/DX2                !
 ! A44   A(3,9,5)              110.1135         estimate D2E/DX2                !
 ! A45   A(3,9,30)             111.3631         estimate D2E/DX2                !
 ! A46   A(3,9,31)             110.3163         estimate D2E/DX2                !
 ! A47   A(5,9,30)             109.3773         estimate D2E/DX2                !
 ! A48   A(5,9,31)             106.9319         estimate D2E/DX2                !
 ! A49   A(30,9,31)            108.6228         estimate D2E/DX2                !
 ! A50   A(6,10,8)             110.5935         estimate D2E/DX2                !
 ! A51   A(6,10,25)            109.0636         estimate D2E/DX2                !
 ! A52   A(6,10,26)            109.3337         estimate D2E/DX2                !
 ! A53   A(8,10,25)            110.046          estimate D2E/DX2                !
 ! A54   A(8,10,26)            110.3075         estimate D2E/DX2                !
 ! A55   A(25,10,26)           107.4298         estimate D2E/DX2                !
 ! A56   A(2,11,7)             115.9983         estimate D2E/DX2                !
 ! A57   A(2,12,3)             120.4559         estimate D2E/DX2                !
 ! A58   A(2,13,4)             111.9669         estimate D2E/DX2                !
 ! A59   A(2,13,27)            107.3353         estimate D2E/DX2                !
 ! A60   A(2,13,28)            108.8718         estimate D2E/DX2                !
 ! A61   A(4,13,27)            109.3867         estimate D2E/DX2                !
 ! A62   A(4,13,28)            111.5852         estimate D2E/DX2                !
 ! A63   A(27,13,28)           107.5074         estimate D2E/DX2                !
 ! D1    D(7,1,4,13)            52.8792         estimate D2E/DX2                !
 ! D2    D(7,1,4,17)           174.0891         estimate D2E/DX2                !
 ! D3    D(7,1,4,18)           -68.1484         estimate D2E/DX2                !
 ! D4    D(14,1,4,13)          -67.4138         estimate D2E/DX2                !
 ! D5    D(14,1,4,17)           53.796          estimate D2E/DX2                !
 ! D6    D(14,1,4,18)          171.5585         estimate D2E/DX2                !
 ! D7    D(15,1,4,13)          173.8229         estimate D2E/DX2                !
 ! D8    D(15,1,4,17)          -64.9672         estimate D2E/DX2                !
 ! D9    D(15,1,4,18)           52.7953         estimate D2E/DX2                !
 ! D10   D(4,1,7,11)           -54.6512         estimate D2E/DX2                !
 ! D11   D(4,1,7,21)            67.3426         estimate D2E/DX2                !
 ! D12   D(4,1,7,22)          -172.315          estimate D2E/DX2                !
 ! D13   D(14,1,7,11)           65.9906         estimate D2E/DX2                !
 ! D14   D(14,1,7,21)         -172.0156         estimate D2E/DX2                !
 ! D15   D(14,1,7,22)          -51.6733         estimate D2E/DX2                !
 ! D16   D(15,1,7,11)         -176.8472         estimate D2E/DX2                !
 ! D17   D(15,1,7,21)          -54.8535         estimate D2E/DX2                !
 ! D18   D(15,1,7,22)           65.4889         estimate D2E/DX2                !
 ! D19   D(12,2,11,7)           65.9721         estimate D2E/DX2                !
 ! D20   D(13,2,11,7)          -55.3129         estimate D2E/DX2                !
 ! D21   D(29,2,11,7)         -174.6975         estimate D2E/DX2                !
 ! D22   D(11,2,12,3)           91.6486         estimate D2E/DX2                !
 ! D23   D(13,2,12,3)         -145.872          estimate D2E/DX2                !
 ! D24   D(29,2,12,3)          -24.2573         estimate D2E/DX2                !
 ! D25   D(11,2,13,4)           52.1945         estimate D2E/DX2                !
 ! D26   D(11,2,13,27)         -67.8627         estimate D2E/DX2                !
 ! D27   D(11,2,13,28)         176.0496         estimate D2E/DX2                !
 ! D28   D(12,2,13,4)          -70.1756         estimate D2E/DX2                !
 ! D29   D(12,2,13,27)         169.7672         estimate D2E/DX2                !
 ! D30   D(12,2,13,28)          53.6795         estimate D2E/DX2                !
 ! D31   D(29,2,13,4)          168.1891         estimate D2E/DX2                !
 ! D32   D(29,2,13,27)          48.1319         estimate D2E/DX2                !
 ! D33   D(29,2,13,28)         -67.9558         estimate D2E/DX2                !
 ! D34   D(9,3,8,10)            52.8214         estimate D2E/DX2                !
 ! D35   D(9,3,8,23)           -66.9504         estimate D2E/DX2                !
 ! D36   D(9,3,8,24)           174.4677         estimate D2E/DX2                !
 ! D37   D(12,3,8,10)          179.5768         estimate D2E/DX2                !
 ! D38   D(12,3,8,23)           59.805          estimate D2E/DX2                !
 ! D39   D(12,3,8,24)          -58.7768         estimate D2E/DX2                !
 ! D40   D(16,3,8,10)          -64.8783         estimate D2E/DX2                !
 ! D41   D(16,3,8,23)          175.35           estimate D2E/DX2                !
 ! D42   D(16,3,8,24)           56.7681         estimate D2E/DX2                !
 ! D43   D(8,3,9,5)            -56.4961         estimate D2E/DX2                !
 ! D44   D(8,3,9,30)            65.0141         estimate D2E/DX2                !
 ! D45   D(8,3,9,31)          -174.2912         estimate D2E/DX2                !
 ! D46   D(12,3,9,5)           174.4524         estimate D2E/DX2                !
 ! D47   D(12,3,9,30)          -64.0374         estimate D2E/DX2                !
 ! D48   D(12,3,9,31)           56.6573         estimate D2E/DX2                !
 ! D49   D(16,3,9,5)            61.7749         estimate D2E/DX2                !
 ! D50   D(16,3,9,30)         -176.7148         estimate D2E/DX2                !
 ! D51   D(16,3,9,31)          -56.0202         estimate D2E/DX2                !
 ! D52   D(8,3,12,2)           -52.2407         Frozen                          !
 ! D53   D(9,3,12,2)            74.579          estimate D2E/DX2                !
 ! D54   D(16,3,12,2)         -170.4159         estimate D2E/DX2                !
 ! D55   D(1,4,13,2)           -52.1718         estimate D2E/DX2                !
 ! D56   D(1,4,13,27)           66.6796         estimate D2E/DX2                !
 ! D57   D(1,4,13,28)         -174.4923         estimate D2E/DX2                !
 ! D58   D(17,4,13,2)         -173.8802         estimate D2E/DX2                !
 ! D59   D(17,4,13,27)         -55.0288         estimate D2E/DX2                !
 ! D60   D(17,4,13,28)          63.7993         estimate D2E/DX2                !
 ! D61   D(18,4,13,2)           68.5833         estimate D2E/DX2                !
 ! D62   D(18,4,13,27)        -172.5653         estimate D2E/DX2                !
 ! D63   D(18,4,13,28)         -53.7372         estimate D2E/DX2                !
 ! D64   D(9,5,6,10)           -60.7692         estimate D2E/DX2                !
 ! D65   D(9,5,6,19)           177.9572         estimate D2E/DX2                !
 ! D66   D(9,5,6,20)            61.3106         estimate D2E/DX2                !
 ! D67   D(6,5,9,3)             60.6907         estimate D2E/DX2                !
 ! D68   D(6,5,9,30)           -61.9952         estimate D2E/DX2                !
 ! D69   D(6,5,9,31)          -179.4418         estimate D2E/DX2                !
 ! D70   D(5,6,10,8)            55.7279         estimate D2E/DX2                !
 ! D71   D(5,6,10,25)          -65.4211         estimate D2E/DX2                !
 ! D72   D(5,6,10,26)          177.3786         estimate D2E/DX2                !
 ! D73   D(19,6,10,8)          173.9186         estimate D2E/DX2                !
 ! D74   D(19,6,10,25)          52.7695         estimate D2E/DX2                !
 ! D75   D(19,6,10,26)         -64.4308         estimate D2E/DX2                !
 ! D76   D(20,6,10,8)          -65.3912         estimate D2E/DX2                !
 ! D77   D(20,6,10,25)         173.4597         estimate D2E/DX2                !
 ! D78   D(20,6,10,26)          56.2595         estimate D2E/DX2                !
 ! D79   D(1,7,11,2)            57.3037         estimate D2E/DX2                !
 ! D80   D(21,7,11,2)          -65.4276         estimate D2E/DX2                !
 ! D81   D(22,7,11,2)          178.4922         estimate D2E/DX2                !
 ! D82   D(3,8,10,6)           -52.2879         estimate D2E/DX2                !
 ! D83   D(3,8,10,25)           68.2771         estimate D2E/DX2                !
 ! D84   D(3,8,10,26)         -173.3627         estimate D2E/DX2                !
 ! D85   D(23,8,10,6)           68.2051         estimate D2E/DX2                !
 ! D86   D(23,8,10,25)        -171.2299         estimate D2E/DX2                !
 ! D87   D(23,8,10,26)         -52.8697         estimate D2E/DX2                !
 ! D88   D(24,8,10,6)         -173.5019         estimate D2E/DX2                !
 ! D89   D(24,8,10,25)         -52.9369         estimate D2E/DX2                !
 ! D90   D(24,8,10,26)          65.4232         estimate D2E/DX2                !
 --------------------------------------------------------------------------------
 Trust Radius=3.00D-01 FncErr=1.00D-07 GrdErr=1.00D-06 EigMax=2.50D+02 EigMin=1.00D-04
 Number of steps in this run=    186 maximum allowed number of steps=    186.
 GradGradGradGradGradGradGradGradGradGradGradGradGradGradGradGradGradGrad

                          Input orientation:                          
 ---------------------------------------------------------------------
 Center     Atomic      Atomic             Coordinates (Angstroms)
 Number     Number       Type             X           Y           Z
 ---------------------------------------------------------------------
      1          6           0       -3.713333    0.448524   -0.176302
      2          6           0       -1.015964   -0.288012    0.580488
      3          6           0        1.093756   -0.139169   -0.652980
      4          6           0       -3.235445   -0.984036   -0.412739
      5          8           0        3.255561   -1.097968   -0.188363
      6          6           0        3.723670    0.079689    0.444624
      7          6           0       -2.531166    1.403254   -0.185807
      8          6           0        1.525903    1.189320   -0.039509
      9          6           0        1.867188   -1.302584   -0.035610
     10          6           0        3.049954    1.312051   -0.136593
     11          8           0       -1.534434    1.006805    0.746682
     12          8           0       -0.303402   -0.389193   -0.621465
     13          6           0       -2.128661   -1.326628    0.585445
     14          1           0       -4.218489    0.514193    0.784629
     15          1           0       -4.422757    0.755695   -0.939498
     16          1           0        1.327633   -0.118940   -1.710246
     17          1           0       -4.057915   -1.684389   -0.304618
     18          1           0       -2.865878   -1.083552   -1.429927
     19          1           0        4.793394    0.103285    0.288276
     20          1           0        3.534472    0.006929    1.513299
     21          1           0       -2.094179    1.461817   -1.176954
     22          1           0       -2.825300    2.400520    0.110969
     23          1           0        1.231457    1.235133    1.004494
     24          1           0        1.040468    2.011896   -0.554232
     25          1           0        3.349354    1.423612   -1.175625
     26          1           0        3.391752    2.193896    0.396860
     27          1           0       -2.543579   -1.351855    1.589496
     28          1           0       -1.698874   -2.302165    0.385397
     29          1           0       -0.359365   -0.434371    1.422617
     30          1           0        1.633657   -1.417677    1.019317
     31          1           0        1.626935   -2.225643   -0.545195
 ---------------------------------------------------------------------
                    Distance matrix (angstroms):
                    1          2          3          4          5
     1  C    0.000000
     2  C    2.896725   0.000000
     3  C    4.866283   2.448370   0.000000
     4  C    1.528564   2.529238   4.417408   0.000000
     5  O    7.138436   4.415098   2.410097   6.495882   0.000000
     6  C    7.471988   4.755817   2.858160   7.091958   1.416571
     7  C    1.519578   2.396545   3.967037   2.499332   6.304152
     8  C    5.293117   3.004662   1.525772   5.247210   2.871508
     9  C    5.850503   3.117932   1.527376   5.126457   1.411659
    10  C    6.818307   4.427877   2.489861   6.697351   2.419328
    11  O    2.431291   1.404629   3.190563   2.863764   5.314925
    12  O    3.539431   1.400954   1.419703   2.999047   3.654608
    13  C    2.498521   1.522118   3.650716   1.529285   5.444347
    14  H    1.087604   3.307775   5.541981   2.155170   7.707607
    15  H    1.086326   3.873748   5.595962   2.171140   7.934534
    16  H    5.299654   3.281538   1.083014   4.822198   2.644150
    17  H    2.164375   3.462188   5.389692   1.085653   7.337870
    18  H    2.153372   2.845494   4.144178   1.086809   6.246095
    19  H    8.526396   5.829849   3.825189   8.132401   2.008762
    20  H    7.455229   4.654417   3.266681   7.107982   2.047985
    21  H    2.156323   2.704265   3.605639   2.805122   6.012448
    22  H    2.163658   3.274500   4.732086   3.449305   7.021815
    23  H    5.144315   2.747845   2.157519   5.185217   3.311082
    24  H    5.018524   3.287260   2.153990   5.222936   3.835590
    25  H    7.199374   5.006954   2.793415   7.052542   2.709585
    26  H    7.338738   5.061773   3.438916   7.394217   3.346252
    27  H    2.779880   2.117420   4.441792   2.150096   6.070854
    28  H    3.455407   2.135706   3.681788   2.176129   5.130859
    29  H    3.819051   1.077833   2.550845   3.455792   4.012893
    30  H    5.788136   2.913624   2.173167   5.093818   2.047261
    31  H    5.983788   3.465038   2.156217   5.020147   2.012810
                    6          7          8          9         10
     6  C    0.000000
     7  C    6.424348   0.000000
     8  C    2.509152   4.065339   0.000000
     9  C    2.363859   5.166201   2.515169   0.000000
    10  C    1.520007   5.582082   1.532064   2.871489   0.000000
    11  O    5.347751   1.421331   3.164976   4.185247   4.678671
    12  O    4.192100   2.892334   2.485303   2.426720   3.791349
    13  C    6.020576   2.865152   4.480670   4.043896   5.856793
    14  H    7.961299   2.139915   5.842349   6.403822   7.369904
    15  H    8.290781   2.136703   6.031962   6.679591   7.536285
    16  H    3.228608   4.419425   2.131248   2.120504   2.736879
    17  H    8.014138   3.446537   6.285500   5.943483   7.715484
    18  H    6.949044   2.800727   5.136823   4.939029   6.512196
    19  H    1.081347   7.454117   3.458817   3.262522   2.163611
    20  H    1.087730   6.452027   2.800645   2.625601   2.158760
    21  H    6.195737   1.084786   3.804343   4.963568   5.250418
    22  H    6.956047   1.081263   4.519139   5.979457   5.980356
    23  H    2.803503   3.949989   1.085698   2.815311   2.148238
    24  H    3.454086   3.641806   1.084997   3.455172   2.168465
    25  H    2.138095   5.963277   2.161163   3.305843   1.087048
    26  H    2.140636   6.003797   2.163558   3.838841   1.085840
    27  H    6.529813   3.277572   5.066746   4.700879   6.431438
    28  H    5.922898   3.840458   4.771813   3.727359   5.990526
    29  H    4.229882   3.268121   2.885900   2.799600   4.135769
    30  H    2.634489   5.172594   2.815876   1.086579   3.285337
    31  H    3.269648   5.530629   3.453679   1.081405   3.834999
                   11         12         13         14         15
    11  O    0.000000
    12  O    2.309995   0.000000
    13  C    2.413299   2.380543   0.000000
    14  H    2.729150   4.256890   2.792074   0.000000
    15  H    3.353904   4.287307   3.453172   1.752901   0.000000
    16  H    3.936397   1.979585   4.321421   6.114305   5.867369
    17  H    3.836107   3.984256   2.154583   2.458863   2.547586
    18  H    3.298479   2.775253   2.159699   3.047393   2.459110
    19  H    6.408423   5.200720   7.074447   9.034891   9.320435
    20  H    5.223147   4.409468   5.891550   7.803633   8.360285
    21  H    2.054441   2.634708   3.298888   3.042777   2.444845
    22  H    2.003224   3.831309   3.821265   2.439882   2.522062
    23  H    2.787248   2.763688   4.246012   5.501818   5.998258
    24  H    3.054948   2.752405   4.742150   5.629591   5.619012
    25  H    5.265014   4.115335   6.377604   7.870317   7.804331
    26  H    5.079259   4.622066   6.550161   7.803047   8.057346
    27  H    2.700368   3.291422   1.086698   2.633490   3.790632
    28  H    3.332694   2.573048   1.084624   3.799963   4.304114
    29  H    1.978551   2.045347   2.151136   4.024878   4.848402
    30  H    3.998655   2.739004   3.788347   6.167237   6.726117
    31  H    4.702331   2.665439   4.023814   6.591215   6.755933
                   16         17         18         19         20
    16  H    0.000000
    17  H    5.781916   0.000000
    18  H    4.312144   1.745932   0.000000
    19  H    4.006866   9.049474   7.938844   0.000000
    20  H    3.908609   7.988099   7.128549   1.759219   0.000000
    21  H    3.806835   3.809966   2.671782   7.171553   6.405925
    22  H    5.187616   4.287019   3.809825   7.959474   6.938480
    23  H    3.035223   6.181815   5.300081   3.805449   2.659181
    24  H    2.441167   6.302249   5.060452   4.293841   3.809807
    25  H    2.598585   8.079973   6.706687   2.443670   3.044926
    26  H    3.748292   8.427972   7.296352   2.519334   2.459599
    27  H    5.233991   2.447746   3.048406   7.592218   6.228547
    28  H    4.279946   2.534333   2.478370   6.924245   5.830265
    29  H    3.572155   4.269093   3.852408   5.303464   3.919813
    30  H    3.038237   5.849609   5.133834   3.582134   2.426235
    31  H    2.425927   5.715624   4.719374   4.018089   3.586150
                   21         22         23         24         25
    21  H    0.000000
    22  H    1.753410   0.000000
    23  H    3.983711   4.314370   0.000000
    24  H    3.242897   3.941787   1.751989   0.000000
    25  H    5.443667   6.382478   3.045313   2.462349   0.000000
    26  H    5.753979   6.227051   2.440352   2.542880   1.751526
    27  H    3.971392   4.042985   4.613635   5.362442   7.076424
    28  H    4.094480   4.843490   4.634932   5.195962   6.465509
    29  H    3.655527   3.979681   2.343669   3.442628   4.894646
    30  H    5.197293   5.940204   2.683167   3.819673   3.979235
    31  H    5.276663   6.454017   3.812468   4.277939   4.084266
                   26         27         28         29         30
    26  H    0.000000
    27  H    7.015902   0.000000
    28  H    6.791846   1.751134   0.000000
    29  H    4.693703   2.374956   2.521659   0.000000
    30  H    4.064703   4.216484   3.505701   2.258690   0.000000
    31  H    4.851224   4.765879   3.454398   3.320591   1.760838
                   31
    31  H    0.000000
 Stoichiometry    C10H18O3
 Framework group  C1[X(C10H18O3)]
 Deg. of freedom    87
 Full point group                 C1      NOp   1
 Largest Abelian subgroup         C1      NOp   1
 Largest concise Abelian subgroup C1      NOp   1
                         Standard orientation:                         
 ---------------------------------------------------------------------
 Center     Atomic      Atomic             Coordinates (Angstroms)
 Number     Number       Type             X           Y           Z
 ---------------------------------------------------------------------
      1          6           0       -3.713333    0.448524   -0.176302
      2          6           0       -1.015964   -0.288012    0.580488
      3          6           0        1.093756   -0.139169   -0.652980
      4          6           0       -3.235445   -0.984036   -0.412739
      5          8           0        3.255561   -1.097968   -0.188363
      6          6           0        3.723670    0.079689    0.444624
      7          6           0       -2.531166    1.403254   -0.185807
      8          6           0        1.525903    1.189320   -0.039509
      9          6           0        1.867188   -1.302584   -0.035610
     10          6           0        3.049954    1.312051   -0.136593
     11          8           0       -1.534434    1.006805    0.746682
     12          8           0       -0.303402   -0.389193   -0.621465
     13          6           0       -2.128661   -1.326628    0.585445
     14          1           0       -4.218489    0.514193    0.784629
     15          1           0       -4.422757    0.755695   -0.939498
     16          1           0        1.327633   -0.118940   -1.710246
     17          1           0       -4.057915   -1.684389   -0.304618
     18          1           0       -2.865878   -1.083552   -1.429927
     19          1           0        4.793394    0.103285    0.288276
     20          1           0        3.534472    0.006929    1.513299
     21          1           0       -2.094179    1.461817   -1.176954
     22          1           0       -2.825300    2.400520    0.110969
     23          1           0        1.231457    1.235133    1.004494
     24          1           0        1.040468    2.011896   -0.554232
     25          1           0        3.349354    1.423612   -1.175625
     26          1           0        3.391752    2.193896    0.396860
     27          1           0       -2.543579   -1.351855    1.589496
     28          1           0       -1.698874   -2.302165    0.385397
     29          1           0       -0.359365   -0.434371    1.422617
     30          1           0        1.633657   -1.417677    1.019317
     31          1           0        1.626935   -2.225643   -0.545195
 ---------------------------------------------------------------------
 Rotational constants (GHZ):           2.0269117           0.4168970           0.3731590
 Standard basis: 6-311++G(2d,2p) (5D, 7F)
 There are   557 symmetry adapted cartesian basis functions of A   symmetry.
 There are   531 symmetry adapted basis functions of A   symmetry.
   531 basis functions,   762 primitive gaussians,   557 cartesian basis functions
    51 alpha electrons       51 beta electrons
       nuclear repulsion energy       895.3284823492 Hartrees.
 NAtoms=   31 NActive=   31 NUniq=   31 SFac= 1.00D+00 NAtFMM=   60 NAOKFM=F Big=F
 Integral buffers will be    131072 words long.
 Raffenetti 2 integral format.
 Two-electron integral symmetry is turned on.
 ------------------------------------------------------------------------------
 Polarizable Continuum Model (PCM)
 =================================
 Model                : PCM.
 Atomic radii         : UFF (Universal Force Field).
 Polarization charges : Total charges.
 Charge compensation  : None.
 Solution method      : On-the-fly selection.
 Cavity type          : Scaled VdW (van der Waals Surface) (Alpha=1.100).
 Cavity algorithm     : GePol (No added spheres)
                        Default sphere list used, NSphG=   31.
                        Lebedev-Laikov grids with approx.  5.0 points / Ang**2.
                        Smoothing algorithm: York/Karplus (Gamma=1.0000).
                        Polarization charges: spherical gaussians, with
                                              point-specific exponents (IZeta= 3).
                        Self-potential: point-specific (ISelfS= 7).
                        Self-field    : sphere-specific E.n sum rule (ISelfD= 2).
 1st derivatives      : Analytical E(r).r(x)/FMM algorithm (CHGder, D1EAlg=3).
                        Cavity 1st derivative terms included.
 Solvent              : Water, Eps=  78.355300 Eps(inf)=   1.777849
 ------------------------------------------------------------------------------
 One-electron integrals computed using PRISM.
 NBasis=   531 RedAO= T EigKep=  5.18D-06  NBF=   531
 NBsUse=   531 1.00D-06 EigRej= -1.00D+00 NBFU=   531
 ExpMin= 3.60D-02 ExpMax= 8.59D+03 ExpMxC= 1.30D+03 IAcc=3 IRadAn=         5 AccDes= 0.00D+00
 Harris functional with IExCor= 1009 and IRadAn=       5 diagonalized for initial guess.
 HarFok:  IExCor= 1009 AccDes= 0.00D+00 IRadAn=         5 IDoV= 1 UseB2=F ITyADJ=14
 ICtDFT=  3500011 ScaDFX=  1.000000  1.000000  1.000000  1.000000
 FoFCou: FMM=F IPFlag=           0 FMFlag=      100000 FMFlg1=           0
         NFxFlg=           0 DoJE=T BraDBF=F KetDBF=T FulRan=T
         wScrn=  0.000000 ICntrl=       500 IOpCl=  0 I1Cent=   200000004 NGrid=           0
         NMat0=    1 NMatS0=      1 NMatT0=    0 NMatD0=    1 NMtDS0=    0 NMtDT0=    0
 Petite list used in FoFCou.
 Requested convergence on RMS density matrix=1.00D-08 within 128 cycles.
 Requested convergence on MAX density matrix=1.00D-06.
 Requested convergence on             energy=1.00D-06.
 No special actions if energy rises.
 Inv3:  Mode=1 IEnd=    12460332.
 Iteration    1 A*A^-1 deviation from unit magnitude is 6.11D-15 for   2027.
 Iteration    1 A*A^-1 deviation from orthogonality  is 2.03D-15 for   2029    942.
 Iteration    1 A^-1*A deviation from unit magnitude is 5.88D-15 for   2027.
 Iteration    1 A^-1*A deviation from orthogonality  is 2.88D-15 for   2030    922.
 Error on total polarization charges =  0.01472
 SCF Done:  E(RM062X) =  -617.498295367     A.U. after   12 cycles
            NFock= 12  Conv=0.58D-08     -V/T= 2.0035

 **********************************************************************

            Population analysis using the SCF density.

 **********************************************************************

 Orbital symmetries:
       Occupied  (A) (A) (A) (A) (A) (A) (A) (A) (A) (A) (A) (A)
                 (A) (A) (A) (A) (A) (A) (A) (A) (A) (A) (A) (A)
                 (A) (A) (A) (A) (A) (A) (A) (A) (A) (A) (A) (A)
                 (A) (A) (A) (A) (A) (A) (A) (A) (A) (A) (A) (A)
                 (A) (A) (A)
       Virtual   (A) (A) (A) (A) (A) (A) (A) (A) (A) (A) (A) (A)
                 (A) (A) (A) (A) (A) (A) (A) (A) (A) (A) (A) (A)
                 (A) (A) (A) (A) (A) (A) (A) (A) (A) (A) (A) (A)
                 (A) (A) (A) (A) (A) (A) (A) (A) (A) (A) (A) (A)
                 (A) (A) (A) (A) (A) (A) (A) (A) (A) (A) (A) (A)
                 (A) (A) (A) (A) (A) (A) (A) (A) (A) (A) (A) (A)
                 (A) (A) (A) (A) (A) (A) (A) (A) (A) (A) (A) (A)
                 (A) (A) (A) (A) (A) (A) (A) (A) (A) (A) (A) (A)
                 (A) (A) (A) (A) (A) (A) (A) (A) (A) (A) (A) (A)
                 (A) (A) (A) (A) (A) (A) (A) (A) (A) (A) (A) (A)
                 (A) (A) (A) (A) (A) (A) (A) (A) (A) (A) (A) (A)
                 (A) (A) (A) (A) (A) (A) (A) (A) (A) (A) (A) (A)
                 (A) (A) (A) (A) (A) (A) (A) (A) (A) (A) (A) (A)
                 (A) (A) (A) (A) (A) (A) (A) (A) (A) (A) (A) (A)
                 (A) (A) (A) (A) (A) (A) (A) (A) (A) (A) (A) (A)
                 (A) (A) (A) (A) (A) (A) (A) (A) (A) (A) (A) (A)
                 (A) (A) (A) (A) (A) (A) (A) (A) (A) (A) (A) (A)
                 (A) (A) (A) (A) (A) (A) (A) (A) (A) (A) (A) (A)
                 (A) (A) (A) (A) (A) (A) (A) (A) (A) (A) (A) (A)
                 (A) (A) (A) (A) (A) (A) (A) (A) (A) (A) (A) (A)
                 (A) (A) (A) (A) (A) (A) (A) (A) (A) (A) (A) (A)
                 (A) (A) (A) (A) (A) (A) (A) (A) (A) (A) (A) (A)
                 (A) (A) (A) (A) (A) (A) (A) (A) (A) (A) (A) (A)
                 (A) (A) (A) (A) (A) (A) (A) (A) (A) (A) (A) (A)
                 (A) (A) (A) (A) (A) (A) (A) (A) (A) (A) (A) (A)
                 (A) (A) (A) (A) (A) (A) (A) (A) (A) (A) (A) (A)
                 (A) (A) (A) (A) (A) (A) (A) (A) (A) (A) (A) (A)
                 (A) (A) (A) (A) (A) (A) (A) (A) (A) (A) (A) (A)
                 (A) (A) (A) (A) (A) (A) (A) (A) (A) (A) (A) (A)
                 (A) (A) (A) (A) (A) (A) (A) (A) (A) (A) (A) (A)
                 (A) (A) (A) (A) (A) (A) (A) (A) (A) (A) (A) (A)
                 (A) (A) (A) (A) (A) (A) (A) (A) (A) (A) (A) (A)
                 (A) (A) (A) (A) (A) (A) (A) (A) (A) (A) (A) (A)
                 (A) (A) (A) (A) (A) (A) (A) (A) (A) (A) (A) (A)
                 (A) (A) (A) (A) (A) (A) (A) (A) (A) (A) (A) (A)
                 (A) (A) (A) (A) (A) (A) (A) (A) (A) (A) (A) (A)
                 (A) (A) (A) (A) (A) (A) (A) (A) (A) (A) (A) (A)
                 (A) (A) (A) (A) (A) (A) (A) (A) (A) (A) (A) (A)
                 (A) (A) (A) (A) (A) (A) (A) (A) (A) (A) (A) (A)
                 (A) (A) (A) (A) (A) (A) (A) (A) (A) (A) (A) (A)
 The electronic state is 1-A.
 Alpha  occ. eigenvalues --  -19.62980 -19.62964 -19.62518 -10.63405 -10.58874
 Alpha  occ. eigenvalues --  -10.57933 -10.57894 -10.57516 -10.53175 -10.53135
 Alpha  occ. eigenvalues --  -10.52939 -10.52892 -10.52698  -1.19930  -1.16794
 Alpha  occ. eigenvalues --   -1.13453  -0.90827  -0.89652  -0.87523  -0.84884
 Alpha  occ. eigenvalues --   -0.75070  -0.74354  -0.73231  -0.71163  -0.66804
 Alpha  occ. eigenvalues --   -0.62639  -0.60551  -0.58888  -0.56731  -0.55463
 Alpha  occ. eigenvalues --   -0.54561  -0.53327  -0.52731  -0.50981  -0.50044
 Alpha  occ. eigenvalues --   -0.48940  -0.46594  -0.46157  -0.45296  -0.44978
 Alpha  occ. eigenvalues --   -0.43913  -0.43403  -0.40896  -0.40319  -0.39376
 Alpha  occ. eigenvalues --   -0.38367  -0.37720  -0.36860  -0.34571  -0.33118
 Alpha  occ. eigenvalues --   -0.31582
 Alpha virt. eigenvalues --   -0.00079   0.00706   0.00811   0.01113   0.02168
 Alpha virt. eigenvalues --    0.02500   0.02624   0.03336   0.03560   0.04348
 Alpha virt. eigenvalues --    0.04528   0.04880   0.05574   0.05912   0.06875
 Alpha virt. eigenvalues --    0.07329   0.07546   0.07748   0.09093   0.09624
 Alpha virt. eigenvalues --    0.10365   0.10653   0.11159   0.11629   0.11950
 Alpha virt. eigenvalues --    0.12067   0.12559   0.12802   0.13020   0.13678
 Alpha virt. eigenvalues --    0.13856   0.13984   0.14524   0.14570   0.14920
 Alpha virt. eigenvalues --    0.15093   0.15267   0.15509   0.15716   0.15865
 Alpha virt. eigenvalues --    0.16488   0.17038   0.17198   0.17438   0.17876
 Alpha virt. eigenvalues --    0.18063   0.18327   0.18598   0.18912   0.19571
 Alpha virt. eigenvalues --    0.19765   0.20062   0.20411   0.20811   0.20910
 Alpha virt. eigenvalues --    0.21464   0.22560   0.23120   0.23813   0.24688
 Alpha virt. eigenvalues --    0.24762   0.25710   0.25965   0.26639   0.27561
 Alpha virt. eigenvalues --    0.27684   0.28051   0.28927   0.29079   0.29596
 Alpha virt. eigenvalues --    0.29749   0.30109   0.31036   0.31143   0.31363
 Alpha virt. eigenvalues --    0.32384   0.32828   0.33413   0.33851   0.34619
 Alpha virt. eigenvalues --    0.34889   0.35035   0.35418   0.35767   0.36412
 Alpha virt. eigenvalues --    0.36847   0.37059   0.37559   0.37849   0.38019
 Alpha virt. eigenvalues --    0.38557   0.39207   0.39865   0.40330   0.40790
 Alpha virt. eigenvalues --    0.41163   0.42148   0.42941   0.44214   0.44728
 Alpha virt. eigenvalues --    0.45925   0.46238   0.49061   0.49201   0.50288
 Alpha virt. eigenvalues --    0.51447   0.52510   0.53450   0.54214   0.54379
 Alpha virt. eigenvalues --    0.55491   0.56811   0.57908   0.58857   0.59478
 Alpha virt. eigenvalues --    0.60249   0.60753   0.61329   0.61561   0.61818
 Alpha virt. eigenvalues --    0.62087   0.63009   0.63536   0.63975   0.64376
 Alpha virt. eigenvalues --    0.64864   0.65633   0.65899   0.66189   0.67455
 Alpha virt. eigenvalues --    0.68056   0.68750   0.69269   0.69583   0.70001
 Alpha virt. eigenvalues --    0.70907   0.71322   0.71940   0.72185   0.73147
 Alpha virt. eigenvalues --    0.73657   0.73955   0.74297   0.74963   0.75629
 Alpha virt. eigenvalues --    0.76192   0.77447   0.77511   0.77941   0.78777
 Alpha virt. eigenvalues --    0.80717   0.81315   0.83555   0.84481   0.85899
 Alpha virt. eigenvalues --    0.86432   0.87313   0.87976   0.88670   0.89935
 Alpha virt. eigenvalues --    0.90489   0.91628   0.92678   0.93888   0.95888
 Alpha virt. eigenvalues --    0.97392   0.97928   0.99892   1.01924   1.02403
 Alpha virt. eigenvalues --    1.03047   1.03326   1.06201   1.06881   1.07300
 Alpha virt. eigenvalues --    1.08056   1.08283   1.09679   1.11009   1.11427
 Alpha virt. eigenvalues --    1.13009   1.14604   1.14882   1.15454   1.16283
 Alpha virt. eigenvalues --    1.17774   1.18579   1.18724   1.19033   1.19325
 Alpha virt. eigenvalues --    1.20774   1.21344   1.22450   1.23332   1.23851
 Alpha virt. eigenvalues --    1.24927   1.25242   1.25815   1.27032   1.27623
 Alpha virt. eigenvalues --    1.28303   1.29136   1.30067   1.30513   1.30827
 Alpha virt. eigenvalues --    1.31678   1.32420   1.34132   1.34710   1.34995
 Alpha virt. eigenvalues --    1.36283   1.36672   1.37021   1.37267   1.37685
 Alpha virt. eigenvalues --    1.38248   1.39139   1.40731   1.41482   1.42354
 Alpha virt. eigenvalues --    1.42595   1.43520   1.44188   1.44620   1.44888
 Alpha virt. eigenvalues --    1.46497   1.46841   1.47517   1.47946   1.48277
 Alpha virt. eigenvalues --    1.49514   1.50014   1.50941   1.51449   1.52664
 Alpha virt. eigenvalues --    1.53086   1.53985   1.55067   1.55729   1.56395
 Alpha virt. eigenvalues --    1.56854   1.57100   1.57717   1.58110   1.59426
 Alpha virt. eigenvalues --    1.59553   1.59925   1.60634   1.60978   1.61601
 Alpha virt. eigenvalues --    1.62676   1.65007   1.65586   1.67012   1.67371
 Alpha virt. eigenvalues --    1.67674   1.68743   1.70163   1.70651   1.72384
 Alpha virt. eigenvalues --    1.73166   1.73798   1.75780   1.76306   1.78775
 Alpha virt. eigenvalues --    1.79287   1.80808   1.81520   1.84494   1.85609
 Alpha virt. eigenvalues --    1.86183   1.87869   1.90806   1.95451   1.96931
 Alpha virt. eigenvalues --    2.00612   2.06064   2.13052   2.16012   2.21823
 Alpha virt. eigenvalues --    2.23909   2.26462   2.31203   2.34122   2.39135
 Alpha virt. eigenvalues --    2.40957   2.44495   2.45943   2.46975   2.55477
 Alpha virt. eigenvalues --    2.58127   2.75665   2.77013   2.79233   2.80692
 Alpha virt. eigenvalues --    2.84528   2.90025   2.92699   2.93515   2.94453
 Alpha virt. eigenvalues --    2.96410   2.97932   3.00944   3.02093   3.04203
 Alpha virt. eigenvalues --    3.06865   3.07791   3.08363   3.10127   3.11896
 Alpha virt. eigenvalues --    3.14251   3.15186   3.17308   3.19404   3.23387
 Alpha virt. eigenvalues --    3.26095   3.28536   3.30775   3.33378   3.34272
 Alpha virt. eigenvalues --    3.35497   3.36548   3.38060   3.39991   3.41480
 Alpha virt. eigenvalues --    3.43130   3.43584   3.44019   3.45228   3.46631
 Alpha virt. eigenvalues --    3.48037   3.49994   3.50742   3.51444   3.52544
 Alpha virt. eigenvalues --    3.52744   3.53878   3.55181   3.55645   3.56022
 Alpha virt. eigenvalues --    3.56253   3.57534   3.58275   3.59357   3.60396
 Alpha virt. eigenvalues --    3.60877   3.62393   3.63303   3.63971   3.64870
 Alpha virt. eigenvalues --    3.66860   3.67893   3.68477   3.68985   3.70006
 Alpha virt. eigenvalues --    3.70431   3.70645   3.72864   3.73172   3.74678
 Alpha virt. eigenvalues --    3.75149   3.75336   3.75916   3.76775   3.78195
 Alpha virt. eigenvalues --    3.79531   3.80337   3.81262   3.82806   3.85966
 Alpha virt. eigenvalues --    3.86581   3.87958   3.89242   3.90026   3.91100
 Alpha virt. eigenvalues --    3.93251   3.93994   3.94504   3.96126   3.97780
 Alpha virt. eigenvalues --    3.99788   4.00908   4.02305   4.03187   4.04055
 Alpha virt. eigenvalues --    4.04894   4.05814   4.05981   4.06555   4.07471
 Alpha virt. eigenvalues --    4.08260   4.09798   4.10094   4.11037   4.11945
 Alpha virt. eigenvalues --    4.12368   4.14116   4.14400   4.15071   4.16107
 Alpha virt. eigenvalues --    4.17521   4.17916   4.18942   4.19880   4.20377
 Alpha virt. eigenvalues --    4.21645   4.23378   4.25750   4.26556   4.27302
 Alpha virt. eigenvalues --    4.28381   4.29790   4.30558   4.31503   4.32746
 Alpha virt. eigenvalues --    4.33573   4.33910   4.35700   4.37321   4.40095
 Alpha virt. eigenvalues --    4.40414   4.41386   4.44392   4.46273   4.47611
 Alpha virt. eigenvalues --    4.57543   4.60870   4.75074   4.75874   4.83295
 Alpha virt. eigenvalues --    4.85477   4.92689   4.95370   4.98917   5.01878
 Alpha virt. eigenvalues --    5.06406   5.07010   5.07665   5.08461   5.11675
 Alpha virt. eigenvalues --    5.12145   5.13838   5.16561   5.30320   5.39570
 Alpha virt. eigenvalues --    5.41883   5.58451   5.59115   5.67700   5.85323
 Alpha virt. eigenvalues --    5.88435   6.00498   7.02037   7.04576   7.05379
 Alpha virt. eigenvalues --    7.09142   7.09628   7.12976   7.14307   7.19279
 Alpha virt. eigenvalues --    7.28308   7.36546   7.41831   7.46256   7.53724
 Alpha virt. eigenvalues --    7.55372   7.63622  23.96048  23.97009  24.06685
 Alpha virt. eigenvalues --   24.07193  24.11274  24.11589  24.13036  24.15757
 Alpha virt. eigenvalues --   24.17428  24.22158  50.17378  50.18172  50.28291
          Condensed to atoms (all electrons):
               1          2          3          4          5          6
     1  C    5.615532   0.437697  -0.059686   0.067990  -0.000133  -0.001099
     2  C    0.437697   7.187565  -0.898020  -0.243032  -0.006829  -0.009646
     3  C   -0.059686  -0.898020   8.323172   0.137226   0.004064   0.121871
     4  C    0.067990  -0.243032   0.137226   5.641573   0.000077  -0.000251
     5  O   -0.000133  -0.006829   0.004064   0.000077   8.358037   0.095400
     6  C   -0.001099  -0.009646   0.121871  -0.000251   0.095400   5.377324
     7  C   -0.063631  -0.555975   0.139892  -0.030435   0.000744   0.003759
     8  C    0.032094   0.245737  -1.315667  -0.023230  -0.047768  -0.099473
     9  C    0.005542   0.168549  -0.869541  -0.023225   0.153495  -0.193591
    10  C   -0.005024  -0.115544   0.195159   0.004658   0.000421   0.135609
    11  O   -0.056222   0.230153  -0.087168  -0.009136   0.000149  -0.000843
    12  O   -0.001550   0.346850  -0.117073  -0.040836   0.000222  -0.002944
    13  C   -0.288735  -0.933916  -0.048887  -0.005721   0.003617  -0.000850
    14  H    0.491682  -0.005707  -0.009499  -0.020742   0.000000  -0.000073
    15  H    0.440664   0.007185   0.007902  -0.047573  -0.000001   0.000030
    16  H   -0.003767  -0.045790   0.630275   0.007841   0.005423   0.012495
    17  H   -0.015430   0.016937   0.007359   0.412640  -0.000008   0.000113
    18  H   -0.067797  -0.035932  -0.011700   0.516147   0.000092  -0.000321
    19  H   -0.000058   0.000433  -0.006297  -0.000085  -0.073137   0.426762
    20  H   -0.000041  -0.004862   0.036112   0.000545  -0.040631   0.453369
    21  H   -0.066325  -0.023965  -0.027465  -0.011084  -0.000115   0.000156
    22  H   -0.031984  -0.001566   0.008204   0.010668   0.000051  -0.000003
    23  H    0.001002  -0.072766   0.153450   0.001883   0.000920  -0.003074
    24  H   -0.001792   0.044140  -0.060225  -0.004478  -0.002261   0.000247
    25  H    0.000168  -0.008482  -0.012701   0.000533  -0.009035  -0.082566
    26  H    0.000301   0.001586   0.001697   0.000023   0.008380  -0.033638
    27  H   -0.024264  -0.133873   0.006417  -0.010423   0.000030   0.000252
    28  H   -0.000424  -0.032362  -0.005797  -0.042400   0.000707  -0.000406
    29  H    0.027868   0.499005   0.025326  -0.025191  -0.000535  -0.008595
    30  H   -0.005025  -0.038671   0.154208   0.010917  -0.039262  -0.004578
    31  H    0.002753   0.023044  -0.119837  -0.001497  -0.071364  -0.000121
               7          8          9         10         11         12
     1  C   -0.063631   0.032094   0.005542  -0.005024  -0.056222  -0.001550
     2  C   -0.555975   0.245737   0.168549  -0.115544   0.230153   0.346850
     3  C    0.139892  -1.315667  -0.869541   0.195159  -0.087168  -0.117073
     4  C   -0.030435  -0.023230  -0.023225   0.004658  -0.009136  -0.040836
     5  O    0.000744  -0.047768   0.153495   0.000421   0.000149   0.000222
     6  C    0.003759  -0.099473  -0.193591   0.135609  -0.000843  -0.002944
     7  C    5.570417  -0.021071  -0.027367   0.011770   0.103704  -0.012130
     8  C   -0.021071   6.647877   0.496248  -0.432383   0.038948   0.015021
     9  C   -0.027367   0.496248   5.974885  -0.138902   0.003705   0.001634
    10  C    0.011770  -0.432383  -0.138902   5.984319   0.014521  -0.007075
    11  O    0.103704   0.038948   0.003705   0.014521   8.254699  -0.045574
    12  O   -0.012130   0.015021   0.001634  -0.007075  -0.045574   8.305151
    13  C    0.190620  -0.030512   0.002435   0.016529  -0.009838  -0.029185
    14  H   -0.091869   0.003355   0.000747   0.000000  -0.002820   0.000867
    15  H   -0.036194  -0.002630  -0.000373  -0.000152   0.009762  -0.000454
    16  H    0.011164  -0.081006  -0.130477  -0.001634   0.001899  -0.092147
    17  H    0.009969  -0.001906  -0.002227   0.000369  -0.003672  -0.000215
    18  H    0.000410   0.000701   0.006824  -0.000946   0.001922  -0.002527
    19  H    0.000017   0.003872   0.016941  -0.032705   0.000170   0.000409
    20  H    0.000259  -0.030324  -0.026652  -0.026625   0.000047  -0.000060
    21  H    0.474044   0.010196   0.002150  -0.001355  -0.032894   0.003945
    22  H    0.441444  -0.000962   0.000216   0.002328  -0.071698  -0.000149
    23  H    0.009091   0.402934  -0.077453  -0.056439  -0.001576  -0.020996
    24  H   -0.005876   0.417991   0.022659  -0.004964  -0.014977   0.010378
    25  H    0.000510  -0.020648   0.003107   0.489362   0.000457  -0.000163
    26  H   -0.000732  -0.054129   0.000005   0.447533   0.000485  -0.000980
    27  H    0.021624   0.001438  -0.003551   0.001513  -0.004457   0.008552
    28  H    0.004473   0.000823   0.010286  -0.001988   0.009892   0.003138
    29  H   -0.043234   0.015384  -0.007826  -0.008887  -0.080247  -0.030135
    30  H    0.005541  -0.117941   0.350029   0.030088  -0.001514  -0.015103
    31  H   -0.003253   0.024811   0.498336   0.001198  -0.000367   0.011988
              13         14         15         16         17         18
     1  C   -0.288735   0.491682   0.440664  -0.003767  -0.015430  -0.067797
     2  C   -0.933916  -0.005707   0.007185  -0.045790   0.016937  -0.035932
     3  C   -0.048887  -0.009499   0.007902   0.630275   0.007359  -0.011700
     4  C   -0.005721  -0.020742  -0.047573   0.007841   0.412640   0.516147
     5  O    0.003617   0.000000  -0.000001   0.005423  -0.000008   0.000092
     6  C   -0.000850  -0.000073   0.000030   0.012495   0.000113  -0.000321
     7  C    0.190620  -0.091869  -0.036194   0.011164   0.009969   0.000410
     8  C   -0.030512   0.003355  -0.002630  -0.081006  -0.001906   0.000701
     9  C    0.002435   0.000747  -0.000373  -0.130477  -0.002227   0.006824
    10  C    0.016529   0.000000  -0.000152  -0.001634   0.000369  -0.000946
    11  O   -0.009838  -0.002820   0.009762   0.001899  -0.003672   0.001922
    12  O   -0.029185   0.000867  -0.000454  -0.092147  -0.000215  -0.002527
    13  C    6.855349  -0.000666  -0.006870  -0.013283  -0.046544  -0.027412
    14  H   -0.000666   0.484207  -0.011553  -0.000548  -0.001201   0.001889
    15  H   -0.006870  -0.011553   0.487486   0.000498  -0.008028  -0.005053
    16  H   -0.013283  -0.000548   0.000498   0.443985   0.000244  -0.001041
    17  H   -0.046544  -0.001201  -0.008028   0.000244   0.464706  -0.004593
    18  H   -0.027412   0.001889  -0.005053  -0.001041  -0.004593   0.459251
    19  H    0.000458  -0.000000  -0.000001  -0.002592   0.000004  -0.000026
    20  H    0.000552   0.000008  -0.000006   0.001880   0.000006   0.000050
    21  H    0.040846   0.004746   0.000243  -0.004210  -0.000834  -0.001371
    22  H   -0.013034  -0.005805  -0.008481   0.000725   0.000722  -0.002222
    23  H   -0.016921  -0.000614   0.000305   0.016944   0.000018  -0.000328
    24  H   -0.007676   0.000184   0.000066  -0.010342  -0.000060   0.000253
    25  H    0.001788   0.000010   0.000000   0.000481   0.000005   0.000004
    26  H   -0.000280   0.000006  -0.000015  -0.000994   0.000004  -0.000029
    27  H    0.516333  -0.001558  -0.002885   0.000241  -0.003268   0.002710
    28  H    0.418052  -0.001651   0.001579   0.001202  -0.010344  -0.002652
    29  H   -0.098079   0.001622   0.001752  -0.007729   0.001028  -0.003920
    30  H    0.002537  -0.000301   0.000039   0.011903   0.000396   0.000191
    31  H   -0.005218   0.000021   0.000015  -0.010900  -0.000140  -0.000376
              19         20         21         22         23         24
     1  C   -0.000058  -0.000041  -0.066325  -0.031984   0.001002  -0.001792
     2  C    0.000433  -0.004862  -0.023965  -0.001566  -0.072766   0.044140
     3  C   -0.006297   0.036112  -0.027465   0.008204   0.153450  -0.060225
     4  C   -0.000085   0.000545  -0.011084   0.010668   0.001883  -0.004478
     5  O   -0.073137  -0.040631  -0.000115   0.000051   0.000920  -0.002261
     6  C    0.426762   0.453369   0.000156  -0.000003  -0.003074   0.000247
     7  C    0.000017   0.000259   0.474044   0.441444   0.009091  -0.005876
     8  C    0.003872  -0.030324   0.010196  -0.000962   0.402934   0.417991
     9  C    0.016941  -0.026652   0.002150   0.000216  -0.077453   0.022659
    10  C   -0.032705  -0.026625  -0.001355   0.002328  -0.056439  -0.004964
    11  O    0.000170   0.000047  -0.032894  -0.071698  -0.001576  -0.014977
    12  O    0.000409  -0.000060   0.003945  -0.000149  -0.020996   0.010378
    13  C    0.000458   0.000552   0.040846  -0.013034  -0.016921  -0.007676
    14  H   -0.000000   0.000008   0.004746  -0.005805  -0.000614   0.000184
    15  H   -0.000001  -0.000006   0.000243  -0.008481   0.000305   0.000066
    16  H   -0.002592   0.001880  -0.004210   0.000725   0.016944  -0.010342
    17  H    0.000004   0.000006  -0.000834   0.000722   0.000018  -0.000060
    18  H   -0.000026   0.000050  -0.001371  -0.002222  -0.000328   0.000253
    19  H    0.469295  -0.007473  -0.000008   0.000005  -0.001891   0.000987
    20  H   -0.007473   0.498545  -0.000010   0.000011  -0.005343  -0.000146
    21  H   -0.000008  -0.000010   0.493239  -0.011129  -0.001363  -0.001724
    22  H    0.000005   0.000011  -0.011129   0.480734   0.000459  -0.000784
    23  H   -0.001891  -0.005343  -0.001363   0.000459   0.497611  -0.031462
    24  H    0.000987  -0.000146  -0.001724  -0.000784  -0.031462   0.484294
    25  H   -0.003278   0.001402   0.000057   0.000030   0.004466  -0.007189
    26  H   -0.009098   0.005415   0.000015  -0.000022  -0.005908  -0.011430
    27  H    0.000033  -0.000022  -0.000663   0.000049   0.000750  -0.000607
    28  H   -0.000027  -0.000030  -0.001181   0.001389   0.000484  -0.000045
    29  H   -0.000137  -0.002055   0.002437  -0.000116  -0.011959   0.005432
    30  H   -0.004766   0.008406  -0.000734   0.000058   0.001916  -0.000154
    31  H    0.003604  -0.003088   0.000433  -0.000002  -0.003850  -0.000609
              25         26         27         28         29         30
     1  C    0.000168   0.000301  -0.024264  -0.000424   0.027868  -0.005025
     2  C   -0.008482   0.001586  -0.133873  -0.032362   0.499005  -0.038671
     3  C   -0.012701   0.001697   0.006417  -0.005797   0.025326   0.154208
     4  C    0.000533   0.000023  -0.010423  -0.042400  -0.025191   0.010917
     5  O   -0.009035   0.008380   0.000030   0.000707  -0.000535  -0.039262
     6  C   -0.082566  -0.033638   0.000252  -0.000406  -0.008595  -0.004578
     7  C    0.000510  -0.000732   0.021624   0.004473  -0.043234   0.005541
     8  C   -0.020648  -0.054129   0.001438   0.000823   0.015384  -0.117941
     9  C    0.003107   0.000005  -0.003551   0.010286  -0.007826   0.350029
    10  C    0.489362   0.447533   0.001513  -0.001988  -0.008887   0.030088
    11  O    0.000457   0.000485  -0.004457   0.009892  -0.080247  -0.001514
    12  O   -0.000163  -0.000980   0.008552   0.003138  -0.030135  -0.015103
    13  C    0.001788  -0.000280   0.516333   0.418052  -0.098079   0.002537
    14  H    0.000010   0.000006  -0.001558  -0.001651   0.001622  -0.000301
    15  H    0.000000  -0.000015  -0.002885   0.001579   0.001752   0.000039
    16  H    0.000481  -0.000994   0.000241   0.001202  -0.007729   0.011903
    17  H    0.000005   0.000004  -0.003268  -0.010344   0.001028   0.000396
    18  H    0.000004  -0.000029   0.002710  -0.002652  -0.003920   0.000191
    19  H   -0.003278  -0.009098   0.000033  -0.000027  -0.000137  -0.004766
    20  H    0.001402   0.005415  -0.000022  -0.000030  -0.002055   0.008406
    21  H    0.000057   0.000015  -0.000663  -0.001181   0.002437  -0.000734
    22  H    0.000030  -0.000022   0.000049   0.001389  -0.000116   0.000058
    23  H    0.004466  -0.005908   0.000750   0.000484  -0.011959   0.001916
    24  H   -0.007189  -0.011430  -0.000607  -0.000045   0.005432  -0.000154
    25  H    0.476266  -0.011117  -0.000019   0.000076   0.000570  -0.001242
    26  H   -0.011117   0.493853   0.000027  -0.000054  -0.000056  -0.001662
    27  H   -0.000019   0.000027   0.455634  -0.004747  -0.017827   0.000079
    28  H    0.000076  -0.000054  -0.004747   0.492151  -0.006105  -0.001571
    29  H    0.000570  -0.000056  -0.017827  -0.006105   0.490755  -0.030911
    30  H   -0.001242  -0.001662   0.000079  -0.001571  -0.030911   0.535229
    31  H   -0.000966   0.001715   0.000070  -0.005113   0.005549  -0.032987
              31
     1  C    0.002753
     2  C    0.023044
     3  C   -0.119837
     4  C   -0.001497
     5  O   -0.071364
     6  C   -0.000121
     7  C   -0.003253
     8  C    0.024811
     9  C    0.498336
    10  C    0.001198
    11  O   -0.000367
    12  O    0.011988
    13  C   -0.005218
    14  H    0.000021
    15  H    0.000015
    16  H   -0.010900
    17  H   -0.000140
    18  H   -0.000376
    19  H    0.003604
    20  H   -0.003088
    21  H    0.000433
    22  H   -0.000002
    23  H   -0.003850
    24  H   -0.000609
    25  H   -0.000966
    26  H    0.001715
    27  H    0.000070
    28  H   -0.005113
    29  H    0.005549
    30  H   -0.032987
    31  H    0.483995
 Mulliken charges:
               1
     1  C   -0.430303
     2  C   -0.041942
     3  C   -0.302773
     4  C   -0.273383
     5  O   -0.340751
     6  C   -0.185318
     7  C   -0.107686
     8  C   -0.077780
     9  C   -0.216610
    10  C   -0.500755
    11  O   -0.247512
    12  O   -0.288857
    13  C   -0.465488
    14  H    0.165263
    15  H    0.172741
    16  H    0.259259
    17  H    0.183949
    18  H    0.177804
    19  H    0.218589
    20  H    0.140762
    21  H    0.153924
    22  H    0.200864
    23  H    0.219712
    24  H    0.180168
    25  H    0.178111
    26  H    0.169101
    27  H    0.192410
    28  H    0.172643
    29  H    0.306815
    30  H    0.184885
    31  H    0.202156
 Sum of Mulliken charges =  -0.00000
 Mulliken charges with hydrogens summed into heavy atoms:
               1
     1  C   -0.092299
     2  C    0.264873
     3  C   -0.043513
     4  C    0.088370
     5  O   -0.340751
     6  C    0.174034
     7  C    0.247102
     8  C    0.322101
     9  C    0.170432
    10  C   -0.153544
    11  O   -0.247512
    12  O   -0.288857
    13  C   -0.100435
 Electronic spatial extent (au):  <R**2>=           3063.6955
 Charge=             -0.0000 electrons
 Dipole moment (field-independent basis, Debye):
    X=             -0.9536    Y=              0.7335    Z=              0.7407  Tot=              1.4127
 Quadrupole moment (field-independent basis, Debye-Ang):
   XX=            -76.7751   YY=            -80.3518   ZZ=            -80.5046
   XY=              7.0621   XZ=              3.7999   YZ=             -3.6957
 Traceless Quadrupole moment (field-independent basis, Debye-Ang):
   XX=              2.4354   YY=             -1.1413   ZZ=             -1.2941
   XY=              7.0621   XZ=              3.7999   YZ=             -3.6957
 Octapole moment (field-independent basis, Debye-Ang**2):
  XXX=            -22.7500  YYY=              1.0107  ZZZ=             -0.6192  XYY=             -7.4530
  XXY=             28.6662  XXZ=              7.4132  XZZ=              4.9928  YZZ=             -1.8775
  YYZ=             -1.7645  XYZ=              2.6889
 Hexadecapole moment (field-independent basis, Debye-Ang**3):
 XXXX=          -3129.1304 YYYY=           -623.0791 ZZZZ=           -244.8716 XXXY=             75.9576
 XXXZ=             40.9206 YYYX=            -11.4407 YYYZ=              4.6584 ZZZX=             -2.6632
 ZZZY=             -2.8163 XXYY=           -653.4054 XXZZ=           -574.8046 YYZZ=           -150.8627
 XXYZ=            -13.2762 YYXZ=              2.3840 ZZXY=             -1.0533
 N-N= 8.953284823492D+02 E-N=-3.232437871638D+03  KE= 6.153344071629D+02
 D1PCM: PCM CHGder 1st derivatives, ID1Alg=3 FixD1E=F DoIter=F DoCFld=F I1PDM=0.
 Calling FoFJK, ICntrl=      2127 FMM=F ISym2X=0 I1Cent= 0 IOpClX= 0 NMat=1 NMatS=1 NMatT=0.
 ***** Axes restored to original set *****
 -------------------------------------------------------------------
 Center     Atomic                   Forces (Hartrees/Bohr)
 Number     Number              X              Y              Z
 -------------------------------------------------------------------
      1        6           0.002067913   -0.000673308   -0.001654387
      2        6          -0.004316074    0.001835779   -0.005860240
      3        6          -0.002656056    0.002103577    0.007907981
      4        6           0.001758882    0.002606036    0.002380185
      5        8           0.005577636   -0.005854079   -0.004500176
      6        6          -0.005756253    0.001506877   -0.003573789
      7        6          -0.001137072   -0.006509604    0.001150552
      8        6           0.003359119   -0.003524378   -0.002078759
      9        6           0.002767502    0.007031345   -0.002430516
     10        6          -0.001314048   -0.001044201    0.002552585
     11        8           0.003772934    0.006442545    0.008746661
     12        8          -0.004905559   -0.005171416   -0.009022659
     13        6          -0.000018525    0.000739000   -0.002346804
     14        1          -0.000911635    0.000110373    0.003208397
     15        1          -0.002058787    0.000469482   -0.001950991
     16        1           0.002473213    0.000089992   -0.005380260
     17        1          -0.001945291   -0.001658141    0.000367938
     18        1           0.002188591    0.000208281   -0.002907638
     19        1           0.004311077    0.000124224   -0.000725920
     20        1          -0.001517514    0.000716776    0.005995969
     21        1           0.002178314   -0.000757491   -0.005845672
     22        1          -0.001313828    0.004016568    0.001366225
     23        1          -0.002173874   -0.000672349    0.004424458
     24        1          -0.002258995    0.002032563   -0.001342893
     25        1           0.000759867   -0.000380563   -0.003171351
     26        1           0.000842242    0.002673899    0.001238373
     27        1          -0.001462327    0.000504523    0.003125062
     28        1           0.001499917   -0.002829317   -0.000935906
     29        1           0.005150020   -0.000753530    0.007048706
     30        1          -0.003143926    0.000362205    0.006601768
     31        1          -0.001817464   -0.003745668   -0.002386899
 -------------------------------------------------------------------
 Cartesian Forces:  Max     0.009022659 RMS     0.003481528

 GradGradGradGradGradGradGradGradGradGradGradGradGradGradGradGradGradGrad
 Berny optimization.
 FormGI is forming the generalized inverse of G from B-inverse, IUseBI=4.
 Internal  Forces:  Max     0.016848851 RMS     0.002257883
 Search for a local minimum.
 Step number   1 out of a maximum of  186
 All quantities printed in internal units (Hartrees-Bohrs-Radians)
 Mixed Optimization -- RFO/linear search
 Second derivative matrix not updated -- first step.
 ITU=  0
     Eigenvalues ---    0.00626   0.00633   0.00716   0.00722   0.01411
     Eigenvalues ---    0.01433   0.01679   0.02622   0.02703   0.03078
     Eigenvalues ---    0.03135   0.03847   0.04093   0.04568   0.04746
     Eigenvalues ---    0.04850   0.04892   0.05138   0.05152   0.05203
     Eigenvalues ---    0.05262   0.05689   0.05729   0.06123   0.06169
     Eigenvalues ---    0.06367   0.06557   0.07008   0.07607   0.07727
     Eigenvalues ---    0.07844   0.07957   0.08004   0.08042   0.08236
     Eigenvalues ---    0.08832   0.09248   0.09505   0.10798   0.11603
     Eigenvalues ---    0.11610   0.11704   0.11766   0.12400   0.12517
     Eigenvalues ---    0.14697   0.14909   0.16471   0.16502   0.17986
     Eigenvalues ---    0.19123   0.21467   0.21949   0.25000   0.28340
     Eigenvalues ---    0.28586   0.28636   0.28851   0.28943   0.29061
     Eigenvalues ---    0.30082   0.30291   0.35076   0.35091   0.35156
     Eigenvalues ---    0.35184   0.35197   0.35211   0.35241   0.35298
     Eigenvalues ---    0.35315   0.35320   0.35397   0.35422   0.35441
     Eigenvalues ---    0.35633   0.35825   0.35832   0.35842   0.36257
     Eigenvalues ---    0.40884   0.41410   0.42235   0.42505   0.43339
     Eigenvalues ---    0.454631000.000001000.000001000.000001000.00000
     Eigenvalues --- 1000.000001000.000001000.000001000.000001000.00000
     Eigenvalues --- 1000.000001000.000001000.000001000.000001000.00000
     Eigenvalues --- 1000.000001000.000001000.000001000.000001000.00000
     Eigenvalues --- 1000.000001000.000001000.000001000.000001000.00000
     Eigenvalues --- 1000.000001000.000001000.000001000.000001000.00000
     Eigenvalues --- 1000.000001000.000001000.000001000.000001000.00000
     Eigenvalues --- 1000.000001000.000001000.000001000.000001000.00000
     Eigenvalues --- 1000.000001000.000001000.000001000.000001000.00000
     Eigenvalues --- 1000.000001000.000001000.000001000.000001000.00000
     Eigenvalues --- 1000.000001000.000001000.000001000.000001000.00000
     Eigenvalues --- 1000.000001000.000001000.000001000.000001000.00000
     Eigenvalues --- 1000.000001000.000001000.000001000.000001000.00000
     Eigenvalues --- 1000.000001000.000001000.000001000.000001000.00000
     Eigenvalues --- 1000.000001000.000001000.000001000.000001000.00000
     Eigenvalues --- 1000.000001000.000001000.000001000.000001000.00000
     Eigenvalues --- 1000.000001000.000001000.000001000.000001000.00000
     Eigenvalues --- 1000.000001000.000001000.000001000.000001000.00000
     Eigenvalues --- 1000.000001000.000001000.000001000.000001000.00000
     Eigenvalues --- 1000.000001000.000001000.000001000.000001000.00000
 RFO step:  Lambda=-4.06069820D-03 EMin= 6.26103266D-03
 Linear search not attempted -- first point.
 Iteration  1 RMS(Cart)=  0.07451824 RMS(Int)=  0.00107438
 Iteration  2 RMS(Cart)=  0.00331131 RMS(Int)=  0.00005918
 Iteration  3 RMS(Cart)=  0.00000320 RMS(Int)=  0.00005916
 Iteration  4 RMS(Cart)=  0.00000000 RMS(Int)=  0.00005916
 Iteration  1 RMS(Cart)=  0.00002474 RMS(Int)=  0.00000587
 Iteration  2 RMS(Cart)=  0.00001369 RMS(Int)=  0.00000656
 Iteration  3 RMS(Cart)=  0.00000757 RMS(Int)=  0.00000742
 Iteration  4 RMS(Cart)=  0.00000419 RMS(Int)=  0.00000800
 Iteration  5 RMS(Cart)=  0.00000232 RMS(Int)=  0.00000834
 Iteration  6 RMS(Cart)=  0.00000128 RMS(Int)=  0.00000854
 Iteration  7 RMS(Cart)=  0.00000071 RMS(Int)=  0.00000865
 Variable       Old X    -DE/DX   Delta X   Delta X   Delta X     New X
                                 (Linear)    (Quad)   (Total)
    R1        2.88857  -0.00077   0.00000  -0.00182  -0.00184   2.88672
    R2        2.87159   0.00023   0.00000   0.00124   0.00127   2.87286
    R3        2.05527   0.00326   0.00000   0.00920   0.00920   2.06447
    R4        2.05286   0.00285   0.00000   0.00799   0.00799   2.06085
    R5        2.65436   0.00326   0.00000   0.00673   0.00675   2.66112
    R6        2.64742   0.00255   0.00000   0.00556   0.00556   2.65298
    R7        2.87639  -0.00061   0.00000  -0.00255  -0.00258   2.87381
    R8        2.03681   0.00875   0.00000   0.02386   0.02386   2.06067
    R9        2.88329  -0.00215   0.00000  -0.00687  -0.00687   2.87642
   R10        2.88632  -0.00056   0.00000  -0.00153  -0.00150   2.88482
   R11        2.68285  -0.00036   0.00000  -0.00084  -0.00084   2.68201
   R12        2.04660   0.00579   0.00000   0.01606   0.01606   2.06266
   R13        2.88993  -0.00149   0.00000  -0.00489  -0.00490   2.88503
   R14        2.05159   0.00258   0.00000   0.00722   0.00722   2.05881
   R15        2.05377   0.00345   0.00000   0.00969   0.00969   2.06346
   R16        2.67693   0.00354   0.00000   0.00800   0.00799   2.68493
   R17        2.66765   0.00319   0.00000   0.00736   0.00738   2.67503
   R18        2.87240   0.00039   0.00000   0.00095   0.00092   2.87332
   R19        2.04345   0.00437   0.00000   0.01207   0.01207   2.05551
   R20        2.05551   0.00611   0.00000   0.01721   0.01721   2.07272
   R21        2.68593   0.00279   0.00000   0.00644   0.00645   2.69238
   R22        2.04995   0.00618   0.00000   0.01724   0.01724   2.06719
   R23        2.04329   0.00444   0.00000   0.01224   0.01224   2.05553
   R24        2.89518  -0.00044   0.00000  -0.00171  -0.00173   2.89345
   R25        2.05167   0.00482   0.00000   0.01348   0.01348   2.06515
   R26        2.05035   0.00319   0.00000   0.00890   0.00890   2.05925
   R27        2.05334   0.00705   0.00000   0.01978   0.01978   2.07312
   R28        2.04356   0.00473   0.00000   0.01305   0.01305   2.05660
   R29        2.05422   0.00320   0.00000   0.00900   0.00900   2.06322
   R30        2.05194   0.00304   0.00000   0.00853   0.00853   2.06047
   R31        2.05356   0.00343   0.00000   0.00964   0.00964   2.06320
   R32        2.04964   0.00331   0.00000   0.00924   0.00924   2.05888
    A1        1.92265  -0.00104   0.00000  -0.00488  -0.00509   1.91756
    A2        1.91608   0.00089   0.00000   0.00133   0.00141   1.91749
    A3        1.93960  -0.00051   0.00000  -0.00202  -0.00199   1.93762
    A4        1.90596   0.00010   0.00000  -0.00109  -0.00102   1.90494
    A5        1.90286   0.00061   0.00000   0.00361   0.00366   1.90652
    A6        1.87583  -0.00002   0.00000   0.00327   0.00324   1.87907
    A7        1.93460   0.00050   0.00000   0.00066   0.00083   1.93543
    A8        1.93777   0.00352   0.00000   0.01440   0.01421   1.95198
    A9        1.83132  -0.00235   0.00000  -0.01106  -0.01107   1.82025
   A10        1.90216  -0.00315   0.00000  -0.01437  -0.01429   1.88786
   A11        1.92909   0.00150   0.00000   0.00763   0.00761   1.93670
   A12        1.92850   0.00012   0.00000   0.00342   0.00347   1.93197
   A13        1.93615  -0.00029   0.00000  -0.00711  -0.00726   1.92889
   A14        2.00771  -0.00236   0.00000  -0.01922  -0.01932   1.98839
   A15        1.89134   0.00106   0.00000   0.00730   0.00742   1.89877
   A16        1.93395   0.00107   0.00000  -0.00181  -0.00213   1.93182
   A17        1.87493  -0.00039   0.00000   0.00463   0.00461   1.87954
   A18        1.81057   0.00112   0.00000   0.01999   0.02007   1.83063
   A19        1.91267   0.00187   0.00000  -0.00166  -0.00166   1.91101
   A20        1.93085  -0.00023   0.00000   0.00213   0.00220   1.93305
   A21        1.91442  -0.00082   0.00000  -0.00143  -0.00153   1.91289
   A22        1.91640  -0.00056   0.00000   0.00137   0.00136   1.91775
   A23        1.92227  -0.00096   0.00000  -0.00622  -0.00621   1.91606
   A24        1.86686   0.00063   0.00000   0.00590   0.00591   1.87276
   A25        1.97921  -0.00487   0.00000  -0.02706  -0.02702   1.95219
   A26        1.93552   0.00203   0.00000   0.00867   0.00870   1.94422
   A27        1.85504  -0.00124   0.00000  -0.00359  -0.00359   1.85146
   A28        1.90279   0.00065   0.00000   0.00681   0.00683   1.90962
   A29        1.94496  -0.00025   0.00000  -0.00258  -0.00259   1.94236
   A30        1.93138  -0.00172   0.00000  -0.00998  -0.01003   1.92135
   A31        1.89187   0.00057   0.00000   0.00107   0.00104   1.89291
   A32        1.94572   0.00235   0.00000   0.00623   0.00620   1.95193
   A33        1.93159  -0.00163   0.00000  -0.00747  -0.00752   1.92407
   A34        1.94565  -0.00027   0.00000  -0.00185  -0.00179   1.94386
   A35        1.90922   0.00011   0.00000   0.00107   0.00113   1.91035
   A36        1.84206  -0.00133   0.00000  -0.00225  -0.00227   1.83979
   A37        1.88659   0.00077   0.00000   0.00461   0.00460   1.89118
   A38        1.90289   0.00119   0.00000  -0.00002  -0.00001   1.90288
   A39        1.92470  -0.00122   0.00000  -0.00982  -0.00982   1.91487
   A40        1.92053  -0.00062   0.00000  -0.00394  -0.00397   1.91656
   A41        1.90428   0.00012   0.00000   0.00601   0.00600   1.91028
   A42        1.93293   0.00035   0.00000   0.00867   0.00866   1.94159
   A43        1.87848   0.00014   0.00000  -0.00090  -0.00098   1.87750
   A44        1.92184   0.00204   0.00000   0.01124   0.01134   1.93319
   A45        1.94365  -0.00235   0.00000  -0.01708  -0.01713   1.92652
   A46        1.92538  -0.00086   0.00000  -0.00728  -0.00741   1.91798
   A47        1.90899   0.00094   0.00000   0.00926   0.00930   1.91830
   A48        1.86631  -0.00048   0.00000   0.00425   0.00425   1.87056
   A49        1.89583   0.00079   0.00000   0.00047   0.00031   1.89614
   A50        1.93022  -0.00090   0.00000  -0.00625  -0.00630   1.92392
   A51        1.90352  -0.00017   0.00000  -0.00270  -0.00269   1.90083
   A52        1.90823   0.00069   0.00000   0.00471   0.00472   1.91295
   A53        1.92067   0.00070   0.00000   0.00040   0.00039   1.92105
   A54        1.92523  -0.00027   0.00000   0.00107   0.00109   1.92632
   A55        1.87500  -0.00002   0.00000   0.00304   0.00303   1.87804
   A56        2.02455  -0.00577   0.00000  -0.03717  -0.03706   1.98750
   A57        2.10235  -0.01685   0.00000  -0.06632  -0.06632   2.03603
   A58        1.95419  -0.00185   0.00000  -0.01650  -0.01663   1.93756
   A59        1.87336   0.00022   0.00000   0.00503   0.00501   1.87837
   A60        1.90017   0.00076   0.00000  -0.00068  -0.00066   1.89951
   A61        1.90916   0.00119   0.00000   0.00710   0.00719   1.91635
   A62        1.94753  -0.00021   0.00000  -0.00099  -0.00110   1.94643
   A63        1.87636  -0.00002   0.00000   0.00722   0.00719   1.88355
    D1        0.92292  -0.00007   0.00000   0.00903   0.00904   0.93196
    D2        3.03843   0.00031   0.00000   0.01102   0.01106   3.04948
    D3       -1.18941   0.00045   0.00000   0.01866   0.01870  -1.17072
    D4       -1.17659  -0.00010   0.00000   0.01261   0.01261  -1.16398
    D5        0.93892   0.00028   0.00000   0.01460   0.01463   0.95355
    D6        2.99426   0.00042   0.00000   0.02224   0.02227   3.01653
    D7        3.03378  -0.00033   0.00000   0.00897   0.00894   3.04272
[...]
 13889,0.06491959,0.01700095,-0.29036823,0.00020304,-0.00001246,-0.0000
 1092,0.00025265,0.00022107,0.00024634,-0.00000793,0.00000078,0.0000149
 5,0.00000235,0.00000171,-0.00000253,0.00000878,0.00000233,0.00000351,0
 .00005712,0.00048662,0.00019221,0.00000665,0.00000159,0.00000223,-0.00
 000237,-0.00000075,-0.00000131,-0.00028193,-0.00009168,0.00066185,-0.0
 0160947,0.00241100,0.00003348,-0.00000114,0.00000075,-0.00000076,0.000
 00763,-0.00000761,0.00000124,0.00025993,-0.00010183,0.00122160,0.00043
 344,-0.00000776,0.00049051,-0.07070521,-0.02024786,0.31589507,0.000001
 59,-0.00000280,-0.00001805,0.00072967,-0.00030439,-0.00113142,-0.00518
 075,0.00306976,0.00228707,0.00001153,-0.00003046,0.00002618,-0.0000086
 7,0.00547105,-0.00137509,0.00490051,0.01101036,0.00965654,0.00014217,-
 0.00005400,0.00007308,-0.00992323,-0.03034691,-0.01545685,-0.00130396,
 0.00034604,-0.00015575,-0.06558908,-0.06066721,-0.03431132,-0.00020522
 ,0.00034168,0.00011847,-0.00239723,-0.00288726,-0.00026070,-0.00006134
 ,0.00008510,0.00015679,-0.00000642,-0.00000053,0.00000831,-0.00001739,
 0.00000445,-0.00000647,0.00006583,0.00019388,-0.00013675,-0.00003083,0
 .00000015,-0.00000666,0.00001505,0.00000675,0.00001899,0.00008286,-0.0
 0089756,0.00045750,0.00050612,-0.00055495,-0.00009515,0.00000158,-0.00
 001865,0.00000644,-0.00002440,0.00002062,0.00000106,0.00149928,0.00032
 176,0.00033771,0.00138755,0.00070546,-0.00032640,0.00162368,0.00746202
 ,0.00314750,0.07340027,-0.00000125,0.00000192,-0.00001042,0.00026615,-
 0.00006356,-0.00032704,0.00012209,0.00177367,0.00071844,-0.00000123,-0
 .00001393,0.00001154,0.00210142,-0.00733863,0.00227461,-0.00951972,-0.
 01772937,-0.01412554,0.00007595,-0.00003259,0.00005007,-0.00101925,-0.
 00180213,-0.00057456,0.00184678,0.00095853,-0.00027708,-0.06075459,-0.
 23923216,-0.10263137,-0.00017841,0.00010039,0.00004034,-0.00035480,-0.
 00022572,0.00004362,-0.00000959,0.00002873,0.00002683,-0.00000343,-0.0
 0000144,0.00000386,-0.00000926,0.00000015,-0.00000371,0.00007119,-0.00
 003962,-0.00008887,-0.00001332,-0.00000069,-0.00000431,0.00000512,0.00
 000265,0.00000564,0.00041210,0.00064751,-0.00016595,-0.00037090,0.0008
 8410,0.00046320,0.00000421,-0.00000420,0.00000229,-0.00001141,0.000009
 96,-0.00000128,-0.00012433,0.00014225,0.00017107,-0.00036707,0.0003873
 2,0.00010276,0.00147202,0.00298018,0.00107332,0.06681146,0.25867244,-0
 .00000294,0.00000164,-0.00000679,-0.00001067,-0.00007781,-0.00006566,0
 .00061722,-0.00002995,0.00042429,0.00000072,-0.00000373,0.00000564,-0.
 00116412,0.00393289,0.00057798,0.00561038,0.01092056,0.00596494,0.0000
 2625,-0.00002049,0.00002336,0.00185780,0.00408568,0.00081372,-0.000632
 32,-0.00008576,-0.00015714,-0.03475597,-0.10479107,-0.10589981,-0.0000
 8146,0.00000250,-0.00000114,0.00005750,0.00003627,0.00044382,-0.000013
 71,0.00001801,0.00003138,-0.00000099,-0.00000068,0.00000106,-0.0000041
 7,-0.00000057,-0.00000161,-0.00003717,0.00040712,0.00032221,-0.0000035
 5,-0.00000053,-0.00000284,0.00000081,0.00000072,-0.00000098,0.00002999
 ,-0.00058171,0.00035535,0.00055960,-0.00078935,0.00025372,-0.00000024,
 -0.00000098,-0.00000160,-0.00000348,0.00000391,-0.00000021,-0.00039654
 ,0.00028654,0.00050417,-0.00024459,-0.00020063,-0.00014801,-0.00836935
 ,-0.02619432,-0.01322504,0.03683025,0.11315229,0.10982064,0.00106525,-
 0.00086644,0.00000339,-0.00914623,0.00333479,0.02404768,0.00153991,-0.
 00043201,0.00120340,0.00928340,0.00059524,-0.02354203,-0.00028830,0.00
 003522,-0.00009901,0.00005045,0.00006067,0.00010129,-0.00023300,-0.000
 02647,-0.00006340,-0.00039167,0.00009479,0.00012086,0.00018135,-0.0001
 9119,0.00007546,0.00004862,-0.00016777,-0.00012728,0.00134560,0.000914
 05,-0.00106587,-0.00768945,-0.00408234,0.00168834,-0.09161840,-0.00210
 418,0.09772686,-0.00019652,0.00002417,0.00044176,-0.00008651,-0.000302
 05,0.00018917,-0.00056743,-0.00009488,0.00008530,0.00114360,-0.0005274
 9,0.00079683,-0.00286454,0.00207889,-0.00352880,-0.00002565,-0.0000017
 4,-0.00001202,0.00000697,-0.00000568,-0.00002064,-0.00006348,0.0000347
 8,-0.00002004,0.00007423,0.00000791,0.00000244,0.00000436,-0.00000860,
 -0.00003405,0.00001852,-0.00001063,0.00001089,0.00000312,0.00000776,0.
 00000546,-0.00009156,-0.00002570,-0.00001297,0.10273935,-0.00073300,0.
 00042298,0.00075819,-0.00681665,-0.00114683,0.01969622,0.00039897,0.00
 005994,0.00091221,-0.00378616,-0.00075919,0.00814483,-0.00013767,0.000
 04802,-0.00006197,0.00002732,0.00002872,0.00004327,-0.00010405,-0.0001
 1622,0.00014365,-0.00005310,0.00006332,0.00003417,0.00003481,-0.000152
 22,0.00008929,0.00001985,-0.00005585,-0.00004292,0.00026773,0.00088114
 ,-0.00061716,-0.00484324,-0.00132743,0.00049768,0.00076509,-0.05090271
 ,-0.00146678,0.00024045,-0.00005000,-0.00005126,0.00003714,0.00009178,
 -0.00014679,-0.00035490,-0.00004670,0.00004627,-0.00002081,0.00029061,
 -0.00056985,0.00108405,0.00032693,0.00130373,-0.00001052,-0.00000155,-
 0.00000465,0.00000210,-0.00000322,-0.00000863,0.00002779,0.00006345,-0
 .00006538,0.00000490,-0.00001315,-0.00000689,0.00000612,-0.00001191,-0
 .00002116,0.00000996,-0.00001072,-0.00000275,0.00000359,0.00000324,0.0
 0000034,-0.00003296,-0.00000944,-0.00000740,0.00150256,0.04989284,0.00
 081347,-0.00074786,0.00080117,-0.00105236,-0.00150386,-0.00106164,-0.0
 0060835,-0.00002499,0.00012475,0.00799712,0.00009515,-0.02225052,0.000
 07862,-0.00001296,0.00002104,-0.00001080,-0.00001351,-0.00002204,-0.00
 027546,0.00018442,-0.00014392,0.00011414,-0.00000495,-0.00000583,-0.00
 001097,0.00006037,-0.00003893,-0.00001872,0.00003948,0.00002586,-0.000
 54836,0.00019039,0.00073021,0.00050703,-0.00025798,0.00127802,0.100533
 49,0.00155420,-0.26581997,-0.00019517,0.00071110,0.00032098,-0.0002604
 5,-0.00009563,0.00030635,0.00002316,0.00001496,-0.00001476,0.00005921,
 -0.00040003,0.00095829,-0.00364564,0.00157463,-0.00187436,0.00000631,0
 .00000007,0.00000284,-0.00000187,0.00000120,0.00000517,-0.00004261,-0.
 00007588,0.00000771,0.00006850,0.00006206,0.00002285,-0.00000520,-0.00
 000997,-0.00000344,-0.00000211,0.00000256,-0.00000425,0.00000375,-0.00
 000142,-0.00000403,0.00002090,0.00000491,0.00000027,-0.10588768,-0.001
 42907,0.29101755,-0.00285256,0.00041347,-0.00451579,0.00975217,-0.0219
 1790,-0.00413697,-0.00001703,0.00022240,-0.00016805,-0.00710001,0.0208
 7512,0.00626451,0.00000109,0.00003188,0.00000964,-0.00000022,-0.000021
 29,-0.00000782,-0.00159738,0.00017390,-0.00103844,0.00002791,-0.000001
 43,-0.00001085,0.00001284,-0.00003216,-0.00000784,0.00000496,0.0000224
 5,0.00001848,-0.00259820,-0.00762317,0.00019534,0.00117301,-0.00013021
 ,-0.00063830,-0.07937015,0.08479455,0.01967903,0.00010027,-0.00042718,
 -0.00002985,-0.00012390,0.00173244,0.00001987,0.00003870,0.00000631,-0
 .00000677,0.00043588,-0.00045507,0.00081594,0.00099307,-0.00056839,0.0
 0008368,-0.00000061,0.00000614,0.00000157,-0.00000062,0.00000034,0.,0.
 00014375,-0.00000615,0.00014189,0.00027407,0.00000546,0.00016866,0.000
 02530,-0.00000750,0.00002505,0.00000651,0.00001068,-0.00001878,-0.0000
 0826,0.00000018,0.00000378,0.00000425,0.00000032,0.00000043,-0.0046897
 0,0.01195835,0.00204296,0.08465787,0.00116346,0.00125341,0.00176570,0.
 01043809,-0.01853310,-0.00446628,-0.00027580,0.00032953,0.00004126,0.0
 0215661,-0.00651424,-0.00119406,-0.00000122,0.00002415,0.00000891,-0.0
 0000730,-0.00001876,-0.00000158,-0.00073153,0.00112822,-0.00122073,0.0
 0010987,-0.00002824,-0.00006189,-0.00012454,-0.00005580,-0.00000827,0.
 00000758,0.00006295,0.00004992,-0.00361956,-0.00502240,-0.00005905,0.0
 0093292,0.00199629,-0.00040126,0.08089802,-0.27564137,-0.04967673,0.00
 001120,0.00003036,-0.00011377,0.00001410,-0.00051155,-0.00024303,-0.00
 002485,0.00000561,0.00000065,0.00022905,0.00041182,0.00017214,-0.00013
 196,0.00023263,0.00015970,-0.00000302,0.00000563,-0.00000123,0.0000012
 6,0.00000004,-0.00000012,0.00004809,-0.00005741,0.00019495,0.00008867,
 -0.00008565,0.00005732,0.00004936,0.00001295,0.00005726,-0.00000003,0.
 00002049,-0.00002454,-0.00001931,-0.00000136,0.00000502,0.00001363,0.0
 0000021,-0.00000114,-0.00055366,0.00177447,-0.00031557,-0.09022404,0.2
 9875150,-0.00336681,0.00042618,-0.00325591,0.00183151,0.00074242,-0.00
 250818,-0.00002120,-0.00000087,0.00005295,-0.00713634,0.02283200,0.004
 84626,-0.00000627,-0.00000223,-0.00001015,-0.00000069,-0.00000115,0.00
 000435,-0.00055940,-0.00018727,-0.00036027,-0.00002243,-0.00000350,-0.
 00000652,-0.00000181,-0.00000377,0.00000106,-0.00000068,-0.00000137,0.
 00000354,-0.00046381,-0.00100219,0.00136904,0.00018571,0.00078072,0.00
 025489,0.01877406,-0.05274652,-0.05917732,-0.00015706,0.00022573,0.000
 21511,-0.00043225,0.00128644,0.00030344,-0.00003212,0.00000249,0.00000
 343,0.00062547,-0.00069724,0.00077439,0.00096836,-0.00019484,0.0009128
 8,-0.00000185,0.00000105,-0.00000085,0.00000036,0.00000004,-0.00000141
 ,0.00008309,-0.00001680,0.00006636,0.00010693,-0.00002397,0.00009305,0
 .00000849,0.00000168,0.00000799,-0.00000126,0.00000360,-0.00000403,-0.
 00000205,-0.00000162,0.00000046,-0.00000243,-0.00000170,-0.00000146,0.
 00820470,-0.02677851,-0.00502906,-0.01863639,0.05526605,0.06147160,0.0
 0046183,-0.00018975,0.00003273,-0.15781410,0.03009220,-0.12733636,0.00
 194028,-0.00070351,0.00054471,-0.00197839,-0.00425076,0.00140866,0.000
 20912,-0.00028610,0.00018210,-0.00003399,-0.00009135,0.00002515,0.0019
 1716,0.00084018,0.00193009,-0.00043854,-0.00052038,-0.00005244,-0.0008
 7203,0.00098025,-0.00044676,0.00000766,-0.00001414,0.00002388,-0.00789
 091,0.01022600,-0.00811307,0.01061718,-0.00282107,0.02143967,-0.015230
 81,0.00406651,-0.01841123,-0.00005985,0.00005422,0.00010176,-0.0000393
 5,0.00005481,-0.00001087,-0.00004878,0.00006932,-0.00030240,-0.0010568
 9,0.00047974,-0.00100712,0.00006409,-0.00000870,-0.00016828,0.00001017
 ,0.00001329,-0.00001072,0.00001280,0.00001157,-0.00003869,-0.00016216,
 0.00009950,-0.00022543,-0.00034084,0.00026421,-0.00037129,-0.00028714,
 -0.00056601,0.00029961,0.00002794,0.00002209,0.00011094,-0.00001136,0.
 00001461,0.00002366,-0.00000509,0.00000501,-0.00000346,0.00047867,0.00
 051039,0.00030426,0.00066099,-0.00038426,0.00007973,0.17259974,0.00021
 379,-0.00062712,0.00028140,0.02270021,-0.05669673,0.03426583,-0.000108
 64,-0.00025513,0.00079615,-0.00274590,-0.00307903,0.00096865,0.0000726
 4,0.00001745,0.00004047,-0.00002793,0.00005316,0.00000467,-0.00089634,
 -0.00429300,-0.00377068,0.00003941,-0.00020277,0.00034177,0.00025561,0
 .00000236,-0.00008579,-0.00006886,0.00006554,-0.00013451,0.03162000,-0
 .02291484,0.02676578,-0.00073649,0.00500199,-0.00310373,-0.01423037,0.
 00676760,-0.01563491,0.00002628,0.00011742,-0.00000908,0.00018600,0.00
 036513,0.00002501,-0.00001273,-0.00010129,-0.00005940,-0.00103369,0.00
 045050,-0.00089839,0.00017146,-0.00003831,-0.00005990,0.00001009,-0.00
 001622,-0.00000878,-0.00000060,0.00000009,-0.00000624,0.00003986,-0.00
 009311,0.00034815,0.00120404,-0.00067650,0.00114493,-0.00046872,-0.000
 74174,0.00019923,0.00001716,0.00002029,-0.00008646,0.00007304,0.000000
 65,-0.00000978,0.00003005,0.00000778,0.00000503,0.00065419,0.00064560,
 0.00039391,0.00107314,0.00048073,0.00010346,-0.03932529,0.07591990,-0.
 00002026,-0.00001794,-0.00007889,-0.12256958,0.04131853,-0.19719384,-0
 .00468263,-0.00128291,0.00027274,0.00045522,0.00023291,0.00096784,-0.0
 0032261,-0.00038620,0.00072078,0.00006766,0.00016359,-0.00001562,0.000
 62975,-0.00134350,0.00186888,0.00042613,-0.00013702,-0.00028843,0.0006
 8854,0.00041867,-0.00117334,0.00000288,0.00016886,0.00032040,0.0016504
 5,-0.00053726,0.00616542,-0.00596878,0.00375501,-0.03981790,0.00019323
 ,-0.00035887,0.00238090,0.00000377,0.00001110,-0.00002734,0.00001462,0
 .00001426,-0.00005755,0.00039403,-0.00000415,0.00020609,0.00010624,0.0
 0007146,-0.00001305,0.00017354,0.00000626,0.00014469,-0.00001634,-0.00
 002132,0.00000442,0.00004540,-0.00000578,-0.00001634,0.00021909,-0.000
 22524,0.00015276,0.00002850,-0.00009787,0.00005050,0.00006819,0.000472
 90,0.00039034,-0.00009579,-0.00011704,0.00013672,-0.00011271,-0.000014
 47,0.00001528,0.00009004,0.00000008,0.00000232,-0.00024504,-0.00036513
 ,0.00065584,-0.00024854,-0.00004386,-0.00002252,0.12890370,-0.04138939
 ,0.22283816,0.00000390,0.00000350,0.00001769,-0.00105366,0.00058102,0.
 00023487,0.00586835,0.00130274,-0.01841375,0.00004329,0.00003867,-0.00
 004621,-0.02860783,-0.00862698,0.03768574,0.00219898,0.00457617,0.0043
 6522,-0.00003397,0.00004467,-0.00003961,0.00029665,-0.00120611,0.00023
 363,-0.05280428,-0.00331660,0.03567440,-0.00031776,-0.00046702,-0.0005
 0508,-0.00002897,-0.00001563,-0.00006743,0.00152087,-0.00140743,0.0019
 0295,0.00008756,-0.00013749,0.00023420,-0.00000048,-0.00000056,-0.0000
 0164,0.00000481,-0.00000680,0.00000097,-0.00199931,0.00313688,-0.00141
 264,0.00002332,-0.00000675,0.00001701,-0.00000059,-0.00000037,-0.00000
 042,0.00005286,0.00012017,-0.00041943,0.00045949,-0.00012090,-0.001415
 10,0.00000913,-0.00000089,-0.00000365,0.00000056,-0.00000647,-0.000005
 57,0.00006863,0.00011257,0.00046166,-0.00012686,-0.00011604,0.00018325
 ,-0.00008720,0.00007543,-0.00005439,0.00022900,-0.00023668,0.00002047,
 -0.00002507,-0.00000200,-0.00000871,-0.00000351,-0.00002938,-0.0000169
 3,-0.00287418,0.00130020,0.00017815,0.07431935,0.00000266,-0.00000013,
 -0.00001017,0.00024176,0.00010881,0.00012626,-0.00481161,-0.00159846,0
 .02594048,-0.00006345,-0.00007213,0.00003187,-0.00542825,0.00132306,0.
 00460342,-0.00054437,0.00077171,0.00302509,0.00002388,-0.00001293,0.00
 006720,-0.00054158,0.00182944,0.00082562,-0.00169478,-0.05627779,0.011
 99828,0.00004371,-0.00031406,-0.00013181,-0.00006885,0.00001898,-0.000
 08163,0.00002366,0.00070074,-0.00148003,-0.00006636,0.00014844,-0.0002
 6069,-0.00000017,0.00000074,0.00000158,-0.00000575,-0.00000014,-0.0000
 0173,0.00240063,-0.00293934,0.00214367,-0.00002572,0.00000916,-0.00002
 042,0.00000413,-0.00000257,-0.00000019,0.00009394,0.00003141,-0.000107
 36,0.00015989,0.00026507,-0.00023086,-0.00000833,0.00000533,-0.0000020
 0,-0.00001072,0.00001165,-0.00000368,0.00016525,-0.00018023,-0.0004777
 7,0.00013650,0.00019493,-0.00040231,0.00002619,0.00005548,-0.00016367,
 0.00000244,-0.00003471,-0.00003713,0.00003708,0.00000756,0.00000859,0.
 00002427,-0.00002959,0.00000382,0.00135553,-0.00008796,-0.00035804,0.0
 0309387,0.05266752,-0.00000931,-0.00001109,0.00002943,0.00012203,-0.00
 014883,-0.00232171,0.00364138,0.00015760,-0.01611889,0.00007491,0.0001
 1838,-0.00003239,0.01116071,0.00149667,-0.00122074,-0.00148573,-0.0009
 5532,0.00188571,-0.00002215,-0.00007443,-0.00016448,0.00001133,-0.0008
 8563,0.00063235,0.03918427,0.01329639,-0.28934711,0.00017940,0.0000249
 0,0.00006405,0.00040238,-0.00026998,0.00063897,-0.00151036,0.00011377,
 0.00124873,-0.00004486,-0.00011295,0.00037737,0.00000012,-0.00000049,-
 0.00000588,0.00001671,0.00000260,0.00000302,-0.00144603,0.00235372,-0.
 00014490,0.00003712,-0.00001147,0.00003764,0.00000215,-0.00000214,0.00
 002306,0.00007940,0.00016378,0.00044200,0.00065982,0.00135378,0.000168
 73,0.00000957,-0.00001296,0.00003557,0.00004212,-0.00003045,0.00004363
 ,0.00021019,0.00078687,0.00044590,-0.00019501,0.00001904,0.00023811,-0
 .00011484,-0.00009819,-0.00018575,0.00005500,0.00009270,-0.00001040,-0
 .00004140,-0.00003323,-0.00000335,-0.00001370,0.00003606,-0.00000027,0
 .00112688,-0.00042268,0.00124270,-0.05370906,-0.01800527,0.31422975,-0
 .00000524,0.00000583,-0.00000321,-0.00007849,-0.00003269,0.00024437,0.
 00349241,0.01535894,0.00868374,-0.00000807,-0.00001452,0.00000916,-0.0
 1775289,-0.03813733,-0.01772068,-0.00543981,0.00188040,0.00278118,0.00
 002684,-0.00002138,0.00001440,-0.00236095,0.00272081,-0.00223199,-0.05
 345919,-0.03280872,-0.01577658,-0.00064334,-0.00054037,-0.00033257,-0.
 00007043,-0.00007727,-0.00007423,0.00216766,-0.00035034,0.00023383,-0.
 00003716,0.00004194,-0.00000669,-0.00000028,-0.00000105,0.00000054,-0.
 00000436,-0.00000309,-0.00000181,0.00062258,-0.00082314,0.00000874,-0.
 00000465,0.00000129,-0.00000353,0.00000246,0.00000084,-0.00000409,-0.0
 0064824,-0.00173208,-0.00061217,0.00007871,0.00003577,-0.00028081,0.00
 000466,0.00000089,-0.00000083,-0.00000098,0.00000494,-0.00000330,-0.00
 004970,-0.00026895,-0.00013525,0.00046828,0.00124577,0.00028572,0.0000
 9942,0.00000230,0.00003505,0.00024424,-0.00019288,0.00012629,-0.000005
 91,-0.00000612,0.00000153,0.00004950,-0.00003146,-0.00000662,0.0001367
 7,-0.00003161,-0.00005684,0.00277693,0.00543454,0.00157694,0.07039922,
 -0.00000071,-0.00000264,0.00000675,0.00006487,-0.00009854,-0.00002827,
 -0.00450376,-0.02264784,-0.01167940,0.00001375,0.00002235,-0.00001390,
 -0.00638866,-0.00401599,-0.00177906,-0.00012689,0.00245805,0.00161255,
 -0.00005270,0.00004249,-0.00003525,0.00326639,-0.00177099,0.00349006,-
 0.04123662,-0.25798183,-0.10523976,0.00038701,0.00031247,-0.00017941,0
 .00003811,0.00004720,0.00007923,-0.00026114,0.00247895,-0.00012117,0.0
 0005668,-0.00003778,-0.00001856,0.00000271,0.00000148,-0.00000259,0.00
 000780,0.00000156,0.00000290,-0.00042552,0.00106143,0.00010070,0.00001
 239,-0.00000065,0.00000758,-0.00000403,-0.00000123,-0.00000121,-0.0000
 7365,-0.00027361,-0.00017315,0.00007436,-0.00005501,-0.00013890,-0.000
 00583,-0.00000316,-0.00000446,0.00000594,-0.00000796,0.00000105,0.0000
 4137,0.00020058,-0.00002748,-0.00044386,-0.00141782,-0.00053134,-0.000
 08965,0.00000554,0.00005872,-0.00009898,-0.00006957,-0.00002992,0.0000
 1871,0.00000653,-0.00000432,0.00006309,-0.00002155,-0.00001212,0.00000
 190,-0.00009241,0.00007237,0.00131820,0.00340001,0.00105885,0.04833872
 ,0.27845995,-0.00000281,-0.00000140,0.00001020,-0.00010790,0.00007049,
 -0.00028613,0.00173879,0.01570844,0.00668467,0.00002534,0.00004700,-0.
 00000803,0.00122280,0.00520672,0.00345497,0.00040739,0.00068676,0.0004
 7748,-0.00003208,0.00000073,-0.00005614,-0.00191515,0.00146983,-0.0008
 2627,-0.02206726,-0.10923098,-0.10827843,-0.00004611,-0.00006058,-0.00
 003304,0.00016193,-0.00016335,0.00004208,0.00160864,-0.00087338,0.0000
 8137,0.00003672,-0.00010861,0.00011241,0.00000088,-0.00000029,-0.00000
 337,0.00000694,0.00000099,0.00000204,0.00067763,-0.00045469,0.00096649
 ,0.00001728,-0.00000379,0.00001153,0.00000100,-0.00000395,-0.00000248,
 -0.00002831,-0.00012076,0.00033921,0.00011951,0.00030980,0.00045619,0.
 00000677,0.00000388,0.00000805,0.00001194,-0.00001018,0.00000634,-0.00
 003273,0.00032689,0.00026320,0.00002731,0.00070432,0.00042083,0.000046
 92,-0.00002976,-0.00000941,-0.00000880,-0.00002571,-0.00002216,-0.0000
 0360,0.00000968,-0.00000286,0.00000728,0.00001818,-0.00000285,-0.00003
 941,-0.00000469,0.00016803,-0.00509060,-0.02700112,-0.01223087,0.02324
 970,0.11352953,0.10825698\\0.00000267,0.00000523,-0.00000488,0.0002535
 5,-0.00109811,0.00026838,0.00030492,-0.00114049,0.00148172,-0.00000072
 ,-0.00000260,-0.00000256,-0.00000545,-0.00000419,-0.00000310,0.0000119
 2,0.00000909,0.00001106,-0.00001281,0.00002035,-0.00000956,-0.00011535
 ,0.00044594,-0.00094112,-0.00001451,-0.00000485,0.00000757,-0.00000600
 ,0.00000601,0.00000120,-0.00000696,-0.00001019,0.00000610,-0.00042573,
 0.00178971,-0.00079452,0.00001368,0.00000431,-0.00001347,0.00000027,-0
 .00000116,0.00000023,-0.00000089,0.00000121,0.00000514,-0.00000072,0.0
 0000222,0.00000299,0.00000370,-0.00000167,0.00000021,-0.00000234,0.000
 00199,0.00000165,-0.00000212,-0.00000195,0.00000195,-0.00000058,-0.000
 00515,-0.00000755,0.00000020,0.00000065,0.00000892,-0.00000072,-0.0000
 0094,0.00000175,0.00000411,0.00000227,-0.00000242,0.00000037,-0.000002
 09,0.00000430,0.00000184,0.00000199,0.00000296,0.00000099,-0.00000038,
 -0.00000069,-0.00000132,-0.00000402,-0.00000069,-0.00000422,-0.0000019
 2,-0.00000134,0.,-0.00000918,-0.00000977,0.00000281,-0.00000411,-0.000
 00926,-0.00000060,0.00000200,-0.00000518\\\@


 Fatherhood is pretending the present you love most is soap-on-a-rope.
 -- Bill Cosby
 Job cpu time:       0 days 14 hours 49 minutes 56.6 seconds.
 Elapsed time:       0 days  0 hours 55 minutes 38.6 seconds.
 File lengths (MBytes):  RWF=    683 Int=      0 D2E=      0 Chk=     33 Scr=      1
 Normal termination of Gaussian 16 at Sun Nov  4 22:55:44 2018.
