 Entering Gaussian System, Link 0=g16
 Initial command:
 /apps/gaussian/g16a03/g16/l1.exe "/jobfs/local/2011960.r-man2/Gau-31132.inp" -scrdir="/jobfs/local/2011960.r-man2/"
 Entering Link 1 = /apps/gaussian/g16a03/g16/l1.exe PID=     31133.
  
 Copyright (c) 1988,1990,1992,1993,1995,1998,2003,2009,2016,
            Gaussian, Inc.  All Rights Reserved.
  
 This is part of the Gaussian(R) 16 program.  It is based on
 the Gaussian(R) 09 system (copyright 2009, Gaussian, Inc.),
 the Gaussian(R) 03 system (copyright 2003, Gaussian, Inc.),
 the Gaussian(R) 98 system (copyright 1998, Gaussian, Inc.),
 the Gaussian(R) 94 system (copyright 1995, Gaussian, Inc.),
 the Gaussian 92(TM) system (copyright 1992, Gaussian, Inc.),
 the Gaussian 90(TM) system (copyright 1990, Gaussian, Inc.),
 the Gaussian 88(TM) system (copyright 1988, Gaussian, Inc.),
 the Gaussian 86(TM) system (copyright 1986, Carnegie Mellon
 University), and the Gaussian 82(TM) system (copyright 1983,
 Carnegie Mellon University). Gaussian is a federally registered
 trademark of Gaussian, Inc.
  
 This software contains proprietary and confidential information,
 including trade secrets, belonging to Gaussian, Inc.
  
 This software is provided under written license and may be
 used, copied, transmitted, or stored only in accord with that
 written license.
  
 The following legend is applicable only to US Government
 contracts under FAR:
  
                    RESTRICTED RIGHTS LEGEND
  
 Use, reproduction and disclosure by the US Government is
 subject to restrictions as set forth in subparagraphs (a)
 and (c) of the Commercial Computer Software - Restricted
 Rights clause in FAR 52.227-19.
  
 Gaussian, Inc.
 340 Quinnipiac St., Bldg. 40, Wallingford CT 06492
  
  
 ---------------------------------------------------------------
 Warning -- This program may not be used in any manner that
 competes with the business of Gaussian, Inc. or will provide
 assistance to any competitor of Gaussian, Inc.  The licensee
 of this program is prohibited from giving any competitor of
 Gaussian, Inc. access to this program.  By using this program,
 the user acknowledges that Gaussian, Inc. is engaged in the
 business of creating and licensing software in the field of
 computational chemistry and represents and warrants to the
 licensee that it is not a competitor of Gaussian, Inc. and that
 it will not use this program in any manner prohibited above.
 ---------------------------------------------------------------
  

 Cite this work as:
 Gaussian 16, Revision A.03,
 M. J. Frisch, G. W. Trucks, H. B. Schlegel, G. E. Scuseria, 
 M. A. Robb, J. R. Cheeseman, G. Scalmani, V. Barone, 
 G. A. Petersson, H. Nakatsuji, X. Li, M. Caricato, A. V. Marenich, 
 J. Bloino, B. G. Janesko, R. Gomperts, B. Mennucci, H. P. Hratchian, 
 J. V. Ortiz, A. F. Izmaylov, J. L. Sonnenberg, D. Williams-Young, 
 F. Ding, F. Lipparini, F. Egidi, J. Goings, B. Peng, A. Petrone, 
 T. Henderson, D. Ranasinghe, V. G. Zakrzewski, J. Gao, N. Rega, 
 G. Zheng, W. Liang, M. Hada, M. Ehara, K. Toyota, R. Fukuda, 
 J. Hasegawa, M. Ishida, T. Nakajima, Y. Honda, O. Kitao, H. Nakai, 
 T. Vreven, K. Throssell, J. A. Montgomery, Jr., J. E. Peralta, 
 F. Ogliaro, M. J. Bearpark, J. J. Heyd, E. N. Brothers, K. N. Kudin, 
 V. N. Staroverov, T. A. Keith, R. Kobayashi, J. Normand, 
 K. Raghavachari, A. P. Rendell, J. C. Burant, S. S. Iyengar, 
 J. Tomasi, M. Cossi, J. M. Millam, M. Klene, C. Adamo, R. Cammi, 
 J. W. Ochterski, R. L. Martin, K. Morokuma, O. Farkas, 
 J. B. Foresman, and D. J. Fox, Gaussian, Inc., Wallingford CT, 2016.
 
 ******************************************
 Gaussian 16:  ES64L-G16RevA.03 25-Dec-2016
                 4-Nov-2018 
 ******************************************
 %mem=6000mb
 %nproc=24
 Will use up to   24 processors via shared memory.
 %chk=D_1a_4e_D_PSI.inp_extract_16.chk
 ----------------------------------------------------------------------
 #M062X/6-311++G(2d,2p) opt=ModRedundant freq=noraman SCRF=(Solvent=Wat
 er)
 ----------------------------------------------------------------------
 1/18=120,19=15,26=3,38=1/1,3;
 2/9=110,12=2,17=6,18=5,40=1/2;
 3/5=4,6=6,7=1212,11=2,25=1,30=1,70=2201,71=1,72=1,74=-55/1,2,3;
 4//1;
 5/5=2,38=5,53=1/2;
 6/7=2,8=2,9=2,10=2,28=1/1;
 7//1,2,3,16;
 1/18=20,19=15,26=3/3(2);
 2/9=110/2;
 99//99;
 2/9=110/2;
 3/5=4,6=6,7=1212,11=2,25=1,30=1,70=2205,71=1,72=1,74=-55/1,2,3;
 4/5=5,16=3,69=1/1;
 5/5=2,38=5,53=1/2;
 7//1,2,3,16;
 1/18=20,19=15,26=3/3(-5);
 2/9=110/2;
 6/7=2,8=2,9=2,10=2,19=2,28=1/1;
 99/9=1/99;
 ----------------------------
 D_1a_4e_D_PSI.inp_extract_16
 ----------------------------
 Symbolic Z-matrix:
 Charge =  0 Multiplicity = 1
 C                    -3.45599  -0.44262   0.86616 
 C                    -1.23387   0.06502  -0.9193 
 C                     1.09682   0.51722  -0.41914 
 C                    -3.22677   0.97523   0.34283 
 O                     2.87258  -1.09139  -0.62873 
 C                     3.65173  -0.51636   0.40391 
 C                    -2.14448  -1.2097    0.89202 
 C                     1.88172   1.22944   0.67459 
 C                     1.48075  -0.96457  -0.42712 
 C                     3.38101   0.97441   0.51243 
 O                    -1.51164  -1.20061  -0.38088 
 O                    -0.2775    0.74514  -0.15812 
 C                    -2.49388   0.91499  -0.99817 
 H                    -4.16204  -0.96275   0.22292 
 H                    -3.87699  -0.42696   1.86746 
 H                     1.33788   0.93871  -1.39147 
 H                    -4.17185   1.49577   0.22228 
 H                    -2.64253   1.54149   1.06336 
 H                     4.68456  -0.71602   0.15332 
 H                     3.42248  -1.01776   1.34146 
 H                    -1.47079  -0.79123   1.63199 
 H                    -2.30004  -2.25274   1.13041 
 H                     1.54544   0.85321   1.63768 
 H                     1.66852   2.29352   0.64702 
 H                     3.74792   1.46965  -0.38291 
 H                     3.92785   1.382     1.35729 
 H                    -3.14262   0.46429  -1.74435 
 H                    -2.22767   1.90501  -1.35233 
 H                    -0.84194  -0.12539  -1.90851 
 H                     1.20139  -1.43212   0.51313 
 H                     1.01072  -1.50209  -1.23618 
 
 The following ModRedundant input section has been read:
 D       8       3      12       2 F                                           
 

 GradGradGradGradGradGradGradGradGradGradGradGradGradGradGradGradGradGrad
 Berny optimization.
 Initialization pass.
                           ----------------------------
                           !    Initial Parameters    !
                           ! (Angstroms and Degrees)  !
 --------------------------                            --------------------------
 ! Name  Definition              Value          Derivative Info.                !
 --------------------------------------------------------------------------------
 ! R1    R(1,4)                  1.5286         estimate D2E/DX2                !
 ! R2    R(1,7)                  1.5196         estimate D2E/DX2                !
 ! R3    R(1,14)                 1.0876         estimate D2E/DX2                !
 ! R4    R(1,15)                 1.0863         estimate D2E/DX2                !
 ! R5    R(2,11)                 1.4032         estimate D2E/DX2                !
 ! R6    R(2,12)                 1.3988         estimate D2E/DX2                !
 ! R7    R(2,13)                 1.5219         estimate D2E/DX2                !
 ! R8    R(2,29)                 1.0809         estimate D2E/DX2                !
 ! R9    R(3,8)                  1.523          estimate D2E/DX2                !
 ! R10   R(3,9)                  1.5307         estimate D2E/DX2                !
 ! R11   R(3,12)                 1.4173         estimate D2E/DX2                !
 ! R12   R(3,16)                 1.0868         estimate D2E/DX2                !
 ! R13   R(4,13)                 1.5294         estimate D2E/DX2                !
 ! R14   R(4,17)                 1.0857         estimate D2E/DX2                !
 ! R15   R(4,18)                 1.0868         estimate D2E/DX2                !
 ! R16   R(5,6)                  1.4157         estimate D2E/DX2                !
 ! R17   R(5,9)                  1.4121         estimate D2E/DX2                !
 ! R18   R(6,10)                 1.519          estimate D2E/DX2                !
 ! R19   R(6,19)                 1.0814         estimate D2E/DX2                !
 ! R20   R(6,20)                 1.0876         estimate D2E/DX2                !
 ! R21   R(7,11)                 1.4216         estimate D2E/DX2                !
 ! R22   R(7,21)                 1.0847         estimate D2E/DX2                !
 ! R23   R(7,22)                 1.0812         estimate D2E/DX2                !
 ! R24   R(8,10)                 1.5294         estimate D2E/DX2                !
 ! R25   R(8,23)                 1.0873         estimate D2E/DX2                !
 ! R26   R(8,24)                 1.0856         estimate D2E/DX2                !
 ! R27   R(9,30)                 1.0866         estimate D2E/DX2                !
 ! R28   R(9,31)                 1.0791         estimate D2E/DX2                !
 ! R29   R(10,25)                1.087          estimate D2E/DX2                !
 ! R30   R(10,26)                1.0858         estimate D2E/DX2                !
 ! R31   R(13,27)                1.0866         estimate D2E/DX2                !
 ! R32   R(13,28)                1.0846         estimate D2E/DX2                !
 ! A1    A(4,1,7)              110.1585         estimate D2E/DX2                !
 ! A2    A(4,1,14)             109.7827         estimate D2E/DX2                !
 ! A3    A(4,1,15)             111.1184         estimate D2E/DX2                !
 ! A4    A(7,1,14)             109.2056         estimate D2E/DX2                !
 ! A5    A(7,1,15)             109.0305         estimate D2E/DX2                !
 ! A6    A(14,1,15)            107.4853         estimate D2E/DX2                !
 ! A7    A(11,2,12)            111.4138         estimate D2E/DX2                !
 ! A8    A(11,2,13)            111.0838         estimate D2E/DX2                !
 ! A9    A(11,2,29)            105.3105         estimate D2E/DX2                !
 ! A10   A(12,2,13)            108.8267         estimate D2E/DX2                !
 ! A11   A(12,2,29)            109.6173         estimate D2E/DX2                !
 ! A12   A(13,2,29)            110.5571         estimate D2E/DX2                !
 ! A13   A(8,3,9)              109.0972         estimate D2E/DX2                !
 ! A14   A(8,3,12)             106.9937         estimate D2E/DX2                !
 ! A15   A(8,3,16)             110.2925         estimate D2E/DX2                !
 ! A16   A(9,3,12)             113.5671         estimate D2E/DX2                !
 ! A17   A(9,3,16)             108.3685         estimate D2E/DX2                !
 ! A18   A(12,3,16)            108.5096         estimate D2E/DX2                !
 ! A19   A(1,4,13)             109.6033         estimate D2E/DX2                !
 ! A20   A(1,4,17)             110.622          estimate D2E/DX2                !
 ! A21   A(1,4,18)             109.689          estimate D2E/DX2                !
 ! A22   A(13,4,17)            109.7963         estimate D2E/DX2                !
 ! A23   A(13,4,18)            110.1347         estimate D2E/DX2                !
 ! A24   A(17,4,18)            106.9626         estimate D2E/DX2                !
 ! A25   A(6,5,9)              113.695          estimate D2E/DX2                !
 ! A26   A(5,6,10)             110.6499         estimate D2E/DX2                !
 ! A27   A(5,6,19)             106.3575         estimate D2E/DX2                !
 ! A28   A(5,6,20)             108.9964         estimate D2E/DX2                !
 ! A29   A(10,6,19)            111.5907         estimate D2E/DX2                !
 ! A30   A(10,6,20)            110.6882         estimate D2E/DX2                !
 ! A31   A(19,6,20)            108.4186         estimate D2E/DX2                !
 ! A32   A(1,7,11)             111.4535         estimate D2E/DX2                !
 ! A33   A(1,7,21)             110.6653         estimate D2E/DX2                !
 ! A34   A(1,7,22)             111.5039         estimate D2E/DX2                !
 ! A35   A(11,7,21)            109.3835         estimate D2E/DX2                !
 ! A36   A(11,7,22)            105.5245         estimate D2E/DX2                !
 ! A37   A(21,7,22)            108.128          estimate D2E/DX2                !
 ! A38   A(3,8,10)             110.5535         estimate D2E/DX2                !
 ! A39   A(3,8,23)             108.3545         estimate D2E/DX2                !
 ! A40   A(3,8,24)             109.8114         estimate D2E/DX2                !
 ! A41   A(10,8,23)            109.841          estimate D2E/DX2                !
 ! A42   A(10,8,24)            110.6876         estimate D2E/DX2                !
 ! A43   A(23,8,24)            107.5133         estimate D2E/DX2                !
 ! A44   A(3,9,5)              109.5665         estimate D2E/DX2                !
 ! A45   A(3,9,30)             110.3362         estimate D2E/DX2                !
 ! A46   A(3,9,31)             112.139          estimate D2E/DX2                !
 ! A47   A(5,9,30)             109.7739         estimate D2E/DX2                !
 ! A48   A(5,9,31)             106.1145         estimate D2E/DX2                !
 ! A49   A(30,9,31)            108.8116         estimate D2E/DX2                !
 ! A50   A(6,10,8)             110.2381         estimate D2E/DX2                !
 ! A51   A(6,10,25)            109.1552         estimate D2E/DX2                !
 ! A52   A(6,10,26)            109.5253         estimate D2E/DX2                !
 ! A53   A(8,10,25)            110.0149         estimate D2E/DX2                !
 ! A54   A(8,10,26)            110.4026         estimate D2E/DX2                !
 ! A55   A(25,10,26)           107.4508         estimate D2E/DX2                !
 ! A56   A(2,11,7)             115.9435         estimate D2E/DX2                !
 ! A57   A(2,12,3)             118.9838         estimate D2E/DX2                !
 ! A58   A(2,13,4)             111.9187         estimate D2E/DX2                !
 ! A59   A(2,13,27)            107.351          estimate D2E/DX2                !
 ! A60   A(2,13,28)            108.874          estimate D2E/DX2                !
 ! A61   A(4,13,27)            109.4109         estimate D2E/DX2                !
 ! A62   A(4,13,28)            111.5899         estimate D2E/DX2                !
 ! A63   A(27,13,28)           107.5111         estimate D2E/DX2                !
 ! D1    D(7,1,4,13)            52.8405         estimate D2E/DX2                !
 ! D2    D(7,1,4,17)           174.049          estimate D2E/DX2                !
 ! D3    D(7,1,4,18)           -68.1931         estimate D2E/DX2                !
 ! D4    D(14,1,4,13)          -67.4541         estimate D2E/DX2                !
 ! D5    D(14,1,4,17)           53.7544         estimate D2E/DX2                !
 ! D6    D(14,1,4,18)          171.5123         estimate D2E/DX2                !
 ! D7    D(15,1,4,13)          173.781          estimate D2E/DX2                !
 ! D8    D(15,1,4,17)          -65.0105         estimate D2E/DX2                !
 ! D9    D(15,1,4,18)           52.7474         estimate D2E/DX2                !
 ! D10   D(4,1,7,11)           -54.6674         estimate D2E/DX2                !
 ! D11   D(4,1,7,21)            67.2935         estimate D2E/DX2                !
 ! D12   D(4,1,7,22)          -172.3075         estimate D2E/DX2                !
 ! D13   D(14,1,7,11)           65.9744         estimate D2E/DX2                !
 ! D14   D(14,1,7,21)         -172.0647         estimate D2E/DX2                !
 ! D15   D(14,1,7,22)          -51.6657         estimate D2E/DX2                !
 ! D16   D(15,1,7,11)         -176.85           estimate D2E/DX2                !
 ! D17   D(15,1,7,21)          -54.8892         estimate D2E/DX2                !
 ! D18   D(15,1,7,22)           65.5098         estimate D2E/DX2                !
 ! D19   D(12,2,11,7)           66.0745         estimate D2E/DX2                !
 ! D20   D(13,2,11,7)          -55.4395         estimate D2E/DX2                !
 ! D21   D(29,2,11,7)         -175.1575         estimate D2E/DX2                !
 ! D22   D(11,2,12,3)           85.821          estimate D2E/DX2                !
 ! D23   D(13,2,12,3)         -151.3617         estimate D2E/DX2                !
 ! D24   D(29,2,12,3)          -30.3395         estimate D2E/DX2                !
 ! D25   D(11,2,13,4)           52.239          estimate D2E/DX2                !
 ! D26   D(11,2,13,27)         -67.8295         estimate D2E/DX2                !
 ! D27   D(11,2,13,28)         176.069          estimate D2E/DX2                !
 ! D28   D(12,2,13,4)          -70.7764         estimate D2E/DX2                !
 ! D29   D(12,2,13,27)         169.1551         estimate D2E/DX2                !
 ! D30   D(12,2,13,28)          53.0536         estimate D2E/DX2                !
 ! D31   D(29,2,13,4)          168.7794         estimate D2E/DX2                !
 ! D32   D(29,2,13,27)          48.7109         estimate D2E/DX2                !
 ! D33   D(29,2,13,28)         -67.3906         estimate D2E/DX2                !
 ! D34   D(9,3,8,10)            53.7906         estimate D2E/DX2                !
 ! D35   D(9,3,8,23)           -66.6279         estimate D2E/DX2                !
 ! D36   D(9,3,8,24)           176.209          estimate D2E/DX2                !
 ! D37   D(12,3,8,10)          177.0367         estimate D2E/DX2                !
 ! D38   D(12,3,8,23)           56.6182         estimate D2E/DX2                !
 ! D39   D(12,3,8,24)          -60.5448         estimate D2E/DX2                !
 ! D40   D(16,3,8,10)          -65.1282         estimate D2E/DX2                !
 ! D41   D(16,3,8,23)          174.4533         estimate D2E/DX2                !
 ! D42   D(16,3,8,24)           57.2902         estimate D2E/DX2                !
 ! D43   D(8,3,9,5)            -57.9108         estimate D2E/DX2                !
 ! D44   D(8,3,9,30)            63.0626         estimate D2E/DX2                !
 ! D45   D(8,3,9,31)          -175.467          estimate D2E/DX2                !
 ! D46   D(12,3,9,5)          -177.1501         estimate D2E/DX2                !
 ! D47   D(12,3,9,30)          -56.1767         estimate D2E/DX2                !
 ! D48   D(12,3,9,31)           65.2937         estimate D2E/DX2                !
 ! D49   D(16,3,9,5)            62.2003         estimate D2E/DX2                !
 ! D50   D(16,3,9,30)         -176.8263         estimate D2E/DX2                !
 ! D51   D(16,3,9,31)          -55.356          estimate D2E/DX2                !
 ! D52   D(8,3,12,2)          -172.2407         Frozen                          !
 ! D53   D(9,3,12,2)           -51.8065         estimate D2E/DX2                !
 ! D54   D(16,3,12,2)           68.7636         estimate D2E/DX2                !
 ! D55   D(1,4,13,2)           -52.1008         estimate D2E/DX2                !
 ! D56   D(1,4,13,27)           66.756          estimate D2E/DX2                !
 ! D57   D(1,4,13,28)         -174.3928         estimate D2E/DX2                !
 ! D58   D(17,4,13,2)         -173.8061         estimate D2E/DX2                !
 ! D59   D(17,4,13,27)         -54.9494         estimate D2E/DX2                !
 ! D60   D(17,4,13,28)          63.9018         estimate D2E/DX2                !
 ! D61   D(18,4,13,2)           68.663          estimate D2E/DX2                !
 ! D62   D(18,4,13,27)        -172.4802         estimate D2E/DX2                !
 ! D63   D(18,4,13,28)         -53.629          estimate D2E/DX2                !
 ! D64   D(9,5,6,10)           -60.976          estimate D2E/DX2                !
 ! D65   D(9,5,6,19)           177.662          estimate D2E/DX2                !
 ! D66   D(9,5,6,20)            60.9635         estimate D2E/DX2                !
 ! D67   D(6,5,9,3)             62.8626         estimate D2E/DX2                !
 ! D68   D(6,5,9,30)           -58.4506         estimate D2E/DX2                !
 ! D69   D(6,5,9,31)          -175.8726         estimate D2E/DX2                !
 ! D70   D(5,6,10,8)            53.9687         estimate D2E/DX2                !
 ! D71   D(5,6,10,25)          -66.9775         estimate D2E/DX2                !
 ! D72   D(5,6,10,26)          175.6346         estimate D2E/DX2                !
 ! D73   D(19,6,10,8)          172.1862         estimate D2E/DX2                !
 ! D74   D(19,6,10,25)          51.24           estimate D2E/DX2                !
 ! D75   D(19,6,10,26)         -66.1479         estimate D2E/DX2                !
 ! D76   D(20,6,10,8)          -66.9722         estimate D2E/DX2                !
 ! D77   D(20,6,10,25)         172.0816         estimate D2E/DX2                !
 ! D78   D(20,6,10,26)          54.6936         estimate D2E/DX2                !
 ! D79   D(1,7,11,2)            57.3922         estimate D2E/DX2                !
 ! D80   D(21,7,11,2)          -65.3067         estimate D2E/DX2                !
 ! D81   D(22,7,11,2)          178.5856         estimate D2E/DX2                !
 ! D82   D(3,8,10,6)           -52.0863         estimate D2E/DX2                !
 ! D83   D(3,8,10,25)           68.3444         estimate D2E/DX2                !
 ! D84   D(3,8,10,26)         -173.2302         estimate D2E/DX2                !
 ! D85   D(23,8,10,6)           67.4398         estimate D2E/DX2                !
 ! D86   D(23,8,10,25)        -172.1295         estimate D2E/DX2                !
 ! D87   D(23,8,10,26)         -53.7041         estimate D2E/DX2                !
 ! D88   D(24,8,10,6)         -173.9906         estimate D2E/DX2                !
 ! D89   D(24,8,10,25)         -53.5599         estimate D2E/DX2                !
 ! D90   D(24,8,10,26)          64.8655         estimate D2E/DX2                !
 --------------------------------------------------------------------------------
 Trust Radius=3.00D-01 FncErr=1.00D-07 GrdErr=1.00D-06 EigMax=2.50D+02 EigMin=1.00D-04
 Number of steps in this run=    186 maximum allowed number of steps=    186.
 GradGradGradGradGradGradGradGradGradGradGradGradGradGradGradGradGradGrad

                          Input orientation:                          
 ---------------------------------------------------------------------
 Center     Atomic      Atomic             Coordinates (Angstroms)
 Number     Number       Type             X           Y           Z
 ---------------------------------------------------------------------
      1          6           0       -3.455993   -0.442622    0.866156
      2          6           0       -1.233873    0.065023   -0.919297
      3          6           0        1.096825    0.517219   -0.419141
      4          6           0       -3.226769    0.975225    0.342827
      5          8           0        2.872576   -1.091394   -0.628728
      6          6           0        3.651732   -0.516357    0.403914
      7          6           0       -2.144482   -1.209703    0.892021
      8          6           0        1.881724    1.229439    0.674587
      9          6           0        1.480749   -0.964573   -0.427120
     10          6           0        3.381008    0.974414    0.512428
     11          8           0       -1.511640   -1.200609   -0.380878
     12          8           0       -0.277502    0.745139   -0.158120
     13          6           0       -2.493879    0.914987   -0.998168
     14          1           0       -4.162043   -0.962745    0.222917
     15          1           0       -3.876994   -0.426955    1.867459
     16          1           0        1.337881    0.938712   -1.391468
     17          1           0       -4.171846    1.495772    0.222280
     18          1           0       -2.642534    1.541491    1.063358
     19          1           0        4.684564   -0.716022    0.153315
     20          1           0        3.422476   -1.017763    1.341460
     21          1           0       -1.470790   -0.791226    1.631987
     22          1           0       -2.300038   -2.252740    1.130408
     23          1           0        1.545435    0.853208    1.637682
     24          1           0        1.668520    2.293524    0.647016
     25          1           0        3.747923    1.469645   -0.382908
     26          1           0        3.927853    1.382001    1.357285
     27          1           0       -3.142624    0.464293   -1.744348
     28          1           0       -2.227674    1.905011   -1.352326
     29          1           0       -0.841937   -0.125385   -1.908508
     30          1           0        1.201392   -1.432117    0.513133
     31          1           0        1.010716   -1.502093   -1.236176
 ---------------------------------------------------------------------
                    Distance matrix (angstroms):
                    1          2          3          4          5
     1  C    0.000000
     2  C    2.895404   0.000000
     3  C    4.827156   2.426271   0.000000
     4  C    1.528629   2.528450   4.414049   0.000000
     5  O    6.535011   4.276056   2.405172   6.512821   0.000000
     6  C    7.123121   5.094902   2.876326   7.038631   1.415663
     7  C    1.519587   2.394788   3.899676   2.499374   5.243810
     8  C    5.596759   3.688262   1.523012   5.125562   2.840191
     9  C    5.129953   2.944737   1.530741   5.149404   1.412059
    10  C    6.991259   4.916702   2.508852   6.609953   2.414188
    11  O    2.431079   1.403166   3.123538   2.863507   4.392574
    12  O    3.544393   1.398783   1.417341   3.000344   3.676590
    13  C    2.498894   1.521931   3.658777   1.529387   5.741158
    14  H    1.087562   3.306832   5.500748   2.155190   7.087151
    15  H    1.086322   3.872227   5.555077   2.171038   7.226972
    16  H    5.475964   2.756845   1.086823   4.883149   2.656763
    17  H    2.164346   3.461492   5.397025   1.085666   7.552584
    18  H    2.153441   2.845207   4.150872   1.086808   6.341268
    19  H    8.176280   6.065346   3.836725   8.092306   2.008929
    20  H    6.918818   5.288198   3.296140   7.012969   2.046815
    21  H    2.156166   2.701544   3.537202   2.804594   4.905687
    22  H    2.163929   3.272617   4.648920   3.449474   5.585626
    23  H    5.223860   3.857970   2.131821   4.946258   3.267934
    24  H    5.813360   3.980382   2.149136   5.078809   3.812472
    25  H    7.557336   5.203746   2.817224   7.029756   2.717642
    26  H    7.621787   5.793157   3.452283   7.237624   3.342984
    27  H    2.781263   2.117417   4.442061   2.150449   6.312480
    28  H    3.455692   2.135582   3.721437   2.176290   5.959412
    29  H    3.825270   1.080929   2.527835   3.459375   4.045815
    30  H    4.774407   3.197468   2.163326   5.043105   2.052509
    31  H    5.049135   2.755802   2.180042   5.156223   2.001047
                    6          7          8          9         10
     6  C    0.000000
     7  C    5.857907   0.000000
     8  C    2.500799   4.712433   0.000000
     9  C    2.367421   3.865556   2.487615   0.000000
    10  C    1.519034   5.953612   1.529440   2.872874   0.000000
    11  O    5.267306   1.421564   4.305120   3.002040   5.428326
    12  O    4.164869   2.899969   2.364361   2.467169   3.726513
    13  C    6.463986   2.865170   4.694986   4.433566   6.066278
    14  H    7.828608   2.139916   6.444905   5.680110   7.793203
    15  H    7.670181   2.136767   6.109780   5.853165   7.515220
    16  H    3.270249   4.685815   2.156124   2.138427   2.792931
    17  H    8.080224   3.446499   6.076284   6.198939   7.576385
    18  H    6.654877   2.801157   4.551640   5.050084   6.075209
    19  H    1.081392   6.886601   3.451442   3.265442   2.164670
    20  H    1.087639   5.588368   2.805094   2.626977   2.158190
    21  H    5.274841   1.084681   4.029771   3.602992   5.283071
    22  H    6.242306   1.081181   5.460813   4.287146   6.562828
    23  H    2.798996   4.292680   1.087287   2.751712   2.156436
    24  H    3.447849   5.183783   1.085584   3.435727   2.165821
    25  H    2.138351   6.597332   2.158401   3.326778   1.086971
    26  H    2.142177   6.618659   2.162405   3.831296   1.085795
    27  H    7.193051   3.278565   5.628567   5.015209   6.921780
    28  H    6.596576   3.839981   4.631622   4.779427   5.983363
    29  H    5.068848   3.273428   3.990771   2.879864   4.990366
    30  H    2.618150   3.374596   2.751872   1.086606   3.246863
    31  H    3.261370   3.817065   3.445423   1.079088   3.848245
                   11         12         13         14         15
    11  O    0.000000
    12  O    2.314876   0.000000
    13  C    2.412796   2.376311   0.000000
    14  H    2.728696   4.260483   2.792794   0.000000
    15  H    3.353872   4.293381   3.453351   1.752952   0.000000
    16  H    3.703749   2.041588   3.851965   6.039118   6.299252
    17  H    3.835488   3.984228   2.154618   2.458537   2.547632
    18  H    3.299068   2.778410   2.159744   3.047367   2.458709
    19  H    6.238039   5.182092   7.450916   8.850320   8.736253
    20  H    5.229281   4.364218   6.649258   7.666752   7.342206
    21  H    2.054480   2.643641   3.297816   3.042653   2.444986
    22  H    2.003132   3.839041   3.821375   2.440223   2.522603
    23  H    4.199816   2.561188   4.823648   6.154230   5.576231
    24  H    4.835178   2.613951   4.683221   6.691682   6.296286
    25  H    5.898581   4.096277   6.296529   8.297657   8.173164
    26  H    6.267310   4.515203   6.856012   8.498885   8.027966
    27  H    2.700196   3.286931   1.086637   2.635486   3.791935
    28  H    3.331860   2.564099   1.084638   3.800947   4.304107
    29  H    1.984506   2.034762   2.154067   4.033268   4.853910
    30  H    2.865902   2.716275   4.631194   5.391750   5.351126
    31  H    2.680430   2.805666   4.263931   5.401600   5.888818
                   16         17         18         19         20
    16  H    0.000000
    17  H    5.768153   0.000000
    18  H    4.715211   1.745937   0.000000
    19  H    4.040394   9.128679   7.720810   0.000000
    20  H    3.955025   8.077385   6.588738   1.759432   0.000000
    21  H    4.474662   3.809637   2.671683   6.330917   4.907115
    22  H    5.457076   4.287156   3.810248   7.218094   5.858061
    23  H    3.037456   5.924825   4.282834   3.810506   2.666751
    24  H    2.469869   5.909880   4.395916   4.289246   3.810936
    25  H    2.665968   7.942901   6.552464   2.437616   3.044102
    26  H    3.802644   8.179627   6.578892   2.534533   2.452453
    27  H    4.519350   2.447626   3.048550   8.139972   7.404002
    28  H    3.694381   2.535087   2.477859   7.544256   6.908204
    29  H    2.480169   4.272786   3.853909   5.928084   5.435425
    30  H    3.044169   6.126077   4.890896   3.574178   2.406456
    31  H    2.467525   6.162243   5.281808   4.005715   3.563056
                   21         22         23         24         25
    21  H    0.000000
    22  H    1.753641   0.000000
    23  H    3.435376   4.969095   0.000000
    24  H    4.510113   6.054060   1.752449   0.000000
    25  H    6.033764   7.261137   3.051841   2.462405   0.000000
    26  H    5.826124   7.214530   2.456453   2.537704   1.751664
    27  H    3.971271   4.044310   5.793728   5.675545   7.095343
    28  H    4.092517   4.843150   4.927757   4.396435   6.069355
    29  H    3.657035   3.985813   4.385505   4.322524   5.092975
    30  H    2.967007   3.648899   2.570153   3.757198   3.963323
    31  H    3.858700   4.138271   3.753988   4.287870   4.129358
                   26         27         28         29         30
    26  H    0.000000
    27  H    7.775214   0.000000
    28  H    6.745817   1.751138   0.000000
    29  H    5.973986   2.380720   2.520340   0.000000
    30  H    4.008172   5.250054   5.135645   3.427402   0.000000
    31  H    4.853218   4.623326   4.702023   2.404096   1.761061
                   31
    31  H    0.000000
 Stoichiometry    C10H18O3
 Framework group  C1[X(C10H18O3)]
 Deg. of freedom    87
 Full point group                 C1      NOp   1
 Largest Abelian subgroup         C1      NOp   1
 Largest concise Abelian subgroup C1      NOp   1
                         Standard orientation:                         
 ---------------------------------------------------------------------
 Center     Atomic      Atomic             Coordinates (Angstroms)
 Number     Number       Type             X           Y           Z
 ---------------------------------------------------------------------
      1          6           0       -3.455993   -0.442622    0.866156
      2          6           0       -1.233873    0.065023   -0.919297
      3          6           0        1.096825    0.517219   -0.419141
      4          6           0       -3.226769    0.975225    0.342827
      5          8           0        2.872576   -1.091394   -0.628728
      6          6           0        3.651732   -0.516357    0.403914
      7          6           0       -2.144482   -1.209703    0.892021
      8          6           0        1.881724    1.229439    0.674587
      9          6           0        1.480749   -0.964573   -0.427120
     10          6           0        3.381008    0.974414    0.512428
     11          8           0       -1.511640   -1.200609   -0.380878
     12          8           0       -0.277502    0.745139   -0.158120
     13          6           0       -2.493879    0.914987   -0.998168
     14          1           0       -4.162043   -0.962745    0.222917
     15          1           0       -3.876994   -0.426955    1.867459
     16          1           0        1.337881    0.938712   -1.391468
     17          1           0       -4.171846    1.495772    0.222280
     18          1           0       -2.642534    1.541491    1.063358
     19          1           0        4.684564   -0.716022    0.153315
     20          1           0        3.422476   -1.017763    1.341460
     21          1           0       -1.470790   -0.791226    1.631987
     22          1           0       -2.300038   -2.252740    1.130408
     23          1           0        1.545435    0.853208    1.637682
     24          1           0        1.668520    2.293524    0.647016
     25          1           0        3.747923    1.469645   -0.382908
     26          1           0        3.927853    1.382001    1.357285
     27          1           0       -3.142624    0.464293   -1.744348
     28          1           0       -2.227674    1.905011   -1.352326
     29          1           0       -0.841937   -0.125385   -1.908508
     30          1           0        1.201392   -1.432117    0.513133
     31          1           0        1.010716   -1.502093   -1.236176
 ---------------------------------------------------------------------
 Rotational constants (GHZ):           1.9020892           0.4163558           0.3911660
 Standard basis: 6-311++G(2d,2p) (5D, 7F)
 There are   557 symmetry adapted cartesian basis functions of A   symmetry.
 There are   531 symmetry adapted basis functions of A   symmetry.
   531 basis functions,   762 primitive gaussians,   557 cartesian basis functions
    51 alpha electrons       51 beta electrons
       nuclear repulsion energy       896.5051111736 Hartrees.
 NAtoms=   31 NActive=   31 NUniq=   31 SFac= 1.00D+00 NAtFMM=   60 NAOKFM=F Big=F
 Integral buffers will be    131072 words long.
 Raffenetti 2 integral format.
 Two-electron integral symmetry is turned on.
 ------------------------------------------------------------------------------
 Polarizable Continuum Model (PCM)
 =================================
 Model                : PCM.
 Atomic radii         : UFF (Universal Force Field).
 Polarization charges : Total charges.
 Charge compensation  : None.
 Solution method      : On-the-fly selection.
 Cavity type          : Scaled VdW (van der Waals Surface) (Alpha=1.100).
 Cavity algorithm     : GePol (No added spheres)
                        Default sphere list used, NSphG=   31.
                        Lebedev-Laikov grids with approx.  5.0 points / Ang**2.
                        Smoothing algorithm: York/Karplus (Gamma=1.0000).
                        Polarization charges: spherical gaussians, with
                                              point-specific exponents (IZeta= 3).
                        Self-potential: point-specific (ISelfS= 7).
                        Self-field    : sphere-specific E.n sum rule (ISelfD= 2).
 1st derivatives      : Analytical E(r).r(x)/FMM algorithm (CHGder, D1EAlg=3).
                        Cavity 1st derivative terms included.
 Solvent              : Water, Eps=  78.355300 Eps(inf)=   1.777849
 ------------------------------------------------------------------------------
 One-electron integrals computed using PRISM.
 NBasis=   531 RedAO= T EigKep=  5.56D-06  NBF=   531
 NBsUse=   531 1.00D-06 EigRej= -1.00D+00 NBFU=   531
 ExpMin= 3.60D-02 ExpMax= 8.59D+03 ExpMxC= 1.30D+03 IAcc=3 IRadAn=         5 AccDes= 0.00D+00
 Harris functional with IExCor= 1009 and IRadAn=       5 diagonalized for initial guess.
 HarFok:  IExCor= 1009 AccDes= 0.00D+00 IRadAn=         5 IDoV= 1 UseB2=F ITyADJ=14
 ICtDFT=  3500011 ScaDFX=  1.000000  1.000000  1.000000  1.000000
 FoFCou: FMM=F IPFlag=           0 FMFlag=      100000 FMFlg1=           0
         NFxFlg=           0 DoJE=T BraDBF=F KetDBF=T FulRan=T
         wScrn=  0.000000 ICntrl=       500 IOpCl=  0 I1Cent=   200000004 NGrid=           0
         NMat0=    1 NMatS0=      1 NMatT0=    0 NMatD0=    1 NMtDS0=    0 NMtDT0=    0
 Petite list used in FoFCou.
 Requested convergence on RMS density matrix=1.00D-08 within 128 cycles.
 Requested convergence on MAX density matrix=1.00D-06.
 Requested convergence on             energy=1.00D-06.
 No special actions if energy rises.
 Inv3:  Mode=1 IEnd=    12706092.
 Iteration    1 A*A^-1 deviation from unit magnitude is 6.00D-15 for   2036.
 Iteration    1 A*A^-1 deviation from orthogonality  is 1.84D-15 for   2048    876.
 Iteration    1 A^-1*A deviation from unit magnitude is 6.00D-15 for   2036.
 Iteration    1 A^-1*A deviation from orthogonality  is 1.73D-15 for   1548    248.
 Error on total polarization charges =  0.01485
 SCF Done:  E(RM062X) =  -617.501153337     A.U. after   12 cycles
            NFock= 12  Conv=0.52D-08     -V/T= 2.0035

 **********************************************************************

            Population analysis using the SCF density.

 **********************************************************************

 Orbital symmetries:
       Occupied  (A) (A) (A) (A) (A) (A) (A) (A) (A) (A) (A) (A)
                 (A) (A) (A) (A) (A) (A) (A) (A) (A) (A) (A) (A)
                 (A) (A) (A) (A) (A) (A) (A) (A) (A) (A) (A) (A)
                 (A) (A) (A) (A) (A) (A) (A) (A) (A) (A) (A) (A)
                 (A) (A) (A)
       Virtual   (A) (A) (A) (A) (A) (A) (A) (A) (A) (A) (A) (A)
                 (A) (A) (A) (A) (A) (A) (A) (A) (A) (A) (A) (A)
                 (A) (A) (A) (A) (A) (A) (A) (A) (A) (A) (A) (A)
                 (A) (A) (A) (A) (A) (A) (A) (A) (A) (A) (A) (A)
                 (A) (A) (A) (A) (A) (A) (A) (A) (A) (A) (A) (A)
                 (A) (A) (A) (A) (A) (A) (A) (A) (A) (A) (A) (A)
                 (A) (A) (A) (A) (A) (A) (A) (A) (A) (A) (A) (A)
                 (A) (A) (A) (A) (A) (A) (A) (A) (A) (A) (A) (A)
                 (A) (A) (A) (A) (A) (A) (A) (A) (A) (A) (A) (A)
                 (A) (A) (A) (A) (A) (A) (A) (A) (A) (A) (A) (A)
                 (A) (A) (A) (A) (A) (A) (A) (A) (A) (A) (A) (A)
                 (A) (A) (A) (A) (A) (A) (A) (A) (A) (A) (A) (A)
                 (A) (A) (A) (A) (A) (A) (A) (A) (A) (A) (A) (A)
                 (A) (A) (A) (A) (A) (A) (A) (A) (A) (A) (A) (A)
                 (A) (A) (A) (A) (A) (A) (A) (A) (A) (A) (A) (A)
                 (A) (A) (A) (A) (A) (A) (A) (A) (A) (A) (A) (A)
                 (A) (A) (A) (A) (A) (A) (A) (A) (A) (A) (A) (A)
                 (A) (A) (A) (A) (A) (A) (A) (A) (A) (A) (A) (A)
                 (A) (A) (A) (A) (A) (A) (A) (A) (A) (A) (A) (A)
                 (A) (A) (A) (A) (A) (A) (A) (A) (A) (A) (A) (A)
                 (A) (A) (A) (A) (A) (A) (A) (A) (A) (A) (A) (A)
                 (A) (A) (A) (A) (A) (A) (A) (A) (A) (A) (A) (A)
                 (A) (A) (A) (A) (A) (A) (A) (A) (A) (A) (A) (A)
                 (A) (A) (A) (A) (A) (A) (A) (A) (A) (A) (A) (A)
                 (A) (A) (A) (A) (A) (A) (A) (A) (A) (A) (A) (A)
                 (A) (A) (A) (A) (A) (A) (A) (A) (A) (A) (A) (A)
                 (A) (A) (A) (A) (A) (A) (A) (A) (A) (A) (A) (A)
                 (A) (A) (A) (A) (A) (A) (A) (A) (A) (A) (A) (A)
                 (A) (A) (A) (A) (A) (A) (A) (A) (A) (A) (A) (A)
                 (A) (A) (A) (A) (A) (A) (A) (A) (A) (A) (A) (A)
                 (A) (A) (A) (A) (A) (A) (A) (A) (A) (A) (A) (A)
                 (A) (A) (A) (A) (A) (A) (A) (A) (A) (A) (A) (A)
                 (A) (A) (A) (A) (A) (A) (A) (A) (A) (A) (A) (A)
                 (A) (A) (A) (A) (A) (A) (A) (A) (A) (A) (A) (A)
                 (A) (A) (A) (A) (A) (A) (A) (A) (A) (A) (A) (A)
                 (A) (A) (A) (A) (A) (A) (A) (A) (A) (A) (A) (A)
                 (A) (A) (A) (A) (A) (A) (A) (A) (A) (A) (A) (A)
                 (A) (A) (A) (A) (A) (A) (A) (A) (A) (A) (A) (A)
                 (A) (A) (A) (A) (A) (A) (A) (A) (A) (A) (A) (A)
                 (A) (A) (A) (A) (A) (A) (A) (A) (A) (A) (A) (A)
 The electronic state is 1-A.
 Alpha  occ. eigenvalues --  -19.63058 -19.62876 -19.62670 -10.63433 -10.58842
 Alpha  occ. eigenvalues --  -10.57820 -10.57788 -10.57593 -10.53194 -10.53109
 Alpha  occ. eigenvalues --  -10.52958 -10.52909 -10.52734  -1.20161  -1.16718
 Alpha  occ. eigenvalues --   -1.13644  -0.91008  -0.89777  -0.87311  -0.84816
 Alpha  occ. eigenvalues --   -0.75067  -0.74151  -0.72999  -0.71128  -0.66161
 Alpha  occ. eigenvalues --   -0.63755  -0.60353  -0.58587  -0.57439  -0.56218
 Alpha  occ. eigenvalues --   -0.53912  -0.53350  -0.52678  -0.51284  -0.49884
 Alpha  occ. eigenvalues --   -0.48455  -0.46903  -0.45690  -0.45291  -0.45048
 Alpha  occ. eigenvalues --   -0.43901  -0.43010  -0.40878  -0.40312  -0.39749
 Alpha  occ. eigenvalues --   -0.38488  -0.37564  -0.35909  -0.35315  -0.33201
 Alpha  occ. eigenvalues --   -0.31884
 Alpha virt. eigenvalues --   -0.00059   0.00752   0.00801   0.01062   0.02173
 Alpha virt. eigenvalues --    0.02478   0.02661   0.03392   0.03438   0.04403
 Alpha virt. eigenvalues --    0.04680   0.04690   0.05653   0.05954   0.07116
 Alpha virt. eigenvalues --    0.07445   0.07685   0.07827   0.08660   0.09712
 Alpha virt. eigenvalues --    0.09755   0.10977   0.11145   0.11778   0.11851
 Alpha virt. eigenvalues --    0.12172   0.12464   0.13142   0.13220   0.13468
 Alpha virt. eigenvalues --    0.13823   0.14104   0.14343   0.14494   0.14739
 Alpha virt. eigenvalues --    0.14921   0.15170   0.15415   0.15571   0.16021
 Alpha virt. eigenvalues --    0.16651   0.16944   0.17508   0.17811   0.17845
 Alpha virt. eigenvalues --    0.18155   0.18416   0.18983   0.19148   0.19382
 Alpha virt. eigenvalues --    0.19458   0.19683   0.20754   0.21068   0.21595
 Alpha virt. eigenvalues --    0.22005   0.22677   0.22903   0.23968   0.24255
 Alpha virt. eigenvalues --    0.24344   0.25257   0.26093   0.26826   0.26882
 Alpha virt. eigenvalues --    0.27548   0.28535   0.28822   0.28946   0.29670
 Alpha virt. eigenvalues --    0.30262   0.30539   0.31149   0.31268   0.31455
 Alpha virt. eigenvalues --    0.32368   0.32606   0.33241   0.33886   0.34497
 Alpha virt. eigenvalues --    0.34642   0.35038   0.35722   0.35820   0.36239
 Alpha virt. eigenvalues --    0.36526   0.36821   0.37187   0.37670   0.37763
 Alpha virt. eigenvalues --    0.38430   0.39164   0.39578   0.40073   0.40673
 Alpha virt. eigenvalues --    0.40862   0.41752   0.42773   0.44434   0.45147
 Alpha virt. eigenvalues --    0.46692   0.46981   0.49041   0.49481   0.50740
 Alpha virt. eigenvalues --    0.52174   0.52463   0.53351   0.54159   0.54462
 Alpha virt. eigenvalues --    0.55450   0.56237   0.57797   0.58836   0.59697
 Alpha virt. eigenvalues --    0.60169   0.60827   0.61411   0.61870   0.62204
 Alpha virt. eigenvalues --    0.62478   0.63021   0.63330   0.64036   0.64235
 Alpha virt. eigenvalues --    0.64842   0.65071   0.65396   0.66363   0.66930
 Alpha virt. eigenvalues --    0.68209   0.68873   0.69127   0.69925   0.70171
 Alpha virt. eigenvalues --    0.70742   0.71286   0.71945   0.72145   0.73418
 Alpha virt. eigenvalues --    0.73997   0.74190   0.75059   0.75139   0.75845
 Alpha virt. eigenvalues --    0.76488   0.76953   0.77336   0.77768   0.79580
 Alpha virt. eigenvalues --    0.79788   0.82775   0.83702   0.84536   0.86094
 Alpha virt. eigenvalues --    0.86683   0.87238   0.87784   0.88138   0.89671
 Alpha virt. eigenvalues --    0.90801   0.91196   0.93119   0.94158   0.95980
 Alpha virt. eigenvalues --    0.96692   0.99134   0.99522   1.00226   1.01449
 Alpha virt. eigenvalues --    1.03767   1.04682   1.04966   1.05670   1.07222
 Alpha virt. eigenvalues --    1.08506   1.09238   1.10434   1.10754   1.11499
 Alpha virt. eigenvalues --    1.13872   1.14076   1.14697   1.15477   1.16792
 Alpha virt. eigenvalues --    1.17416   1.18004   1.18682   1.19255   1.20164
 Alpha virt. eigenvalues --    1.20360   1.21780   1.22678   1.23297   1.24393
 Alpha virt. eigenvalues --    1.25496   1.25756   1.26522   1.26859   1.27275
 Alpha virt. eigenvalues --    1.27808   1.28009   1.29033   1.30310   1.30920
 Alpha virt. eigenvalues --    1.31697   1.31995   1.33916   1.34549   1.34711
 Alpha virt. eigenvalues --    1.35134   1.36319   1.36852   1.37955   1.38611
 Alpha virt. eigenvalues --    1.38752   1.39264   1.39683   1.40698   1.41799
 Alpha virt. eigenvalues --    1.42192   1.42754   1.43752   1.45043   1.45886
 Alpha virt. eigenvalues --    1.46162   1.46791   1.47003   1.47661   1.48295
 Alpha virt. eigenvalues --    1.48666   1.49709   1.50949   1.50988   1.52357
 Alpha virt. eigenvalues --    1.53668   1.53766   1.54261   1.54743   1.56001
 Alpha virt. eigenvalues --    1.56416   1.57258   1.58240   1.58534   1.59378
 Alpha virt. eigenvalues --    1.60111   1.60434   1.60576   1.61083   1.61768
 Alpha virt. eigenvalues --    1.63495   1.63928   1.64525   1.64806   1.66881
 Alpha virt. eigenvalues --    1.68077   1.68925   1.70151   1.71719   1.73850
 Alpha virt. eigenvalues --    1.74494   1.74743   1.76469   1.76777   1.78423
 Alpha virt. eigenvalues --    1.78945   1.80796   1.81512   1.81827   1.83319
 Alpha virt. eigenvalues --    1.88013   1.89580   1.92618   1.95659   1.99604
 Alpha virt. eigenvalues --    2.02294   2.08355   2.10912   2.16116   2.20438
 Alpha virt. eigenvalues --    2.22583   2.28478   2.32867   2.35988   2.39445
 Alpha virt. eigenvalues --    2.41932   2.42891   2.45939   2.49733   2.53076
 Alpha virt. eigenvalues --    2.58880   2.75504   2.76654   2.78461   2.82219
 Alpha virt. eigenvalues --    2.84054   2.89809   2.92796   2.93623   2.94335
 Alpha virt. eigenvalues --    2.96622   2.97866   3.01551   3.02592   3.03509
 Alpha virt. eigenvalues --    3.05644   3.07951   3.08705   3.09712   3.11285
 Alpha virt. eigenvalues --    3.11964   3.15638   3.17015   3.19450   3.23707
 Alpha virt. eigenvalues --    3.24767   3.29615   3.31722   3.34012   3.34363
 Alpha virt. eigenvalues --    3.35633   3.37917   3.38346   3.40187   3.41328
 Alpha virt. eigenvalues --    3.42679   3.43254   3.44581   3.45832   3.46996
 Alpha virt. eigenvalues --    3.47690   3.49560   3.49874   3.50862   3.52137
 Alpha virt. eigenvalues --    3.53292   3.53948   3.55142   3.55358   3.56741
 Alpha virt. eigenvalues --    3.57806   3.58233   3.58691   3.60002   3.60525
 Alpha virt. eigenvalues --    3.61062   3.61769   3.63095   3.64878   3.65661
 Alpha virt. eigenvalues --    3.65935   3.67578   3.68032   3.69046   3.69808
 Alpha virt. eigenvalues --    3.71064   3.71740   3.72393   3.73314   3.73453
 Alpha virt. eigenvalues --    3.74700   3.75179   3.76014   3.76871   3.78104
 Alpha virt. eigenvalues --    3.78595   3.80210   3.80497   3.83311   3.84665
 Alpha virt. eigenvalues --    3.87647   3.87686   3.89163   3.89850   3.91292
 Alpha virt. eigenvalues --    3.92884   3.93771   3.94626   3.96371   3.98163
 Alpha virt. eigenvalues --    4.00694   4.01549   4.02342   4.02937   4.03635
 Alpha virt. eigenvalues --    4.04783   4.05734   4.06439   4.07570   4.07738
 Alpha virt. eigenvalues --    4.08689   4.08823   4.10095   4.10697   4.11204
 Alpha virt. eigenvalues --    4.12204   4.13029   4.14554   4.15895   4.16683
 Alpha virt. eigenvalues --    4.17201   4.17538   4.18672   4.18934   4.20382
 Alpha virt. eigenvalues --    4.21595   4.24790   4.26570   4.27185   4.28338
 Alpha virt. eigenvalues --    4.28563   4.29345   4.31242   4.31468   4.32293
 Alpha virt. eigenvalues --    4.32996   4.34103   4.34675   4.35929   4.37771
 Alpha virt. eigenvalues --    4.39950   4.41912   4.45513   4.47053   4.50755
 Alpha virt. eigenvalues --    4.58582   4.61375   4.75039   4.76838   4.82653
 Alpha virt. eigenvalues --    4.85345   4.92698   4.95554   4.98519   5.01078
 Alpha virt. eigenvalues --    5.06683   5.07203   5.07755   5.08661   5.12108
 Alpha virt. eigenvalues --    5.12595   5.14031   5.14932   5.31328   5.38536
 Alpha virt. eigenvalues --    5.42649   5.58624   5.59238   5.67027   5.85615
 Alpha virt. eigenvalues --    5.90339   6.06337   7.02554   7.04462   7.06033
 Alpha virt. eigenvalues --    7.09154   7.10798   7.12924   7.15351   7.20410
 Alpha virt. eigenvalues --    7.26034   7.36935   7.41103   7.46634   7.52919
 Alpha virt. eigenvalues --    7.55934   7.64283  23.95757  23.96964  24.06148
 Alpha virt. eigenvalues --   24.08404  24.11478  24.12154  24.14303  24.15318
 Alpha virt. eigenvalues --   24.16688  24.20346  50.17438  50.19358  50.27957
          Condensed to atoms (all electrons):
               1          2          3          4          5          6
     1  C    5.746714   0.147501   0.012961   0.096204  -0.000072  -0.000107
     2  C    0.147501   6.882196  -0.751013  -0.170540   0.001241   0.006692
     3  C    0.012961  -0.751013   7.753629   0.047978  -0.004506   0.186297
     4  C    0.096204  -0.170540   0.047978   5.533581   0.000104  -0.002772
     5  O   -0.000072   0.001241  -0.004506   0.000104   8.367065   0.099880
     6  C   -0.000107   0.006692   0.186297  -0.002772   0.099880   5.369423
     7  C   -0.148609  -0.311852   0.041258  -0.059170   0.000626   0.005822
     8  C    0.008256   0.149054  -1.239910  -0.000196  -0.012712  -0.180356
     9  C   -0.000687   0.186764  -0.661524  -0.007744   0.176194  -0.201780
    10  C    0.001815  -0.067437   0.081524  -0.004314  -0.060177   0.067268
    11  O   -0.037805   0.314634  -0.014840   0.004177  -0.000699   0.005966
    12  O   -0.006264   0.214603   0.052430  -0.025071   0.011096   0.010228
    13  C   -0.126410  -0.823670   0.118895   0.041434  -0.001418   0.007374
    14  H    0.486456   0.010778  -0.003485  -0.016186  -0.000002   0.000058
    15  H    0.434846   0.002001   0.002493  -0.049588   0.000008  -0.000087
    16  H   -0.000821  -0.033439   0.560940   0.004338  -0.005685   0.013714
    17  H   -0.010178   0.011432   0.007623   0.413341  -0.000018  -0.000064
    18  H   -0.068320  -0.027947   0.004477   0.532995   0.000072   0.000273
    19  H    0.000035  -0.000792   0.004149  -0.000101  -0.072776   0.432854
    20  H   -0.000058   0.000407   0.039608   0.000395  -0.036793   0.482217
    21  H   -0.071897  -0.021756  -0.017103   0.004691   0.000119  -0.002613
    22  H   -0.025226  -0.001651   0.000219   0.007332   0.000417  -0.000732
    23  H    0.001405  -0.021918   0.022433   0.001989   0.000870  -0.010014
    24  H   -0.000347   0.006070  -0.032253   0.000801  -0.000687   0.007226
    25  H    0.000129  -0.005563  -0.026031   0.000351  -0.004123  -0.075748
    26  H   -0.000236  -0.000152  -0.008009  -0.000164   0.006896  -0.045201
    27  H   -0.010049  -0.150851   0.008302  -0.005527  -0.000051   0.000202
    28  H   -0.008302   0.006887  -0.010041  -0.046998  -0.000002  -0.000125
    29  H    0.016456   0.476781   0.022853  -0.009484  -0.000715  -0.003242
    30  H   -0.013629   0.012676   0.138501  -0.007882  -0.046692   0.018357
    31  H    0.000150  -0.014784  -0.094334   0.000404  -0.068106  -0.009388
               7          8          9         10         11         12
     1  C   -0.148609   0.008256  -0.000687   0.001815  -0.037805  -0.006264
     2  C   -0.311852   0.149054   0.186764  -0.067437   0.314634   0.214603
     3  C    0.041258  -1.239910  -0.661524   0.081524  -0.014840   0.052430
     4  C   -0.059170  -0.000196  -0.007744  -0.004314   0.004177  -0.025071
     5  O    0.000626  -0.012712   0.176194  -0.060177  -0.000699   0.011096
     6  C    0.005822  -0.180356  -0.201780   0.067268   0.005966   0.010228
     7  C    5.598461  -0.028342   0.029799  -0.004794   0.067307   0.008920
     8  C   -0.028342   6.667047   0.410882  -0.069390  -0.014684  -0.160109
     9  C    0.029799   0.410882   5.879539   0.032389  -0.029428  -0.057195
    10  C   -0.004794  -0.069390   0.032389   5.611185   0.002616  -0.005684
    11  O    0.067307  -0.014684  -0.029428   0.002616   8.267041  -0.067637
    12  O    0.008920  -0.160109  -0.057195  -0.005684  -0.067637   8.398132
    13  C    0.109045  -0.068763  -0.089212  -0.003817  -0.049890  -0.038833
    14  H   -0.091663  -0.000853   0.000084   0.000033  -0.001432  -0.000027
    15  H   -0.026719  -0.000132   0.000685  -0.000015   0.008809   0.000035
    16  H   -0.000793  -0.039803  -0.129553  -0.016943   0.001195  -0.048886
    17  H    0.002597  -0.001266  -0.001797  -0.000049  -0.003938   0.001151
    18  H   -0.001588  -0.000369  -0.001396  -0.001954   0.002197  -0.003189
    19  H   -0.000155   0.003285   0.010555  -0.038789   0.000375   0.000754
    20  H    0.000965  -0.005966  -0.038731  -0.066065  -0.000269  -0.000325
    21  H    0.465945   0.001530   0.000586   0.001505  -0.031961   0.007296
    22  H    0.445223   0.001151   0.003822  -0.000372  -0.073551   0.000067
    23  H    0.001202   0.475725  -0.043795  -0.052623  -0.000354  -0.002269
    24  H    0.000306   0.412934   0.014076  -0.016006   0.000142  -0.002704
    25  H    0.000026  -0.003903   0.000802   0.488960  -0.000253   0.000140
    26  H   -0.000084  -0.039695   0.006813   0.443568  -0.000144  -0.003272
    27  H    0.008429  -0.001657  -0.000466   0.000054  -0.005711   0.010087
    28  H    0.014366   0.002289   0.001538  -0.000989   0.007243  -0.007418
    29  H   -0.027463  -0.008164  -0.009036   0.002564  -0.057983  -0.022459
    30  H    0.008678  -0.140248   0.333672   0.013482  -0.005162   0.006909
    31  H   -0.000927   0.033038   0.478483   0.022989  -0.011425  -0.004691
              13         14         15         16         17         18
     1  C   -0.126410   0.486456   0.434846  -0.000821  -0.010178  -0.068320
     2  C   -0.823670   0.010778   0.002001  -0.033439   0.011432  -0.027947
     3  C    0.118895  -0.003485   0.002493   0.560940   0.007623   0.004477
     4  C    0.041434  -0.016186  -0.049588   0.004338   0.413341   0.532995
     5  O   -0.001418  -0.000002   0.000008  -0.005685  -0.000018   0.000072
     6  C    0.007374   0.000058  -0.000087   0.013714  -0.000064   0.000273
     7  C    0.109045  -0.091663  -0.026719  -0.000793   0.002597  -0.001588
     8  C   -0.068763  -0.000853  -0.000132  -0.039803  -0.001266  -0.000369
     9  C   -0.089212   0.000084   0.000685  -0.129553  -0.001797  -0.001396
    10  C   -0.003817   0.000033  -0.000015  -0.016943  -0.000049  -0.001954
    11  O   -0.049890  -0.001432   0.008809   0.001195  -0.003938   0.002197
    12  O   -0.038833  -0.000027   0.000035  -0.048886   0.001151  -0.003189
    13  C    6.650268  -0.014266  -0.002508   0.018971  -0.046325  -0.049140
    14  H   -0.014266   0.484357  -0.012693   0.000252  -0.000999   0.001619
    15  H   -0.002508  -0.012693   0.490117  -0.000185  -0.007793  -0.005026
    16  H    0.018971   0.000252  -0.000185   0.438914   0.000022   0.000602
    17  H   -0.046325  -0.000999  -0.007793   0.000022   0.468478  -0.003945
    18  H   -0.049140   0.001619  -0.005026   0.000602  -0.003945   0.456599
    19  H    0.000636   0.000006  -0.000013  -0.000783   0.000003  -0.000007
    20  H   -0.001356  -0.000016   0.000038   0.001014  -0.000018   0.000085
    21  H    0.031456   0.004836  -0.001284   0.001763  -0.000744  -0.001830
    22  H   -0.010212  -0.008695  -0.006767  -0.000335   0.000906  -0.002704
    23  H    0.002449  -0.000078   0.000233   0.005209   0.000287   0.000135
    24  H   -0.003778   0.000002  -0.000000  -0.005959  -0.000068  -0.000095
    25  H    0.000430  -0.000002   0.000004  -0.003694   0.000021   0.000027
    26  H   -0.000948  -0.000004   0.000002  -0.003215  -0.000009  -0.000045
    27  H    0.521881  -0.002244  -0.002586   0.000554  -0.001392   0.001981
    28  H    0.405212  -0.002620   0.002076  -0.001012  -0.010288  -0.003071
    29  H   -0.052802   0.000590   0.001042  -0.008625   0.002229  -0.003481
    30  H   -0.011244   0.000842  -0.000087   0.003906  -0.000311   0.000232
    31  H   -0.009055  -0.000507   0.000386  -0.010441   0.000058  -0.000449
              19         20         21         22         23         24
     1  C    0.000035  -0.000058  -0.071897  -0.025226   0.001405  -0.000347
     2  C   -0.000792   0.000407  -0.021756  -0.001651  -0.021918   0.006070
     3  C    0.004149   0.039608  -0.017103   0.000219   0.022433  -0.032253
     4  C   -0.000101   0.000395   0.004691   0.007332   0.001989   0.000801
     5  O   -0.072776  -0.036793   0.000119   0.000417   0.000870  -0.000687
     6  C    0.432854   0.482217  -0.002613  -0.000732  -0.010014   0.007226
     7  C   -0.000155   0.000965   0.465945   0.445223   0.001202   0.000306
     8  C    0.003285  -0.005966   0.001530   0.001151   0.475725   0.412934
     9  C    0.010555  -0.038731   0.000586   0.003822  -0.043795   0.014076
    10  C   -0.038789  -0.066065   0.001505  -0.000372  -0.052623  -0.016006
    11  O    0.000375  -0.000269  -0.031961  -0.073551  -0.000354   0.000142
    12  O    0.000754  -0.000325   0.007296   0.000067  -0.002269  -0.002704
    13  C    0.000636  -0.001356   0.031456  -0.010212   0.002449  -0.003778
    14  H    0.000006  -0.000016   0.004836  -0.008695  -0.000078   0.000002
    15  H   -0.000013   0.000038  -0.001284  -0.006767   0.000233  -0.000000
    16  H   -0.000783   0.001014   0.001763  -0.000335   0.005209  -0.005959
    17  H    0.000003  -0.000018  -0.000744   0.000906   0.000287  -0.000068
    18  H   -0.000007   0.000085  -0.001830  -0.002704   0.000135  -0.000095
    19  H    0.471186  -0.003995   0.000147  -0.000066  -0.001885   0.000933
    20  H   -0.003995   0.492300  -0.000101   0.000097  -0.004008  -0.000139
    21  H    0.000147  -0.000101   0.502932  -0.015744  -0.002596  -0.000128
    22  H   -0.000066   0.000097  -0.015744   0.484822   0.000462   0.000101
    23  H   -0.001885  -0.004008  -0.002596   0.000462   0.449080  -0.014022
    24  H    0.000933  -0.000139  -0.000128   0.000101  -0.014022   0.475985
    25  H   -0.002046   0.001580   0.000016   0.000002   0.002166  -0.005365
    26  H   -0.009422   0.004090   0.000092  -0.000023  -0.005446  -0.009526
    27  H    0.000021  -0.000006  -0.000989   0.000174   0.000155  -0.000106
    28  H   -0.000047   0.000044  -0.000807   0.001596  -0.000109   0.000053
    29  H   -0.000125  -0.000261   0.000138  -0.000637   0.000029  -0.000539
    30  H    0.000119   0.000986  -0.006009  -0.003689  -0.001313  -0.002781
    31  H    0.002081  -0.004410   0.001234   0.000648  -0.001345  -0.000467
              25         26         27         28         29         30
     1  C    0.000129  -0.000236  -0.010049  -0.008302   0.016456  -0.013629
     2  C   -0.005563  -0.000152  -0.150851   0.006887   0.476781   0.012676
     3  C   -0.026031  -0.008009   0.008302  -0.010041   0.022853   0.138501
     4  C    0.000351  -0.000164  -0.005527  -0.046998  -0.009484  -0.007882
     5  O   -0.004123   0.006896  -0.000051  -0.000002  -0.000715  -0.046692
     6  C   -0.075748  -0.045201   0.000202  -0.000125  -0.003242   0.018357
     7  C    0.000026  -0.000084   0.008429   0.014366  -0.027463   0.008678
     8  C   -0.003903  -0.039695  -0.001657   0.002289  -0.008164  -0.140248
     9  C    0.000802   0.006813  -0.000466   0.001538  -0.009036   0.333672
    10  C    0.488960   0.443568   0.000054  -0.000989   0.002564   0.013482
    11  O   -0.000253  -0.000144  -0.005711   0.007243  -0.057983  -0.005162
    12  O    0.000140  -0.003272   0.010087  -0.007418  -0.022459   0.006909
    13  C    0.000430  -0.000948   0.521881   0.405212  -0.052802  -0.011244
    14  H   -0.000002  -0.000004  -0.002244  -0.002620   0.000590   0.000842
    15  H    0.000004   0.000002  -0.002586   0.002076   0.001042  -0.000087
    16  H   -0.003694  -0.003215   0.000554  -0.001012  -0.008625   0.003906
    17  H    0.000021  -0.000009  -0.001392  -0.010288   0.002229  -0.000311
    18  H    0.000027  -0.000045   0.001981  -0.003071  -0.003481   0.000232
    19  H   -0.002046  -0.009422   0.000021  -0.000047  -0.000125   0.000119
    20  H    0.001580   0.004090  -0.000006   0.000044  -0.000261   0.000986
    21  H    0.000016   0.000092  -0.000989  -0.000807   0.000138  -0.006009
    22  H    0.000002  -0.000023   0.000174   0.001596  -0.000637  -0.003689
    23  H    0.002166  -0.005446   0.000155  -0.000109   0.000029  -0.001313
    24  H   -0.005365  -0.009526  -0.000106   0.000053  -0.000539  -0.002781
    25  H    0.471717  -0.006845   0.000014  -0.000086   0.000402  -0.000992
    26  H   -0.006845   0.489252  -0.000036   0.000070   0.000183  -0.001339
    27  H    0.000014  -0.000036   0.451930  -0.005743  -0.012708  -0.000690
    28  H   -0.000086   0.000070  -0.005743   0.479000  -0.009218   0.000120
    29  H    0.000402   0.000183  -0.012708  -0.009218   0.454192   0.002423
    30  H   -0.000992  -0.001339  -0.000690   0.000120   0.002423   0.502199
    31  H   -0.001334   0.002747  -0.000612   0.000770  -0.003280  -0.026761
              31
     1  C    0.000150
     2  C   -0.014784
     3  C   -0.094334
     4  C    0.000404
     5  O   -0.068106
     6  C   -0.009388
     7  C   -0.000927
     8  C    0.033038
     9  C    0.478483
    10  C    0.022989
    11  O   -0.011425
    12  O   -0.004691
    13  C   -0.009055
    14  H   -0.000507
    15  H    0.000386
    16  H   -0.010441
    17  H    0.000058
    18  H   -0.000449
    19  H    0.002081
    20  H   -0.004410
    21  H    0.001234
    22  H    0.000648
    23  H   -0.001345
    24  H   -0.000467
    25  H   -0.001334
    26  H    0.002747
    27  H   -0.000612
    28  H    0.000770
    29  H   -0.003280
    30  H   -0.026761
    31  H    0.486847
 Mulliken charges:
               1
     1  C   -0.423910
     2  C   -0.026350
     3  C   -0.243519
     4  C   -0.284374
     5  O   -0.349353
     6  C   -0.181618
     7  C   -0.106818
     8  C   -0.148672
     9  C   -0.294337
    10  C   -0.360533
    11  O   -0.274536
    12  O   -0.265814
    13  C   -0.504401
    14  H    0.165859
    15  H    0.172708
    16  H    0.258778
    17  H    0.181056
    18  H    0.173262
    19  H    0.203862
    20  H    0.138688
    21  H    0.151275
    22  H    0.203364
    23  H    0.197945
    24  H    0.176340
    25  H    0.169197
    26  H    0.180103
    27  H    0.197638
    28  H    0.185611
    29  H    0.250340
    30  H    0.225727
    31  H    0.232482
 Sum of Mulliken charges =  -0.00000
 Mulliken charges with hydrogens summed into heavy atoms:
               1
     1  C   -0.085343
     2  C    0.223990
     3  C    0.015259
     4  C    0.069944
     5  O   -0.349353
     6  C    0.160932
     7  C    0.247820
     8  C    0.225613
     9  C    0.163872
    10  C   -0.011233
    11  O   -0.274536
    12  O   -0.265814
    13  C   -0.121152
 Electronic spatial extent (au):  <R**2>=           3025.3305
 Charge=             -0.0000 electrons
 Dipole moment (field-independent basis, Debye):
    X=             -0.7536    Y=              1.6903    Z=              1.4418  Tot=              2.3460
 Quadrupole moment (field-independent basis, Debye-Ang):
   XX=            -73.5784   YY=            -83.7231   ZZ=            -77.6978
   XY=              3.7230   XZ=              4.0439   YZ=             -4.1851
 Traceless Quadrupole moment (field-independent basis, Debye-Ang):
   XX=              4.7547   YY=             -5.3900   ZZ=              0.6353
   XY=              3.7230   XZ=              4.0439   YZ=             -4.1851
 Octapole moment (field-independent basis, Debye-Ang**2):
  XXX=             -0.2772  YYY=              0.1296  ZZZ=             -3.9540  XYY=             -2.2706
  XXY=             14.1859  XXZ=             20.1969  XZZ=             -4.2515  YZZ=             -0.7195
  YYZ=              3.9183  XYZ=             -0.1099
 Hexadecapole moment (field-independent basis, Debye-Ang**3):
 XXXX=          -2973.2770 YYYY=           -559.7947 ZZZZ=           -362.1527 XXXY=             26.1389
 XXXZ=             48.9267 YYYX=             11.4874 YYYZ=             -9.5285 ZZZX=              2.5104
 ZZZY=              0.9688 XXYY=           -628.2647 XXZZ=           -581.1384 YYZZ=           -154.0845
 XXYZ=            -24.5442 YYXZ=              0.2010 ZZXY=              6.1470
 N-N= 8.965051111736D+02 E-N=-3.234866273771D+03  KE= 6.153415309519D+02
 D1PCM: PCM CHGder 1st derivatives, ID1Alg=3 FixD1E=F DoIter=F DoCFld=F I1PDM=0.
 Calling FoFJK, ICntrl=      2127 FMM=F ISym2X=0 I1Cent= 0 IOpClX= 0 NMat=1 NMatS=1 NMatT=0.
 ***** Axes restored to original set *****
 -------------------------------------------------------------------
 Center     Atomic                   Forces (Hartrees/Bohr)
 Number     Number              X              Y              Z
 -------------------------------------------------------------------
      1        6           0.002205845    0.001584284    0.000471221
      2        6          -0.002775988    0.003511151    0.004377154
      3        6          -0.002495442   -0.005610507    0.004980671
      4        6           0.001523346   -0.003263061   -0.001642300
      5        8           0.004337504   -0.004263879   -0.007583814
      6        6          -0.005030413    0.004296299   -0.002006629
      7        6          -0.002868200    0.005071200   -0.003134129
      8        6           0.002692702   -0.000196012   -0.004989338
      9        6           0.004226665    0.006133694    0.000989968
     10        6          -0.001892070   -0.001465691    0.001510078
     11        8           0.003407995   -0.009784010   -0.005926496
     12        8          -0.003107172    0.006303211    0.010671069
     13        6           0.000727840    0.000314113    0.002490638
     14        1          -0.001644709   -0.001598436   -0.002431336
     15        1          -0.001338758    0.000260041    0.002502563
     16        1           0.003137069    0.001799039   -0.005527778
     17        1          -0.002264815    0.001168211   -0.000350702
     18        1           0.002822849    0.001224265    0.001939422
     19        1           0.004180737   -0.000702044   -0.001088122
     20        1          -0.001433446   -0.001739059    0.005798537
     21        1           0.003575071    0.003378445    0.004141269
     22        1          -0.000764224   -0.004284330    0.000880952
     23        1          -0.001820130   -0.002210818    0.002933283
     24        1          -0.001110609    0.002788577   -0.000301853
     25        1           0.000828837    0.000924684   -0.002962222
     26        1           0.001350054    0.001473911    0.002258848
     27        1          -0.002026849   -0.001918638   -0.002016910
     28        1           0.000973379    0.002872168   -0.000738805
     29        1           0.002515095   -0.002197107   -0.007385026
     30        1          -0.003877952   -0.001445294    0.006023764
     31        1          -0.004054210   -0.002424407   -0.003883977
 -------------------------------------------------------------------
 Cartesian Forces:  Max     0.010671069 RMS     0.003509375

 GradGradGradGradGradGradGradGradGradGradGradGradGradGradGradGradGradGrad
 Berny optimization.
 FormGI is forming the generalized inverse of G from B-inverse, IUseBI=4.
 Internal  Forces:  Max     0.016435458 RMS     0.002271700
 Search for a local minimum.
 Step number   1 out of a maximum of  186
 All quantities printed in internal units (Hartrees-Bohrs-Radians)
 Mixed Optimization -- RFO/linear search
 Second derivative matrix not updated -- first step.
 ITU=  0
     Eigenvalues ---    0.00625   0.00657   0.00720   0.00724   0.01415
     Eigenvalues ---    0.01442   0.01708   0.02704   0.02802   0.03081
     Eigenvalues ---    0.03130   0.04095   0.04220   0.04648   0.04747
     Eigenvalues ---    0.04867   0.04890   0.05098   0.05141   0.05170
     Eigenvalues ---    0.05270   0.05689   0.05690   0.06066   0.06170
     Eigenvalues ---    0.06248   0.06545   0.07018   0.07596   0.07846
     Eigenvalues ---    0.07956   0.07956   0.07977   0.08088   0.08229
     Eigenvalues ---    0.08818   0.09238   0.09243   0.10777   0.11589
     Eigenvalues ---    0.11603   0.11689   0.11764   0.12401   0.12481
     Eigenvalues ---    0.14518   0.14706   0.16382   0.16479   0.17274
     Eigenvalues ---    0.19152   0.21227   0.21960   0.25000   0.28149
     Eigenvalues ---    0.28638   0.28790   0.28847   0.28939   0.29251
     Eigenvalues ---    0.30075   0.30298   0.35087   0.35096   0.35128
     Eigenvalues ---    0.35165   0.35182   0.35184   0.35204   0.35208
     Eigenvalues ---    0.35241   0.35303   0.35318   0.35328   0.35435
     Eigenvalues ---    0.35440   0.35827   0.35852   0.35882   0.36105
     Eigenvalues ---    0.40851   0.41523   0.42123   0.42863   0.43556
     Eigenvalues ---    0.458231000.000001000.000001000.000001000.00000
     Eigenvalues --- 1000.000001000.000001000.000001000.000001000.00000
     Eigenvalues --- 1000.000001000.000001000.000001000.000001000.00000
     Eigenvalues --- 1000.000001000.000001000.000001000.000001000.00000
     Eigenvalues --- 1000.000001000.000001000.000001000.000001000.00000
     Eigenvalues --- 1000.000001000.000001000.000001000.000001000.00000
     Eigenvalues --- 1000.000001000.000001000.000001000.000001000.00000
     Eigenvalues --- 1000.000001000.000001000.000001000.000001000.00000
     Eigenvalues --- 1000.000001000.000001000.000001000.000001000.00000
     Eigenvalues --- 1000.000001000.000001000.000001000.000001000.00000
     Eigenvalues --- 1000.000001000.000001000.000001000.000001000.00000
     Eigenvalues --- 1000.000001000.000001000.000001000.000001000.00000
     Eigenvalues --- 1000.000001000.000001000.000001000.000001000.00000
     Eigenvalues --- 1000.000001000.000001000.000001000.000001000.00000
     Eigenvalues --- 1000.000001000.000001000.000001000.000001000.00000
     Eigenvalues --- 1000.000001000.000001000.000001000.000001000.00000
     Eigenvalues --- 1000.000001000.000001000.000001000.000001000.00000
     Eigenvalues --- 1000.000001000.000001000.000001000.000001000.00000
     Eigenvalues --- 1000.000001000.000001000.000001000.000001000.00000
     Eigenvalues --- 1000.000001000.000001000.000001000.000001000.00000
 RFO step:  Lambda=-4.49905584D-03 EMin= 6.25140585D-03
 Linear search not attempted -- first point.
 Iteration  1 RMS(Cart)=  0.09688043 RMS(Int)=  0.00204769
 Iteration  2 RMS(Cart)=  0.00583836 RMS(Int)=  0.00005753
 Iteration  3 RMS(Cart)=  0.00000849 RMS(Int)=  0.00005735
 Iteration  4 RMS(Cart)=  0.00000000 RMS(Int)=  0.00005735
 Iteration  1 RMS(Cart)=  0.00001759 RMS(Int)=  0.00000414
 Iteration  2 RMS(Cart)=  0.00000974 RMS(Int)=  0.00000462
 Iteration  3 RMS(Cart)=  0.00000539 RMS(Int)=  0.00000523
 Iteration  4 RMS(Cart)=  0.00000299 RMS(Int)=  0.00000563
 Iteration  5 RMS(Cart)=  0.00000165 RMS(Int)=  0.00000588
 Iteration  6 RMS(Cart)=  0.00000092 RMS(Int)=  0.00000601
 Variable       Old X    -DE/DX   Delta X   Delta X   Delta X     New X
                                 (Linear)    (Quad)   (Total)
    R1        2.88869  -0.00066   0.00000  -0.00165  -0.00167   2.88702
    R2        2.87160   0.00034   0.00000   0.00141   0.00143   2.87303
    R3        2.05519   0.00327   0.00000   0.00920   0.00920   2.06439
    R4        2.05285   0.00283   0.00000   0.00793   0.00793   2.06078
    R5        2.65160   0.00367   0.00000   0.00769   0.00771   2.65931
    R6        2.64332   0.00271   0.00000   0.00585   0.00585   2.64917
    R7        2.87603  -0.00074   0.00000  -0.00274  -0.00276   2.87328
    R8        2.04266   0.00806   0.00000   0.02217   0.02217   2.06483
    R9        2.87808  -0.00257   0.00000  -0.00834  -0.00836   2.86971
   R10        2.89268  -0.00113   0.00000  -0.00299  -0.00299   2.88969
   R11        2.67839   0.00020   0.00000   0.00047   0.00047   2.67886
   R12        2.05380   0.00634   0.00000   0.01779   0.01779   2.07159
   R13        2.89012  -0.00137   0.00000  -0.00453  -0.00454   2.88558
   R14        2.05161   0.00257   0.00000   0.00718   0.00718   2.05880
   R15        2.05377   0.00344   0.00000   0.00966   0.00966   2.06343
   R16        2.67521   0.00354   0.00000   0.00811   0.00814   2.68335
   R17        2.66841   0.00383   0.00000   0.00844   0.00847   2.67688
   R18        2.87056   0.00104   0.00000   0.00261   0.00262   2.87318
   R19        2.04353   0.00438   0.00000   0.01206   0.01206   2.05560
   R20        2.05534   0.00610   0.00000   0.01716   0.01716   2.07250
   R21        2.68637   0.00287   0.00000   0.00666   0.00667   2.69304
   R22        2.04975   0.00635   0.00000   0.01770   0.01770   2.06745
   R23        2.04314   0.00444   0.00000   0.01223   0.01223   2.05536
   R24        2.89022  -0.00080   0.00000  -0.00242  -0.00245   2.88777
   R25        2.05467   0.00392   0.00000   0.01103   0.01103   2.06570
   R26        2.05146   0.00296   0.00000   0.00827   0.00827   2.05973
   R27        2.05339   0.00683   0.00000   0.01916   0.01916   2.07254
   R28        2.03918   0.00589   0.00000   0.01610   0.01610   2.05528
   R29        2.05408   0.00314   0.00000   0.00883   0.00883   2.06291
   R30        2.05185   0.00299   0.00000   0.00836   0.00836   2.06022
   R31        2.05345   0.00339   0.00000   0.00951   0.00951   2.06296
   R32        2.04967   0.00310   0.00000   0.00864   0.00864   2.05831
    A1        1.92263  -0.00097   0.00000  -0.00425  -0.00446   1.91817
    A2        1.91607   0.00087   0.00000   0.00134   0.00142   1.91749
    A3        1.93938  -0.00049   0.00000  -0.00184  -0.00181   1.93757
    A4        1.90600   0.00010   0.00000  -0.00123  -0.00117   1.90483
    A5        1.90294   0.00053   0.00000   0.00304   0.00309   1.90603
    A6        1.87597  -0.00001   0.00000   0.00314   0.00311   1.87908
    A7        1.94454  -0.00033   0.00000  -0.00587  -0.00573   1.93881
    A8        1.93878   0.00366   0.00000   0.01504   0.01486   1.95364
    A9        1.83802  -0.00257   0.00000  -0.01522  -0.01525   1.82277
   A10        1.89938  -0.00256   0.00000  -0.01132  -0.01123   1.88815
   A11        1.91318   0.00165   0.00000   0.01130   0.01127   1.92445
   A12        1.92959   0.00023   0.00000   0.00653   0.00659   1.93618
   A13        1.90411   0.00148   0.00000   0.00025   0.00022   1.90433
   A14        1.86739   0.00054   0.00000   0.00547   0.00537   1.87277
   A15        1.92497  -0.00090   0.00000  -0.00056  -0.00063   1.92434
   A16        1.98212  -0.00248   0.00000  -0.02200  -0.02195   1.96017
   A17        1.89139   0.00003   0.00000  -0.00128  -0.00122   1.89017
   A18        1.89385   0.00131   0.00000   0.01844   0.01840   1.91225
   A19        1.91294   0.00203   0.00000  -0.00077  -0.00076   1.91217
   A20        1.93072  -0.00024   0.00000   0.00187   0.00193   1.93265
   A21        1.91443  -0.00095   0.00000  -0.00211  -0.00220   1.91224
   A22        1.91631  -0.00061   0.00000   0.00150   0.00149   1.91780
   A23        1.92221  -0.00095   0.00000  -0.00614  -0.00614   1.91608
   A24        1.86685   0.00066   0.00000   0.00570   0.00570   1.87255
   A25        1.98435  -0.00416   0.00000  -0.02784  -0.02773   1.95662
   A26        1.93121   0.00186   0.00000   0.01066   0.01068   1.94189
   A27        1.85629  -0.00127   0.00000  -0.00408  -0.00407   1.85222
   A28        1.90235   0.00079   0.00000   0.00633   0.00637   1.90871
   A29        1.94763  -0.00039   0.00000  -0.00319  -0.00321   1.94441
   A30        1.93187  -0.00154   0.00000  -0.01043  -0.01046   1.92141
   A31        1.89226   0.00058   0.00000   0.00109   0.00105   1.89331
   A32        1.94523   0.00217   0.00000   0.00557   0.00555   1.95078
   A33        1.93147  -0.00148   0.00000  -0.00624  -0.00629   1.92519
   A34        1.94611  -0.00020   0.00000  -0.00170  -0.00164   1.94447
   A35        1.90910   0.00010   0.00000   0.00077   0.00082   1.90992
   A36        1.84175  -0.00127   0.00000  -0.00220  -0.00222   1.83953
   A37        1.88719   0.00069   0.00000   0.00406   0.00406   1.89124
   A38        1.92952   0.00067   0.00000  -0.00511  -0.00517   1.92436
   A39        1.89114  -0.00107   0.00000  -0.00816  -0.00815   1.88299
   A40        1.91657  -0.00031   0.00000  -0.00162  -0.00159   1.91498
   A41        1.91709  -0.00013   0.00000   0.00356   0.00352   1.92060
   A42        1.93186   0.00048   0.00000   0.00710   0.00711   1.93897
   A43        1.87646   0.00030   0.00000   0.00418   0.00413   1.88060
   A44        1.91230   0.00078   0.00000   0.00889   0.00895   1.92125
   A45        1.92573  -0.00275   0.00000  -0.01945  -0.01960   1.90613
   A46        1.95720  -0.00045   0.00000  -0.00956  -0.00970   1.94749
   A47        1.91592   0.00227   0.00000   0.01735   0.01742   1.93334
   A48        1.85205  -0.00007   0.00000   0.00976   0.00977   1.86182
   A49        1.89912   0.00041   0.00000  -0.00521  -0.00554   1.89358
   A50        1.92402  -0.00101   0.00000  -0.00540  -0.00544   1.91858
   A51        1.90512  -0.00024   0.00000  -0.00230  -0.00230   1.90282
   A52        1.91158   0.00086   0.00000   0.00443   0.00444   1.91602
   A53        1.92012   0.00092   0.00000   0.00159   0.00160   1.92172
   A54        1.92689  -0.00046   0.00000  -0.00096  -0.00094   1.92595
   A55        1.87537  -0.00004   0.00000   0.00286   0.00285   1.87822
   A56        2.02360  -0.00573   0.00000  -0.03614  -0.03602   1.98758
   A57        2.07666  -0.01644   0.00000  -0.06458  -0.06458   2.01208
   A58        1.95335  -0.00198   0.00000  -0.01639  -0.01648   1.93687
   A59        1.87363   0.00018   0.00000   0.00458   0.00456   1.87819
   A60        1.90021   0.00091   0.00000   0.00018   0.00019   1.90040
   A61        1.90958   0.00125   0.00000   0.00696   0.00704   1.91662
   A62        1.94761  -0.00022   0.00000  -0.00108  -0.00118   1.94643
   A63        1.87642  -0.00006   0.00000   0.00688   0.00685   1.88327
    D1        0.92224  -0.00003   0.00000   0.00840   0.00841   0.93065
    D2        3.03773   0.00038   0.00000   0.01098   0.01102   3.04874
    D3       -1.19019   0.00046   0.00000   0.01780   0.01783  -1.17236
    D4       -1.17730  -0.00009   0.00000   0.01177   0.01177  -1.16553
    D5        0.93819   0.00032   0.00000   0.01435   0.01437   0.95256
    D6        2.99345   0.00040   0.00000   0.02116   0.02118   3.01464
    D7        3.03305  -0.00034   0.00000   0.00816   0.00813   3.04118
[...]
 1319,0.00000315,-0.00000027,0.00000173,0.00000299,-0.00000019,-0.00000
 260,0.00010729,0.00027505,0.00037612,0.00000523,-0.00000110,-0.0000032
 3,-0.00000140,0.00000261,0.00000191,-0.00031546,0.00045170,0.00040794,
 -0.00031556,-0.00018770,0.00116788,0.00000183,0.00000187,0.00000876,0.
 00000412,0.00000455,-0.00000281,0.00049573,-0.00035245,0.00115352,0.00
 024880,-0.00023172,0.00027314,-0.08720908,-0.09642704,0.25510076,0.000
 00944,0.00001250,0.00001798,0.00018632,0.00096727,0.00059740,-0.003262
 06,0.00355614,0.00385279,-0.00000310,0.00001449,-0.00004064,0.00158627
 ,0.00168429,0.00041994,0.00143865,0.00061532,0.00441489,0.00010347,0.0
 0001629,-0.00015184,-0.01773091,-0.01421403,-0.02585149,-0.00027469,0.
 00082132,0.00013247,-0.11401502,-0.05327583,-0.10368208,-0.00023490,-0
 .00040549,0.00013393,-0.00271998,-0.00160101,-0.00190699,-0.00012275,-
 0.00021202,-0.00014671,-0.00000752,-0.00000176,-0.00000703,-0.00001513
 ,-0.00000156,0.00001317,0.00011135,0.00009516,-0.00023112,-0.00002614,
 0.00000426,0.00002027,0.00000778,-0.00001271,-0.00000458,-0.00007525,-
 0.00069730,0.00000531,0.00022528,-0.00023982,-0.00002897,-0.00000367,0
 .00001484,-0.00000570,-0.00001770,-0.00001854,0.00001749,0.00137179,-0
 .00040747,0.00034851,0.00143631,0.00033529,0.00002439,0.00585337,0.005
 61390,0.00852266,0.12605310,-0.00000318,-0.00000345,0.00000448,0.00013
 284,-0.00019269,-0.00009427,0.00160248,-0.00012850,-0.00047042,-0.0000
 0612,-0.00000189,0.00000321,-0.00151985,-0.00968732,-0.00259111,-0.017
 83248,-0.00685972,-0.02521873,0.00000688,0.00000892,-0.00002357,0.0039
 3291,0.00332650,0.00748299,0.00231366,-0.00021188,-0.00006036,-0.05316
 229,-0.09079916,-0.07925915,-0.00007764,0.00007925,0.00000537,0.000685
 80,0.00062646,0.00036168,0.00003100,0.00004015,0.00004015,-0.00000107,
 0.00000086,-0.00000006,-0.00000228,0.00000246,0.00000048,-0.00009925,-
 0.00015963,-0.00022581,0.00000059,0.00000044,-0.00000139,-0.00000038,0
 .00000146,-0.00000016,0.00073423,0.00096033,0.00007946,-0.00027150,0.0
 0116209,0.00087843,0.00000671,-0.00000482,-0.00000197,0.00000066,-0.00
 000036,0.00000081,-0.00042393,0.00014651,-0.00022763,-0.00062110,0.000
 27448,0.00036016,0.00753155,0.00531258,0.00980279,0.05755120,0.0959123
 1,0.00000088,0.00000080,0.00000409,0.00020365,0.00009354,0.00015014,0.
 00114169,-0.00014260,0.00085261,-0.00000147,0.00000141,-0.00000534,-0.
 00032263,-0.00088491,0.00140597,0.00086597,0.00148849,-0.00113415,0.00
 002500,0.00000678,-0.00003448,0.00340973,0.00285711,0.00370975,0.00045
 752,0.00020326,-0.00014320,-0.10519344,-0.08120364,-0.20657396,-0.0000
 7192,-0.00005432,0.00001190,-0.00011517,-0.00013001,0.00006650,0.00000
 698,-0.00001150,-0.00000286,-0.00000189,-0.00000005,-0.00000116,-0.000
 00334,0.00000067,0.00000245,0.00010186,0.00017249,0.00032255,-0.000004
 90,0.00000052,0.00000171,0.00000160,-0.00000216,-0.00000271,0.00010533
 ,-0.00028415,0.00007593,0.00014138,-0.00049740,0.00028326,0.00000357,0
 .00000136,-0.00000382,-0.00000318,-0.00000400,0.00000278,-0.00045585,0
 .00021615,0.00060682,-0.00047062,0.00016271,-0.00002373,-0.01327617,-0
 .01097778,-0.01992141,0.11358246,0.08903253,0.22040576,0.00053481,0.00
 056765,-0.00037276,-0.01545230,-0.01581431,-0.01866614,0.00125798,-0.0
 0018208,-0.00184048,0.00972957,0.00701819,0.01138478,-0.00031743,0.000
 27785,-0.00001963,0.00007244,-0.00001979,0.00012079,-0.00017338,0.0000
 5851,0.00002411,-0.00060748,0.00024433,0.00029068,-0.00013212,-0.00038
 541,0.00004579,-0.00000209,-0.00016636,-0.00022900,0.00180768,-0.00019
 745,0.00109553,-0.00882441,0.00291036,-0.00029098,-0.14839119,-0.06823
 946,-0.10643228,-0.00019863,-0.00000522,-0.00031950,-0.00007537,0.0001
 7965,-0.00016403,-0.00013412,-0.00001918,0.00017283,0.00085172,0.00017
 013,-0.00082792,-0.00056138,-0.00033077,0.00343420,-0.00002410,0.00001
 619,-0.00000779,0.00000659,0.00000217,-0.00002355,-0.00002327,-0.00004
 516,0.00007024,0.00005010,0.00001333,-0.00001626,0.00002150,0.00001716
 ,-0.00000244,0.00002234,-0.00003046,0.00000019,-0.00001433,0.00000195,
 0.00001687,-0.00011475,0.00001867,-0.00000736,0.16374263,0.00056979,0.
 00056986,0.00077191,0.01017741,0.00597835,0.01249508,0.00018989,0.0004
 5280,0.00060974,-0.00011444,-0.00140399,-0.00121686,0.00004113,-0.0000
 4367,0.00000118,-0.00001534,0.00001765,-0.00001868,0.00020699,0.000025
 38,0.00002651,0.00026068,-0.00008791,-0.00011842,-0.00005879,0.0000889
 7,0.00000275,0.00001832,0.00006353,0.00008562,-0.00013133,0.00064731,-
 0.00056544,0.00382961,-0.00056178,0.00014341,-0.07279614,-0.10055464,-
 0.07513279,-0.00014846,0.00029206,-0.00002392,0.00006557,0.00004931,-0
 .00005264,0.00004899,-0.00000548,-0.00001503,0.00000867,0.00004246,-0.
 00015728,0.00048182,0.00104974,-0.00013938,0.00000393,-0.00000593,-0.0
 0000085,-0.00000181,-0.00000157,0.00000441,-0.00002704,-0.00001065,-0.
 00005519,-0.00003048,0.00001630,0.00000330,-0.00000563,-0.00000820,0.0
 0000042,-0.00000377,0.00001213,-0.00000173,0.00000200,-0.00000009,-0.0
 0000491,0.00004150,-0.00000890,0.00000283,0.07611583,0.10434325,-0.000
 99626,-0.00085640,0.00114233,0.00020447,-0.00058875,-0.00198042,0.0002
 0951,-0.00015366,0.00013776,-0.01817080,-0.01361358,-0.02215994,-0.000
 01558,0.00000689,-0.00000667,0.00000360,0.00000006,0.00000793,0.000167
 61,0.00008793,-0.00033065,0.00001388,0.00001392,0.00001675,0.00003239,
 -0.00000447,0.00001228,0.00000711,-0.00000089,-0.00001629,0.00027664,0
 .00032272,0.00042801,0.00044442,-0.00011478,0.00153424,-0.10775361,-0.
 07350136,-0.15931214,0.00031315,0.00078048,-0.00001051,0.00038845,0.00
 000191,0.00033883,-0.00005826,0.00001968,-0.00002704,0.00004332,0.0000
 2162,0.00150451,0.00307385,0.00039728,-0.00485411,-0.00000232,0.000000
 74,-0.00000069,0.00000066,-0.00000026,-0.00000121,0.00008801,-0.000061
 13,0.00003972,-0.00008023,0.00006055,0.00001922,0.00000268,-0.00000217
 ,-0.00000920,0.00000025,-0.00000258,-0.00000193,0.00000177,-0.00000055
 ,0.00000101,-0.00000389,0.00000189,0.00000097,0.11469443,0.08309518,0.
 17586698,-0.00068559,0.00088483,0.00338539,0.00693589,0.02417093,-0.00
 999719,0.00012746,-0.00013702,0.00022089,-0.00312692,-0.01376201,0.003
 01735,-0.00004546,-0.00005489,-0.00001876,0.00000068,0.00001255,0.0000
 1762,-0.00107679,0.00005727,0.00161033,0.00003739,-0.00002919,-0.00001
 911,0.00010196,0.00003931,0.00001920,0.00000325,0.00000961,0.00000996,
 -0.00433479,0.00701212,-0.00234696,0.00131270,0.00029115,0.00030911,-0
 .06008391,-0.05260335,0.01752420,0.00007124,0.00045975,-0.00014999,0.0
 0024789,-0.00103605,0.00060968,-0.00002549,-0.00001943,0.00003219,0.00
 009230,-0.00010199,-0.00066727,0.00058194,0.00048128,-0.00027536,-0.00
 000413,-0.00000272,-0.00000314,0.00000161,-0.00000076,-0.00000099,0.00
 007860,-0.00005082,-0.00017613,0.00020038,-0.00005295,-0.00020701,-0.0
 0000253,-0.00000101,0.00000375,-0.00000313,-0.00000185,-0.00000380,-0.
 00000014,0.00000076,-0.00000075,0.00000577,-0.00000283,-0.00000199,-0.
 00368345,-0.01809172,0.00715891,0.06252323,0.00019671,0.00128307,-0.00
 040224,-0.00758782,-0.01591829,0.00505837,0.00027087,0.00031554,-0.000
 17191,0.00048431,0.00366062,-0.00109885,0.00006734,0.00008619,0.000026
 33,0.00000078,-0.00001659,-0.00002348,0.00030868,0.00030145,-0.0016359
 9,0.00003072,-0.00000327,-0.00001232,-0.00019402,-0.00008465,0.0000174
 9,0.00000479,0.00000269,0.00001538,0.00408900,-0.00351888,0.00138210,-
 0.00119380,0.00171086,-0.00069243,-0.04785163,-0.28042731,0.07985395,0
 .00004008,0.00014161,-0.00008845,0.00014306,0.00002160,-0.00014056,0.0
 0002158,-0.00003976,0.00003403,-0.00033454,0.00024368,0.00050232,-0.00
 014576,0.00036889,0.00049064,0.00000660,0.00000264,0.00000481,-0.00000
 267,0.00000075,0.00000286,-0.00001029,0.00003559,0.00020871,-0.0000704
 6,-0.00004202,0.00014099,0.00000164,-0.00000088,-0.00000078,0.00000662
 ,0.00000697,0.00000312,-0.00000038,0.00000110,-0.00000181,0.00000557,0
 .00000096,0.00000159,-0.00188254,-0.01150588,0.00358224,0.05335697,0.3
 0297110,0.00278477,-0.00204242,-0.00540232,-0.00087464,0.00080304,-0.0
 0204574,-0.00011949,-0.00009075,0.00007185,0.00507868,0.02886655,-0.00
 931722,0.00000821,-0.00002985,-0.00000131,-0.00000124,0.00000276,-0.00
 000004,0.00070137,-0.00053589,-0.00005151,0.00000408,0.00000752,-0.000
 00793,0.00005387,0.00003027,-0.00002300,0.00000177,0.00000125,0.000001
 98,0.00020228,-0.00040477,0.00164127,0.00003812,-0.00005536,0.00031561
 ,0.01667808,0.07815742,-0.07420428,0.00014787,0.00015497,0.00013053,0.
 00014105,0.00181241,-0.00058998,-0.00001058,0.00001345,-0.00003891,-0.
 00015821,-0.00044864,0.00123768,-0.00085170,-0.00010949,0.00116232,0.0
 0000014,-0.00000164,-0.00000039,0.00000037,-0.00000045,0.00000119,-0.0
 0008498,0.00000615,0.00004191,-0.00010927,0.00005946,0.00012846,-0.000
 00024,0.00000107,-0.00000266,-0.00000124,-0.00000326,0.00000118,0.0000
 0160,0.00000075,-0.00000054,0.00000268,-0.00000038,-0.00000015,-0.0026
 4767,-0.01959162,0.00719548,-0.02055058,-0.08672998,0.07978110,0.00037
 107,0.00024338,-0.00032488,-0.09212955,0.01654636,0.09252011,0.0036835
 6,0.00010919,-0.00345301,-0.00347291,0.00340680,-0.00231469,0.00009672
 ,0.00003371,0.00007118,-0.00004349,-0.00000915,-0.00003839,0.00138027,
 -0.00058349,-0.00100424,-0.00026847,-0.00005177,-0.00001266,-0.0005938
 8,0.00021506,-0.00037630,-0.00000215,-0.00003124,0.00008324,-0.0001008
 3,-0.00308251,0.00697998,0.00129707,-0.01041237,-0.02946402,-0.0099560
 1,0.00400544,0.02513934,-0.00006300,-0.00011121,-0.00004838,0.00000356
 ,-0.00010788,0.00004934,0.00051961,-0.00026427,0.00108834,-0.00078344,
 -0.00000990,0.00153448,0.00009164,0.00010450,0.00016028,0.00000603,0.0
 0001005,0.00000267,0.00000233,-0.00000004,0.00000762,-0.00012660,-0.00
 003251,0.00029209,-0.00004787,-0.00006751,0.00026127,-0.00010711,-0.00
 005458,0.00019607,0.00003485,0.00004414,0.00000231,-0.00004559,0.00000
 679,0.00000637,0.00000443,0.00000083,-0.00000041,0.00063799,-0.0006341
 6,-0.00004887,0.00070980,0.00027401,-0.00044052,0.09911568,0.00000890,
 -0.00040210,0.00047109,0.01917162,-0.05228445,-0.03815370,0.00310465,-
 0.00018959,-0.00043432,0.00272793,-0.00143277,0.00138950,-0.00024326,0
 .00019083,-0.00007892,0.00003679,0.00000842,0.00008642,0.00082055,-0.0
 0509962,-0.00061972,-0.00020473,-0.00002369,0.00017251,0.00000560,-0.0
 0023519,0.00042524,-0.00000443,-0.00007292,-0.00003191,-0.01707725,-0.
 00765581,0.04062016,-0.00377205,-0.00414464,-0.02341578,0.00713116,0.0
 0016752,-0.01591751,-0.00005060,0.00008057,-0.00006138,-0.00023056,0.0
 0028378,-0.00008824,-0.00037365,-0.00013418,0.00070785,0.00050930,0.00
 006042,-0.00104673,-0.00020099,-0.00002818,0.00009529,-0.00001686,0.00
 000906,-0.00000584,0.00000218,-0.00000105,-0.00001699,-0.00001359,0.00
 000022,0.00048078,-0.00065852,-0.00014028,0.00153059,0.00001226,0.0000
 1032,0.00011083,0.00002527,-0.00000592,-0.00000684,-0.00003468,0.00000
 653,0.00000529,-0.00004267,0.00000431,-0.00000961,-0.00034489,0.000580
 19,0.00051021,-0.00080700,0.00036175,0.00013786,-0.00982551,0.07043808
 ,-0.00010775,0.00008390,-0.00023431,0.08572369,-0.02985551,-0.26079636
 ,0.00325211,-0.00086990,0.00085635,-0.00074213,0.00047325,0.00092715,-
 0.00004305,0.00032034,0.00026935,0.00007947,-0.00007196,-0.00000604,-0
 .00075836,0.00250688,0.00336329,-0.00040087,0.00011816,0.00049782,-0.0
 0034880,-0.00034636,-0.00037303,-0.00004403,-0.00012060,-0.00009623,0.
 00931302,0.00763136,-0.01704565,-0.00474945,-0.01243082,-0.02477247,-0
 .00040142,-0.00042632,0.00377035,0.00003422,-0.00001331,0.00002058,0.0
 0009310,-0.00013681,-0.00002728,-0.00141840,-0.00004819,0.00004266,-0.
 00017409,0.00002782,0.00009863,-0.00005973,0.00006534,0.00008628,0.000
 01208,0.00003053,0.00001916,0.00000299,0.00000418,-0.00000472,-0.00010
 003,-0.00015931,-0.00000335,0.00037677,0.00002236,-0.00079781,0.000162
 57,0.00008015,0.00014858,0.00005342,0.00005283,0.00003247,-0.00002709,
 0.00000521,-0.00000217,-0.00006044,0.00001986,-0.00001343,0.00052720,-
 0.00014990,0.00046777,0.00051958,-0.00034223,-0.00002391,-0.09059241,0
 .03289853,0.29338703,-0.00004218,0.00007848,0.00008492,-0.00011673,0.0
 0043998,-0.00052220,0.00327713,0.00253050,-0.00597568,0.00000434,0.000
 02481,-0.00001723,-0.03148454,-0.01087242,0.03155444,0.00309079,0.0009
 6037,0.00624539,-0.00055992,-0.00014229,-0.00034974,-0.00017376,-0.000
 43849,0.00012550,-0.06214357,-0.02548410,0.05101861,-0.00038301,-0.000
 12680,-0.00068015,-0.00093350,-0.00039239,-0.00036585,0.00143726,-0.00
 127854,0.00021741,-0.00002591,-0.00005295,0.00010712,0.00004012,-0.000
 02034,0.00001537,0.00001169,-0.00000552,-0.00000904,-0.00007323,0.0018
 3170,0.00021036,-0.00000439,-0.00002023,0.00001402,-0.00000365,0.00000
 109,0.00000274,0.00014705,0.00025106,-0.00037503,0.00043612,0.00033969
 ,-0.00134119,-0.00004977,0.00018487,0.00024427,0.00006739,-0.00005806,
 0.00002966,-0.00002518,-0.00021669,0.00013264,-0.00004641,-0.00001241,
 -0.00002040,-0.00000097,0.00013020,-0.00001842,0.00010157,-0.00025745,
 -0.00010082,-0.00000336,-0.00000457,0.00000010,0.00001916,-0.00000055,
 0.00000055,0.00003925,-0.00000484,0.00010635,0.08253633,-0.00005316,-0
 .00007721,-0.00008102,0.00001269,-0.00051461,0.00002300,-0.00938332,-0
 .01510357,0.03166793,-0.00001234,-0.00001444,0.00000275,0.00282550,0.0
 0598769,-0.00664755,-0.00082478,-0.00029134,-0.00011162,0.00025958,0.0
 0021010,0.00016945,0.00007103,0.00173780,0.00153240,-0.02577538,-0.089
 28434,0.08334180,-0.00002509,-0.00018257,0.00000022,0.00019171,0.00011
 797,-0.00034131,0.00021833,0.00273225,-0.00171050,0.00002400,0.0000441
 5,0.00008835,-0.00004352,0.00002204,-0.00000398,0.00000118,0.00000129,
 0.00000604,0.00110101,-0.00599383,-0.00001329,-0.00000233,0.00000872,-
 0.00000230,0.00000084,-0.00000049,0.00000498,0.00000976,-0.00002678,-0
 .00013648,-0.00039597,-0.00023129,0.00011796,0.00011706,-0.00007194,-0
 .00020054,0.00001447,-0.00006209,-0.00000151,0.00001913,-0.00024061,-0
 .00088139,0.00033452,0.00033857,-0.00037462,0.00009964,0.00003493,-0.0
 0002453,-0.00008220,0.00006562,-0.00000977,0.00002039,-0.00001003,0.00
 000383,-0.00000648,0.00000486,-0.00000047,-0.00009817,-0.00005591,0.00
 001156,0.02731514,0.09374264,0.00006229,0.00004277,0.00003835,0.000301
 99,0.00104144,-0.00072290,0.00143842,-0.00004395,-0.00341870,-0.000021
 39,0.00006115,-0.00001454,0.01012805,-0.00047495,-0.00144281,-0.002103
 91,-0.00134210,0.00207532,-0.00033576,-0.00010624,0.00049065,-0.000147
 33,-0.00077609,0.00072160,0.05353166,0.08370205,-0.24475772,0.00014240
 ,-0.00013383,0.00003542,0.00127021,-0.00060824,0.00043465,-0.00172452,
 0.00012840,0.00043841,-0.00005107,-0.00015273,0.00010515,0.00004278,-0
 .00003042,0.00000327,0.00001019,-0.00001973,-0.00001207,0.00002809,0.0
 0050094,0.00100766,-0.00000324,-0.00001532,0.00002232,-0.00000286,-0.0
 0000401,-0.00000642,0.00011671,-0.00007359,0.00042153,0.00110422,0.000
 75701,0.00076743,-0.00014381,0.00004876,0.00010378,-0.00006566,0.00006
 781,-0.00002397,0.00035182,0.00013622,0.00052688,-0.00013206,0.0000567
 4,0.00017734,-0.00008954,0.00007266,-0.00022390,0.00007069,0.00006821,
 0.00000455,-0.00002999,0.00000544,-0.00000080,0.00002470,-0.00003746,0
 .00000521,-0.00003530,-0.00003231,0.00018112,-0.06913102,-0.09243288,0
 .26216524,-0.00006891,-0.00001222,-0.00001346,-0.00057311,0.00113753,0
 .00027425,0.00522409,0.00222051,0.00635841,0.00003012,-0.00004266,0.00
 005869,-0.03042625,-0.01702616,-0.02906199,-0.00409230,0.00220728,0.00
 424276,-0.00034121,-0.00008793,0.00031976,-0.00028593,0.00255941,-0.00
 002694,-0.09338144,-0.05694775,-0.08453713,-0.00057047,0.00000813,-0.0
 0044635,-0.00313474,0.00049258,0.00094952,0.00050219,-0.00151559,-0.00
 025908,-0.00001931,-0.00009589,-0.00018037,0.00000192,-0.00000244,0.00
 000147,0.00001983,0.00000127,-0.00000551,0.00019368,-0.00045118,-0.000
 26714,0.00002216,-0.00000820,-0.00002434,-0.00000114,0.00000148,0.0000
 0001,-0.00108594,-0.00084082,-0.00120576,0.00013987,0.00012922,-0.0002
 8039,-0.00000579,0.00000038,-0.00010659,0.00000060,0.00001329,-0.00002
 199,-0.00007592,-0.00008419,-0.00024129,0.00051157,0.00053370,0.000377
 89,0.00005371,-0.00003620,0.00003102,0.00012867,-0.00026865,-0.0000164
 5,-0.00000220,0.00000154,0.00000461,0.00002106,-0.00003485,0.00000490,
 -0.00025294,0.00034986,-0.00022852,0.00486186,0.00406677,0.00539321,0.
 12260630,-0.00004738,-0.00000844,0.00012040,0.00068168,-0.00124046,-0.
 00123110,-0.01564696,-0.01513261,-0.02607176,-0.00010918,0.00003956,-0
 .00005537,0.00341616,0.00548575,0.00651527,0.00198613,0.00034091,0.000
 33567,-0.00012491,0.00013750,-0.00033881,0.00261139,-0.00575094,0.0020
 5719,-0.06225941,-0.12292576,-0.10473392,0.00063398,0.00017775,0.00014
 999,-0.00029930,0.00073924,0.00076784,0.00067569,0.00149437,0.00130605
 ,0.00008054,0.00001853,0.00039431,-0.00000914,-0.00000326,-0.00001047,
 -0.00004923,0.00001996,0.00001906,-0.00005112,0.00163073,0.00050002,-0
 .00002868,0.00001123,0.00004477,0.00000536,0.00000563,0.00001316,0.000
 37505,0.00033081,0.00014769,-0.00005656,-0.00005620,-0.00026267,0.0000
 0293,-0.00000059,0.00001438,-0.00001686,-0.00002728,0.00004793,0.00012
 435,0.00012489,-0.00004448,-0.00107522,-0.00104561,-0.00145946,-0.0001
 0715,0.00003985,0.00004459,-0.00013693,0.00013262,-0.00003036,0.000030
 71,-0.00002058,-0.00000655,-0.00001448,0.00003560,-0.00000997,0.000376
 00,-0.00029570,0.00061894,0.00530076,0.00711240,0.00959426,0.06373180,
 0.12863011,-0.00003911,0.00004573,0.00022645,-0.00031676,-0.00134601,0
 .00006263,0.00153015,0.00327007,0.00231577,-0.00003775,-0.00003295,-0.
 00001428,0.00225064,0.00375009,0.00625951,0.00111912,0.00050233,0.0011
 9546,0.00013443,0.00010903,-0.00090304,-0.00009280,0.00002660,0.000836
 97,-0.09170997,-0.10416508,-0.20797637,0.00022223,0.00012145,0.0000038
 5,-0.00174150,0.00091975,0.00055723,0.00090463,-0.00061845,0.00034198,
 0.00011014,0.00009731,0.00003883,0.00001519,-0.00000837,-0.00000722,-0
 .00006808,0.00004185,0.00002370,0.00037249,-0.00063577,0.00068038,-0.0
 0001214,0.00001438,0.00001231,0.00000246,0.00000848,0.00001453,-0.0000
 5146,-0.00018596,0.00023049,0.00016141,-0.00001251,0.00045734,0.000038
 54,0.00004099,0.00014517,-0.00000727,-0.00002135,0.00003767,0.00007666
 ,0.00019483,0.00041548,-0.00023604,-0.00001663,0.00017240,-0.00000941,
 -0.00002725,0.00000079,-0.00005554,0.00003250,-0.00004737,0.00002012,-
 0.00000314,-0.00000221,-0.00004384,0.00005357,-0.00000585,-0.00024062,
 0.00027766,0.00002816,-0.01120269,-0.01399653,-0.01910205,0.09890679,0
 .11156337,0.21400126\\-0.00000651,0.00001010,-0.00002897,-0.00015517,-
 0.00169537,0.00146029,0.00012525,0.00125384,-0.00078014,0.00001224,0.0
 0000295,0.00001482,-0.00002856,-0.00000193,0.00001169,-0.00000291,0.00
 001734,-0.00000250,0.00002411,0.00000269,-0.00002192,-0.00013136,-0.00
 148061,0.00108048,0.00002254,-0.00001277,-0.00003086,-0.00000908,-0.00
 001181,-0.00001314,-0.00000307,-0.00001820,0.00000905,0.00014709,0.001
 87711,-0.00178254,-0.00000892,0.00003201,0.00000689,0.00000470,0.00000
 637,0.00000790,0.00000530,-0.00000746,0.00000061,-0.00001684,-0.000000
 46,0.00001550,0.00000698,-0.00000569,-0.00000382,-0.00000686,-0.000003
 75,-0.00001564,-0.00001384,0.00000387,-0.00000082,0.00000359,0.0000033
 4,-0.00000891,-0.00001633,-0.00001053,-0.00000185,0.00000075,0.0000102
 8,-0.00000780,-0.00000793,-0.00000164,-0.00000829,0.00001040,-0.000008
 49,0.00000867,-0.00000538,-0.00000535,0.00001400,0.00000207,-0.0000005
 5,0.00000578,0.00002610,0.00000280,0.00001432,0.00000195,0.00000287,-0
 .00000721,0.00002214,0.00002098,0.00003912,-0.00001337,0.00000384,0.00
 000746,0.00001090,0.00001423,0.00001783\\\@


 THE DIFFICULTY IN SCIENCE IS OFTEN NOT SO MUCH HOW
 TO MAKE A DISCOVERY BUT RATHER TO KNOW ONE HAS MADE IT.

                                                   -- J. D. BERNAL
 Job cpu time:       0 days 14 hours 48 minutes  4.2 seconds.
 Elapsed time:       0 days  0 hours 55 minutes 31.6 seconds.
 File lengths (MBytes):  RWF=    686 Int=      0 D2E=      0 Chk=     33 Scr=      1
 Normal termination of Gaussian 16 at Sun Nov  4 22:52:52 2018.
