 Entering Gaussian System, Link 0=g16
 Initial command:
 /apps/gaussian/g16a03/g16/l1.exe "/jobfs/local/2011966.r-man2/Gau-15072.inp" -scrdir="/jobfs/local/2011966.r-man2/"
 Entering Link 1 = /apps/gaussian/g16a03/g16/l1.exe PID=     15073.
  
 Copyright (c) 1988,1990,1992,1993,1995,1998,2003,2009,2016,
            Gaussian, Inc.  All Rights Reserved.
  
 This is part of the Gaussian(R) 16 program.  It is based on
 the Gaussian(R) 09 system (copyright 2009, Gaussian, Inc.),
 the Gaussian(R) 03 system (copyright 2003, Gaussian, Inc.),
 the Gaussian(R) 98 system (copyright 1998, Gaussian, Inc.),
 the Gaussian(R) 94 system (copyright 1995, Gaussian, Inc.),
 the Gaussian 92(TM) system (copyright 1992, Gaussian, Inc.),
 the Gaussian 90(TM) system (copyright 1990, Gaussian, Inc.),
 the Gaussian 88(TM) system (copyright 1988, Gaussian, Inc.),
 the Gaussian 86(TM) system (copyright 1986, Carnegie Mellon
 University), and the Gaussian 82(TM) system (copyright 1983,
 Carnegie Mellon University). Gaussian is a federally registered
 trademark of Gaussian, Inc.
  
 This software contains proprietary and confidential information,
 including trade secrets, belonging to Gaussian, Inc.
  
 This software is provided under written license and may be
 used, copied, transmitted, or stored only in accord with that
 written license.
  
 The following legend is applicable only to US Government
 contracts under FAR:
  
                    RESTRICTED RIGHTS LEGEND
  
 Use, reproduction and disclosure by the US Government is
 subject to restrictions as set forth in subparagraphs (a)
 and (c) of the Commercial Computer Software - Restricted
 Rights clause in FAR 52.227-19.
  
 Gaussian, Inc.
 340 Quinnipiac St., Bldg. 40, Wallingford CT 06492
  
  
 ---------------------------------------------------------------
 Warning -- This program may not be used in any manner that
 competes with the business of Gaussian, Inc. or will provide
 assistance to any competitor of Gaussian, Inc.  The licensee
 of this program is prohibited from giving any competitor of
 Gaussian, Inc. access to this program.  By using this program,
 the user acknowledges that Gaussian, Inc. is engaged in the
 business of creating and licensing software in the field of
 computational chemistry and represents and warrants to the
 licensee that it is not a competitor of Gaussian, Inc. and that
 it will not use this program in any manner prohibited above.
 ---------------------------------------------------------------
  

 Cite this work as:
 Gaussian 16, Revision A.03,
 M. J. Frisch, G. W. Trucks, H. B. Schlegel, G. E. Scuseria, 
 M. A. Robb, J. R. Cheeseman, G. Scalmani, V. Barone, 
 G. A. Petersson, H. Nakatsuji, X. Li, M. Caricato, A. V. Marenich, 
 J. Bloino, B. G. Janesko, R. Gomperts, B. Mennucci, H. P. Hratchian, 
 J. V. Ortiz, A. F. Izmaylov, J. L. Sonnenberg, D. Williams-Young, 
 F. Ding, F. Lipparini, F. Egidi, J. Goings, B. Peng, A. Petrone, 
 T. Henderson, D. Ranasinghe, V. G. Zakrzewski, J. Gao, N. Rega, 
 G. Zheng, W. Liang, M. Hada, M. Ehara, K. Toyota, R. Fukuda, 
 J. Hasegawa, M. Ishida, T. Nakajima, Y. Honda, O. Kitao, H. Nakai, 
 T. Vreven, K. Throssell, J. A. Montgomery, Jr., J. E. Peralta, 
 F. Ogliaro, M. J. Bearpark, J. J. Heyd, E. N. Brothers, K. N. Kudin, 
 V. N. Staroverov, T. A. Keith, R. Kobayashi, J. Normand, 
 K. Raghavachari, A. P. Rendell, J. C. Burant, S. S. Iyengar, 
 J. Tomasi, M. Cossi, J. M. Millam, M. Klene, C. Adamo, R. Cammi, 
 J. W. Ochterski, R. L. Martin, K. Morokuma, O. Farkas, 
 J. B. Foresman, and D. J. Fox, Gaussian, Inc., Wallingford CT, 2016.
 
 ******************************************
 Gaussian 16:  ES64L-G16RevA.03 25-Dec-2016
                 4-Nov-2018 
 ******************************************
 %mem=6000mb
 %nproc=24
 Will use up to   24 processors via shared memory.
 %chk=D_1a_4e_D_PSI.inp_extract_1.chk
 ----------------------------------------------------------------------
 #M062X/6-311++G(2d,2p) opt=ModRedundant freq=noraman SCRF=(Solvent=Wat
 er)
 ----------------------------------------------------------------------
 1/18=120,19=15,26=3,38=1/1,3;
 2/9=110,12=2,17=6,18=5,40=1/2;
 3/5=4,6=6,7=1212,11=2,25=1,30=1,70=2201,71=1,72=1,74=-55/1,2,3;
 4//1;
 5/5=2,38=5,53=1/2;
 6/7=2,8=2,9=2,10=2,28=1/1;
 7//1,2,3,16;
 1/18=20,19=15,26=3/3(2);
 2/9=110/2;
 99//99;
 2/9=110/2;
 3/5=4,6=6,7=1212,11=2,25=1,30=1,70=2205,71=1,72=1,74=-55/1,2,3;
 4/5=5,16=3,69=1/1;
 5/5=2,38=5,53=1/2;
 7//1,2,3,16;
 1/18=20,19=15,26=3/3(-5);
 2/9=110/2;
 6/7=2,8=2,9=2,10=2,19=2,28=1/1;
 99/9=1/99;
 ---------------------------
 D_1a_4e_D_PSI.inp_extract_1
 ---------------------------
 Symbolic Z-matrix:
 Charge =  0 Multiplicity = 1
 C                    -3.6898    0.46458  -0.25682 
 C                    -1.03305  -0.27196   0.63177 
 C                     1.07415  -0.14534  -0.62628 
 C                    -3.24529  -0.99441  -0.35935 
 O                     3.29122  -1.05756  -0.28452 
 C                     3.73793   0.09613   0.40429 
 C                    -2.48237   1.38565  -0.31197 
 C                     1.4836    1.14985   0.07085 
 C                     1.91406  -1.31313  -0.11426 
 C                     2.99798   1.33297  -0.07652 
 O                    -1.52144   1.04314   0.67753 
 O                    -0.29897  -0.50304  -0.53685 
 C                    -2.17256  -1.27964   0.6928 
 H                    -4.21784   0.62339   0.68064 
 H                    -4.37061   0.72386  -1.06268 
 H                     1.25602  -0.03819  -1.6885 
 H                    -4.0891   -1.66202  -0.21445 
 H                    -2.85451  -1.18893  -1.35457 
 H                     4.79985   0.17142   0.21438 
 H                     3.58954  -0.04852   1.47219 
 H                    -2.01847   1.35131  -1.29203 
 H                    -2.75702   2.41102  -0.1063 
 H                     1.23488   1.10945   1.12594 
 H                     0.95638   1.99364  -0.36015 
 H                     3.25233   1.51773  -1.11711 
 H                     3.32747   2.19436   0.4966 
 H                    -2.61225  -1.21065   1.68415 
 H                    -1.76482  -2.27895   0.58572 
 H                    -0.39879  -0.36856   1.49889 
 H                     1.70267  -1.49896   0.93628 
 H                     1.68992  -2.21002  -0.67515 
 
 The following ModRedundant input section has been read:
 D       8       3      12       2 F                                           
 

 GradGradGradGradGradGradGradGradGradGradGradGradGradGradGradGradGradGrad
 Berny optimization.
 Initialization pass.
                           ----------------------------
                           !    Initial Parameters    !
                           ! (Angstroms and Degrees)  !
 --------------------------                            --------------------------
 ! Name  Definition              Value          Derivative Info.                !
 --------------------------------------------------------------------------------
 ! R1    R(1,4)                  1.5286         estimate D2E/DX2                !
 ! R2    R(1,7)                  1.5196         estimate D2E/DX2                !
 ! R3    R(1,14)                 1.0876         estimate D2E/DX2                !
 ! R4    R(1,15)                 1.0863         estimate D2E/DX2                !
 ! R5    R(2,11)                 1.4036         estimate D2E/DX2                !
 ! R6    R(2,12)                 1.3993         estimate D2E/DX2                !
 ! R7    R(2,13)                 1.5224         estimate D2E/DX2                !
 ! R8    R(2,29)                 1.0787         estimate D2E/DX2                !
 ! R9    R(3,8)                  1.5268         estimate D2E/DX2                !
 ! R10   R(3,9)                  1.5269         estimate D2E/DX2                !
 ! R11   R(3,12)                 1.4218         estimate D2E/DX2                !
 ! R12   R(3,16)                 1.083          estimate D2E/DX2                !
 ! R13   R(4,13)                 1.5294         estimate D2E/DX2                !
 ! R14   R(4,17)                 1.0857         estimate D2E/DX2                !
 ! R15   R(4,18)                 1.0867         estimate D2E/DX2                !
 ! R16   R(5,6)                  1.416          estimate D2E/DX2                !
 ! R17   R(5,9)                  1.411          estimate D2E/DX2                !
 ! R18   R(6,10)                 1.5194         estimate D2E/DX2                !
 ! R19   R(6,19)                 1.0814         estimate D2E/DX2                !
 ! R20   R(6,20)                 1.0878         estimate D2E/DX2                !
 ! R21   R(7,11)                 1.4212         estimate D2E/DX2                !
 ! R22   R(7,21)                 1.0849         estimate D2E/DX2                !
 ! R23   R(7,22)                 1.0813         estimate D2E/DX2                !
 ! R24   R(8,10)                 1.5325         estimate D2E/DX2                !
 ! R25   R(8,23)                 1.0848         estimate D2E/DX2                !
 ! R26   R(8,24)                 1.0843         estimate D2E/DX2                !
 ! R27   R(9,30)                 1.0876         estimate D2E/DX2                !
 ! R28   R(9,31)                 1.0813         estimate D2E/DX2                !
 ! R29   R(10,25)                1.0871         estimate D2E/DX2                !
 ! R30   R(10,26)                1.0858         estimate D2E/DX2                !
 ! R31   R(13,27)                1.0867         estimate D2E/DX2                !
 ! R32   R(13,28)                1.0846         estimate D2E/DX2                !
 ! A1    A(4,1,7)              110.1829         estimate D2E/DX2                !
 ! A2    A(4,1,14)             109.777          estimate D2E/DX2                !
 ! A3    A(4,1,15)             111.1172         estimate D2E/DX2                !
 ! A4    A(7,1,14)             109.1803         estimate D2E/DX2                !
 ! A5    A(7,1,15)             109.048          estimate D2E/DX2                !
 ! A6    A(14,1,15)            107.4744         estimate D2E/DX2                !
 ! A7    A(11,2,12)            111.3769         estimate D2E/DX2                !
 ! A8    A(11,2,13)            111.0031         estimate D2E/DX2                !
 ! A9    A(11,2,29)            105.2069         estimate D2E/DX2                !
 ! A10   A(12,2,13)            108.4724         estimate D2E/DX2                !
 ! A11   A(12,2,29)            110.3715         estimate D2E/DX2                !
 ! A12   A(13,2,29)            110.4034         estimate D2E/DX2                !
 ! A13   A(8,3,9)              110.3752         estimate D2E/DX2                !
 ! A14   A(8,3,12)             116.3405         estimate D2E/DX2                !
 ! A15   A(8,3,16)             108.5948         estimate D2E/DX2                !
 ! A16   A(9,3,12)             108.527          estimate D2E/DX2                !
 ! A17   A(9,3,16)             108.1915         estimate D2E/DX2                !
 ! A18   A(12,3,16)            104.4048         estimate D2E/DX2                !
 ! A19   A(1,4,13)             109.6218         estimate D2E/DX2                !
 ! A20   A(1,4,17)             110.6064         estimate D2E/DX2                !
 ! A21   A(1,4,18)             109.6837         estimate D2E/DX2                !
 ! A22   A(13,4,17)            109.7942         estimate D2E/DX2                !
 ! A23   A(13,4,18)            110.1454         estimate D2E/DX2                !
 ! A24   A(17,4,18)            106.9559         estimate D2E/DX2                !
 ! A25   A(6,5,9)              113.3776         estimate D2E/DX2                !
 ! A26   A(5,6,10)             110.835          estimate D2E/DX2                !
 ! A27   A(5,6,19)             106.3256         estimate D2E/DX2                !
 ! A28   A(5,6,20)             109.0367         estimate D2E/DX2                !
 ! A29   A(10,6,19)            111.4687         estimate D2E/DX2                !
 ! A30   A(10,6,20)            110.6383         estimate D2E/DX2                !
 ! A31   A(19,6,20)            108.3976         estimate D2E/DX2                !
 ! A32   A(1,7,11)             111.4621         estimate D2E/DX2                !
 ! A33   A(1,7,21)             110.6933         estimate D2E/DX2                !
 ! A34   A(1,7,22)             111.4727         estimate D2E/DX2                !
 ! A35   A(11,7,21)            109.4041         estimate D2E/DX2                !
 ! A36   A(11,7,22)            105.5366         estimate D2E/DX2                !
 ! A37   A(21,7,22)            108.0882         estimate D2E/DX2                !
 ! A38   A(3,8,10)             108.8117         estimate D2E/DX2                !
 ! A39   A(3,8,23)             110.5497         estimate D2E/DX2                !
 ! A40   A(3,8,24)             110.3805         estimate D2E/DX2                !
 ! A41   A(10,8,23)            108.9383         estimate D2E/DX2                !
 ! A42   A(10,8,24)            110.4426         estimate D2E/DX2                !
 ! A43   A(23,8,24)            107.7049         estimate D2E/DX2                !
 ! A44   A(3,9,5)              110.9717         estimate D2E/DX2                !
 ! A45   A(3,9,30)             110.3451         estimate D2E/DX2                !
 ! A46   A(3,9,31)             110.2683         estimate D2E/DX2                !
 ! A47   A(5,9,30)             109.7072         estimate D2E/DX2                !
 ! A48   A(5,9,31)             106.855          estimate D2E/DX2                !
 ! A49   A(30,9,31)            108.6039         estimate D2E/DX2                !
 ! A50   A(6,10,8)             110.7047         estimate D2E/DX2                !
 ! A51   A(6,10,25)            109.1073         estimate D2E/DX2                !
 ! A52   A(6,10,26)            109.3281         estimate D2E/DX2                !
 ! A53   A(8,10,25)            110.095          estimate D2E/DX2                !
 ! A54   A(8,10,26)            110.1145         estimate D2E/DX2                !
 ! A55   A(25,10,26)           107.4226         estimate D2E/DX2                !
 ! A56   A(2,11,7)             116.0003         estimate D2E/DX2                !
 ! A57   A(2,12,3)             121.1747         estimate D2E/DX2                !
 ! A58   A(2,13,4)             111.9613         estimate D2E/DX2                !
 ! A59   A(2,13,27)            107.3019         estimate D2E/DX2                !
 ! A60   A(2,13,28)            108.9361         estimate D2E/DX2                !
 ! A61   A(4,13,27)            109.3877         estimate D2E/DX2                !
 ! A62   A(4,13,28)            111.5672         estimate D2E/DX2                !
 ! A63   A(27,13,28)           107.4982         estimate D2E/DX2                !
 ! D1    D(7,1,4,13)            52.7488         estimate D2E/DX2                !
 ! D2    D(7,1,4,17)           173.9566         estimate D2E/DX2                !
 ! D3    D(7,1,4,18)           -68.3063         estimate D2E/DX2                !
 ! D4    D(14,1,4,13)          -67.5261         estimate D2E/DX2                !
 ! D5    D(14,1,4,17)           53.6817         estimate D2E/DX2                !
 ! D6    D(14,1,4,18)          171.4188         estimate D2E/DX2                !
 ! D7    D(15,1,4,13)          173.7269         estimate D2E/DX2                !
 ! D8    D(15,1,4,17)          -65.0653         estimate D2E/DX2                !
 ! D9    D(15,1,4,18)           52.6718         estimate D2E/DX2                !
 ! D10   D(4,1,7,11)           -54.5874         estimate D2E/DX2                !
 ! D11   D(4,1,7,21)            67.4251         estimate D2E/DX2                !
 ! D12   D(4,1,7,22)          -172.2281         estimate D2E/DX2                !
 ! D13   D(14,1,7,11)           66.0464         estimate D2E/DX2                !
 ! D14   D(14,1,7,21)         -171.9411         estimate D2E/DX2                !
 ! D15   D(14,1,7,22)          -51.5943         estimate D2E/DX2                !
 ! D16   D(15,1,7,11)         -176.7956         estimate D2E/DX2                !
 ! D17   D(15,1,7,21)          -54.7831         estimate D2E/DX2                !
 ! D18   D(15,1,7,22)           65.5637         estimate D2E/DX2                !
 ! D19   D(12,2,11,7)           65.5246         estimate D2E/DX2                !
 ! D20   D(13,2,11,7)          -55.4562         estimate D2E/DX2                !
 ! D21   D(29,2,11,7)         -174.8855         estimate D2E/DX2                !
 ! D22   D(11,2,12,3)           83.7812         estimate D2E/DX2                !
 ! D23   D(13,2,12,3)         -153.7685         estimate D2E/DX2                !
 ! D24   D(29,2,12,3)          -32.6951         estimate D2E/DX2                !
 ! D25   D(11,2,13,4)           52.2216         estimate D2E/DX2                !
 ! D26   D(11,2,13,27)         -67.8118         estimate D2E/DX2                !
 ! D27   D(11,2,13,28)         176.0962         estimate D2E/DX2                !
 ! D28   D(12,2,13,4)          -70.4555         estimate D2E/DX2                !
 ! D29   D(12,2,13,27)         169.5111         estimate D2E/DX2                !
 ! D30   D(12,2,13,28)          53.419          estimate D2E/DX2                !
 ! D31   D(29,2,13,4)          168.4908         estimate D2E/DX2                !
 ! D32   D(29,2,13,27)          48.4574         estimate D2E/DX2                !
 ! D33   D(29,2,13,28)         -67.6347         estimate D2E/DX2                !
 ! D34   D(9,3,8,10)            53.1464         estimate D2E/DX2                !
 ! D35   D(9,3,8,23)           -66.4487         estimate D2E/DX2                !
 ! D36   D(9,3,8,24)           174.4904         estimate D2E/DX2                !
 ! D37   D(12,3,8,10)          177.3486         estimate D2E/DX2                !
 ! D38   D(12,3,8,23)           57.7535         estimate D2E/DX2                !
 ! D39   D(12,3,8,24)          -61.3074         estimate D2E/DX2                !
 ! D40   D(16,3,8,10)          -65.2994         estimate D2E/DX2                !
 ! D41   D(16,3,8,23)          175.1055         estimate D2E/DX2                !
 ! D42   D(16,3,8,24)           56.0446         estimate D2E/DX2                !
 ! D43   D(8,3,9,5)            -56.3602         estimate D2E/DX2                !
 ! D44   D(8,3,9,30)            65.4627         estimate D2E/DX2                !
 ! D45   D(8,3,9,31)          -174.561          estimate D2E/DX2                !
 ! D46   D(12,3,9,5)           175.0563         estimate D2E/DX2                !
 ! D47   D(12,3,9,30)          -63.1208         estimate D2E/DX2                !
 ! D48   D(12,3,9,31)           56.8555         estimate D2E/DX2                !
 ! D49   D(16,3,9,5)            62.3319         estimate D2E/DX2                !
 ! D50   D(16,3,9,30)         -175.8452         estimate D2E/DX2                !
 ! D51   D(16,3,9,31)          -55.8689         estimate D2E/DX2                !
 ! D52   D(8,3,12,2)           -37.2408         Frozen                          !
 ! D53   D(9,3,12,2)            87.9051         estimate D2E/DX2                !
 ! D54   D(16,3,12,2)         -156.8797         estimate D2E/DX2                !
 ! D55   D(1,4,13,2)           -52.0695         estimate D2E/DX2                !
 ! D56   D(1,4,13,27)           66.7374         estimate D2E/DX2                !
 ! D57   D(1,4,13,28)         -174.4565         estimate D2E/DX2                !
 ! D58   D(17,4,13,2)         -173.7659         estimate D2E/DX2                !
 ! D59   D(17,4,13,27)         -54.959          estimate D2E/DX2                !
 ! D60   D(17,4,13,28)          63.8471         estimate D2E/DX2                !
 ! D61   D(18,4,13,2)           68.7063         estimate D2E/DX2                !
 ! D62   D(18,4,13,27)        -172.4867         estimate D2E/DX2                !
 ! D63   D(18,4,13,28)         -53.6806         estimate D2E/DX2                !
 ! D64   D(9,5,6,10)           -59.8538         estimate D2E/DX2                !
 ! D65   D(9,5,6,19)           178.8461         estimate D2E/DX2                !
 ! D66   D(9,5,6,20)            62.1691         estimate D2E/DX2                !
 ! D67   D(6,5,9,3)             60.0041         estimate D2E/DX2                !
 ! D68   D(6,5,9,30)           -62.1907         estimate D2E/DX2                !
 ! D69   D(6,5,9,31)          -179.746          estimate D2E/DX2                !
 ! D70   D(5,6,10,8)            56.0632         estimate D2E/DX2                !
 ! D71   D(5,6,10,25)          -65.2456         estimate D2E/DX2                !
 ! D72   D(5,6,10,26)          177.5409         estimate D2E/DX2                !
 ! D73   D(19,6,10,8)          174.2828         estimate D2E/DX2                !
 ! D74   D(19,6,10,25)          52.9741         estimate D2E/DX2                !
 ! D75   D(19,6,10,26)         -64.2394         estimate D2E/DX2                !
 ! D76   D(20,6,10,8)          -65.0187         estimate D2E/DX2                !
 ! D77   D(20,6,10,25)         173.6726         estimate D2E/DX2                !
 ! D78   D(20,6,10,26)          56.459          estimate D2E/DX2                !
 ! D79   D(1,7,11,2)            57.4024         estimate D2E/DX2                !
 ! D80   D(21,7,11,2)          -65.3519         estimate D2E/DX2                !
 ! D81   D(22,7,11,2)          178.5704         estimate D2E/DX2                !
 ! D82   D(3,8,10,6)           -53.2756         estimate D2E/DX2                !
 ! D83   D(3,8,10,25)           67.4481         estimate D2E/DX2                !
 ! D84   D(3,8,10,26)         -174.2888         estimate D2E/DX2                !
 ! D85   D(23,8,10,6)           67.3174         estimate D2E/DX2                !
 ! D86   D(23,8,10,25)        -171.9588         estimate D2E/DX2                !
 ! D87   D(23,8,10,26)         -53.6957         estimate D2E/DX2                !
 ! D88   D(24,8,10,6)         -174.5817         estimate D2E/DX2                !
 ! D89   D(24,8,10,25)         -53.8579         estimate D2E/DX2                !
 ! D90   D(24,8,10,26)          64.4052         estimate D2E/DX2                !
 --------------------------------------------------------------------------------
 Trust Radius=3.00D-01 FncErr=1.00D-07 GrdErr=1.00D-06 EigMax=2.50D+02 EigMin=1.00D-04
 Number of steps in this run=    186 maximum allowed number of steps=    186.
 GradGradGradGradGradGradGradGradGradGradGradGradGradGradGradGradGradGrad

                          Input orientation:                          
 ---------------------------------------------------------------------
 Center     Atomic      Atomic             Coordinates (Angstroms)
 Number     Number       Type             X           Y           Z
 ---------------------------------------------------------------------
      1          6           0       -3.689796    0.464581   -0.256819
      2          6           0       -1.033048   -0.271956    0.631772
      3          6           0        1.074149   -0.145338   -0.626280
      4          6           0       -3.245290   -0.994407   -0.359352
      5          8           0        3.291215   -1.057563   -0.284524
      6          6           0        3.737926    0.096131    0.404286
      7          6           0       -2.482371    1.385651   -0.311971
      8          6           0        1.483600    1.149847    0.070846
      9          6           0        1.914059   -1.313125   -0.114264
     10          6           0        2.997979    1.332965   -0.076517
     11          8           0       -1.521444    1.043143    0.677526
     12          8           0       -0.298967   -0.503039   -0.536854
     13          6           0       -2.172560   -1.279636    0.692799
     14          1           0       -4.217839    0.623391    0.680639
     15          1           0       -4.370611    0.723863   -1.062680
     16          1           0        1.256020   -0.038194   -1.688500
     17          1           0       -4.089105   -1.662021   -0.214454
     18          1           0       -2.854505   -1.188926   -1.354566
     19          1           0        4.799847    0.171422    0.214377
     20          1           0        3.589538   -0.048515    1.472191
     21          1           0       -2.018467    1.351308   -1.292029
     22          1           0       -2.757021    2.411020   -0.106300
     23          1           0        1.234880    1.109447    1.125935
     24          1           0        0.956380    1.993643   -0.360154
     25          1           0        3.252335    1.517732   -1.117114
     26          1           0        3.327474    2.194358    0.496600
     27          1           0       -2.612246   -1.210647    1.684150
     28          1           0       -1.764818   -2.278948    0.585717
     29          1           0       -0.398785   -0.368555    1.498886
     30          1           0        1.702665   -1.498956    0.936278
     31          1           0        1.689924   -2.210025   -0.675154
 ---------------------------------------------------------------------
                    Distance matrix (angstroms):
                    1          2          3          4          5
     1  C    0.000000
     2  C    2.896617   0.000000
     3  C    4.817019   2.457439   0.000000
     4  C    1.528641   2.529482   4.410184   0.000000
     5  O    7.145083   4.489546   2.421639   6.537238   0.000000
     6  C    7.466182   4.790556   2.866371   7.108989   1.415987
     7  C    1.519634   2.395589   3.884785   2.499793   6.269318
     8  C    5.228860   2.944432   1.526807   5.210115   2.875138
     9  C    5.880795   3.213416   1.526871   5.174991   1.410978
    10  C    6.746327   4.396206   2.487718   6.668963   2.417412
    11  O    2.430943   1.403606   3.138391   2.863280   5.338557
    12  O    3.537291   1.399272   1.421758   2.992285   3.641507
    13  C    2.499214   1.522377   3.683439   1.529420   5.554936
    14  H    1.087602   3.308614   5.504918   2.155157   7.755194
    15  H    1.086346   3.873261   5.530946   2.171053   7.904593
    16  H    5.173354   3.267742   1.082990   4.789861   2.674375
    17  H    2.164181   3.462349   5.397140   1.085692   7.405363
    18  H    2.153333   2.846766   4.129625   1.086739   6.239561
    19  H    8.507762   5.864594   3.832475   8.149390   2.008800
    20  H    7.499430   4.703672   3.277215   7.138917   2.047736
    21  H    2.156684   2.703155   3.499635   2.806663   5.916963
    22  H    2.163643   3.273407   4.634998   3.449547   6.974524
    23  H    5.155608   2.701105   2.161152   5.167611   3.303610
    24  H    4.892408   3.174064   2.158688   5.155819   3.842790
    25  H    7.074067   4.962468   2.784100   7.007437   2.706818
    26  H    7.266488   5.011500   3.436933   7.355413   3.344617
    27  H    2.781162   2.117193   4.479116   2.150210   6.224947
    28  H    3.455772   2.136732   3.752461   2.176005   5.273762
    29  H    3.821959   1.078660   2.595321   3.456491   4.155885
    30  H    5.861535   3.013698   2.160764   5.139600   2.051506
    31  H    6.022450   3.588697   2.155110   5.092523   2.011192
                    6          7          8          9         10
     6  C    0.000000
     7  C    6.392807   0.000000
     8  C    2.510674   3.991375   0.000000
     9  C    2.362496   5.162468   2.507148   0.000000
    10  C    1.519359   5.485659   1.532512   2.859738   0.000000
    11  O    5.350931   1.421196   3.067529   4.240473   4.591052
    12  O    4.188228   2.895682   2.505769   2.394223   3.801667
    13  C    6.075345   2.865188   4.433590   4.165684   5.843972
    14  H    7.978005   2.139664   5.758073   6.479362   7.290049
    15  H    8.264043   2.137049   5.978138   6.674271   7.459198
    16  H    3.249254   4.230571   2.135072   2.129949   2.740983
    17  H    8.045890   3.446652   6.248443   6.014129   7.695176
    18  H    6.942988   2.802487   5.130381   4.928791   6.499609
    19  H    1.081393   7.401493   3.460551   3.261849   2.163453
    20  H    1.087825   6.489079   2.799074   2.631218   2.157991
    21  H    6.130988   1.084850   3.763308   4.893986   5.161641
    22  H    6.914025   1.081256   4.427731   5.973969   5.855178
    23  H    2.795143   3.995224   1.084761   2.805037   2.145779
    24  H    3.452813   3.492418   1.084303   3.451424   2.164503
    25  H    2.138085   5.792457   2.162178   3.287924   1.087050
    26  H    2.139988   5.921325   2.161514   3.830579   1.085831
    27  H    6.608359   3.277519   4.995061   4.871574   6.406601
    28  H    5.996175   3.840574   4.751205   3.867418   6.014042
    29  H    4.304237   3.270745   2.808597   2.973838   4.112794
    30  H    2.640001   5.233890   2.795196   1.087593   3.274655
    31  H    3.267699   5.519858   3.447873   1.081325   3.823892
                   11         12         13         14         15
    11  O    0.000000
    12  O    2.315134   0.000000
    13  C    2.412361   2.371814   0.000000
    14  H    2.728873   4.255431   2.793712   0.000000
    15  H    3.353805   4.284865   3.453570   1.752882   0.000000
    16  H    3.805480   1.990064   4.355103   6.001137   5.712386
    17  H    3.834896   3.976472   2.154639   2.457819   2.547779
    18  H    3.299785   2.769453   2.159857   3.047168   2.458157
    19  H    6.397900   5.197802   7.137851   9.041036   9.275417
    20  H    5.286336   4.400378   5.943474   7.876112   8.389643
    21  H    2.054542   2.639237   3.299266   3.042782   2.445173
    22  H    2.003028   3.836554   3.821138   2.439033   2.522862
    23  H    2.793347   2.778069   4.184014   5.492421   6.029945
    24  H    2.849534   2.800096   4.649014   5.452833   5.521116
    25  H    5.122005   4.126980   6.366360   7.735326   7.664365
    26  H    4.986987   4.636276   6.508264   7.709316   7.990884
    27  H    2.698650   3.284026   1.086674   2.636031   3.791998
    28  H    3.332259   2.561784   1.084594   3.801302   4.303980
    29  H    1.981890   2.042618   2.150842   4.029722   4.850814
    30  H    4.113891   2.677405   3.889055   6.294607   6.769153
    31  H    4.767151   2.624617   4.201869   6.690896   6.744476
                   16         17         18         19         20
    16  H    0.000000
    17  H    5.777542   0.000000
    18  H    4.281602   1.745827   0.000000
    19  H    4.027852   9.086192   7.931030   0.000000
    20  H    3.928789   8.025567   7.128589   1.759351   0.000000
    21  H    3.579130   3.811674   2.675006   7.081723   6.407038
    22  H    4.960494   4.286701   3.811467   7.888275   6.987114
    23  H    3.039502   6.149999   5.306456   3.797344   2.646731
    24  H    2.445945   6.232337   5.063640   4.292181   3.802817
    25  H    2.594737   8.051234   6.684001   2.445447   3.044887
    26  H    3.748316   8.389452   7.286308   2.517896   2.459865
    27  H    5.264304   2.447355   3.048435   7.681762   6.313288
    28  H    4.395282   2.534400   2.477956   7.016911   5.867691
    29  H    3.606515   4.269315   3.853019   5.382129   4.001232
    30  H    3.036903   5.907231   5.109979   3.592192   2.439523
    31  H    2.435568   5.823206   4.707024   4.016737   3.590508
                   21         22         23         24         25
    21  H    0.000000
    22  H    1.753398   0.000000
    23  H    4.060704   4.375816   0.000000
    24  H    3.182876   3.745396   1.751521   0.000000
    25  H    5.276329   6.158902   3.044354   2.463917   0.000000
    26  H    5.699913   6.118130   2.439681   2.529111   1.751440
    27  H    3.971628   4.042665   4.527120   5.213611   7.048719
    28  H    4.095000   4.843465   4.557548   5.153118   6.518147
    29  H    3.656570   3.982956   2.234378   3.297345   4.871572
    30  H    5.190008   6.021933   2.656795   3.799464   3.964631
    31  H    5.178397   6.438398   3.803930   4.278801   4.066034
                   26         27         28         29         30
    26  H    0.000000
    27  H    6.948713   0.000000
    28  H    6.778632   1.750987   0.000000
    29  H    4.632290   2.375469   2.519826   0.000000
    30  H    4.058804   4.388723   3.571375   2.451617   0.000000
    31  H    4.842847   5.007368   3.678286   3.532728   1.761390
                   31
    31  H    0.000000
 Stoichiometry    C10H18O3
 Framework group  C1[X(C10H18O3)]
 Deg. of freedom    87
 Full point group                 C1      NOp   1
 Largest Abelian subgroup         C1      NOp   1
 Largest concise Abelian subgroup C1      NOp   1
                         Standard orientation:                         
 ---------------------------------------------------------------------
 Center     Atomic      Atomic             Coordinates (Angstroms)
 Number     Number       Type             X           Y           Z
 ---------------------------------------------------------------------
      1          6           0       -3.689796    0.464581   -0.256819
      2          6           0       -1.033048   -0.271956    0.631772
      3          6           0        1.074149   -0.145338   -0.626280
      4          6           0       -3.245290   -0.994407   -0.359352
      5          8           0        3.291215   -1.057563   -0.284524
      6          6           0        3.737926    0.096131    0.404286
      7          6           0       -2.482371    1.385651   -0.311971
      8          6           0        1.483600    1.149847    0.070846
      9          6           0        1.914059   -1.313125   -0.114264
     10          6           0        2.997979    1.332965   -0.076517
     11          8           0       -1.521444    1.043143    0.677526
     12          8           0       -0.298967   -0.503039   -0.536854
     13          6           0       -2.172560   -1.279636    0.692799
     14          1           0       -4.217839    0.623391    0.680639
     15          1           0       -4.370611    0.723863   -1.062680
     16          1           0        1.256020   -0.038194   -1.688500
     17          1           0       -4.089105   -1.662021   -0.214454
     18          1           0       -2.854505   -1.188926   -1.354566
     19          1           0        4.799847    0.171422    0.214377
     20          1           0        3.589538   -0.048515    1.472191
     21          1           0       -2.018467    1.351308   -1.292029
     22          1           0       -2.757021    2.411020   -0.106300
     23          1           0        1.234880    1.109447    1.125935
     24          1           0        0.956380    1.993643   -0.360154
     25          1           0        3.252335    1.517732   -1.117114
     26          1           0        3.327474    2.194358    0.496600
     27          1           0       -2.612246   -1.210647    1.684150
     28          1           0       -1.764818   -2.278948    0.585717
     29          1           0       -0.398785   -0.368555    1.498886
     30          1           0        1.702665   -1.498956    0.936278
     31          1           0        1.689924   -2.210025   -0.675154
 ---------------------------------------------------------------------
 Rotational constants (GHZ):           2.0295770           0.4173515           0.3738850
 Standard basis: 6-311++G(2d,2p) (5D, 7F)
 There are   557 symmetry adapted cartesian basis functions of A   symmetry.
 There are   531 symmetry adapted basis functions of A   symmetry.
   531 basis functions,   762 primitive gaussians,   557 cartesian basis functions
    51 alpha electrons       51 beta electrons
       nuclear repulsion energy       895.8874504447 Hartrees.
 NAtoms=   31 NActive=   31 NUniq=   31 SFac= 1.00D+00 NAtFMM=   60 NAOKFM=F Big=F
 Integral buffers will be    131072 words long.
 Raffenetti 2 integral format.
 Two-electron integral symmetry is turned on.
 ------------------------------------------------------------------------------
 Polarizable Continuum Model (PCM)
 =================================
 Model                : PCM.
 Atomic radii         : UFF (Universal Force Field).
 Polarization charges : Total charges.
 Charge compensation  : None.
 Solution method      : On-the-fly selection.
 Cavity type          : Scaled VdW (van der Waals Surface) (Alpha=1.100).
 Cavity algorithm     : GePol (No added spheres)
                        Default sphere list used, NSphG=   31.
                        Lebedev-Laikov grids with approx.  5.0 points / Ang**2.
                        Smoothing algorithm: York/Karplus (Gamma=1.0000).
                        Polarization charges: spherical gaussians, with
                                              point-specific exponents (IZeta= 3).
                        Self-potential: point-specific (ISelfS= 7).
                        Self-field    : sphere-specific E.n sum rule (ISelfD= 2).
 1st derivatives      : Analytical E(r).r(x)/FMM algorithm (CHGder, D1EAlg=3).
                        Cavity 1st derivative terms included.
 Solvent              : Water, Eps=  78.355300 Eps(inf)=   1.777849
 ------------------------------------------------------------------------------
 One-electron integrals computed using PRISM.
 NBasis=   531 RedAO= T EigKep=  5.25D-06  NBF=   531
 NBsUse=   531 1.00D-06 EigRej= -1.00D+00 NBFU=   531
 ExpMin= 3.60D-02 ExpMax= 8.59D+03 ExpMxC= 1.30D+03 IAcc=3 IRadAn=         5 AccDes= 0.00D+00
 Harris functional with IExCor= 1009 and IRadAn=       5 diagonalized for initial guess.
 HarFok:  IExCor= 1009 AccDes= 0.00D+00 IRadAn=         5 IDoV= 1 UseB2=F ITyADJ=14
 ICtDFT=  3500011 ScaDFX=  1.000000  1.000000  1.000000  1.000000
 FoFCou: FMM=F IPFlag=           0 FMFlag=      100000 FMFlg1=           0
         NFxFlg=           0 DoJE=T BraDBF=F KetDBF=T FulRan=T
         wScrn=  0.000000 ICntrl=       500 IOpCl=  0 I1Cent=   200000004 NGrid=           0
         NMat0=    1 NMatS0=      1 NMatT0=    0 NMatD0=    1 NMtDS0=    0 NMtDT0=    0
 Petite list used in FoFCou.
 Requested convergence on RMS density matrix=1.00D-08 within 128 cycles.
 Requested convergence on MAX density matrix=1.00D-06.
 Requested convergence on             energy=1.00D-06.
 No special actions if energy rises.
 Inv3:  Mode=1 IEnd=    12497043.
 Iteration    1 A*A^-1 deviation from unit magnitude is 7.44D-15 for   2040.
 Iteration    1 A*A^-1 deviation from orthogonality  is 2.80D-15 for   2031    925.
 Iteration    1 A^-1*A deviation from unit magnitude is 7.44D-15 for   2040.
 Iteration    1 A^-1*A deviation from orthogonality  is 4.99D-15 for   1997   1975.
 Error on total polarization charges =  0.01475
 SCF Done:  E(RM062X) =  -617.498170363     A.U. after   12 cycles
            NFock= 12  Conv=0.59D-08     -V/T= 2.0035

 **********************************************************************

            Population analysis using the SCF density.

 **********************************************************************

 Orbital symmetries:
       Occupied  (A) (A) (A) (A) (A) (A) (A) (A) (A) (A) (A) (A)
                 (A) (A) (A) (A) (A) (A) (A) (A) (A) (A) (A) (A)
                 (A) (A) (A) (A) (A) (A) (A) (A) (A) (A) (A) (A)
                 (A) (A) (A) (A) (A) (A) (A) (A) (A) (A) (A) (A)
                 (A) (A) (A)
       Virtual   (A) (A) (A) (A) (A) (A) (A) (A) (A) (A) (A) (A)
                 (A) (A) (A) (A) (A) (A) (A) (A) (A) (A) (A) (A)
                 (A) (A) (A) (A) (A) (A) (A) (A) (A) (A) (A) (A)
                 (A) (A) (A) (A) (A) (A) (A) (A) (A) (A) (A) (A)
                 (A) (A) (A) (A) (A) (A) (A) (A) (A) (A) (A) (A)
                 (A) (A) (A) (A) (A) (A) (A) (A) (A) (A) (A) (A)
                 (A) (A) (A) (A) (A) (A) (A) (A) (A) (A) (A) (A)
                 (A) (A) (A) (A) (A) (A) (A) (A) (A) (A) (A) (A)
                 (A) (A) (A) (A) (A) (A) (A) (A) (A) (A) (A) (A)
                 (A) (A) (A) (A) (A) (A) (A) (A) (A) (A) (A) (A)
                 (A) (A) (A) (A) (A) (A) (A) (A) (A) (A) (A) (A)
                 (A) (A) (A) (A) (A) (A) (A) (A) (A) (A) (A) (A)
                 (A) (A) (A) (A) (A) (A) (A) (A) (A) (A) (A) (A)
                 (A) (A) (A) (A) (A) (A) (A) (A) (A) (A) (A) (A)
                 (A) (A) (A) (A) (A) (A) (A) (A) (A) (A) (A) (A)
                 (A) (A) (A) (A) (A) (A) (A) (A) (A) (A) (A) (A)
                 (A) (A) (A) (A) (A) (A) (A) (A) (A) (A) (A) (A)
                 (A) (A) (A) (A) (A) (A) (A) (A) (A) (A) (A) (A)
                 (A) (A) (A) (A) (A) (A) (A) (A) (A) (A) (A) (A)
                 (A) (A) (A) (A) (A) (A) (A) (A) (A) (A) (A) (A)
                 (A) (A) (A) (A) (A) (A) (A) (A) (A) (A) (A) (A)
                 (A) (A) (A) (A) (A) (A) (A) (A) (A) (A) (A) (A)
                 (A) (A) (A) (A) (A) (A) (A) (A) (A) (A) (A) (A)
                 (A) (A) (A) (A) (A) (A) (A) (A) (A) (A) (A) (A)
                 (A) (A) (A) (A) (A) (A) (A) (A) (A) (A) (A) (A)
                 (A) (A) (A) (A) (A) (A) (A) (A) (A) (A) (A) (A)
                 (A) (A) (A) (A) (A) (A) (A) (A) (A) (A) (A) (A)
                 (A) (A) (A) (A) (A) (A) (A) (A) (A) (A) (A) (A)
                 (A) (A) (A) (A) (A) (A) (A) (A) (A) (A) (A) (A)
                 (A) (A) (A) (A) (A) (A) (A) (A) (A) (A) (A) (A)
                 (A) (A) (A) (A) (A) (A) (A) (A) (A) (A) (A) (A)
                 (A) (A) (A) (A) (A) (A) (A) (A) (A) (A) (A) (A)
                 (A) (A) (A) (A) (A) (A) (A) (A) (A) (A) (A) (A)
                 (A) (A) (A) (A) (A) (A) (A) (A) (A) (A) (A) (A)
                 (A) (A) (A) (A) (A) (A) (A) (A) (A) (A) (A) (A)
                 (A) (A) (A) (A) (A) (A) (A) (A) (A) (A) (A) (A)
                 (A) (A) (A) (A) (A) (A) (A) (A) (A) (A) (A) (A)
                 (A) (A) (A) (A) (A) (A) (A) (A) (A) (A) (A) (A)
                 (A) (A) (A) (A) (A) (A) (A) (A) (A) (A) (A) (A)
                 (A) (A) (A) (A) (A) (A) (A) (A) (A) (A) (A) (A)
 The electronic state is 1-A.
 Alpha  occ. eigenvalues --  -19.62942 -19.62905 -19.62515 -10.63401 -10.58854
 Alpha  occ. eigenvalues --  -10.57863 -10.57799 -10.57528 -10.53212 -10.53163
 Alpha  occ. eigenvalues --  -10.52921 -10.52877 -10.52696  -1.19930  -1.16756
 Alpha  occ. eigenvalues --   -1.13427  -0.90875  -0.89631  -0.87591  -0.84783
 Alpha  occ. eigenvalues --   -0.75140  -0.74305  -0.73136  -0.71101  -0.66728
 Alpha  occ. eigenvalues --   -0.62638  -0.60468  -0.58927  -0.56643  -0.55639
 Alpha  occ. eigenvalues --   -0.54480  -0.53343  -0.52765  -0.50997  -0.49955
 Alpha  occ. eigenvalues --   -0.48802  -0.46530  -0.46141  -0.45276  -0.45070
 Alpha  occ. eigenvalues --   -0.43902  -0.43429  -0.40974  -0.40281  -0.39233
 Alpha  occ. eigenvalues --   -0.38423  -0.37593  -0.36378  -0.34955  -0.33173
 Alpha  occ. eigenvalues --   -0.31473
 Alpha virt. eigenvalues --   -0.00083   0.00708   0.00804   0.01111   0.02165
 Alpha virt. eigenvalues --    0.02501   0.02635   0.03325   0.03568   0.04369
 Alpha virt. eigenvalues --    0.04526   0.04915   0.05584   0.05901   0.06965
 Alpha virt. eigenvalues --    0.07305   0.07487   0.07716   0.09038   0.09648
 Alpha virt. eigenvalues --    0.10438   0.10700   0.11249   0.11637   0.11838
 Alpha virt. eigenvalues --    0.12001   0.12489   0.12708   0.13101   0.13671
 Alpha virt. eigenvalues --    0.13867   0.14086   0.14498   0.14680   0.15015
 Alpha virt. eigenvalues --    0.15083   0.15271   0.15470   0.15697   0.15974
 Alpha virt. eigenvalues --    0.16386   0.17027   0.17420   0.17572   0.17859
 Alpha virt. eigenvalues --    0.18136   0.18275   0.18608   0.19061   0.19584
 Alpha virt. eigenvalues --    0.19841   0.20067   0.20577   0.20776   0.21195
 Alpha virt. eigenvalues --    0.21565   0.22759   0.23293   0.23724   0.24727
 Alpha virt. eigenvalues --    0.25160   0.25454   0.26015   0.26775   0.27725
 Alpha virt. eigenvalues --    0.27854   0.28188   0.28568   0.29004   0.29644
 Alpha virt. eigenvalues --    0.29876   0.30276   0.30773   0.31068   0.31306
 Alpha virt. eigenvalues --    0.32330   0.32721   0.33269   0.33865   0.34375
 Alpha virt. eigenvalues --    0.34792   0.34952   0.35384   0.35639   0.36421
 Alpha virt. eigenvalues --    0.36770   0.36889   0.37644   0.37859   0.38118
 Alpha virt. eigenvalues --    0.38383   0.39147   0.40010   0.40347   0.40872
 Alpha virt. eigenvalues --    0.41035   0.42282   0.43134   0.44115   0.45057
 Alpha virt. eigenvalues --    0.45617   0.47151   0.49188   0.49305   0.50150
 Alpha virt. eigenvalues --    0.51288   0.52556   0.53700   0.54363   0.54677
 Alpha virt. eigenvalues --    0.55831   0.57091   0.57604   0.58918   0.59502
 Alpha virt. eigenvalues --    0.60352   0.61060   0.61361   0.61792   0.62040
 Alpha virt. eigenvalues --    0.62137   0.63033   0.63497   0.63792   0.64653
 Alpha virt. eigenvalues --    0.65339   0.65443   0.65993   0.66429   0.67581
 Alpha virt. eigenvalues --    0.68124   0.68244   0.69291   0.69792   0.70098
 Alpha virt. eigenvalues --    0.71077   0.71660   0.71996   0.72089   0.73127
 Alpha virt. eigenvalues --    0.73535   0.73669   0.74628   0.75007   0.75868
 Alpha virt. eigenvalues --    0.76433   0.77243   0.77517   0.77980   0.79445
 Alpha virt. eigenvalues --    0.80318   0.81131   0.83196   0.84459   0.86113
 Alpha virt. eigenvalues --    0.86322   0.87077   0.87883   0.88828   0.90270
 Alpha virt. eigenvalues --    0.90580   0.92160   0.92447   0.94206   0.95409
 Alpha virt. eigenvalues --    0.97695   0.98768   0.99984   1.01282   1.02134
 Alpha virt. eigenvalues --    1.02793   1.03109   1.06509   1.06903   1.07597
 Alpha virt. eigenvalues --    1.08156   1.08809   1.09469   1.10656   1.11459
 Alpha virt. eigenvalues --    1.13819   1.14523   1.14904   1.15366   1.15818
 Alpha virt. eigenvalues --    1.17547   1.17988   1.18939   1.19317   1.20474
 Alpha virt. eigenvalues --    1.21128   1.21754   1.22480   1.23097   1.23459
 Alpha virt. eigenvalues --    1.24381   1.25549   1.25976   1.26914   1.27519
 Alpha virt. eigenvalues --    1.28063   1.29246   1.30250   1.30635   1.31131
 Alpha virt. eigenvalues --    1.31771   1.32556   1.34116   1.34317   1.35357
 Alpha virt. eigenvalues --    1.36201   1.36640   1.36965   1.37574   1.37918
 Alpha virt. eigenvalues --    1.38532   1.39318   1.40985   1.41399   1.42127
 Alpha virt. eigenvalues --    1.42886   1.43330   1.44233   1.44449   1.44980
 Alpha virt. eigenvalues --    1.45711   1.46990   1.47382   1.47907   1.48641
 Alpha virt. eigenvalues --    1.48884   1.50146   1.50402   1.52137   1.53211
 Alpha virt. eigenvalues --    1.53563   1.54054   1.55585   1.56175   1.56407
 Alpha virt. eigenvalues --    1.56565   1.57225   1.57510   1.58332   1.59111
 Alpha virt. eigenvalues --    1.59423   1.59732   1.60465   1.60788   1.62135
 Alpha virt. eigenvalues --    1.63154   1.65261   1.65914   1.66537   1.67415
 Alpha virt. eigenvalues --    1.67840   1.68362   1.70228   1.70824   1.72269
 Alpha virt. eigenvalues --    1.73179   1.73441   1.76145   1.76422   1.78406
 Alpha virt. eigenvalues --    1.79008   1.80705   1.80829   1.84098   1.85174
 Alpha virt. eigenvalues --    1.87122   1.88351   1.91809   1.95425   1.99058
 Alpha virt. eigenvalues --    1.99889   2.05965   2.11922   2.17295   2.21539
 Alpha virt. eigenvalues --    2.23673   2.26718   2.33246   2.33998   2.38996
 Alpha virt. eigenvalues --    2.40905   2.44490   2.46084   2.48001   2.55229
 Alpha virt. eigenvalues --    2.59856   2.75966   2.76817   2.78984   2.80757
 Alpha virt. eigenvalues --    2.84510   2.90237   2.92478   2.93317   2.94500
 Alpha virt. eigenvalues --    2.97565   2.97867   3.01792   3.02088   3.04279
 Alpha virt. eigenvalues --    3.07186   3.07630   3.08792   3.09928   3.12450
 Alpha virt. eigenvalues --    3.14949   3.15584   3.15971   3.19719   3.22302
 Alpha virt. eigenvalues --    3.26177   3.29584   3.31099   3.33347   3.33821
 Alpha virt. eigenvalues --    3.35594   3.37113   3.37942   3.39907   3.40645
 Alpha virt. eigenvalues --    3.42849   3.43427   3.45051   3.45909   3.46481
 Alpha virt. eigenvalues --    3.48409   3.50030   3.50898   3.51836   3.51989
 Alpha virt. eigenvalues --    3.52854   3.54364   3.55333   3.55488   3.56101
 Alpha virt. eigenvalues --    3.56498   3.57460   3.58487   3.59668   3.59995
 Alpha virt. eigenvalues --    3.61017   3.62257   3.63348   3.63811   3.65272
 Alpha virt. eigenvalues --    3.66755   3.67321   3.68754   3.69336   3.69390
 Alpha virt. eigenvalues --    3.70648   3.71158   3.72585   3.72894   3.74439
 Alpha virt. eigenvalues --    3.75235   3.75660   3.76422   3.76868   3.78132
 Alpha virt. eigenvalues --    3.79397   3.79800   3.81308   3.82804   3.85897
 Alpha virt. eigenvalues --    3.86667   3.87882   3.89325   3.89958   3.91181
 Alpha virt. eigenvalues --    3.93258   3.93812   3.95230   3.96721   3.98367
 Alpha virt. eigenvalues --    3.99880   4.01336   4.02282   4.03095   4.04457
 Alpha virt. eigenvalues --    4.05147   4.06073   4.06719   4.07037   4.07579
 Alpha virt. eigenvalues --    4.08516   4.09693   4.10169   4.10886   4.11935
 Alpha virt. eigenvalues --    4.12197   4.13657   4.14207   4.15438   4.16813
 Alpha virt. eigenvalues --    4.17656   4.17855   4.18637   4.20270   4.20665
 Alpha virt. eigenvalues --    4.21929   4.23603   4.25374   4.26092   4.27282
 Alpha virt. eigenvalues --    4.27936   4.29961   4.30228   4.32430   4.32932
 Alpha virt. eigenvalues --    4.33890   4.34061   4.35197   4.35661   4.39175
 Alpha virt. eigenvalues --    4.40332   4.42299   4.44996   4.45700   4.47594
 Alpha virt. eigenvalues --    4.57722   4.60994   4.75233   4.75478   4.83620
 Alpha virt. eigenvalues --    4.85188   4.92584   4.95410   4.99112   5.01617
 Alpha virt. eigenvalues --    5.06642   5.07028   5.07587   5.08580   5.11689
 Alpha virt. eigenvalues --    5.12066   5.13875   5.16301   5.30094   5.39920
 Alpha virt. eigenvalues --    5.42330   5.58475   5.58678   5.68016   5.85512
 Alpha virt. eigenvalues --    5.88340   6.01146   7.03003   7.04860   7.05444
 Alpha virt. eigenvalues --    7.08837   7.09808   7.12752   7.14799   7.20471
 Alpha virt. eigenvalues --    7.29282   7.36631   7.40992   7.47823   7.53090
 Alpha virt. eigenvalues --    7.54863   7.63143  23.96196  23.96801  24.06751
 Alpha virt. eigenvalues --   24.06914  24.11102  24.11472  24.13379  24.15773
 Alpha virt. eigenvalues --   24.18503  24.22116  50.16737  50.18327  50.29175
          Condensed to atoms (all electrons):
               1          2          3          4          5          6
     1  C    5.624877   0.420863  -0.046616   0.045631  -0.000224  -0.000557
     2  C    0.420863   7.027887  -1.032443  -0.268919  -0.005278  -0.018245
     3  C   -0.046616  -1.032443   8.566906   0.150678   0.009681   0.177501
     4  C    0.045631  -0.268919   0.150678   5.690602   0.000061   0.001292
     5  O   -0.000224  -0.005278   0.009681   0.000061   8.363610   0.091437
     6  C   -0.000557  -0.018245   0.177501   0.001292   0.091437   5.379871
     7  C   -0.068240  -0.552538   0.150990  -0.026273   0.000826   0.003107
     8  C    0.019144   0.302663  -1.452701  -0.031720  -0.048569  -0.123499
     9  C    0.007870   0.253925  -1.066019  -0.024817   0.145943  -0.212012
    10  C   -0.009537  -0.146657   0.203354   0.004936   0.004741   0.133371
    11  O   -0.052668   0.245699  -0.072980  -0.012687   0.000095   0.000818
    12  O   -0.003742   0.353137  -0.074733  -0.044065   0.000124  -0.001078
    13  C   -0.249666  -0.774193   0.027618  -0.019838   0.002295  -0.002680
    14  H    0.490817   0.000335  -0.010286  -0.020786  -0.000003  -0.000096
    15  H    0.442236   0.003125   0.007757  -0.045992   0.000004   0.000039
    16  H   -0.005056  -0.051820   0.637122   0.007463   0.004047   0.015014
    17  H   -0.017894   0.017520   0.009120   0.419493  -0.000011   0.000145
    18  H   -0.061114  -0.035108  -0.011432   0.516214   0.000087  -0.000388
    19  H   -0.000043  -0.000527  -0.001389  -0.000040  -0.072245   0.428244
    20  H   -0.000170  -0.003521   0.035536   0.000494  -0.041482   0.450007
    21  H   -0.059436  -0.014342  -0.040694  -0.014775  -0.000179  -0.000053
    22  H   -0.031855  -0.007326   0.010442   0.014443   0.000065   0.000038
    23  H    0.004823  -0.070779   0.159041  -0.000071   0.000310   0.003697
    24  H   -0.003822   0.050683  -0.073671  -0.004967  -0.001780  -0.004963
    25  H    0.000281  -0.008331  -0.008366   0.000551  -0.007859  -0.083110
    26  H    0.000145   0.001921  -0.001210  -0.000059   0.008334  -0.032845
    27  H   -0.023454  -0.133459   0.015715  -0.005688  -0.000008   0.000329
    28  H   -0.000109  -0.029832  -0.015737  -0.046312   0.000580  -0.000720
    29  H    0.026194   0.509906  -0.019337  -0.024703   0.000144  -0.008889
    30  H   -0.005447  -0.040896   0.181341   0.009952  -0.040143  -0.003656
    31  H    0.002572   0.018164  -0.130767  -0.000349  -0.070340   0.001205
               7          8          9         10         11         12
     1  C   -0.068240   0.019144   0.007870  -0.009537  -0.052668  -0.003742
     2  C   -0.552538   0.302663   0.253925  -0.146657   0.245699   0.353137
     3  C    0.150990  -1.452701  -1.066019   0.203354  -0.072980  -0.074733
     4  C   -0.026273  -0.031720  -0.024817   0.004936  -0.012687  -0.044065
     5  O    0.000826  -0.048569   0.145943   0.004741   0.000095   0.000124
     6  C    0.003107  -0.123499  -0.212012   0.133371   0.000818  -0.001078
     7  C    5.581856  -0.009771  -0.037309   0.018996   0.095764  -0.012519
     8  C   -0.009771   6.779350   0.577886  -0.488375   0.012457   0.021685
     9  C   -0.037309   0.577886   6.125828  -0.138673  -0.002880  -0.056104
    10  C    0.018996  -0.488375  -0.138673   6.050025   0.017259  -0.000273
    11  O    0.095764   0.012457  -0.002880   0.017259   8.266271  -0.045414
    12  O   -0.012519   0.021685  -0.056104  -0.000273  -0.045414   8.309665
    13  C    0.154257  -0.076502  -0.008872   0.015399  -0.020431  -0.050916
    14  H   -0.093919   0.003518   0.001202  -0.000012  -0.001236   0.000762
    15  H   -0.036390  -0.002157  -0.000451  -0.000198   0.009385  -0.000452
    16  H    0.017122  -0.066729  -0.153890  -0.014496  -0.000520  -0.084172
    17  H    0.009480  -0.003010  -0.002341   0.000338  -0.004380  -0.000396
    18  H   -0.002860   0.000445   0.007107  -0.000814   0.002347  -0.002867
    19  H   -0.000008   0.000143   0.013645  -0.033531   0.000350   0.000404
    20  H    0.000261  -0.032152  -0.029232  -0.019839  -0.000317   0.000146
    21  H    0.463816   0.014934   0.006450  -0.000049  -0.029533   0.006561
    22  H    0.441791   0.000071  -0.000724   0.002255  -0.071934  -0.000028
    23  H    0.006656   0.396399  -0.097705  -0.050824  -0.001517  -0.014884
    24  H   -0.005889   0.424081   0.033561  -0.003143  -0.013921   0.006977
    25  H    0.000412  -0.029382  -0.000906   0.496939   0.000698  -0.000135
    26  H   -0.000634  -0.048411  -0.000770   0.444914   0.000039  -0.000740
    27  H    0.021478  -0.000516  -0.005868   0.001810  -0.005522   0.009200
    28  H    0.005802   0.004942   0.011980  -0.002250   0.009348   0.001540
    29  H   -0.045143   0.018560   0.016557  -0.012978  -0.072674  -0.032729
    30  H    0.006733  -0.108640   0.311505   0.029076  -0.002019  -0.008606
    31  H   -0.003330   0.030061   0.512149  -0.003182   0.000094   0.009554
              13         14         15         16         17         18
     1  C   -0.249666   0.490817   0.442236  -0.005056  -0.017894  -0.061114
     2  C   -0.774193   0.000335   0.003125  -0.051820   0.017520  -0.035108
     3  C    0.027618  -0.010286   0.007757   0.637122   0.009120  -0.011432
     4  C   -0.019838  -0.020786  -0.045992   0.007463   0.419493   0.516214
     5  O    0.002295  -0.000003   0.000004   0.004047  -0.000011   0.000087
     6  C   -0.002680  -0.000096   0.000039   0.015014   0.000145  -0.000388
     7  C    0.154257  -0.093919  -0.036390   0.017122   0.009480  -0.002860
     8  C   -0.076502   0.003518  -0.002157  -0.066729  -0.003010   0.000445
     9  C   -0.008872   0.001202  -0.000451  -0.153890  -0.002341   0.007107
    10  C    0.015399  -0.000012  -0.000198  -0.014496   0.000338  -0.000814
    11  O   -0.020431  -0.001236   0.009385  -0.000520  -0.004380   0.002347
    12  O   -0.050916   0.000762  -0.000452  -0.084172  -0.000396  -0.002867
    13  C    6.765915  -0.003934  -0.005646  -0.010664  -0.050788  -0.031090
    14  H   -0.003934   0.486399  -0.012893  -0.000748  -0.001644   0.002358
    15  H   -0.005646  -0.012893   0.488302   0.000752  -0.007521  -0.005488
    16  H   -0.010664  -0.000748   0.000752   0.458568   0.000334  -0.001027
    17  H   -0.050788  -0.001644  -0.007521   0.000334   0.463257  -0.005240
    18  H   -0.031090   0.002358  -0.005488  -0.001027  -0.005240   0.459549
    19  H    0.000551   0.000000  -0.000002  -0.002608   0.000006  -0.000026
    20  H    0.000965   0.000006  -0.000005   0.001437   0.000006   0.000048
    21  H    0.040009   0.006243  -0.001434  -0.006934  -0.001235  -0.000602
    22  H   -0.014680  -0.007238  -0.007465   0.001086   0.001004  -0.002423
    23  H   -0.017834  -0.000777   0.000309   0.017974   0.000056  -0.000361
    24  H   -0.003093   0.000377  -0.000087  -0.011296  -0.000104   0.000222
    25  H    0.001675   0.000014  -0.000009  -0.000146   0.000009   0.000005
    26  H   -0.000437   0.000001  -0.000009  -0.001126  -0.000001  -0.000028
    27  H    0.503655  -0.002178  -0.002436   0.000411  -0.003083   0.002233
    28  H    0.424988  -0.001791   0.001470   0.000767  -0.009711  -0.002312
    29  H   -0.064970   0.001816   0.001296  -0.008403   0.001003  -0.003676
    30  H   -0.001849  -0.000319   0.000077   0.013210   0.000422  -0.000046
    31  H   -0.004202   0.000025   0.000025  -0.011663  -0.000121  -0.000386
              19         20         21         22         23         24
     1  C   -0.000043  -0.000170  -0.059436  -0.031855   0.004823  -0.003822
     2  C   -0.000527  -0.003521  -0.014342  -0.007326  -0.070779   0.050683
     3  C   -0.001389   0.035536  -0.040694   0.010442   0.159041  -0.073671
     4  C   -0.000040   0.000494  -0.014775   0.014443  -0.000071  -0.004967
     5  O   -0.072245  -0.041482  -0.000179   0.000065   0.000310  -0.001780
     6  C    0.428244   0.450007  -0.000053   0.000038   0.003697  -0.004963
     7  C   -0.000008   0.000261   0.463816   0.441791   0.006656  -0.005889
     8  C    0.000143  -0.032152   0.014934   0.000071   0.396399   0.424081
     9  C    0.013645  -0.029232   0.006450  -0.000724  -0.097705   0.033561
    10  C   -0.033531  -0.019839  -0.000049   0.002255  -0.050824  -0.003143
    11  O    0.000350  -0.000317  -0.029533  -0.071934  -0.001517  -0.013921
    12  O    0.000404   0.000146   0.006561  -0.000028  -0.014884   0.006977
    13  C    0.000551   0.000965   0.040009  -0.014680  -0.017834  -0.003093
    14  H    0.000000   0.000006   0.006243  -0.007238  -0.000777   0.000377
    15  H   -0.000002  -0.000005  -0.001434  -0.007465   0.000309  -0.000087
    16  H   -0.002608   0.001437  -0.006934   0.001086   0.017974  -0.011296
    17  H    0.000006   0.000006  -0.001235   0.001004   0.000056  -0.000104
    18  H   -0.000026   0.000048  -0.000602  -0.002423  -0.000361   0.000222
    19  H    0.472092  -0.007508   0.000014  -0.000008  -0.000840   0.000653
    20  H   -0.007508   0.499898  -0.000009   0.000023  -0.008538   0.000798
    21  H    0.000014  -0.000009   0.497050  -0.012392  -0.002698  -0.001098
    22  H   -0.000008   0.000023  -0.012392   0.481266   0.000998  -0.001387
    23  H   -0.000840  -0.008538  -0.002698   0.000998   0.499432  -0.035565
    24  H    0.000653   0.000798  -0.001098  -0.001387  -0.035565   0.484428
    25  H   -0.002462   0.001472   0.000098   0.000041   0.003875  -0.007016
    26  H   -0.009282   0.005260   0.000028   0.000016  -0.006416  -0.010896
    27  H    0.000036  -0.000033  -0.000841   0.000350   0.001649  -0.000826
    28  H   -0.000052  -0.000026  -0.001356   0.001395  -0.000113   0.000078
    29  H   -0.000213  -0.001606   0.003513  -0.001035  -0.012924   0.005728
    30  H   -0.004695   0.009321  -0.000990   0.000195   0.001710  -0.000050
    31  H    0.003310  -0.003186   0.000597  -0.000049  -0.004375  -0.000328
              25         26         27         28         29         30
     1  C    0.000281   0.000145  -0.023454  -0.000109   0.026194  -0.005447
     2  C   -0.008331   0.001921  -0.133459  -0.029832   0.509906  -0.040896
     3  C   -0.008366  -0.001210   0.015715  -0.015737  -0.019337   0.181341
     4  C    0.000551  -0.000059  -0.005688  -0.046312  -0.024703   0.009952
     5  O   -0.007859   0.008334  -0.000008   0.000580   0.000144  -0.040143
     6  C   -0.083110  -0.032845   0.000329  -0.000720  -0.008889  -0.003656
     7  C    0.000412  -0.000634   0.021478   0.005802  -0.045143   0.006733
     8  C   -0.029382  -0.048411  -0.000516   0.004942   0.018560  -0.108640
     9  C   -0.000906  -0.000770  -0.005868   0.011980   0.016557   0.311505
    10  C    0.496939   0.444914   0.001810  -0.002250  -0.012978   0.029076
    11  O    0.000698   0.000039  -0.005522   0.009348  -0.072674  -0.002019
    12  O   -0.000135  -0.000740   0.009200   0.001540  -0.032729  -0.008606
    13  C    0.001675  -0.000437   0.503655   0.424988  -0.064970  -0.001849
    14  H    0.000014   0.000001  -0.002178  -0.001791   0.001816  -0.000319
    15  H   -0.000009  -0.000009  -0.002436   0.001470   0.001296   0.000077
    16  H   -0.000146  -0.001126   0.000411   0.000767  -0.008403   0.013210
    17  H    0.000009  -0.000001  -0.003083  -0.009711   0.001003   0.000422
    18  H    0.000005  -0.000028   0.002233  -0.002312  -0.003676  -0.000046
    19  H   -0.002462  -0.009282   0.000036  -0.000052  -0.000213  -0.004695
    20  H    0.001472   0.005260  -0.000033  -0.000026  -0.001606   0.009321
    21  H    0.000098   0.000028  -0.000841  -0.001356   0.003513  -0.000990
    22  H    0.000041   0.000016   0.000350   0.001395  -0.001035   0.000195
    23  H    0.003875  -0.006416   0.001649  -0.000113  -0.012924   0.001710
    24  H   -0.007016  -0.010896  -0.000826   0.000078   0.005728  -0.000050
    25  H    0.476927  -0.011633   0.000013   0.000058   0.000379  -0.000658
    26  H   -0.011633   0.494061  -0.000001  -0.000040   0.000203  -0.001539
    27  H    0.000013  -0.000001   0.454084  -0.004613  -0.017861   0.000289
    28  H    0.000058  -0.000040  -0.004613   0.487719  -0.007304  -0.001450
    29  H    0.000379   0.000203  -0.017861  -0.007304   0.482238  -0.027274
    30  H   -0.000658  -0.001539   0.000289  -0.001450  -0.027274   0.530882
    31  H   -0.001109   0.001687  -0.000152  -0.003030   0.005500  -0.031383
              31
     1  C    0.002572
     2  C    0.018164
     3  C   -0.130767
     4  C   -0.000349
     5  O   -0.070340
     6  C    0.001205
     7  C   -0.003330
     8  C    0.030061
     9  C    0.512149
    10  C   -0.003182
    11  O    0.000094
    12  O    0.009554
    13  C   -0.004202
    14  H    0.000025
    15  H    0.000025
    16  H   -0.011663
    17  H   -0.000121
    18  H   -0.000386
    19  H    0.003310
    20  H   -0.003186
    21  H    0.000597
    22  H   -0.000049
    23  H   -0.004375
    24  H   -0.000328
    25  H   -0.001109
    26  H    0.001687
    27  H   -0.000152
    28  H   -0.003030
    29  H    0.005500
    30  H   -0.031383
    31  H    0.482501
 Mulliken charges:
               1
     1  C   -0.445805
     2  C   -0.011613
     3  C   -0.284422
     4  C   -0.269750
     5  O   -0.344260
     6  C   -0.193321
     7  C   -0.084524
     8  C   -0.084206
     9  C   -0.187034
    10  C   -0.498584
    11  O   -0.249990
    12  O   -0.285902
    13  C   -0.525040
    14  H    0.163989
    15  H    0.173858
    16  H    0.255992
    17  H    0.185288
    18  H    0.176676
    19  H    0.216034
    20  H    0.141947
    21  H    0.149336
    22  H    0.203062
    23  H    0.229294
    24  H    0.176316
    25  H    0.177676
    26  H    0.169468
    27  H    0.195288
    28  H    0.176091
    29  H    0.288681
    30  H    0.184948
    31  H    0.200508
 Sum of Mulliken charges =  -0.00000
 Mulliken charges with hydrogens summed into heavy atoms:
               1
     1  C   -0.107959
     2  C    0.277067
     3  C   -0.028430
     4  C    0.092214
     5  O   -0.344260
     6  C    0.164660
     7  C    0.267874
     8  C    0.321404
     9  C    0.198422
    10  C   -0.151440
    11  O   -0.249990
    12  O   -0.285902
    13  C   -0.153661
 Electronic spatial extent (au):  <R**2>=           3058.9633
 Charge=             -0.0000 electrons
 Dipole moment (field-independent basis, Debye):
    X=             -1.0590    Y=              0.9085    Z=              0.8300  Tot=              1.6235
 Quadrupole moment (field-independent basis, Debye-Ang):
   XX=            -77.3338   YY=            -80.6650   ZZ=            -80.0169
   XY=              6.9611   XZ=              4.3705   YZ=             -3.9718
 Traceless Quadrupole moment (field-independent basis, Debye-Ang):
   XX=              2.0048   YY=             -1.3265   ZZ=             -0.6783
   XY=              6.9611   XZ=              4.3705   YZ=             -3.9718
 Octapole moment (field-independent basis, Debye-Ang**2):
  XXX=            -24.3166  YYY=              0.8928  ZZZ=             -0.4603  XYY=             -5.9687
  XXY=             27.9357  XXZ=              9.1092  XZZ=              3.5587  YZZ=             -1.6607
  YYZ=             -1.9442  XYZ=              2.6808
 Hexadecapole moment (field-independent basis, Debye-Ang**3):
 XXXX=          -3135.4167 YYYY=           -619.7575 ZZZZ=           -247.5188 XXXY=             79.7719
 XXXZ=             46.6275 YYYX=            -12.5148 YYYZ=              3.3777 ZZZX=             -2.5787
 ZZZY=             -1.6787 XXYY=           -651.0187 XXZZ=           -574.9957 YYZZ=           -150.8547
 XXYZ=            -16.6674 YYXZ=              3.7868 ZZXY=             -0.8864
 N-N= 8.958874504447D+02 E-N=-3.233559059761D+03  KE= 6.153363122485D+02
 D1PCM: PCM CHGder 1st derivatives, ID1Alg=3 FixD1E=F DoIter=F DoCFld=F I1PDM=0.
 Calling FoFJK, ICntrl=      2127 FMM=F ISym2X=0 I1Cent= 0 IOpClX= 0 NMat=1 NMatS=1 NMatT=0.
 ***** Axes restored to original set *****
 -------------------------------------------------------------------
 Center     Atomic                   Forces (Hartrees/Bohr)
 Number     Number              X              Y              Z
 -------------------------------------------------------------------
      1        6           0.002088314   -0.000876601   -0.001556684
      2        6          -0.003538358   -0.000442245   -0.005445510
      3        6          -0.001348318   -0.000324862    0.010579160
      4        6           0.001748460    0.002753731    0.002207616
      5        8           0.005441354   -0.005364144   -0.005038905
      6        6          -0.005837582    0.001471298   -0.003294237
      7        6          -0.001401350   -0.006377102    0.001616574
      8        6           0.002892933   -0.002254471   -0.004526005
      9        6           0.003032463    0.006988963   -0.002113082
     10        6          -0.001208703   -0.001323147    0.002652416
     11        8           0.003989882    0.007261980    0.008308089
     12        8          -0.005982129   -0.003135585   -0.010204603
     13        6           0.000059519    0.000470401   -0.002476216
     14        1          -0.000985042    0.000400357    0.003168394
     15        1          -0.001971352    0.000360597   -0.002035705
     16        1           0.002169449    0.000653671   -0.005417543
     17        1          -0.002006475   -0.001555293    0.000471642
     18        1           0.002268598   -0.000094930   -0.002834465
     19        1           0.004270045    0.000352325   -0.000852065
     20        1          -0.001345683    0.000314870    0.006054461
     21        1           0.002340897   -0.001253854   -0.005697355
     22        1          -0.001225236    0.004146546    0.000991790
     23        1          -0.001930282   -0.000971836    0.004565946
     24        1          -0.002724405    0.002135806   -0.001001076
     25        1           0.000615224   -0.000133671   -0.003220759
     26        1           0.000784756    0.002626595    0.001364050
     27        1          -0.001451602    0.000829862    0.003007355
     28        1           0.001387539   -0.002861830   -0.000653921
     29        1           0.004497388    0.000007967    0.007259595
     30        1          -0.002879146   -0.000231576    0.006631364
     31        1          -0.001751158   -0.003573822   -0.002510321
 -------------------------------------------------------------------
 Cartesian Forces:  Max     0.010579160 RMS     0.003554185

 GradGradGradGradGradGradGradGradGradGradGradGradGradGradGradGradGradGrad
 Berny optimization.
 FormGI is forming the generalized inverse of G from B-inverse, IUseBI=4.
 Internal  Forces:  Max     0.016882334 RMS     0.002272739
 Search for a local minimum.
 Step number   1 out of a maximum of  186
 All quantities printed in internal units (Hartrees-Bohrs-Radians)
 Mixed Optimization -- RFO/linear search
 Second derivative matrix not updated -- first step.
 ITU=  0
     Eigenvalues ---    0.00624   0.00633   0.00720   0.00721   0.01414
     Eigenvalues ---    0.01429   0.01701   0.02629   0.02704   0.03079
     Eigenvalues ---    0.03151   0.03896   0.04089   0.04529   0.04745
     Eigenvalues ---    0.04851   0.04891   0.05141   0.05142   0.05188
     Eigenvalues ---    0.05279   0.05690   0.05748   0.06144   0.06169
     Eigenvalues ---    0.06385   0.06564   0.07050   0.07610   0.07687
     Eigenvalues ---    0.07849   0.07960   0.08025   0.08050   0.08233
     Eigenvalues ---    0.08826   0.09201   0.09437   0.10877   0.11600
     Eigenvalues ---    0.11640   0.11702   0.11766   0.12401   0.12498
     Eigenvalues ---    0.14683   0.14786   0.16451   0.16474   0.17857
     Eigenvalues ---    0.19106   0.21456   0.21955   0.25000   0.28368
     Eigenvalues ---    0.28543   0.28625   0.28839   0.28935   0.28979
     Eigenvalues ---    0.30137   0.30277   0.35065   0.35091   0.35092
     Eigenvalues ---    0.35156   0.35192   0.35200   0.35238   0.35299
     Eigenvalues ---    0.35315   0.35415   0.35425   0.35445   0.35479
     Eigenvalues ---    0.35635   0.35827   0.35835   0.35843   0.36157
     Eigenvalues ---    0.40902   0.41504   0.42197   0.42348   0.43490
     Eigenvalues ---    0.457411000.000001000.000001000.000001000.00000
     Eigenvalues --- 1000.000001000.000001000.000001000.000001000.00000
     Eigenvalues --- 1000.000001000.000001000.000001000.000001000.00000
     Eigenvalues --- 1000.000001000.000001000.000001000.000001000.00000
     Eigenvalues --- 1000.000001000.000001000.000001000.000001000.00000
     Eigenvalues --- 1000.000001000.000001000.000001000.000001000.00000
     Eigenvalues --- 1000.000001000.000001000.000001000.000001000.00000
     Eigenvalues --- 1000.000001000.000001000.000001000.000001000.00000
     Eigenvalues --- 1000.000001000.000001000.000001000.000001000.00000
     Eigenvalues --- 1000.000001000.000001000.000001000.000001000.00000
     Eigenvalues --- 1000.000001000.000001000.000001000.000001000.00000
     Eigenvalues --- 1000.000001000.000001000.000001000.000001000.00000
     Eigenvalues --- 1000.000001000.000001000.000001000.000001000.00000
     Eigenvalues --- 1000.000001000.000001000.000001000.000001000.00000
     Eigenvalues --- 1000.000001000.000001000.000001000.000001000.00000
     Eigenvalues --- 1000.000001000.000001000.000001000.000001000.00000
     Eigenvalues --- 1000.000001000.000001000.000001000.000001000.00000
     Eigenvalues --- 1000.000001000.000001000.000001000.000001000.00000
     Eigenvalues --- 1000.000001000.000001000.000001000.000001000.00000
     Eigenvalues --- 1000.000001000.000001000.000001000.000001000.00000
 RFO step:  Lambda=-4.12711249D-03 EMin= 6.23505705D-03
 Linear search not attempted -- first point.
 Iteration  1 RMS(Cart)=  0.08022260 RMS(Int)=  0.00117135
 Iteration  2 RMS(Cart)=  0.00358872 RMS(Int)=  0.00005488
 Iteration  3 RMS(Cart)=  0.00000374 RMS(Int)=  0.00005485
 Iteration  4 RMS(Cart)=  0.00000000 RMS(Int)=  0.00005485
 Iteration  1 RMS(Cart)=  0.00001476 RMS(Int)=  0.00000347
 Iteration  2 RMS(Cart)=  0.00000815 RMS(Int)=  0.00000388
 Iteration  3 RMS(Cart)=  0.00000450 RMS(Int)=  0.00000439
 Iteration  4 RMS(Cart)=  0.00000249 RMS(Int)=  0.00000473
 Iteration  5 RMS(Cart)=  0.00000137 RMS(Int)=  0.00000493
 Iteration  6 RMS(Cart)=  0.00000076 RMS(Int)=  0.00000504
 Variable       Old X    -DE/DX   Delta X   Delta X   Delta X     New X
                                 (Linear)    (Quad)   (Total)
    R1        2.88871  -0.00074   0.00000  -0.00179  -0.00180   2.88691
    R2        2.87169   0.00027   0.00000   0.00126   0.00129   2.87298
    R3        2.05527   0.00327   0.00000   0.00920   0.00920   2.06447
    R4        2.05290   0.00283   0.00000   0.00794   0.00794   2.06084
    R5        2.65243   0.00334   0.00000   0.00691   0.00693   2.65936
    R6        2.64424   0.00270   0.00000   0.00585   0.00585   2.65009
    R7        2.87688  -0.00069   0.00000  -0.00269  -0.00271   2.87417
    R8        2.03837   0.00848   0.00000   0.02319   0.02319   2.06156
    R9        2.88525  -0.00244   0.00000  -0.00745  -0.00746   2.87779
   R10        2.88537  -0.00022   0.00000  -0.00030  -0.00028   2.88509
   R11        2.68673   0.00002   0.00000   0.00005   0.00005   2.68678
   R12        2.04656   0.00574   0.00000   0.01593   0.01593   2.06249
   R13        2.89019  -0.00150   0.00000  -0.00488  -0.00489   2.88530
   R14        2.05166   0.00258   0.00000   0.00722   0.00722   2.05888
   R15        2.05364   0.00343   0.00000   0.00963   0.00963   2.06327
   R16        2.67583   0.00378   0.00000   0.00825   0.00826   2.68409
   R17        2.66636   0.00303   0.00000   0.00709   0.00710   2.67346
   R18        2.87117   0.00053   0.00000   0.00128   0.00126   2.87243
   R19        2.04354   0.00437   0.00000   0.01205   0.01205   2.05559
   R20        2.05569   0.00609   0.00000   0.01715   0.01715   2.07284
   R21        2.68567   0.00280   0.00000   0.00646   0.00646   2.69213
   R22        2.05007   0.00619   0.00000   0.01727   0.01727   2.06734
   R23        2.04328   0.00443   0.00000   0.01222   0.01222   2.05550
   R24        2.89603  -0.00046   0.00000  -0.00194  -0.00196   2.89407
   R25        2.04990   0.00492   0.00000   0.01373   0.01373   2.06363
   R26        2.04904   0.00338   0.00000   0.00943   0.00943   2.05847
   R27        2.05525   0.00701   0.00000   0.01973   0.01973   2.07498
   R28        2.04341   0.00463   0.00000   0.01277   0.01277   2.05618
   R29        2.05423   0.00320   0.00000   0.00901   0.00901   2.06324
   R30        2.05192   0.00304   0.00000   0.00852   0.00852   2.06044
   R31        2.05352   0.00338   0.00000   0.00950   0.00950   2.06302
   R32        2.04959   0.00322   0.00000   0.00899   0.00899   2.05857
    A1        1.92305  -0.00102   0.00000  -0.00455  -0.00476   1.91830
    A2        1.91597   0.00089   0.00000   0.00120   0.00129   1.91726
    A3        1.93936  -0.00052   0.00000  -0.00201  -0.00197   1.93739
    A4        1.90556   0.00009   0.00000  -0.00125  -0.00118   1.90438
    A5        1.90325   0.00060   0.00000   0.00350   0.00355   1.90679
    A6        1.87578  -0.00001   0.00000   0.00331   0.00328   1.87906
    A7        1.94389   0.00022   0.00000  -0.00185  -0.00169   1.94220
    A8        1.93737   0.00366   0.00000   0.01478   0.01459   1.95196
    A9        1.83621  -0.00255   0.00000  -0.01414  -0.01415   1.82205
   A10        1.89320  -0.00307   0.00000  -0.01373  -0.01364   1.87956
   A11        1.92635   0.00177   0.00000   0.01158   0.01156   1.93791
   A12        1.92690   0.00010   0.00000   0.00403   0.00411   1.93101
   A13        1.92641   0.00037   0.00000  -0.00532  -0.00542   1.92099
   A14        2.03052  -0.00333   0.00000  -0.02333  -0.02332   2.00721
   A15        1.89534   0.00049   0.00000   0.00572   0.00582   1.90116
   A16        1.89415   0.00204   0.00000   0.00542   0.00516   1.89932
   A17        1.88830  -0.00041   0.00000   0.00282   0.00277   1.89107
   A18        1.82221   0.00098   0.00000   0.01738   0.01740   1.83961
   A19        1.91326   0.00192   0.00000  -0.00139  -0.00139   1.91187
   A20        1.93045  -0.00023   0.00000   0.00200   0.00207   1.93251
   A21        1.91434  -0.00085   0.00000  -0.00144  -0.00154   1.91281
   A22        1.91627  -0.00057   0.00000   0.00135   0.00134   1.91761
   A23        1.92240  -0.00098   0.00000  -0.00642  -0.00642   1.91598
   A24        1.86673   0.00065   0.00000   0.00599   0.00600   1.87273
   A25        1.97881  -0.00478   0.00000  -0.02668  -0.02664   1.95217
   A26        1.93444   0.00192   0.00000   0.00913   0.00915   1.94359
   A27        1.85573  -0.00124   0.00000  -0.00347  -0.00347   1.85226
   A28        1.90305   0.00074   0.00000   0.00673   0.00675   1.90980
   A29        1.94550  -0.00032   0.00000  -0.00278  -0.00279   1.94271
   A30        1.93100  -0.00164   0.00000  -0.01027  -0.01031   1.92069
   A31        1.89189   0.00057   0.00000   0.00107   0.00103   1.89293
   A32        1.94538   0.00232   0.00000   0.00614   0.00611   1.95149
   A33        1.93196  -0.00160   0.00000  -0.00706  -0.00711   1.92485
   A34        1.94557  -0.00024   0.00000  -0.00182  -0.00175   1.94381
   A35        1.90946   0.00011   0.00000   0.00096   0.00102   1.91048
   A36        1.84196  -0.00134   0.00000  -0.00235  -0.00237   1.83959
   A37        1.88650   0.00075   0.00000   0.00443   0.00442   1.89092
   A38        1.89912   0.00088   0.00000  -0.00049  -0.00050   1.89863
   A39        1.92946  -0.00121   0.00000  -0.00952  -0.00953   1.91993
   A40        1.92650  -0.00045   0.00000  -0.00408  -0.00410   1.92240
   A41        1.90133   0.00025   0.00000   0.00542   0.00541   1.90674
   A42        1.92759   0.00050   0.00000   0.01100   0.01099   1.93858
   A43        1.87981   0.00002   0.00000  -0.00217  -0.00226   1.87755
   A44        1.93682   0.00174   0.00000   0.00943   0.00950   1.94632
   A45        1.92589  -0.00220   0.00000  -0.01517  -0.01522   1.91067
   A46        1.92455  -0.00076   0.00000  -0.00722  -0.00731   1.91723
   A47        1.91475   0.00092   0.00000   0.00885   0.00888   1.92363
   A48        1.86497  -0.00033   0.00000   0.00423   0.00424   1.86921
   A49        1.89550   0.00070   0.00000   0.00044   0.00031   1.89580
   A50        1.93216  -0.00064   0.00000  -0.00600  -0.00603   1.92613
   A51        1.90428  -0.00037   0.00000  -0.00260  -0.00261   1.90167
   A52        1.90814   0.00076   0.00000   0.00488   0.00489   1.91303
   A53        1.92152   0.00065   0.00000  -0.00003  -0.00004   1.92148
   A54        1.92186  -0.00040   0.00000   0.00109   0.00110   1.92296
   A55        1.87488   0.00002   0.00000   0.00294   0.00294   1.87782
   A56        2.02459  -0.00586   0.00000  -0.03737  -0.03725   1.98734
   A57        2.11490  -0.01688   0.00000  -0.06643  -0.06643   2.04847
   A58        1.95409  -0.00192   0.00000  -0.01641  -0.01653   1.93757
   A59        1.87277   0.00015   0.00000   0.00428   0.00427   1.87704
   A60        1.90129   0.00085   0.00000  -0.00027  -0.00025   1.90104
   A61        1.90918   0.00125   0.00000   0.00724   0.00733   1.91651
   A62        1.94722  -0.00021   0.00000  -0.00093  -0.00104   1.94618
   A63        1.87620  -0.00003   0.00000   0.00723   0.00720   1.88340
    D1        0.92064  -0.00008   0.00000   0.00835   0.00836   0.92900
    D2        3.03612   0.00032   0.00000   0.01042   0.01045   3.04657
    D3       -1.19217   0.00046   0.00000   0.01808   0.01812  -1.17405
    D4       -1.17855  -0.00011   0.00000   0.01200   0.01200  -1.16655
    D5        0.93692   0.00029   0.00000   0.01407   0.01409   0.95102
    D6        2.99182   0.00042   0.00000   0.02173   0.02176   3.01358
    D7        3.03211  -0.00035   0.00000   0.00838   0.00834   3.04045
[...]
 29178933,0.00021759,-0.00000665,0.00001197,0.00025270,0.00018212,0.000
 28424,-0.00001139,0.00000096,0.00002307,0.00000233,0.00000128,-0.00000
 295,0.00000984,0.00000282,0.00000378,0.00001763,0.00046030,0.00028370,
 0.00000759,0.00000156,0.00000274,-0.00000207,-0.00000141,-0.00000095,-
 0.00032516,-0.00002064,0.00057950,-0.00144222,0.00193115,0.00044148,0.
 00000162,0.00000040,0.00000175,0.00000777,-0.00000843,0.00000297,0.000
 49039,-0.00005324,0.00120539,0.00040045,-0.00003729,0.00044311,-0.0602
 4065,-0.04051435,0.31702670,0.00000289,-0.00000508,-0.00001682,0.00078
 644,-0.00035092,-0.00107117,-0.00534602,0.00259096,0.00271388,0.000008
 28,-0.00002919,0.00002788,-0.00030230,0.00590052,-0.00099282,0.0054566
 2,0.01123998,0.01084132,0.00014449,-0.00004639,0.00007980,-0.01005390,
 -0.02908781,-0.01710326,-0.00139862,0.00031042,-0.00004485,-0.06524588
 ,-0.05834658,-0.03768931,-0.00019433,0.00034629,0.00009284,-0.00214279
 ,-0.00284968,-0.00039519,-0.00005177,0.00009520,0.00012705,-0.00000698
 ,0.00000059,0.00000821,-0.00001715,0.00000394,-0.00000740,0.00006631,0
 .00020341,-0.00012030,-0.00003148,-0.00000005,-0.00000673,0.00001338,0
 .00000981,0.00001970,0.00012370,-0.00095665,0.00040914,0.00052032,-0.0
 0057082,-0.00016854,0.00000175,-0.00001816,0.00000965,-0.00002421,0.00
 002072,-0.00000109,0.00147570,0.00031143,0.00031065,0.00140407,0.00072
 489,-0.00034414,0.00120748,0.00624452,0.00297974,0.07319654,-0.0000011
 6,0.00000094,-0.00001157,0.00027467,-0.00007346,-0.00033718,-0.0001022
 1,0.00173948,0.00085466,-0.00000127,-0.00001241,0.00001229,0.00234630,
 -0.00753956,0.00157604,-0.00988751,-0.01735480,-0.01512493,0.00007827,
 -0.00003030,0.00005777,-0.00133131,-0.00276733,-0.00114729,0.00191651,
 0.00102470,-0.00024819,-0.05836585,-0.22743572,-0.10977935,-0.00018045
 ,0.00009879,0.00003276,-0.00035250,-0.00023915,0.00000330,-0.00000703,
 0.00002779,0.00002275,-0.00000333,-0.00000083,0.00000386,-0.00000947,-
 0.00000039,-0.00000401,0.00005991,-0.00005648,-0.00012492,-0.00001345,
 -0.00000091,-0.00000390,0.00000488,0.00000381,0.00000583,0.00037938,0.
 00069568,-0.00015349,-0.00037957,0.00084798,0.00053694,0.00000323,-0.0
 0000441,0.00000167,-0.00001091,0.00000970,-0.00000206,-0.00004808,0.00
 010208,0.00015472,-0.00029516,0.00043828,0.00014848,0.00206137,0.00483
 351,0.00231612,0.06431303,0.24579442,-0.00000337,0.00000153,-0.0000078
 6,-0.00000749,-0.00007616,-0.00003333,0.00084513,-0.00000250,0.0003444
 3,-0.00000100,-0.00000387,0.00000700,-0.00105954,0.00305751,0.00105324
 ,0.00471429,0.00907099,0.00511786,0.00002602,-0.00001966,0.00002965,0.
 00211563,0.00499675,0.00163415,-0.00042598,-0.00000381,-0.00018447,-0.
 03807753,-0.11197642,-0.11801144,-0.00008861,-0.00000041,-0.00000618,0
 .00013041,0.00009765,0.00044390,-0.00001515,0.00002091,0.00002098,-0.0
 0000088,-0.00000040,0.00000119,-0.00000434,-0.00000083,-0.00000171,-0.
 00003870,0.00036242,0.00035097,-0.00000369,-0.00000091,-0.00000353,0.0
 0000102,0.00000049,-0.00000150,0.00008413,-0.00052100,0.00028543,0.000
 52625,-0.00069806,0.00019893,0.00000027,-0.00000105,-0.00000233,-0.000
 00343,0.00000405,-0.00000110,-0.00045136,0.00023811,0.00053380,-0.0003
 4279,-0.00018740,-0.00012600,-0.00821741,-0.02541946,-0.01469488,0.040
 22089,0.12112430,0.12309656,0.00102738,-0.00086103,0.00010929,-0.00966
 609,0.00574037,0.02366682,0.00146335,-0.00014007,0.00126464,0.00953123
 ,-0.00172573,-0.02283601,-0.00031475,0.00004687,-0.00008904,0.00005475
 ,0.00005833,0.00010412,-0.00023247,-0.00002527,-0.00007231,-0.00031511
 ,0.00009850,0.00013146,0.00017466,-0.00023208,0.00008157,0.00005367,-0
 .00014494,-0.00012860,0.00132900,0.00078524,-0.00110392,-0.00773077,-0
 .00401291,0.00184199,-0.09512629,0.00808758,0.10064997,-0.00019522,0.0
 0003939,0.00042432,-0.00009020,-0.00026951,0.00021111,-0.00061298,-0.0
 0013378,0.00011930,0.00111799,-0.00044599,0.00084071,-0.00267954,0.001
 72933,-0.00368979,-0.00002555,-0.00000209,-0.00001106,0.00000635,-0.00
 000483,-0.00002073,-0.00006031,0.00003572,-0.00002295,0.00007246,0.000
 00580,0.00000371,0.00000720,-0.00000803,-0.00003855,0.00002175,-0.0000
 2306,0.00000495,0.00000260,0.00000763,0.00000475,-0.00008611,-0.000025
 07,-0.00001169,0.10660014,-0.00067570,0.00044276,0.00077383,-0.0072775
 7,0.00063467,0.01927740,0.00024999,0.00028988,0.00085991,-0.00320024,-
 0.00014424,0.00614906,-0.00014940,0.00005216,-0.00005755,0.00002701,0.
 00002919,0.00004257,-0.00012163,-0.00009002,0.00015815,-0.00000502,0.0
 0007330,0.00002848,0.00001498,-0.00017395,0.00010434,0.00002020,-0.000
 04237,-0.00003825,0.00022650,0.00084963,-0.00058240,-0.00462101,-0.001
 45410,0.00062603,0.01125217,-0.05250121,-0.02280552,0.00020479,0.00004
 699,-0.00004761,0.00001586,0.00006735,-0.00012709,-0.00033227,-0.00005
 427,0.00005920,-0.00001604,0.00021041,-0.00050215,0.00072059,0.0005603
 6,0.00111123,-0.00000945,-0.00000223,-0.00000405,0.00000182,-0.0000028
 8,-0.00000814,0.00002636,0.00004821,-0.00007453,0.00000938,-0.00000684
 ,-0.00000539,0.00000531,-0.00001222,-0.00002612,0.00001517,-0.00001256
 ,-0.00000402,0.00000328,0.00000338,0.00000016,-0.00002734,-0.00000844,
 -0.00000562,-0.00952568,0.05154076,0.00088191,-0.00072737,0.00080219,-
 0.00053777,-0.00153667,-0.00239252,-0.00063555,-0.00012746,0.00012894,
 0.00888969,-0.00212716,-0.02305182,0.00008762,-0.00001848,0.00002233,-
 0.00001240,-0.00001272,-0.00002476,-0.00025892,0.00017346,-0.00017194,
 0.00010614,-0.00000790,-0.00001125,-0.00000282,0.00007502,-0.00004242,
 -0.00002004,0.00003628,0.00002790,-0.00054195,0.00023114,0.00070194,0.
 00080263,0.00002579,0.00117843,0.10324312,-0.01985818,-0.26048826,-0.0
 0022568,0.00073088,0.00027753,-0.00027291,-0.00006605,0.00032637,0.000
 03535,0.00000978,-0.00001610,0.00004817,-0.00033714,0.00104967,-0.0037
 0722,0.00141044,-0.00224654,0.00000690,-0.00000004,0.00000279,-0.00000
 203,0.00000114,0.00000562,-0.00004605,-0.00008331,0.00001873,0.0000682
 8,0.00006437,0.00001810,-0.00000825,-0.00000980,-0.00000792,-0.0000026
 2,0.00000627,-0.00000425,0.00000487,-0.00000076,-0.00000374,0.00002139
 ,0.00000570,0.00000034,-0.10899903,0.02247911,0.28547295,-0.00265540,0
 .00000744,-0.00446076,0.00980553,-0.02244342,-0.00188698,0.00002516,0.
 00021224,-0.00019937,-0.00682792,0.02096036,0.00401264,-0.00000181,0.0
 0002229,-0.00000347,-0.00000492,-0.00002003,-0.00000442,-0.00156452,0.
 00010667,-0.00108802,0.00002149,-0.00002368,0.00000746,0.00001551,-0.0
 0000956,0.00003389,0.00000354,0.00002493,0.00001031,-0.00269106,-0.007
 56531,0.00085348,0.00101594,-0.00015012,-0.00053200,-0.07851836,0.0850
 6291,0.01047344,0.00009718,-0.00042785,0.00000917,-0.00009411,0.001677
 42,-0.00015772,0.00004790,0.00000655,-0.00001610,0.00039707,-0.0003604
 3,0.00084107,0.00094918,-0.00055248,0.00011576,-0.00000224,0.00000531,
 0.00000091,-0.00000076,-0.00000013,-0.00000066,0.00013873,0.00000443,0
 .00014460,0.00026829,0.00001909,0.00016866,0.00001989,-0.00001274,0.00
 001677,0.00000388,0.00002328,-0.00002843,-0.00000645,0.00000013,0.0000
 0485,0.00000280,-0.00000072,0.00000045,-0.00480837,0.01261311,0.000831
 32,0.08367380,0.00083484,0.00141043,0.00135676,0.01043989,-0.01857090,
 -0.00270512,-0.00028868,0.00035957,-0.00000067,0.00149790,-0.00452177,
 -0.00032780,0.00000077,0.00002936,-0.00000042,-0.00001217,-0.00002486,
 -0.00000220,-0.00072880,0.00098163,-0.00135766,0.00009456,-0.00005176,
 -0.00005490,-0.00011238,-0.00005147,0.00002758,0.00000580,0.00006874,0
 .00004331,-0.00365726,-0.00493239,0.00048876,0.00097126,0.00197753,-0.
 00051529,0.08101555,-0.28531378,-0.02674487,-0.00000170,0.00004273,-0.
 00009657,-0.00002747,-0.00041245,-0.00017329,0.00000587,0.00001264,-0.
 00000454,0.00028657,0.00035776,0.00021267,-0.00005587,0.00024606,0.000
 22020,-0.00000438,0.00000778,-0.00000134,0.00000102,-0.00000002,-0.000
 00030,0.00004735,-0.00003774,0.00020425,0.00009231,-0.00008072,0.00007
 312,0.00004038,0.00000257,0.00005244,-0.00000146,0.00004371,-0.0000299
 6,-0.00001843,-0.00000209,0.00000686,0.00001249,-0.00000021,-0.0000010
 9,0.00025538,-0.00100222,-0.00073565,-0.09028042,0.30902040,-0.0034138
 2,0.00000343,-0.00352956,0.00105527,0.00185395,-0.00236735,-0.00005116
 ,-0.00002478,0.00004664,-0.00729679,0.02418335,0.00257779,-0.00000360,
 -0.00000215,-0.00000941,-0.00000111,-0.00000032,0.00000432,-0.00051514
 ,-0.00030145,-0.00024208,-0.00002648,-0.00000609,0.00000497,0.00000632
 ,0.00000226,0.00000409,-0.00000155,-0.00000324,-0.00000363,-0.00020409
 ,-0.00053535,0.00143247,0.00010844,0.00056378,0.00027078,0.01000294,-0
 .02972305,-0.05104407,-0.00015890,0.00024163,0.00019726,-0.00042094,0.
 00137347,0.00017892,-0.00002813,0.00000251,0.00000700,0.00056867,-0.00
 066161,0.00083178,0.00095478,-0.00014304,0.00091848,-0.00000132,0.0000
 0068,-0.00000052,-0.00000007,0.00000019,-0.00000111,0.00008078,-0.0000
 0982,0.00005237,0.00010203,-0.00000653,0.00009455,0.00000440,0.0000007
 5,0.00000094,-0.00000290,0.00000575,-0.00000251,0.00000010,-0.00000111
 ,0.00000037,-0.00000285,-0.00000161,-0.00000091,0.00789864,-0.02701511
 ,-0.00222718,-0.00876745,0.03013265,0.05284100,0.00044585,-0.00016914,
 0.00002796,-0.15174728,0.01875824,-0.12643772,0.00177853,-0.00058053,0
 .00049702,-0.00208475,-0.00414664,0.00177775,0.00022690,-0.00022081,-0
 .00002414,-0.00002321,-0.00011449,0.00001849,0.00187292,0.00091382,0.0
 0195995,-0.00080118,-0.00101550,-0.00026542,0.00010010,0.00070588,-0.0
 0030147,0.00006767,-0.00000458,0.00010978,-0.00766951,0.00942910,-0.00
 929683,0.01084532,-0.00069631,0.02226954,-0.01505054,0.00249337,-0.019
 27481,-0.00005910,0.00006820,0.00009802,-0.00005290,0.00004936,-0.0000
 1867,-0.00016244,-0.00003084,-0.00027253,-0.00105027,0.00038604,-0.001
 08963,0.00006007,-0.00002291,-0.00017647,0.00000490,0.00001689,-0.0000
 0942,0.00001425,0.00001828,-0.00003592,-0.00015916,0.00008512,-0.00025
 723,-0.00033319,0.00023480,-0.00040616,-0.00096717,-0.00135424,0.00092
 482,-0.00000542,-0.00000861,0.00017845,-0.00004085,0.00001734,0.000047
 68,-0.00000327,0.00000542,-0.00000420,0.00050248,0.00055761,0.00025290
 ,0.00066539,-0.00036432,0.00012199,0.16472968,0.00019151,-0.00059748,0
 .00035371,0.01162173,-0.05129016,0.02176044,-0.00039501,-0.00038328,0.
 00077525,-0.00269150,-0.00283364,0.00122106,0.00006842,-0.00000940,0.0
 0016537,-0.00002070,0.00006032,-0.00000686,-0.00086590,-0.00472026,-0.
 00327242,-0.00005698,-0.00037100,0.00037917,-0.00005297,0.00004708,-0.
 00019959,-0.00008361,0.00009129,-0.00011312,0.03087208,-0.02056206,0.0
 2995550,-0.00141593,0.00476562,-0.00813430,-0.01359034,0.00524207,-0.0
 1583959,0.00002721,0.00011501,-0.00002589,0.00019825,0.00036356,-0.000
 01019,0.00003169,-0.00007128,-0.00004669,-0.00096671,0.00036724,-0.000
 92942,0.00017714,-0.00003943,-0.00003885,0.00001324,-0.00001447,-0.000
 00362,-0.00000417,0.00000208,0.,0.00005574,-0.00008543,0.00039527,0.00
 118610,-0.00058466,0.00125774,-0.00106610,-0.00101239,0.00042984,0.000
 01293,0.00002951,-0.00007778,0.00007327,0.00000125,-0.00001227,0.00004
 224,0.00001056,0.00000682,0.00064348,0.00064433,0.00039566,0.00104642,
 0.00048212,0.00007250,-0.02569636,0.07049529,-0.00003150,0.00004243,-0
 .00012315,-0.12210113,0.02963455,-0.20526145,-0.00437034,-0.00170229,0
 .00051773,0.00066118,0.00050850,0.00085501,-0.00002895,-0.00035384,0.0
 0051383,0.00003749,0.00002233,-0.00006543,0.00067429,-0.00071315,0.002
 42675,0.00021701,-0.00021037,-0.00046075,0.00069056,0.00059186,-0.0010
 3228,0.00002511,0.00013443,0.00047108,-0.00179681,0.00230443,0.0031005
 2,-0.00479614,-0.00094065,-0.03998537,0.00113391,-0.00060101,0.0035205
 3,0.00000084,0.00000006,-0.00002338,-0.00001070,-0.00003180,-0.0000585
 6,0.00049496,0.00015839,0.00016653,0.00017956,0.00003764,0.00005054,0.
 00015492,0.00003086,0.00015181,-0.00001410,0.00000405,0.00001036,0.000
 03800,0.00000162,-0.00000479,0.00020994,-0.00021898,0.00013417,-0.0000
 9783,-0.00002879,-0.00007045,0.00018438,0.00055941,0.00083343,-0.00008
 986,-0.00012762,0.00021210,-0.00017486,-0.00002573,0.00002980,0.000085
 17,0.00000582,-0.00000738,-0.00029986,-0.00034308,0.00065407,-0.000350
 51,-0.00010542,-0.00002990,0.12921890,-0.02825318,0.23257957,0.0000004
 8,0.00000823,0.00001691,-0.00076384,0.00046523,-0.00010346,0.00440746,
 0.00364598,-0.01949957,0.00003807,0.00003103,-0.00003769,-0.02710105,-
 0.01194702,0.03711414,0.00221580,0.00433486,0.00458802,-0.00004987,0.0
 0002373,-0.00005134,0.00038596,-0.00126064,0.00011102,-0.05165641,-0.0
 0546208,0.03070490,-0.00034118,-0.00040125,-0.00052787,0.00003140,-0.0
 0006078,0.00000110,0.00226448,-0.00136813,0.00142961,0.00004159,-0.000
 09342,0.00021600,-0.00000009,-0.00000081,-0.00000258,0.00000549,-0.000
 00576,0.00000165,-0.00223078,0.00321706,-0.00111602,0.00002066,-0.0000
 0347,0.00001634,0.00000121,-0.00000085,0.00000090,0.00002400,0.0001242
 3,-0.00040664,0.00046528,0.00000647,-0.00144977,0.00001676,-0.00000234
 ,0.00000518,0.00000022,-0.00000825,0.00000253,0.00007087,0.00009295,0.
 00047587,-0.00011338,-0.00014487,0.00018137,-0.00009052,0.00007121,-0.
 00004262,0.00024373,-0.00023681,-0.00000660,-0.00001766,-0.00000024,-0
 .00000829,0.00000892,-0.00002982,-0.00000827,-0.00117198,0.00063937,0.
 00023999,0.07077777,0.00000406,-0.00000224,-0.00001135,0.00037898,0.00
 004801,0.00028767,-0.00353930,-0.00444935,0.02736831,-0.00005651,-0.00
 006687,0.00003145,-0.00653398,0.00046165,0.00546271,-0.00029477,0.0007
 0826,0.00302345,0.00003357,0.00000089,0.00007303,-0.00060566,0.0017354
 0,0.00095884,-0.00403689,-0.05891277,0.02981416,0.00002532,-0.00031925
 ,-0.00015682,-0.00011000,0.00005661,-0.00012658,-0.00059238,0.00103315
 ,-0.00187701,-0.00002455,0.00011410,-0.00025156,-0.00000078,0.00000047
 ,0.00000305,-0.00000684,0.00000032,-0.00000219,0.00270471,-0.00315579,
 0.00173279,-0.00002553,0.00000628,-0.00002016,0.00000303,-0.00000107,0
 .00000050,0.00008602,0.00003583,-0.00016059,0.00011697,0.00025725,-0.0
 0027187,-0.00001919,0.00000807,-0.00000182,-0.00001161,0.00001288,-0.0
 0000655,0.00019617,-0.00032823,-0.00058060,0.00012608,0.00024872,-0.00
 041924,0.00003040,0.00007851,-0.00014419,0.00000277,-0.00003706,-0.000
 03286,0.00002979,0.00000712,0.00000750,0.00002503,-0.00003111,0.000006
 16,0.00073677,-0.00012056,-0.00042590,0.00671833,0.05728498,-0.0000061
 6,-0.00001075,0.00001533,-0.00014193,-0.00025457,-0.00155519,0.0027729
 7,0.00145452,-0.01423153,0.00004314,0.00006074,-0.00001477,0.01149392,
 0.00222325,-0.00151518,-0.00144711,-0.00125957,0.00190320,0.00003315,-
 0.00007309,-0.00008902,0.00003122,-0.00079262,0.00063619,0.03395396,0.
 03090234,-0.28368527,0.00020617,0.00002278,0.00006455,0.00022223,-0.00
 009624,0.00049687,-0.00131699,-0.00020174,0.00139502,-0.00007157,-0.00
 000643,0.00022561,-0.00000078,-0.00000021,-0.00000205,0.00000818,0.000
 00276,0.00000089,-0.00130271,0.00202930,0.00028548,0.00001503,-0.00000
 476,0.00001971,0.00000321,0.00000206,0.00001611,0.00010788,0.00015724,
 0.00043568,0.00054815,0.00138204,0.00028533,0.00000599,-0.00000937,0.0
 0001698,0.00002609,-0.00001403,0.00002837,0.00028857,0.00065123,0.0004
 8724,-0.00017060,0.00000976,0.00022776,-0.00011446,-0.00008033,-0.0001
 9256,0.00004474,0.00010412,-0.00000789,-0.00003612,-0.00003074,0.00000
 476,-0.00003399,0.00002155,-0.00000265,0.00038002,-0.00017943,0.000729
 79,-0.04715292,-0.03848128,0.30826616,-0.00000504,0.00000649,-0.000006
 66,-0.00003462,0.00007437,0.00023912,0.00326713,0.01547748,0.01004696,
 -0.00000786,-0.00000922,0.00001061,-0.01766931,-0.03687114,-0.01992557
 ,-0.00539430,0.00156403,0.00295257,0.00003608,-0.00001854,0.00003419,-
 0.00266570,0.00285416,-0.00189865,-0.05279840,-0.03119026,-0.01808771,
 -0.00065345,-0.00052275,-0.00033358,-0.00009997,-0.00010229,-0.0000882
 8,0.00216130,-0.00009351,0.00013453,-0.00002669,0.00002247,-0.00000971
 ,-0.00000054,-0.00000135,0.00000107,-0.00000520,-0.00000308,-0.0000017
 4,0.00070693,-0.00081040,-0.00004985,-0.00000439,-0.00000002,-0.000004
 18,0.00000097,0.00000009,-0.00000515,-0.00062745,-0.00169270,-0.000709
 44,0.00006910,0.00005190,-0.00027589,0.00000587,0.00000071,-0.00000151
 ,-0.00000326,0.00000611,-0.00000486,-0.00005152,-0.00024211,-0.0001264
 0,0.00045630,0.00125488,0.00039137,0.00010342,-0.00000215,0.00002982,0
 .00025030,-0.00019108,0.00009926,-0.00000357,-0.00000254,0.00000121,0.
 00001571,-0.00001878,0.00000022,0.00006814,0.00000546,-0.00008363,0.00
 251660,0.00463999,0.00161074,0.07039341,0.00000008,-0.00000142,0.00000
 504,0.00001189,0.00006180,-0.00003920,-0.00418372,-0.02251975,-0.01360
 956,0.00001161,0.00001386,-0.00001599,-0.00681282,-0.00509075,-0.00255
 895,-0.00026774,0.00231042,0.00178164,-0.00005281,0.00004004,-0.000022
 19,0.00361203,-0.00208803,0.00315150,-0.03844600,-0.24226570,-0.115369
 63,0.00036347,0.00036031,-0.00016700,-0.00004089,0.00014184,0.00009711
 ,-0.00059314,0.00228161,0.00039180,0.00004211,-0.00003274,-0.00002254,
 0.00000266,0.00000155,-0.00000206,0.00000652,0.00000064,0.00000254,-0.
 00048889,0.00111613,0.00013688,0.00000969,0.00000031,0.00000605,-0.000
 00414,-0.00000092,-0.00000008,-0.00008379,-0.00027762,-0.00023039,0.00
 006409,-0.00006959,-0.00019013,-0.00000588,-0.00000505,-0.00000719,0.0
 0000291,-0.00000577,-0.00000201,0.00003702,0.00015633,-0.00005012,-0.0
 0046611,-0.00139726,-0.00067360,-0.00009027,0.00000127,0.00006374,-0.0
 0008452,-0.00006625,-0.00003000,0.00001666,0.00000706,-0.00000384,0.00
 002928,-0.00000952,-0.00000781,-0.00005094,-0.00002181,0.00004543,0.00
 164787,0.00532583,0.00247150,0.04581378,0.26203319,-0.00000292,-0.0000
 0141,0.00001039,-0.00016959,0.00003071,-0.00024169,0.00085059,0.013044
 79,0.00652728,0.00002084,0.00003632,-0.00000980,0.00113322,0.00547566,
 0.00411246,0.00054570,0.00081374,0.00065874,-0.00002998,-0.00000468,-0
 .00006050,-0.00163251,0.00123900,-0.00027815,-0.02472252,-0.11957129,-
 0.12430798,0.00001170,-0.00001483,-0.00005299,0.00017528,-0.00016976,0
 .00008227,0.00156158,-0.00037878,-0.00019062,0.00002311,-0.00007813,0.
 00007995,0.00000067,-0.00000080,-0.00000342,0.00000700,0.00000160,0.00
 000210,0.00073052,-0.00043456,0.00092296,0.00001502,-0.00000134,0.0000
 0976,0.00000082,-0.00000432,-0.00000178,-0.00000427,-0.00012585,0.0003
 2624,0.00013896,0.00028082,0.00046293,0.00000618,0.00000488,0.00000794
 ,0.00001264,-0.00000925,0.00000858,-0.00002537,0.00035948,0.00030080,-
 0.00001707,0.00051424,0.00041940,0.00003399,-0.00002741,-0.00001081,-0
 .00002759,-0.00002860,-0.00002793,0.00000229,0.00000791,-0.00000397,0.
 00000509,0.00001694,-0.00000282,-0.00001265,-0.00002511,0.00016526,-0.
 00469190,-0.02579904,-0.01424491,0.02606116,0.12484908,0.12534031\\-0.
 00000271,-0.00000696,-0.00000009,-0.00047710,0.00140738,-0.00052019,-0
 .00062639,0.00166059,-0.00198124,-0.00000715,-0.00001464,-0.00000263,-
 0.00000313,0.00000567,0.00000688,0.00000822,-0.00000818,-0.00000361,0.
 00002284,-0.00000673,0.00002953,0.00029168,-0.00068397,0.00116127,0.00
 000074,-0.00000164,-0.00000765,-0.00000537,0.00000073,-0.00001367,-0.0
 0001158,0.00002037,-0.00001064,0.00082631,-0.00237499,0.00132925,-0.00
 002637,-0.00001324,-0.00000671,0.00000369,-0.00000409,-0.00001079,0.00
 000495,0.00001118,0.00000188,0.00000263,0.00000193,0.00000849,0.000010
 30,0.00000367,-0.00000374,-0.00000219,-0.00000032,0.00001301,-0.000012
 73,-0.00000288,0.00000814,0.00000153,0.00000633,-0.00000852,-0.0000095
 5,0.00000499,0.00000444,0.00000096,-0.00000962,-0.00000214,-0.00001049
 ,-0.00000353,0.00000220,0.00000323,-0.00000618,0.00001329,-0.00000122,
 -0.00000250,0.00001787,0.00000213,0.00000038,0.00000175,0.00000295,-0.
 00000413,-0.00001604,0.00000824,0.00000322,0.00000811,0.00000290,0.000
 00241,-0.00002094,-0.00000087,0.00000048,-0.00000977,0.00000354,0.0000
 1428,0.00001227\\\@


 THE MOST INCOMPREHENSIBLE THING ABOUT THE WORLD
 IS THAT IT IS COMPREHENSIBLE. -- A. EINSTEIN
 Job cpu time:       0 days 14 hours 36 minutes 15.4 seconds.
 Elapsed time:       0 days  0 hours 54 minutes 47.4 seconds.
 File lengths (MBytes):  RWF=    683 Int=      0 D2E=      0 Chk=     33 Scr=      1
 Normal termination of Gaussian 16 at Sun Nov  4 22:51:01 2018.
